<event>
 4    1  0.1589319E+006  0.3592922E+02  0.7546771E-02  0.1374146E+00
         21   -1    0    0  503  501  0.00000000000E+00  0.00000000000E+00  0.21663459949E+03  0.21663459949E+03  0.00000000000E+00 0.  1.
         21   -1    0    0  501  502 -0.00000000000E+00 -0.00000000000E+00 -0.72426944336E+01  0.72426944336E+01  0.00000000000E+00 0.  1.
         21    1    1    2  503  504 -0.35928908859E+02  0.15011907827E+00  0.15182337894E+03  0.15601681775E+03  0.00000000000E+00 0.  1.
         21    1    1    2  504  502  0.35928908859E+02 -0.15011907827E+00  0.57568526113E+02  0.67860476172E+02  0.00000000000E+00 0.  1.
</event>
<event>
 4    1  0.1589319E+006  0.5177877E+02  0.7546771E-02  0.1290639E+00
         21   -1    0    0  503  501  0.00000000000E+00  0.00000000000E+00  0.44769240540E+02  0.44769240540E+02  0.00000000000E+00 0.  1.
         21   -1    0    0  501  502 -0.00000000000E+00 -0.00000000000E+00 -0.11136539407E+03  0.11136539407E+03  0.00000000000E+00 0.  1.
         21    1    1    2  503  504  0.51214915398E+02 -0.76205740712E+01  0.19779585270E+02  0.55428085857E+02  0.00000000000E+00 0.  1.
         21    1    1    2  504  502 -0.51214915398E+02  0.76205740712E+01 -0.86375738802E+02  0.10070654875E+03  0.00000000000E+00 0.  1.
</event>
<event>
 4    1  0.1589319E+006  0.2383435E+02  0.7546771E-02  0.1482279E+00
         21   -1    0    0  504  501  0.00000000000E+00  0.00000000000E+00  0.21774465386E+03  0.21774465386E+03  0.00000000000E+00 0. -1.
         21   -1    0    0  503  502 -0.00000000000E+00 -0.00000000000E+00 -0.32926499326E+01  0.32926499326E+01  0.00000000000E+00 0. -1.
         21    1    1    2  503  501 -0.85313772150E+01  0.22255153916E+02  0.15758860535E+03  0.15938081694E+03  0.00000000000E+00 0. -1.
         21    1    1    2  504  502  0.85313772150E+01 -0.22255153916E+02  0.56863398582E+02  0.61656486855E+02  0.00000000000E+00 0. -1.
</event>
<event>
 4    1  0.1589319E+006  0.2004561E+02  0.7546771E-02  0.1533340E+00
         21   -1    0    0  504  501  0.00000000000E+00  0.00000000000E+00  0.80897512598E+02  0.80897512598E+02  0.00000000000E+00 0.  1.
         21   -1    0    0  503  502 -0.00000000000E+00 -0.00000000000E+00 -0.16038622292E+02  0.16038622292E+02  0.00000000000E+00 0. -1.
         21    1    1    2  503  501 -0.84931553651E+01 -0.18157447850E+02  0.72698895876E+02  0.75411909286E+02  0.00000000000E+00 0.  1.
         21    1    1    2  504  502  0.84931553651E+01  0.18157447850E+02 -0.78400055710E+01  0.21524225604E+02  0.00000000000E+00 0. -1.
</event>
<event>
 4    1  0.1589319E+006  0.3104245E+02  0.7546771E-02  0.1410749E+00
         21   -1    0    0  502  501  0.00000000000E+00  0.00000000000E+00  0.31007686241E+03  0.31007686241E+03  0.00000000000E+00 0.  1.
         21   -1    0    0  504  502 -0.00000000000E+00 -0.00000000000E+00 -0.58183797109E+01  0.58183797109E+01  0.00000000000E+00 0. -1.
         21    1    1    2  503  501  0.22685941298E+02 -0.21189190891E+02  0.25993677891E+03  0.26178380923E+03  0.00000000000E+00 0.  1.
         21    1    1    2  504  503 -0.22685941298E+02  0.21189190891E+02  0.44321703794E+02  0.54111432899E+02  0.00000000000E+00 0. -1.
</event>
<event>
 4    1  0.1589319E+006  0.4376742E+02  0.7546771E-02  0.1327719E+00
         21   -1    0    0  503  501  0.00000000000E+00  0.00000000000E+00  0.11479614012E+03  0.11479614012E+03  0.00000000000E+00 0.  1.
         21   -1    0    0  501  502 -0.00000000000E+00 -0.00000000000E+00 -0.59760890649E+02  0.59760890649E+02  0.00000000000E+00 0.  1.
         21    1    1    2  503  504 -0.41300954361E+02  0.14485097817E+02  0.10161564180E+03  0.11064052399E+03  0.00000000000E+00 0.  1.
         21    1    1    2  504  502  0.41300954361E+02 -0.14485097817E+02 -0.46580392327E+02  0.63916506782E+02  0.00000000000E+00 0.  1.
</event>
<event>
 4    1  0.1589319E+006  0.2072562E+02  0.7546771E-02  0.1523219E+00
         21   -1    0    0  504  501  0.00000000000E+00  0.00000000000E+00  0.16913276419E+02  0.16913276419E+02  0.00000000000E+00 0. -1.
         21   -1    0    0  503  502 -0.00000000000E+00 -0.00000000000E+00 -0.33265338878E+02  0.33265338878E+02  0.00000000000E+00 0. -1.
         21    1    1    2  503  501 -0.20718960124E+02  0.52530975395E+00  0.40258398733E+01  0.21112997078E+02  0.00000000000E+00 0. -1.
         21    1    1    2  504  502  0.20718960124E+02 -0.52530975395E+00 -0.20377902332E+02  0.29065618218E+02  0.00000000000E+00 0. -1.
</event>
<event>
 4    1  0.1589319E+006  0.2135542E+02  0.7546771E-02  0.1514250E+00
         21   -1    0    0  502  501  0.00000000000E+00  0.00000000000E+00  0.56567787110E+02  0.56567787110E+02  0.00000000000E+00 0.  1.
         21   -1    0    0  504  502 -0.00000000000E+00 -0.00000000000E+00 -0.14068309035E+02  0.14068309035E+02  0.00000000000E+00 0.  1.
         21    1    1    2  503  501  0.54192726447E+01 -0.20656362503E+02  0.44326604285E+02  0.49202659230E+02  0.00000000000E+00 0.  1.
         21    1    1    2  504  503 -0.54192726447E+01  0.20656362503E+02 -0.18271262094E+01  0.21433436916E+02  0.00000000000E+00 0.  1.
</event>
<event>
 4    1  0.1589319E+006  0.2134295E+02  0.7546771E-02  0.1514424E+00
         21   -1    0    0  503  501  0.00000000000E+00  0.00000000000E+00  0.30734702784E+03  0.30734702784E+03  0.00000000000E+00 0.  1.
         21   -1    0    0  504  502 -0.00000000000E+00 -0.00000000000E+00 -0.54350858250E+01  0.54350858250E+01  0.00000000000E+00 0.  1.
         21    1    1    2  503  502 -0.97105962306E+01  0.19005942033E+02  0.28432988501E+03  0.28512980382E+03  0.00000000000E+00 0.  1.
         21    1    1    2  504  501  0.97105962306E+01 -0.19005942033E+02  0.17582057005E+02  0.27652309854E+02  0.00000000000E+00 0.  1.
</event>
<event>
 4    1  0.1589319E+006  0.4170935E+02  0.7546771E-02  0.1338750E+00
         21   -1    0    0  503  501  0.00000000000E+00  0.00000000000E+00  0.67003319198E+01  0.67003319198E+01  0.00000000000E+00 0.  1.
         21   -1    0    0  504  502 -0.00000000000E+00 -0.00000000000E+00 -0.25968057006E+03  0.25968057006E+03  0.00000000000E+00 0.  1.
         21    1    1    2  503  502 -0.36018597972E+02 -0.21031649398E+02 -0.12816862993E+03  0.13478452201E+03  0.00000000000E+00 0.  1.
         21    1    1    2  504  501  0.36018597972E+02  0.21031649398E+02 -0.12481160822E+03  0.13159637997E+03  0.00000000000E+00 0.  1.
</event>
<event>
 4    1  0.1589319E+006  0.2154188E+02  0.7546771E-02  0.1511667E+00
         21   -1    0    0  504  501  0.00000000000E+00  0.00000000000E+00  0.12298772304E+01  0.12298772304E+01  0.00000000000E+00 0.  1.
         21   -1    0    0  503  502 -0.00000000000E+00 -0.00000000000E+00 -0.41412471064E+03  0.41412471064E+03  0.00000000000E+00 0.  1.
         21    1    1    2  503  501 -0.19915115739E+02 -0.82122200952E+01 -0.14453203283E+03  0.14612857663E+03  0.00000000000E+00 0.  1.
         21    1    1    2  504  502  0.19915115739E+02  0.82122200952E+01 -0.26836280058E+03  0.26922601124E+03  0.00000000000E+00 0.  1.
</event>
<event>
 4    1  0.1589319E+006  0.2398678E+02  0.7546771E-02  0.1480465E+00
         21   -1    0    0  504  501  0.00000000000E+00  0.00000000000E+00  0.83521697300E+03  0.83521697300E+03  0.00000000000E+00 0.  1.
         21   -1    0    0  503  502 -0.00000000000E+00 -0.00000000000E+00 -0.99905441998E+00  0.99905441998E+00  0.00000000000E+00 0.  1.
         21    1    1    2  503  501 -0.15053458987E+01 -0.23939492845E+02  0.65007679933E+03  0.65051918527E+03  0.00000000000E+00 0.  1.
         21    1    1    2  504  502  0.15053458987E+01  0.23939492845E+02  0.18414111926E+03  0.18569684215E+03  0.00000000000E+00 0.  1.
</event>
<event>
 4    1  0.1589319E+006  0.2176782E+02  0.7546771E-02  0.1508579E+00
         21   -1    0    0  504  501  0.00000000000E+00  0.00000000000E+00  0.19096050316E+02  0.19096050316E+02  0.00000000000E+00 0.  1.
         21   -1    0    0  503  502 -0.00000000000E+00 -0.00000000000E+00 -0.68734702259E+02  0.68734702259E+02  0.00000000000E+00 0. -1.
         21    1    1    2  503  501 -0.16027600915E+02  0.14729353966E+02 -0.59924101812E+02  0.63755280858E+02  0.00000000000E+00 0. -1.
         21    1    1    2  504  502  0.16027600915E+02 -0.14729353966E+02  0.10285449869E+02  0.24075471716E+02  0.00000000000E+00 0.  1.
</event>
<event>
 4    1  0.1589319E+006  0.3605164E+02  0.7546771E-02  0.1373317E+00
         21   -1    0    0  503  501  0.00000000000E+00  0.00000000000E+00  0.14429938859E+02  0.14429938859E+02  0.00000000000E+00 0.  1.
         21   -1    0    0  504  502 -0.00000000000E+00 -0.00000000000E+00 -0.38606287346E+03  0.38606287346E+03  0.00000000000E+00 0.  1.
         21    1    1    2  503  502 -0.28291063492E+02  0.22345830884E+02 -0.10478675294E+02  0.37543615533E+02  0.00000000000E+00 0.  1.
         21    1    1    2  504  501  0.28291063492E+02 -0.22345830884E+02 -0.36115425930E+03  0.36294919678E+03  0.00000000000E+00 0.  1.
</event>
<event>
 4    1  0.1589319E+006  0.2710921E+02  0.7546771E-02  0.1446514E+00
         21   -1    0    0  502  501  0.00000000000E+00  0.00000000000E+00  0.49034794262E+01  0.49034794262E+01  0.00000000000E+00 0.  1.
         21   -1    0    0  504  502 -0.00000000000E+00 -0.00000000000E+00 -0.38214074693E+03  0.38214074693E+03  0.00000000000E+00 0. -1.
         21    1    1    2  503  501 -0.22500248809E+02 -0.15121114278E+02 -0.37745661064E+02  0.46471972442E+02  0.00000000000E+00 0.  1.
         21    1    1    2  504  503  0.22500248809E+02  0.15121114278E+02 -0.33949160644E+03  0.34057225391E+03  0.00000000000E+00 0. -1.
</event>
<event>
 4    1  0.1589319E+006  0.2877848E+02  0.7546771E-02  0.1430517E+00
         21   -1    0    0  504  501  0.00000000000E+00  0.00000000000E+00  0.17464183748E+02  0.17464183748E+02  0.00000000000E+00 0.  1.
         21   -1    0    0  503  502 -0.00000000000E+00 -0.00000000000E+00 -0.68221219221E+02  0.68221219221E+02  0.00000000000E+00 0.  1.
         21    1    1    2  503  501 -0.28739624087E+02 -0.14950175298E+01 -0.49034006646E+02  0.56855385654E+02  0.00000000000E+00 0.  1.
         21    1    1    2  504  502  0.28739624087E+02  0.14950175298E+01 -0.17230288269E+01  0.28830017315E+02  0.00000000000E+00 0.  1.
</event>
<event>
 4    1  0.1589319E+006  0.2682919E+02  0.7546771E-02  0.1449332E+00
         21   -1    0    0  503  501  0.00000000000E+00  0.00000000000E+00  0.42907879813E+02  0.42907879813E+02  0.00000000000E+00 0. -1.
         21   -1    0    0  501  502 -0.00000000000E+00 -0.00000000000E+00 -0.16857089654E+02  0.16857089654E+02  0.00000000000E+00 0. -1.
         21    1    1    2  503  504  0.26816679569E+02  0.81919377142E+00  0.15103079419E+02  0.30788120915E+02  0.00000000000E+00 0. -1.
         21    1    1    2  504  502 -0.26816679569E+02 -0.81919377142E+00  0.10947710740E+02  0.28976848551E+02  0.00000000000E+00 0. -1.
</event>
<event>
 4    1  0.1589319E+006  0.3716904E+02  0.7546771E-02  0.1365924E+00
         21   -1    0    0  504  501  0.00000000000E+00  0.00000000000E+00  0.68674608960E+02  0.68674608960E+02  0.00000000000E+00 0.  1.
         21   -1    0    0  501  502 -0.00000000000E+00 -0.00000000000E+00 -0.31141063025E+02  0.31141063025E+02  0.00000000000E+00 0. -1.
         21    1    1    2  503  502  0.36835676435E+02  0.49669554953E+01 -0.10927303784E+02  0.38742014317E+02  0.00000000000E+00 0. -1.
         21    1    1    2  504  503 -0.36835676435E+02 -0.49669554953E+01  0.48460849719E+02  0.61073657667E+02  0.00000000000E+00 0.  1.
</event>
<event>
 4    1  0.1589319E+006  0.2152588E+02  0.7546771E-02  0.1511887E+00
         21   -1    0    0  503  501  0.00000000000E+00  0.00000000000E+00  0.16556686789E+02  0.16556686789E+02  0.00000000000E+00 0.  1.
         21   -1    0    0  504  502 -0.00000000000E+00 -0.00000000000E+00 -0.36700725525E+02  0.36700725525E+02  0.00000000000E+00 0.  1.
         21    1    1    2  503  502 -0.92751382821E+01  0.19425125539E+02 -0.23047611088E+02  0.31536583030E+02  0.00000000000E+00 0.  1.
         21    1    1    2  504  501  0.92751382821E+01 -0.19425125539E+02  0.29035723521E+01  0.21720829283E+02  0.00000000000E+00 0.  1.
</event>
<event>
 4    1  0.1589319E+006  0.2309092E+02  0.7546771E-02  0.1491360E+00
         21   -1    0    0  504  501  0.00000000000E+00  0.00000000000E+00  0.65338491949E+01  0.65338491949E+01  0.00000000000E+00 0. -1.
         21   -1    0    0  503  502 -0.00000000000E+00 -0.00000000000E+00 -0.73348602849E+03  0.73348602849E+03  0.00000000000E+00 0.  1.
         21    1    1    2  503  501 -0.12297749091E+02  0.19543696802E+02 -0.71229646433E+03  0.71267064189E+03  0.00000000000E+00 0.  1.
         21    1    1    2  504  502  0.12297749091E+02 -0.19543696802E+02 -0.14655714968E+02  0.27349235796E+02  0.00000000000E+00 0. -1.
</event>
<event>
 4    1  0.1589319E+006  0.2164939E+02  0.7546771E-02  0.1510192E+00
         21   -1    0    0  504  501  0.00000000000E+00  0.00000000000E+00  0.14290032376E+01  0.14290032376E+01  0.00000000000E+00 0. -1.
         21   -1    0    0  503  502 -0.00000000000E+00 -0.00000000000E+00 -0.33178446110E+03  0.33178446110E+03  0.00000000000E+00 0. -1.
         21    1    1    2  503  501  0.34592337942E+01  0.21371237736E+02 -0.18299932191E+03  0.18427546750E+03  0.00000000000E+00 0. -1.
         21    1    1    2  504  502 -0.34592337942E+01 -0.21371237736E+02 -0.14735613595E+03  0.14893799684E+03  0.00000000000E+00 0. -1.
</event>
<event>
 4    1  0.1589319E+006  0.2016906E+02  0.7546771E-02  0.1531467E+00
         21   -1    0    0  504  501  0.00000000000E+00  0.00000000000E+00  0.12622253148E+01  0.12622253148E+01  0.00000000000E+00 0.  1.
         21   -1    0    0  503  502 -0.00000000000E+00 -0.00000000000E+00 -0.59532171672E+03  0.59532171672E+03  0.00000000000E+00 0.  1.
         21    1    1    2  503  501 -0.13392359112E+02 -0.15080969354E+02 -0.49904288085E+03  0.49945028566E+03  0.00000000000E+00 0.  1.
         21    1    1    2  504  502  0.13392359112E+02  0.15080969354E+02 -0.95016610556E+02  0.97133656375E+02  0.00000000000E+00 0.  1.
</event>
<event>
 4    1  0.1589319E+006  0.3214786E+02  0.7546771E-02  0.1401806E+00
         21   -1    0    0  503  501  0.00000000000E+00  0.00000000000E+00  0.16483726400E+03  0.16483726400E+03  0.00000000000E+00 0. -1.
         21   -1    0    0  504  502 -0.00000000000E+00 -0.00000000000E+00 -0.35752017499E+02  0.35752017499E+02  0.00000000000E+00 0.  1.
         21    1    1    2  503  502 -0.13629987101E+02 -0.29115428575E+02  0.15561948481E+03  0.15890534536E+03  0.00000000000E+00 0. -1.
         21    1    1    2  504  501  0.13629987101E+02  0.29115428575E+02 -0.26534238312E+02  0.41683936142E+02  0.00000000000E+00 0.  1.
</event>
<event>
 4    1  0.1589319E+006  0.2831334E+02  0.7546771E-02  0.1434843E+00
         21   -1    0    0  503  501  0.00000000000E+00  0.00000000000E+00  0.13689847456E+02  0.13689847456E+02  0.00000000000E+00 0.  1.
         21   -1    0    0  504  502 -0.00000000000E+00 -0.00000000000E+00 -0.11295184723E+03  0.11295184723E+03  0.00000000000E+00 0.  1.
         21    1    1    2  503  502 -0.26692232402E+02  0.94429907415E+01 -0.56893539386E+01  0.28879302156E+02  0.00000000000E+00 0.  1.
         21    1    1    2  504  501  0.26692232402E+02 -0.94429907415E+01 -0.93572645834E+02  0.97762392529E+02  0.00000000000E+00 0.  1.
</event>
<event>
 4    1  0.1589319E+006  0.2835875E+02  0.7546771E-02  0.1434417E+00
         21   -1    0    0  502  501  0.00000000000E+00  0.00000000000E+00  0.22798339356E+02  0.22798339356E+02  0.00000000000E+00 0.  1.
         21   -1    0    0  503  502 -0.00000000000E+00 -0.00000000000E+00 -0.96531056890E+02  0.96531056890E+02  0.00000000000E+00 0.  1.
         21    1    1    2  503  504 -0.24234914654E+02 -0.14727104640E+02 -0.84395208515E+02  0.89032409378E+02  0.00000000000E+00 0.  1.
         21    1    1    2  504  501  0.24234914654E+02  0.14727104640E+02  0.10662490981E+02  0.30296986868E+02  0.00000000000E+00 0.  1.
</event>
<event>
 4    1  0.1589319E+006  0.2031944E+02  0.7546771E-02  0.1529207E+00
         21   -1    0    0  503  501  0.00000000000E+00  0.00000000000E+00  0.10977688886E+01  0.10977688886E+01  0.00000000000E+00 0. -1.
         21   -1    0    0  504  502 -0.00000000000E+00 -0.00000000000E+00 -0.44193498680E+03  0.44193498680E+03  0.00000000000E+00 0.  1.
         21    1    1    2  503  502  0.19695436711E+02  0.49969253036E+01 -0.30591133239E+03  0.30658542492E+03  0.00000000000E+00 0.  1.
         21    1    1    2  504  501 -0.19695436711E+02 -0.49969253036E+01 -0.13492588552E+03  0.13644733076E+03  0.00000000000E+00 0. -1.
</event>
<event>
 4    1  0.1589319E+006  0.2607455E+02  0.7546771E-02  0.1457133E+00
         21   -1    0    0  502  501  0.00000000000E+00  0.00000000000E+00  0.10575417960E+02  0.10575417960E+02  0.00000000000E+00 0. -1.
         21   -1    0    0  504  502 -0.00000000000E+00 -0.00000000000E+00 -0.10189004571E+03  0.10189004571E+03  0.00000000000E+00 0.  1.
         21    1    1    2  503  501 -0.25565185086E+02 -0.51286788939E+01 -0.11496845495E+02  0.28496657558E+02  0.00000000000E+00 0. -1.
         21    1    1    2  504  503  0.25565185086E+02  0.51286788939E+01 -0.79817782257E+02  0.83968806114E+02  0.00000000000E+00 0.  1.
</event>
<event>
 4    1  0.1589319E+006  0.3455748E+02  0.7546771E-02  0.1383701E+00
         21   -1    0    0  504  501  0.00000000000E+00  0.00000000000E+00  0.16821216162E+02  0.16821216162E+02  0.00000000000E+00 0.  1.
         21   -1    0    0  501  502 -0.00000000000E+00 -0.00000000000E+00 -0.70984239709E+03  0.70984239709E+03  0.00000000000E+00 0.  1.
         21    1    1    2  503  502 -0.11244048212E+02 -0.32677069316E+02 -0.69119454857E+03  0.69205789024E+03  0.00000000000E+00 0.  1.
         21    1    1    2  504  503  0.11244048212E+02  0.32677069316E+02 -0.18266323629E+01  0.34605723010E+02  0.00000000000E+00 0.  1.
</event>
<event>
 4    1  0.1589319E+006  0.2164285E+02  0.7546771E-02  0.1510281E+00
         21   -1    0    0  504  501  0.00000000000E+00  0.00000000000E+00  0.23811548922E+01  0.23811548922E+01  0.00000000000E+00 0. -1.
         21   -1    0    0  503  502 -0.00000000000E+00 -0.00000000000E+00 -0.41598053061E+03  0.41598053061E+03  0.00000000000E+00 0. -1.
         21    1    1    2  503  501 -0.25412875899E+00 -0.21641359085E+02 -0.54930778276E+02  0.59040692801E+02  0.00000000000E+00 0. -1.
         21    1    1    2  504  502  0.25412875899E+00  0.21641359085E+02 -0.35866859744E+03  0.35932099270E+03  0.00000000000E+00 0. -1.
</event>
<event>
 4    1  0.1589319E+006  0.2455470E+02  0.7546771E-02  0.1473847E+00
         21   -1    0    0  502  501  0.00000000000E+00  0.00000000000E+00  0.77376745923E+01  0.77376745923E+01  0.00000000000E+00 0.  1.
         21   -1    0    0  503  502 -0.00000000000E+00 -0.00000000000E+00 -0.30787427507E+03  0.30787427507E+03  0.00000000000E+00 0. -1.
         21    1    1    2  503  504 -0.11553540527E+02 -0.21666776982E+02 -0.28644990192E+03  0.28750039971E+03  0.00000000000E+00 0. -1.
         21    1    1    2  504  501  0.11553540527E+02  0.21666776982E+02 -0.13686698564E+02  0.28111549958E+02  0.00000000000E+00 0.  1.
</event>
<event>
 4    1  0.1589319E+006  0.2513321E+02  0.7546771E-02  0.1467319E+00
         21   -1    0    0  504  501  0.00000000000E+00  0.00000000000E+00  0.19574703291E+02  0.19574703291E+02  0.00000000000E+00 0.  1.
         21   -1    0    0  503  502 -0.00000000000E+00 -0.00000000000E+00 -0.32406158561E+02  0.32406158561E+02  0.00000000000E+00 0.  1.
         21    1    1    2  503  501 -0.51808799343E+01 -0.24593425469E+02 -0.47317935532E+01  0.25574752461E+02  0.00000000000E+00 0.  1.
         21    1    1    2  504  502  0.51808799343E+01  0.24593425469E+02 -0.80996617170E+01  0.26406109391E+02  0.00000000000E+00 0.  1.
</event>
<event>
 4    1  0.1589319E+006  0.2035087E+02  0.7546771E-02  0.1528738E+00
         21   -1    0    0  502  501  0.00000000000E+00  0.00000000000E+00  0.14127281779E+03  0.14127281779E+03  0.00000000000E+00 0. -1.
         21   -1    0    0  504  502 -0.00000000000E+00 -0.00000000000E+00 -0.14610974035E+02  0.14610974035E+02  0.00000000000E+00 0. -1.
         21    1    1    2  503  501  0.68939087185E+01 -0.19147638221E+02  0.13301616475E+03  0.13456395547E+03  0.00000000000E+00 0. -1.
         21    1    1    2  504  503 -0.68939087185E+01  0.19147638221E+02 -0.63543209960E+01  0.21319836355E+02  0.00000000000E+00 0. -1.
</event>
<event>
 4    1  0.1589319E+006  0.2076293E+02  0.7546771E-02  0.1522677E+00
         21   -1    0    0  503  501  0.00000000000E+00  0.00000000000E+00  0.60706039617E+02  0.60706039617E+02  0.00000000000E+00 0.  1.
         21   -1    0    0  504  502 -0.00000000000E+00 -0.00000000000E+00 -0.80326367334E+02  0.80326367334E+02  0.00000000000E+00 0.  1.
         21    1    1    2  503  502 -0.19835953686E+02 -0.61346724081E+01 -0.77137182562E+02  0.79882690226E+02  0.00000000000E+00 0.  1.
         21    1    1    2  504  501  0.19835953686E+02  0.61346724081E+01  0.57516854845E+02  0.61149716725E+02  0.00000000000E+00 0.  1.
</event>
<event>
 4    1  0.1589319E+006  0.2266741E+02  0.7546771E-02  0.1496717E+00
         21   -1    0    0  503  501  0.00000000000E+00  0.00000000000E+00  0.20506005398E+01  0.20506005398E+01  0.00000000000E+00 0. -1.
         21   -1    0    0  504  502 -0.00000000000E+00 -0.00000000000E+00 -0.29888238119E+03  0.29888238119E+03  0.00000000000E+00 0. -1.
         21    1    1    2  503  502  0.20673983824E+02 -0.92950414270E+01 -0.20891311610E+03  0.21013924307E+03  0.00000000000E+00 0. -1.
         21    1    1    2  504  501 -0.20673983824E+02  0.92950414270E+01 -0.87918664553E+02  0.90793738655E+02  0.00000000000E+00 0. -1.
</event>
<event>
 4    1  0.1589319E+006  0.3632980E+02  0.7546771E-02  0.1371448E+00
         21   -1    0    0  504  501  0.00000000000E+00  0.00000000000E+00  0.63146150181E+02  0.63146150181E+02  0.00000000000E+00 0.  1.
         21   -1    0    0  503  502 -0.00000000000E+00 -0.00000000000E+00 -0.99483872150E+02  0.99483872150E+02  0.00000000000E+00 0. -1.
         21    1    1    2  503  501  0.32581317907E+02  0.16072092898E+02 -0.90438639855E+02  0.97462823813E+02  0.00000000000E+00 0. -1.
         21    1    1    2  504  502 -0.32581317907E+02 -0.16072092898E+02  0.54100917886E+02  0.65167198519E+02  0.00000000000E+00 0.  1.
</event>
<event>
 4    1  0.1589319E+006  0.2321864E+02  0.7546771E-02  0.1489771E+00
         21   -1    0    0  503  501  0.00000000000E+00  0.00000000000E+00  0.13179067582E+02  0.13179067582E+02  0.00000000000E+00 0.  1.
         21   -1    0    0  504  502 -0.00000000000E+00 -0.00000000000E+00 -0.10034332282E+03  0.10034332282E+03  0.00000000000E+00 0.  1.
         21    1    1    2  503  502  0.95572072994E+01  0.21160460498E+02 -0.87267521697E+02  0.90303519549E+02  0.00000000000E+00 0.  1.
         21    1    1    2  504  501 -0.95572072994E+01 -0.21160460498E+02  0.10326645521E+00  0.23218870856E+02  0.00000000000E+00 0.  1.
</event>
<event>
 4    1  0.1589319E+006  0.2969204E+02  0.7546771E-02  0.1422292E+00
         21   -1    0    0  503  501  0.00000000000E+00  0.00000000000E+00  0.21707071352E+02  0.21707071352E+02  0.00000000000E+00 0. -1.
         21   -1    0    0  504  502 -0.00000000000E+00 -0.00000000000E+00 -0.47427315181E+02  0.47427315181E+02  0.00000000000E+00 0. -1.
         21    1    1    2  503  502 -0.29658823197E+02  0.14040525527E+01  0.24134852615E+00  0.29693019485E+02  0.00000000000E+00 0. -1.
         21    1    1    2  504  501  0.29658823197E+02 -0.14040525527E+01 -0.25961592355E+02  0.39441367048E+02  0.00000000000E+00 0. -1.
</event>
<event>
 4    1  0.1589319E+006  0.2121721E+02  0.7546771E-02  0.1516186E+00
         21   -1    0    0  502  501  0.00000000000E+00  0.00000000000E+00  0.29365196962E+03  0.29365196962E+03  0.00000000000E+00 0.  1.
         21   -1    0    0  503  502 -0.00000000000E+00 -0.00000000000E+00 -0.44689126919E+02  0.44689126919E+02  0.00000000000E+00 0.  1.
         21    1    1    2  503  504 -0.10006531879E+02  0.18709337326E+02 -0.41762213770E+02  0.46842848786E+02  0.00000000000E+00 0.  1.
         21    1    1    2  504  501  0.10006531879E+02 -0.18709337326E+02  0.29072505647E+03  0.29149824775E+03  0.00000000000E+00 0.  1.
</event>
<event>
 4    1  0.1589319E+006  0.2235385E+02  0.7546771E-02  0.1500775E+00
         21   -1    0    0  504  501  0.00000000000E+00  0.00000000000E+00  0.90621826671E+02  0.90621826671E+02  0.00000000000E+00 0.  1.
         21   -1    0    0  501  502 -0.00000000000E+00 -0.00000000000E+00 -0.11105507657E+02  0.11105507657E+02  0.00000000000E+00 0.  1.
         21    1    1    2  503  502 -0.20478540875E+02 -0.89623701341E+01  0.36670388441E+01  0.22652635358E+02  0.00000000000E+00 0.  1.
         21    1    1    2  504  503  0.20478540875E+02  0.89623701341E+01  0.75849280170E+02  0.79074698969E+02  0.00000000000E+00 0.  1.
</event>
<event>
 4    1  0.1589319E+006  0.2401847E+02  0.7546771E-02  0.1480090E+00
         21   -1    0    0  502  501  0.00000000000E+00  0.00000000000E+00  0.18821677351E+02  0.18821677351E+02  0.00000000000E+00 0.  1.
         21   -1    0    0  503  502 -0.00000000000E+00 -0.00000000000E+00 -0.22258730090E+03  0.22258730090E+03  0.00000000000E+00 0.  1.
         21    1    1    2  503  504  0.23282010959E+02  0.59021198425E+01 -0.21396917120E+03  0.21531301233E+03  0.00000000000E+00 0.  1.
         21    1    1    2  504  501 -0.23282010959E+02 -0.59021198425E+01  0.10203547651E+02  0.26095965926E+02  0.00000000000E+00 0.  1.
</event>
<event>
 4    1  0.1589319E+006  0.2114440E+02  0.7546771E-02  0.1517213E+00
         21   -1    0    0  504  501  0.00000000000E+00  0.00000000000E+00  0.14911768364E+01  0.14911768364E+01  0.00000000000E+00 0.  1.
         21   -1    0    0  503  502 -0.00000000000E+00 -0.00000000000E+00 -0.40364445938E+03  0.40364445938E+03  0.00000000000E+00 0.  1.
         21    1    1    2  503  501  0.20964891333E+02 -0.27493571752E+01 -0.30381187114E+03  0.30454677585E+03  0.00000000000E+00 0.  1.
         21    1    1    2  504  502 -0.20964891333E+02  0.27493571752E+01 -0.98341411400E+02  0.10058886037E+03  0.00000000000E+00 0.  1.
</event>
<event>
 4    1  0.1589319E+006  0.3043370E+02  0.7546771E-02  0.1415864E+00
         21   -1    0    0  503  501  0.00000000000E+00  0.00000000000E+00  0.25402833377E+02  0.25402833377E+02  0.00000000000E+00 0.  1.
         21   -1    0    0  504  502 -0.00000000000E+00 -0.00000000000E+00 -0.11652416139E+03  0.11652416139E+03  0.00000000000E+00 0.  1.
         21    1    1    2  503  502  0.13834540938E+01  0.30402237204E+02  0.13261862980E+02  0.33197695431E+02  0.00000000000E+00 0.  1.
         21    1    1    2  504  501 -0.13834540938E+01 -0.30402237204E+02 -0.10438319099E+03  0.10872929933E+03  0.00000000000E+00 0.  1.
</event>
<event>
 4    1  0.1589319E+006  0.2319531E+02  0.7546771E-02  0.1490060E+00
         21   -1    0    0  504  501  0.00000000000E+00  0.00000000000E+00  0.46123522475E+02  0.46123522475E+02  0.00000000000E+00 0. -1.
         21   -1    0    0  501  502 -0.00000000000E+00 -0.00000000000E+00 -0.58855776828E+02  0.58855776828E+02  0.00000000000E+00 0. -1.
         21    1    1    2  503  502  0.94726062583E+01  0.21172906040E+02 -0.53367284748E+02  0.58190113429E+02  0.00000000000E+00 0. -1.
         21    1    1    2  504  503 -0.94726062583E+01 -0.21172906040E+02  0.40635030395E+02  0.46789185874E+02  0.00000000000E+00 0. -1.
</event>
<event>
 4    1  0.1589319E+006  0.3688124E+02  0.7546771E-02  0.1367799E+00
         21   -1    0    0  503  501  0.00000000000E+00  0.00000000000E+00  0.14363761987E+03  0.14363761987E+03  0.00000000000E+00 0.  1.
         21   -1    0    0  504  502 -0.00000000000E+00 -0.00000000000E+00 -0.11912297928E+02  0.11912297928E+02  0.00000000000E+00 0.  1.
         21    1    1    2  503  502 -0.35888183190E+02  0.85008149554E+01  0.30645414570E+02  0.47951715108E+02  0.00000000000E+00 0.  1.
         21    1    1    2  504  501  0.35888183190E+02 -0.85008149554E+01  0.10107990737E+03  0.10759820269E+03  0.00000000000E+00 0.  1.
</event>
<event>
 4    1  0.1589319E+006  0.2336613E+02  0.7546771E-02  0.1487951E+00
         21   -1    0    0  502  501  0.00000000000E+00  0.00000000000E+00  0.40130843877E+01  0.40130843877E+01  0.00000000000E+00 0.  1.
         21   -1    0    0  504  502 -0.00000000000E+00 -0.00000000000E+00 -0.14844699177E+03  0.14844699177E+03  0.00000000000E+00 0.  1.
         21    1    1    2  503  501 -0.77576929990E+01 -0.22040744465E+02 -0.50186893981E+02  0.55359737578E+02  0.00000000000E+00 0.  1.
         21    1    1    2  504  503  0.77576929990E+01  0.22040744465E+02 -0.94247013399E+02  0.97100338577E+02  0.00000000000E+00 0.  1.
</event>
<event>
 4    1  0.1589319E+006  0.2152586E+02  0.7546771E-02  0.1511888E+00
         21   -1    0    0  504  501  0.00000000000E+00  0.00000000000E+00  0.31985384964E+01  0.31985384964E+01  0.00000000000E+00 0. -1.
         21   -1    0    0  503  502 -0.00000000000E+00 -0.00000000000E+00 -0.59342195843E+03  0.59342195843E+03  0.00000000000E+00 0.  1.
         21    1    1    2  503  501 -0.28816459530E+01 -0.21332110269E+02 -0.35756976925E+02  0.41736365567E+02  0.00000000000E+00 0. -1.
         21    1    1    2  504  502  0.28816459530E+01  0.21332110269E+02 -0.55446644301E+03  0.55488413136E+03  0.00000000000E+00 0.  1.
</event>
<event>
 4    1  0.1589319E+006  0.2105646E+02  0.7546771E-02  0.1518460E+00
         21   -1    0    0  504  501  0.00000000000E+00  0.00000000000E+00  0.30569047333E+02  0.30569047333E+02  0.00000000000E+00 0.  1.
         21   -1    0    0  503  502 -0.00000000000E+00 -0.00000000000E+00 -0.17222985894E+02  0.17222985894E+02  0.00000000000E+00 0.  1.
         21    1    1    2  503  501  0.19767752409E+02  0.72533071495E+01 -0.28214683334E+01  0.21244650703E+02  0.00000000000E+00 0.  1.
         21    1    1    2  504  502 -0.19767752409E+02 -0.72533071495E+01  0.16167529773E+02  0.26547382524E+02  0.00000000000E+00 0.  1.
</event>
<event>
 4    1  0.1589319E+006  0.3121763E+02  0.7546771E-02  0.1409302E+00
         21   -1    0    0  504  501  0.00000000000E+00  0.00000000000E+00  0.11427290243E+02  0.11427290243E+02  0.00000000000E+00 0.  1.
         21   -1    0    0  501  502 -0.00000000000E+00 -0.00000000000E+00 -0.11816632062E+03  0.11816632062E+03  0.00000000000E+00 0.  1.
         21    1    1    2  503  502  0.21593032051E+01 -0.31142863338E+02 -0.87551881421E+02  0.92950914291E+02  0.00000000000E+00 0.  1.
         21    1    1    2  504  503 -0.21593032051E+01  0.31142863338E+02 -0.19187148961E+02  0.36642696577E+02  0.00000000000E+00 0.  1.
</event>
<event>
 4    1  0.1589319E+006  0.2769297E+02  0.7546771E-02  0.1440769E+00
         21   -1    0    0  503  501  0.00000000000E+00  0.00000000000E+00  0.51633056622E+03  0.51633056622E+03  0.00000000000E+00 0.  1.
         21   -1    0    0  504  502 -0.00000000000E+00 -0.00000000000E+00 -0.31250827305E+02  0.31250827305E+02  0.00000000000E+00 0. -1.
         21    1    1    2  503  502 -0.23469406909E+02 -0.14699919431E+02  0.50974499827E+03  0.51049668359E+03  0.00000000000E+00 0.  1.
         21    1    1    2  504  501  0.23469406909E+02  0.14699919431E+02 -0.24665259357E+02  0.37084709937E+02  0.00000000000E+00 0. -1.
</event>
<event>
 4    1  0.1589319E+006  0.2944591E+02  0.7546771E-02  0.1424473E+00
         21   -1    0    0  503  501  0.00000000000E+00  0.00000000000E+00  0.38341893890E+02  0.38341893890E+02  0.00000000000E+00 0.  1.
         21   -1    0    0  504  502 -0.00000000000E+00 -0.00000000000E+00 -0.24603758794E+02  0.24603758794E+02  0.00000000000E+00 0. -1.
         21    1    1    2  503  502 -0.16158291978E+02 -0.24616478955E+02 -0.20813100688E+01  0.29519371392E+02  0.00000000000E+00 0. -1.
         21    1    1    2  504  501  0.16158291978E+02  0.24616478955E+02  0.15819445164E+02  0.33426281293E+02  0.00000000000E+00 0.  1.
</event>
<event>
 4    1  0.1589319E+006  0.3404862E+02  0.7546771E-02  0.1387378E+00
         21   -1    0    0  503  501  0.00000000000E+00  0.00000000000E+00  0.66195064797E+02  0.66195064797E+02  0.00000000000E+00 0. -1.
         21   -1    0    0  504  502 -0.00000000000E+00 -0.00000000000E+00 -0.19999306920E+02  0.19999306920E+02  0.00000000000E+00 0.  1.
         21    1    1    2  503  502 -0.31668090070E+02 -0.12507633758E+02  0.79038456730E+01  0.34953964115E+02  0.00000000000E+00 0. -1.
         21    1    1    2  504  501  0.31668090070E+02  0.12507633758E+02  0.38291912204E+02  0.51240407601E+02  0.00000000000E+00 0.  1.
</event>
<event>
 4    1  0.1589319E+006  0.2526176E+02  0.7546771E-02  0.1465896E+00
         21   -1    0    0  504  501  0.00000000000E+00  0.00000000000E+00  0.77927953667E+02  0.77927953667E+02  0.00000000000E+00 0.  1.
         21   -1    0    0  501  502 -0.00000000000E+00 -0.00000000000E+00 -0.37740821125E+02  0.37740821125E+02  0.00000000000E+00 0.  1.
         21    1    1    2  503  502 -0.17374789846E+02  0.18337750422E+02 -0.31083121827E+02  0.40053924592E+02  0.00000000000E+00 0.  1.
         21    1    1    2  504  503  0.17374789846E+02 -0.18337750422E+02  0.71270254369E+02  0.75614850199E+02  0.00000000000E+00 0.  1.
</event>
<event>
 4    1  0.1589319E+006  0.2287968E+02  0.7546771E-02  0.1494015E+00
         21   -1    0    0  502  501  0.00000000000E+00  0.00000000000E+00  0.12985776577E+01  0.12985776577E+01  0.00000000000E+00 0.  1.
         21   -1    0    0  504  502 -0.00000000000E+00 -0.00000000000E+00 -0.13456310709E+04  0.13456310709E+04  0.00000000000E+00 0. -1.
         21    1    1    2  503  501  0.20027310755E+02  0.11062856277E+02 -0.10853428061E+03  0.11091965575E+03  0.00000000000E+00 0.  1.
         21    1    1    2  504  503 -0.20027310755E+02 -0.11062856277E+02 -0.12357982126E+04  0.12360099928E+04  0.00000000000E+00 0. -1.
</event>
<event>
 4    1  0.1589319E+006  0.2067721E+02  0.7546771E-02  0.1523924E+00
         21   -1    0    0  503  501  0.00000000000E+00  0.00000000000E+00  0.14357306858E+03  0.14357306858E+03  0.00000000000E+00 0. -1.
         21   -1    0    0  504  502 -0.00000000000E+00 -0.00000000000E+00 -0.64554151742E+01  0.64554151742E+01  0.00000000000E+00 0. -1.
         21    1    1    2  503  502  0.13650352832E+02  0.15531096862E+02  0.13501416724E+02  0.24694844720E+02  0.00000000000E+00 0. -1.
         21    1    1    2  504  501 -0.13650352832E+02 -0.15531096862E+02  0.12361623668E+03  0.12533363903E+03  0.00000000000E+00 0. -1.
</event>
<event>
 4    1  0.1589319E+006  0.2895969E+02  0.7546771E-02  0.1428857E+00
         21   -1    0    0  502  501  0.00000000000E+00  0.00000000000E+00  0.34648172615E+02  0.34648172615E+02  0.00000000000E+00 0.  1.
         21   -1    0    0  504  502 -0.00000000000E+00 -0.00000000000E+00 -0.66357249205E+02  0.66357249205E+02  0.00000000000E+00 0.  1.
         21    1    1    2  503  501  0.28458927830E+02  0.53621913847E+01  0.24396787419E+02  0.37866435085E+02  0.00000000000E+00 0.  1.
         21    1    1    2  504  503 -0.28458927830E+02 -0.53621913847E+01 -0.56105864009E+02  0.63138986734E+02  0.00000000000E+00 0.  1.
</event>
<event>
 4    1  0.1589319E+006  0.2388398E+02  0.7546771E-02  0.1481687E+00
         21   -1    0    0  504  501  0.00000000000E+00  0.00000000000E+00  0.31100572089E+02  0.31100572089E+02  0.00000000000E+00 0.  1.
         21   -1    0    0  503  502 -0.00000000000E+00 -0.00000000000E+00 -0.38071686472E+02  0.38071686472E+02  0.00000000000E+00 0.  1.
         21    1    1    2  503  501 -0.23862280017E+02  0.10180007129E+01  0.21412283768E+02  0.32076948565E+02  0.00000000000E+00 0.  1.
         21    1    1    2  504  502  0.23862280017E+02 -0.10180007129E+01 -0.28383398151E+02  0.37095309996E+02  0.00000000000E+00 0.  1.
</event>
<event>
 4    1  0.1589319E+006  0.2382201E+02  0.7546771E-02  0.1482426E+00
         21   -1    0    0  503  501  0.00000000000E+00  0.00000000000E+00  0.14527303968E+02  0.14527303968E+02  0.00000000000E+00 0.  1.
         21   -1    0    0  504  502 -0.00000000000E+00 -0.00000000000E+00 -0.51359966556E+02  0.51359966556E+02  0.00000000000E+00 0.  1.
         21    1    1    2  503  502  0.71022947827E+01  0.22738639983E+02 -0.34535702799E+02  0.41954774547E+02  0.00000000000E+00 0.  1.
         21    1    1    2  504  501 -0.71022947827E+01 -0.22738639983E+02 -0.22969597890E+01  0.23932495978E+02  0.00000000000E+00 0.  1.
</event>
<event>
 4    1  0.1589319E+006  0.2037666E+02  0.7546771E-02  0.1528354E+00
         21   -1    0    0  503  501  0.00000000000E+00  0.00000000000E+00  0.33175110665E+03  0.33175110665E+03  0.00000000000E+00 0. -1.
         21   -1    0    0  504  502 -0.00000000000E+00 -0.00000000000E+00 -0.12778685623E+01  0.12778685623E+01  0.00000000000E+00 0. -1.
         21    1    1    2  503  502  0.10806224127E+02  0.17275237169E+02  0.14134692379E+03  0.14280812710E+03  0.00000000000E+00 0. -1.
         21    1    1    2  504  501 -0.10806224127E+02 -0.17275237169E+02  0.18912631429E+03  0.19022084811E+03  0.00000000000E+00 0. -1.
</event>
<event>
 4    1  0.1589319E+006  0.2205122E+02  0.7546771E-02  0.1504768E+00
         21   -1    0    0  504  501  0.00000000000E+00  0.00000000000E+00  0.68332488504E+01  0.68332488504E+01  0.00000000000E+00 0.  1.
         21   -1    0    0  501  502 -0.00000000000E+00 -0.00000000000E+00 -0.73182859883E+02  0.73182859883E+02  0.00000000000E+00 0.  1.
         21    1    1    2  503  502 -0.17752034365E+02 -0.13081350122E+02 -0.39825806983E+02  0.45523085868E+02  0.00000000000E+00 0.  1.
         21    1    1    2  504  503  0.17752034365E+02  0.13081350122E+02 -0.26523804049E+02  0.34493022865E+02  0.00000000000E+00 0.  1.
</event>
<event>
 4    1  0.1589319E+006  0.2044489E+02  0.7546771E-02  0.1527340E+00
         21   -1    0    0  504  501  0.00000000000E+00  0.00000000000E+00  0.39258106477E+01  0.39258106477E+01  0.00000000000E+00 0.  1.
         21   -1    0    0  503  502 -0.00000000000E+00 -0.00000000000E+00 -0.15450222380E+03  0.15450222380E+03  0.00000000000E+00 0.  1.
         21    1    1    2  503  501  0.81043418364E+01 -0.18770004379E+02 -0.31122337299E+02  0.37236988331E+02  0.00000000000E+00 0.  1.
         21    1    1    2  504  502 -0.81043418364E+01  0.18770004379E+02 -0.11945407585E+03  0.12119104612E+03  0.00000000000E+00 0.  1.
</event>
<event>
 4    1  0.1589319E+006  0.3677219E+02  0.7546771E-02  0.1368515E+00
         21   -1    0    0  503  501  0.00000000000E+00  0.00000000000E+00  0.73045762903E+02  0.73045762903E+02  0.00000000000E+00 0. -1.
         21   -1    0    0  504  502 -0.00000000000E+00 -0.00000000000E+00 -0.17616803643E+03  0.17616803643E+03  0.00000000000E+00 0.  1.
         21    1    1    2  503  502 -0.31635118798E+02  0.18746011894E+02 -0.16943957983E+03  0.17338386579E+03  0.00000000000E+00 0.  1.
         21    1    1    2  504  501  0.31635118798E+02 -0.18746011894E+02  0.66317306312E+02  0.75829933534E+02  0.00000000000E+00 0. -1.
</event>
<event>
 4    1  0.1589319E+006  0.2320645E+02  0.7546771E-02  0.1489922E+00
         21   -1    0    0  502  501  0.00000000000E+00  0.00000000000E+00  0.33100083878E+03  0.33100083878E+03  0.00000000000E+00 0.  1.
         21   -1    0    0  503  502 -0.00000000000E+00 -0.00000000000E+00 -0.71463710091E+01  0.71463710091E+01  0.00000000000E+00 0. -1.
         21    1    1    2  503  504 -0.22909624830E+02 -0.36997859045E+01  0.13341295015E+02  0.26768068258E+02  0.00000000000E+00 0. -1.
         21    1    1    2  504  501  0.22909624830E+02  0.36997859045E+01  0.31051317276E+03  0.31137914153E+03  0.00000000000E+00 0.  1.
</event>
<event>
 4    1  0.1589319E+006  0.2831851E+02  0.7546771E-02  0.1434795E+00
         21   -1    0    0  504  501  0.00000000000E+00  0.00000000000E+00  0.13083421758E+02  0.13083421758E+02  0.00000000000E+00 0.  1.
         21   -1    0    0  503  502 -0.00000000000E+00 -0.00000000000E+00 -0.10180520855E+03  0.10180520855E+03  0.00000000000E+00 0.  1.
         21    1    1    2  503  501  0.25627427175E+02 -0.12048782980E+02 -0.80597577654E+02  0.85427792425E+02  0.00000000000E+00 0.  1.
         21    1    1    2  504  502 -0.25627427175E+02  0.12048782980E+02 -0.81242091425E+01  0.29460837888E+02  0.00000000000E+00 0.  1.
</event>
<event>
 4    1  0.1589319E+006  0.2126365E+02  0.7546771E-02  0.1515534E+00
         21   -1    0    0  502  501  0.00000000000E+00  0.00000000000E+00  0.69449256898E+01  0.69449256898E+01  0.00000000000E+00 0. -1.
         21   -1    0    0  504  502 -0.00000000000E+00 -0.00000000000E+00 -0.82763678225E+02  0.82763678225E+02  0.00000000000E+00 0.  1.
         21    1    1    2  503  501  0.18379993079E+02 -0.10691982884E+02 -0.17190068244E+02  0.27343026347E+02  0.00000000000E+00 0. -1.
         21    1    1    2  504  503 -0.18379993079E+02  0.10691982884E+02 -0.58628684291E+02  0.62365577567E+02  0.00000000000E+00 0.  1.
</event>
<event>
 4    1  0.1589319E+006  0.2920362E+02  0.7546771E-02  0.1426645E+00
         21   -1    0    0  504  501  0.00000000000E+00  0.00000000000E+00  0.52167428480E+01  0.52167428480E+01  0.00000000000E+00 0.  1.
         21   -1    0    0  503  502 -0.00000000000E+00 -0.00000000000E+00 -0.60909225770E+03  0.60909225770E+03  0.00000000000E+00 0. -1.
         21    1    1    2  503  501  0.25506516151E+02  0.14222138617E+02 -0.39218334170E+02  0.48897130060E+02  0.00000000000E+00 0.  1.
         21    1    1    2  504  502 -0.25506516151E+02 -0.14222138617E+02 -0.56465718068E+03  0.56541187049E+03  0.00000000000E+00 0. -1.
</event>
<event>
 4    1  0.1589319E+006  0.2016347E+02  0.7546771E-02  0.1531551E+00
         21   -1    0    0  503  501  0.00000000000E+00  0.00000000000E+00  0.24095355256E+03  0.24095355256E+03  0.00000000000E+00 0.  1.
         21   -1    0    0  504  502 -0.00000000000E+00 -0.00000000000E+00 -0.49709032149E+02  0.49709032149E+02  0.00000000000E+00 0.  1.
         21    1    1    2  503  502  0.48350255850E+01  0.19575190498E+02 -0.47221181467E+02  0.51345939806E+02  0.00000000000E+00 0.  1.
         21    1    1    2  504  501 -0.48350255850E+01 -0.19575190498E+02  0.23846570188E+03  0.23931664490E+03  0.00000000000E+00 0.  1.
</event>
<event>
 4    1  0.1589319E+006  0.2673143E+02  0.7546771E-02  0.1450325E+00
         21   -1    0    0  503  501  0.00000000000E+00  0.00000000000E+00  0.91160113532E+02  0.91160113532E+02  0.00000000000E+00 0.  1.
         21   -1    0    0  504  502 -0.00000000000E+00 -0.00000000000E+00 -0.14188244006E+02  0.14188244006E+02  0.00000000000E+00 0.  1.
         21    1    1    2  503  502 -0.25806632783E+02  0.69704577479E+01  0.73723623962E+02  0.78420292698E+02  0.00000000000E+00 0.  1.
         21    1    1    2  504  501  0.25806632783E+02 -0.69704577479E+01  0.32482455637E+01  0.26928064840E+02  0.00000000000E+00 0.  1.
</event>
<event>
 4    1  0.1589319E+006  0.2300802E+02  0.7546771E-02  0.1492397E+00
         21   -1    0    0  504  501  0.00000000000E+00  0.00000000000E+00  0.20632112564E+01  0.20632112564E+01  0.00000000000E+00 0.  1.
         21   -1    0    0  503  502 -0.00000000000E+00 -0.00000000000E+00 -0.94412158283E+03  0.94412158283E+03  0.00000000000E+00 0.  1.
         21    1    1    2  503  501 -0.11838999972E+02 -0.19728336244E+02 -0.87475168770E+03  0.87505421792E+03  0.00000000000E+00 0.  1.
         21    1    1    2  504  502  0.11838999972E+02  0.19728336244E+02 -0.67306683881E+02  0.71130576171E+02  0.00000000000E+00 0.  1.
</event>
<event>
 4    1  0.1589319E+006  0.2398038E+02  0.7546771E-02  0.1480541E+00
         21   -1    0    0  503  501  0.00000000000E+00  0.00000000000E+00  0.66623518789E+01  0.66623518789E+01  0.00000000000E+00 0.  1.
         21   -1    0    0  504  502 -0.00000000000E+00 -0.00000000000E+00 -0.19781911668E+03  0.19781911668E+03  0.00000000000E+00 0.  1.
         21    1    1    2  503  502 -0.23880007815E+02  0.21918000501E+01 -0.17233854881E+03  0.17399894875E+03  0.00000000000E+00 0.  1.
         21    1    1    2  504  501  0.23880007815E+02 -0.21918000501E+01 -0.18818215990E+02  0.30482519806E+02  0.00000000000E+00 0.  1.
</event>
<event>
 4    1  0.1589319E+006  0.2697771E+02  0.7546771E-02  0.1447832E+00
         21   -1    0    0  503  501  0.00000000000E+00  0.00000000000E+00  0.65172959091E+02  0.65172959091E+02  0.00000000000E+00 0. -1.
         21   -1    0    0  504  502 -0.00000000000E+00 -0.00000000000E+00 -0.11191037832E+02  0.11191037832E+02  0.00000000000E+00 0. -1.
         21    1    1    2  503  502  0.14145045417E+02 -0.22972032285E+02  0.25227114700E+02  0.36935130881E+02  0.00000000000E+00 0. -1.
         21    1    1    2  504  501 -0.14145045417E+02  0.22972032285E+02  0.28754806559E+02  0.39428866042E+02  0.00000000000E+00 0. -1.
</event>
<event>
 4    1  0.1589319E+006  0.2020910E+02  0.7546771E-02  0.1530863E+00
         21   -1    0    0  503  501  0.00000000000E+00  0.00000000000E+00  0.12357489306E+03  0.12357489306E+03  0.00000000000E+00 0. -1.
         21   -1    0    0  501  502 -0.00000000000E+00 -0.00000000000E+00 -0.30113888490E+02  0.30113888490E+02  0.00000000000E+00 0.  1.
         21    1    1    2  503  504 -0.13116096466E+01 -0.20166493172E+02  0.11923561509E+03  0.12093609748E+03  0.00000000000E+00 0. -1.
         21    1    1    2  504  502  0.13116096466E+01  0.20166493172E+02 -0.25774610519E+02  0.32752684075E+02  0.00000000000E+00 0.  1.
</event>
<event>
 4    1  0.1589319E+006  0.2127230E+02  0.7546771E-02  0.1515412E+00
         21   -1    0    0  503  501  0.00000000000E+00  0.00000000000E+00  0.39928191422E+01  0.39928191422E+01  0.00000000000E+00 0.  1.
         21   -1    0    0  504  502 -0.00000000000E+00 -0.00000000000E+00 -0.62224636705E+03  0.62224636705E+03  0.00000000000E+00 0. -1.
         21    1    1    2  503  502 -0.51061502286E+01  0.20650371185E+02 -0.59229974490E+03  0.59268161640E+03  0.00000000000E+00 0. -1.
         21    1    1    2  504  501  0.51061502286E+01 -0.20650371185E+02 -0.25953803001E+02  0.33557569793E+02  0.00000000000E+00 0.  1.
</event>
<event>
 4    1  0.1589319E+006  0.2315408E+02  0.7546771E-02  0.1490572E+00
         21   -1    0    0  503  501  0.00000000000E+00  0.00000000000E+00  0.72447532870E+01  0.72447532870E+01  0.00000000000E+00 0. -1.
         21   -1    0    0  504  502 -0.00000000000E+00 -0.00000000000E+00 -0.17190599220E+03  0.17190599220E+03  0.00000000000E+00 0.  1.
         21    1    1    2  503  502  0.65974867013E+01  0.22194247725E+02 -0.14993079733E+03  0.15170812586E+03  0.00000000000E+00 0.  1.
         21    1    1    2  504  501 -0.65974867013E+01 -0.22194247725E+02 -0.14730441578E+02  0.27442619626E+02  0.00000000000E+00 0. -1.
</event>
<event>
 4    1  0.1589319E+006  0.2502641E+02  0.7546771E-02  0.1468508E+00
         21   -1    0    0  503  501  0.00000000000E+00  0.00000000000E+00  0.51200688246E+03  0.51200688246E+03  0.00000000000E+00 0.  1.
         21   -1    0    0  504  502 -0.00000000000E+00 -0.00000000000E+00 -0.22210895594E+02  0.22210895594E+02  0.00000000000E+00 0.  1.
         21    1    1    2  503  502  0.17004937183E+02  0.18361732733E+02  0.50454719464E+03  0.50516748979E+03  0.00000000000E+00 0.  1.
         21    1    1    2  504  501 -0.17004937183E+02 -0.18361732733E+02 -0.14751207776E+02  0.29050288267E+02  0.00000000000E+00 0.  1.
</event>
<event>
 4    1  0.1589319E+006  0.2051496E+02  0.7546771E-02  0.1526304E+00
         21   -1    0    0  504  501  0.00000000000E+00  0.00000000000E+00  0.38015890369E+02  0.38015890369E+02  0.00000000000E+00 0. -1.
         21   -1    0    0  503  502 -0.00000000000E+00 -0.00000000000E+00 -0.11247559924E+02  0.11247559924E+02  0.00000000000E+00 0. -1.
         21    1    1    2  503  501  0.16073441991E+02  0.12747864788E+02  0.16472651077E+02  0.26309918806E+02  0.00000000000E+00 0. -1.
         21    1    1    2  504  502 -0.16073441991E+02 -0.12747864788E+02  0.10295679368E+02  0.22953531487E+02  0.00000000000E+00 0. -1.
</event>
<event>
 4    1  0.1589319E+006  0.2141503E+02  0.7546771E-02  0.1513421E+00
         21   -1    0    0  503  501  0.00000000000E+00  0.00000000000E+00  0.65029834898E+02  0.65029834898E+02  0.00000000000E+00 0. -1.
         21   -1    0    0  504  502 -0.00000000000E+00 -0.00000000000E+00 -0.17302464408E+03  0.17302464408E+03  0.00000000000E+00 0.  1.
         21    1    1    2  503  502 -0.17555111772E+02 -0.12264650437E+02  0.62578922973E+02  0.66141705452E+02  0.00000000000E+00 0. -1.
         21    1    1    2  504  501  0.17555111772E+02  0.12264650437E+02 -0.17057373216E+03  0.17191277353E+03  0.00000000000E+00 0.  1.
</event>
<event>
 4    1  0.1589319E+006  0.5879169E+02  0.7546771E-02  0.1263994E+00
         21   -1    0    0  504  501  0.00000000000E+00  0.00000000000E+00  0.12726107221E+03  0.12726107221E+03  0.00000000000E+00 0. -1.
         21   -1    0    0  503  502 -0.00000000000E+00 -0.00000000000E+00 -0.25052454951E+03  0.25052454951E+03  0.00000000000E+00 0.  1.
         21    1    1    2  503  501 -0.55065582130E+02  0.20597181830E+02 -0.23999155406E+03  0.24708785534E+03  0.00000000000E+00 0.  1.
         21    1    1    2  504  502  0.55065582130E+02 -0.20597181830E+02  0.11672807676E+03  0.13069776639E+03  0.00000000000E+00 0. -1.
</event>
<event>
 4    1  0.1589319E+006  0.3195095E+02  0.7546771E-02  0.1403367E+00
         21   -1    0    0  504  501  0.00000000000E+00  0.00000000000E+00  0.12307768908E+03  0.12307768908E+03  0.00000000000E+00 0.  1.
         21   -1    0    0  503  502 -0.00000000000E+00 -0.00000000000E+00 -0.63721285812E+02  0.63721285812E+02  0.00000000000E+00 0. -1.
         21    1    1    2  503  501 -0.92226678071E+00  0.31937640489E+02 -0.57430635497E+02  0.65720174602E+02  0.00000000000E+00 0. -1.
         21    1    1    2  504  502  0.92226678071E+00 -0.31937640489E+02  0.11678703876E+03  0.12107880029E+03  0.00000000000E+00 0.  1.
</event>
<event>
 4    1  0.1589319E+006  0.2023679E+02  0.7546771E-02  0.1530446E+00
         21   -1    0    0  503  501  0.00000000000E+00  0.00000000000E+00  0.13014593846E+03  0.13014593846E+03  0.00000000000E+00 0.  1.
         21   -1    0    0  501  502 -0.00000000000E+00 -0.00000000000E+00 -0.96913732069E+01  0.96913732069E+01  0.00000000000E+00 0. -1.
         21    1    1    2  503  504 -0.19823006231E+02  0.40713543971E+01  0.11768456599E+03  0.11941182762E+03  0.00000000000E+00 0.  1.
         21    1    1    2  504  502  0.19823006231E+02 -0.40713543971E+01  0.27699992611E+01  0.20425484048E+02  0.00000000000E+00 0. -1.
</event>
<event>
 4    1  0.1589319E+006  0.2378861E+02  0.7546771E-02  0.1482826E+00
         21   -1    0    0  502  501  0.00000000000E+00  0.00000000000E+00  0.22433545519E+02  0.22433545519E+02  0.00000000000E+00 0. -1.
         21   -1    0    0  503  502 -0.00000000000E+00 -0.00000000000E+00 -0.16333538633E+03  0.16333538633E+03  0.00000000000E+00 0.  1.
         21    1    1    2  503  504  0.18111288974E+02 -0.15423336649E+02 -0.15586221039E+03  0.15766713903E+03  0.00000000000E+00 0.  1.
         21    1    1    2  504  501 -0.18111288974E+02  0.15423336649E+02  0.14960369581E+02  0.28101792819E+02  0.00000000000E+00 0. -1.
</event>
<event>
 4    1  0.1589319E+006  0.2865679E+02  0.7546771E-02  0.1431639E+00
         21   -1    0    0  503  501  0.00000000000E+00  0.00000000000E+00  0.10937325711E+03  0.10937325711E+03  0.00000000000E+00 0.  1.
         21   -1    0    0  501  502 -0.00000000000E+00 -0.00000000000E+00 -0.12244361446E+02  0.12244361446E+02  0.00000000000E+00 0.  1.
         21    1    1    2  503  504 -0.21408429657E+02  0.19049696736E+02  0.86383023916E+02  0.91012299318E+02  0.00000000000E+00 0.  1.
         21    1    1    2  504  502  0.21408429657E+02 -0.19049696736E+02  0.10745871750E+02  0.30605319240E+02  0.00000000000E+00 0.  1.
</event>
<event>
 4    1  0.1589319E+006  0.2033784E+02  0.7546771E-02  0.1528932E+00
         21   -1    0    0  504  501  0.00000000000E+00  0.00000000000E+00  0.72701628069E+01  0.72701628069E+01  0.00000000000E+00 0.  1.
         21   -1    0    0  503  502 -0.00000000000E+00 -0.00000000000E+00 -0.11585036687E+03  0.11585036687E+03  0.00000000000E+00 0. -1.
         21    1    1    2  503  501 -0.72658462035E+01  0.18995666712E+02 -0.10374633743E+02  0.22831138828E+02  0.00000000000E+00 0.  1.
         21    1    1    2  504  502  0.72658462035E+01 -0.18995666712E+02 -0.98205570319E+02  0.10028939085E+03  0.00000000000E+00 0. -1.
</event>
<event>
 4    1  0.1589319E+006  0.2079589E+02  0.7546771E-02  0.1522199E+00
         21   -1    0    0  504  501  0.00000000000E+00  0.00000000000E+00  0.57781990324E+03  0.57781990324E+03  0.00000000000E+00 0.  1.
         21   -1    0    0  503  502 -0.00000000000E+00 -0.00000000000E+00 -0.21121704691E+01  0.21121704691E+01  0.00000000000E+00 0.  1.
         21    1    1    2  503  501 -0.34674537199E+01 -0.20504777721E+02  0.52084820788E+03  0.52126320108E+03  0.00000000000E+00 0.  1.
         21    1    1    2  504  502  0.34674537199E+01  0.20504777721E+02  0.54859524887E+02  0.58668872628E+02  0.00000000000E+00 0.  1.
</event>
<event>
 4    1  0.1589319E+006  0.2200313E+02  0.7546771E-02  0.1505410E+00
         21   -1    0    0  504  501  0.00000000000E+00  0.00000000000E+00  0.27382940923E+03  0.27382940923E+03  0.00000000000E+00 0.  1.
         21   -1    0    0  503  502 -0.00000000000E+00 -0.00000000000E+00 -0.19071888737E+01  0.19071888737E+01  0.00000000000E+00 0.  1.
         21    1    1    2  503  501 -0.21041583881E+02 -0.64334625252E+01  0.98719517158E+02  0.10114188430E+03  0.00000000000E+00 0.  1.
         21    1    1    2  504  502  0.21041583881E+02  0.64334625252E+01  0.17320270320E+03  0.17459471380E+03  0.00000000000E+00 0.  1.
</event>
<event>
 4    1  0.1589319E+006  0.3225031E+02  0.7546771E-02  0.1400998E+00
         21   -1    0    0  504  501  0.00000000000E+00  0.00000000000E+00  0.26003071711E+03  0.26003071711E+03  0.00000000000E+00 0.  1.
         21   -1    0    0  503  502 -0.00000000000E+00 -0.00000000000E+00 -0.91198888510E+01  0.91198888510E+01  0.00000000000E+00 0.  1.
         21    1    1    2  503  501 -0.17382285526E+02 -0.27165031350E+02  0.22628950774E+03  0.22857607944E+03  0.00000000000E+00 0.  1.
         21    1    1    2  504  502  0.17382285526E+02  0.27165031350E+02  0.24621320517E+02  0.40574526520E+02  0.00000000000E+00 0.  1.
</event>
<event>
 4    1  0.1589319E+006  0.2269858E+02  0.7546771E-02  0.1496318E+00
         21   -1    0    0  504  501  0.00000000000E+00  0.00000000000E+00  0.98335076284E+02  0.98335076284E+02  0.00000000000E+00 0. -1.
         21   -1    0    0  503  502 -0.00000000000E+00 -0.00000000000E+00 -0.53738089308E+01  0.53738089308E+01  0.00000000000E+00 0. -1.
         21    1    1    2  503  501 -0.11518936304E+02 -0.19558624750E+02  0.54678724080E+02  0.59202943869E+02  0.00000000000E+00 0. -1.
         21    1    1    2  504  502  0.11518936304E+02  0.19558624750E+02  0.38282543273E+02  0.44505941346E+02  0.00000000000E+00 0. -1.
</event>
<event>
 4    1  0.1589319E+006  0.9334527E+02  0.7546771E-02  0.1175867E+00
         21   -1    0    0  502  501  0.00000000000E+00  0.00000000000E+00  0.21209313177E+02  0.21209313177E+02  0.00000000000E+00 0. -1.
         21   -1    0    0  503  502 -0.00000000000E+00 -0.00000000000E+00 -0.49447624674E+03  0.49447624674E+03  0.00000000000E+00 0.  1.
         21    1    1    2  503  504  0.54990267253E+02 -0.75428177765E+02 -0.34268467042E+03  0.35517055457E+03  0.00000000000E+00 0.  1.
         21    1    1    2  504  501 -0.54990267253E+02  0.75428177765E+02 -0.13058226314E+03  0.16051500535E+03  0.00000000000E+00 0. -1.
</event>
<event>
 4    1  0.1589319E+006  0.2481836E+02  0.7546771E-02  0.1470846E+00
         21   -1    0    0  503  501  0.00000000000E+00  0.00000000000E+00  0.44131512189E+02  0.44131512189E+02  0.00000000000E+00 0.  1.
         21   -1    0    0  501  502 -0.00000000000E+00 -0.00000000000E+00 -0.23011007434E+02  0.23011007434E+02  0.00000000000E+00 0.  1.
         21    1    1    2  503  504 -0.10820178415E+02 -0.22335499802E+02  0.31618211613E+02  0.40195299699E+02  0.00000000000E+00 0.  1.
         21    1    1    2  504  502  0.10820178415E+02  0.22335499802E+02 -0.10497706857E+02  0.26947219923E+02  0.00000000000E+00 0.  1.
</event>
<event>
 4    1  0.1589319E+006  0.2449312E+02  0.7546771E-02  0.1474554E+00
         21   -1    0    0  504  501  0.00000000000E+00  0.00000000000E+00  0.95996801279E+01  0.95996801279E+01  0.00000000000E+00 0. -1.
         21   -1    0    0  503  502 -0.00000000000E+00 -0.00000000000E+00 -0.10265751936E+03  0.10265751936E+03  0.00000000000E+00 0. -1.
         21    1    1    2  503  501  0.49035617844E+01 -0.23997250087E+02 -0.81637239347E+02  0.85232339978E+02  0.00000000000E+00 0. -1.
         21    1    1    2  504  502 -0.49035617844E+01  0.23997250087E+02 -0.11420599890E+02  0.27024859514E+02  0.00000000000E+00 0. -1.
</event>
<event>
 4    1  0.1589319E+006  0.2162159E+02  0.7546771E-02  0.1510572E+00
         21   -1    0    0  504  501  0.00000000000E+00  0.00000000000E+00  0.16203005721E+03  0.16203005721E+03  0.00000000000E+00 0.  1.
         21   -1    0    0  503  502 -0.00000000000E+00 -0.00000000000E+00 -0.31687267912E+01  0.31687267912E+01  0.00000000000E+00 0.  1.
         21    1    1    2  503  501  0.21488723586E+02 -0.23933281892E+01  0.54724124961E+02  0.58840658680E+02  0.00000000000E+00 0.  1.
         21    1    1    2  504  502 -0.21488723586E+02  0.23933281892E+01  0.10413720545E+03  0.10635812532E+03  0.00000000000E+00 0.  1.
</event>
<event>
 4    1  0.1589319E+006  0.3999862E+02  0.7546771E-02  0.1348494E+00
         21   -1    0    0  502  501  0.00000000000E+00  0.00000000000E+00  0.11123004523E+03  0.11123004523E+03  0.00000000000E+00 0. -1.
         21   -1    0    0  504  502 -0.00000000000E+00 -0.00000000000E+00 -0.22786711375E+03  0.22786711375E+03  0.00000000000E+00 0.  1.
         21    1    1    2  503  501 -0.38561299134E+02 -0.10626200511E+02  0.10579163285E+03  0.11310066096E+03  0.00000000000E+00 0. -1.
         21    1    1    2  504  503  0.38561299134E+02  0.10626200511E+02 -0.22242870136E+03  0.22599649802E+03  0.00000000000E+00 0.  1.
</event>
<event>
 4    1  0.1589319E+006  0.3118000E+02  0.7546771E-02  0.1409612E+00
         21   -1    0    0  503  501  0.00000000000E+00  0.00000000000E+00  0.22457096524E+03  0.22457096524E+03  0.00000000000E+00 0. -1.
         21   -1    0    0  501  502 -0.00000000000E+00 -0.00000000000E+00 -0.61698105711E+01  0.61698105711E+01  0.00000000000E+00 0.  1.
         21    1    1    2  503  504 -0.11037590084E+02 -0.29160996778E+02  0.17221647977E+03  0.17501630791E+03  0.00000000000E+00 0. -1.
         21    1    1    2  504  502  0.11037590084E+02  0.29160996778E+02  0.46184674892E+02  0.55724467900E+02  0.00000000000E+00 0.  1.
</event>
<event>
 4    1  0.1589319E+006  0.2996045E+02  0.7546771E-02  0.1419941E+00
         21   -1    0    0  504  501  0.00000000000E+00  0.00000000000E+00  0.38992827124E+02  0.38992827124E+02  0.00000000000E+00 0. -1.
         21   -1    0    0  501  502 -0.00000000000E+00 -0.00000000000E+00 -0.39113228951E+02  0.39113228951E+02  0.00000000000E+00 0.  1.
         21    1    1    2  503  502  0.29679737253E+02  0.40916373473E+01 -0.25110321997E+02  0.39091643229E+02  0.00000000000E+00 0.  1.
         21    1    1    2  504  503 -0.29679737253E+02 -0.40916373473E+01  0.24989920171E+02  0.39014412846E+02  0.00000000000E+00 0. -1.
</event>
<event>
 4    1  0.1589319E+006  0.2104575E+02  0.7546771E-02  0.1518613E+00
         21   -1    0    0  504  501  0.00000000000E+00  0.00000000000E+00  0.28134889573E+02  0.28134889573E+02  0.00000000000E+00 0. -1.
         21   -1    0    0  501  502 -0.00000000000E+00 -0.00000000000E+00 -0.32497012473E+03  0.32497012473E+03  0.00000000000E+00 0.  1.
         21    1    1    2  503  502 -0.20794852007E+02  0.32400278934E+01 -0.32064058168E+03  0.32133052496E+03  0.00000000000E+00 0.  1.
         21    1    1    2  504  503  0.20794852007E+02 -0.32400278934E+01  0.23805346516E+02  0.31774489351E+02  0.00000000000E+00 0. -1.
</event>
<event>
 4    1  0.1589319E+006  0.3122574E+02  0.7546771E-02  0.1409236E+00
         21   -1    0    0  503  501  0.00000000000E+00  0.00000000000E+00  0.27330126034E+03  0.27330126034E+03  0.00000000000E+00 0.  1.
         21   -1    0    0  504  502 -0.00000000000E+00 -0.00000000000E+00 -0.29878057751E+03  0.29878057751E+03  0.00000000000E+00 0. -1.
         21    1    1    2  503  502  0.25392881899E+02 -0.18172730879E+02 -0.29706767819E+03  0.29870428859E+03  0.00000000000E+00 0. -1.
         21    1    1    2  504  501 -0.25392881899E+02  0.18172730879E+02  0.27158836102E+03  0.27337754926E+03  0.00000000000E+00 0.  1.
</event>
<event>
 4    1  0.1589319E+006  0.3328019E+02  0.7546771E-02  0.1393074E+00
         21   -1    0    0  504  501  0.00000000000E+00  0.00000000000E+00  0.15738365822E+02  0.15738365822E+02  0.00000000000E+00 0. -1.
         21   -1    0    0  501  502 -0.00000000000E+00 -0.00000000000E+00 -0.14621670750E+03  0.14621670750E+03  0.00000000000E+00 0. -1.
         21    1    1    2  503  502 -0.53616971557E+01 -0.32845449882E+02 -0.12355991340E+03  0.12796336810E+03  0.00000000000E+00 0. -1.
         21    1    1    2  504  503  0.53616971557E+01  0.32845449882E+02 -0.69184282754E+01  0.33991705226E+02  0.00000000000E+00 0. -1.
</event>
<event>
 4    1  0.1589319E+006  0.2718850E+02  0.7546771E-02  0.1445724E+00
         21   -1    0    0  503  501  0.00000000000E+00  0.00000000000E+00  0.40649261293E+03  0.40649261293E+03  0.00000000000E+00 0.  1.
         21   -1    0    0  504  502 -0.00000000000E+00 -0.00000000000E+00 -0.20299462109E+01  0.20299462109E+01  0.00000000000E+00 0.  1.
         21    1    1    2  503  502 -0.51313721327E+01 -0.26699875424E+02  0.26815248108E+03  0.26952730370E+03  0.00000000000E+00 0.  1.
         21    1    1    2  504  501  0.51313721327E+01  0.26699875424E+02  0.13631018564E+03  0.13899525545E+03  0.00000000000E+00 0.  1.
</event>
<event>
 4    1  0.1589319E+006  0.2616619E+02  0.7546771E-02  0.1456169E+00
         21   -1    0    0  504  501  0.00000000000E+00  0.00000000000E+00  0.56675511572E+01  0.56675511572E+01  0.00000000000E+00 0.  1.
         21   -1    0    0  503  502 -0.00000000000E+00 -0.00000000000E+00 -0.20785778796E+03  0.20785778796E+03  0.00000000000E+00 0.  1.
         21    1    1    2  503  501 -0.19892154738E+02  0.16999165876E+02 -0.17018702880E+03  0.17218680040E+03  0.00000000000E+00 0.  1.
         21    1    1    2  504  502  0.19892154738E+02 -0.16999165876E+02 -0.32003207999E+02  0.41338538712E+02  0.00000000000E+00 0.  1.
</event>
<event>
 4    1  0.1589319E+006  0.2583875E+02  0.7546771E-02  0.1459635E+00
         21   -1    0    0  503  501  0.00000000000E+00  0.00000000000E+00  0.74171103716E+02  0.74171103716E+02  0.00000000000E+00 0.  1.
         21   -1    0    0  501  502 -0.00000000000E+00 -0.00000000000E+00 -0.27931188903E+02  0.27931188903E+02  0.00000000000E+00 0. -1.
         21    1    1    2  503  504  0.25619383198E+02 -0.33597965576E+01  0.65147509696E+02  0.70084513610E+02  0.00000000000E+00 0.  1.
         21    1    1    2  504  502 -0.25619383198E+02  0.33597965576E+01 -0.18907594883E+02  0.32017779008E+02  0.00000000000E+00 0. -1.
</event>
<event>
 4    1  0.1589319E+006  0.2068393E+02  0.7546771E-02  0.1523826E+00
         21   -1    0    0  502  501  0.00000000000E+00  0.00000000000E+00  0.75114551042E+02  0.75114551042E+02  0.00000000000E+00 0.  1.
         21   -1    0    0  503  502 -0.00000000000E+00 -0.00000000000E+00 -0.12911785303E+02  0.12911785303E+02  0.00000000000E+00 0.  1.
         21    1    1    2  503  504 -0.16681249736E+02  0.12229499986E+02 -0.18021393216E+01  0.20762284768E+02  0.00000000000E+00 0.  1.
         21    1    1    2  504  501  0.16681249736E+02 -0.12229499986E+02  0.64004905061E+02  0.67264051577E+02  0.00000000000E+00 0.  1.
</event>
<event>
 4    1  0.1589319E+006  0.2016653E+02  0.7546771E-02  0.1531505E+00
         21   -1    0    0  503  501  0.00000000000E+00  0.00000000000E+00  0.99132515504E+02  0.99132515504E+02  0.00000000000E+00 0. -1.
         21   -1    0    0  504  502 -0.00000000000E+00 -0.00000000000E+00 -0.49032630651E+01  0.49032630651E+01  0.00000000000E+00 0.  1.
         21    1    1    2  503  502  0.16667522818E+02 -0.11352640691E+02  0.26092886793E+02  0.32977681979E+02  0.00000000000E+00 0.  1.
         21    1    1    2  504  501 -0.16667522818E+02  0.11352640691E+02  0.68136365646E+02  0.71058096590E+02  0.00000000000E+00 0. -1.
</event>
<event>
 4    1  0.1589319E+006  0.3521206E+02  0.7546771E-02  0.1379078E+00
         21   -1    0    0  503  501  0.00000000000E+00  0.00000000000E+00  0.49717599316E+02  0.49717599316E+02  0.00000000000E+00 0. -1.
         21   -1    0    0  504  502 -0.00000000000E+00 -0.00000000000E+00 -0.44630323544E+02  0.44630323544E+02  0.00000000000E+00 0. -1.
         21    1    1    2  503  502  0.31167076858E+02 -0.16386045080E+02  0.33878572218E+02  0.48863552970E+02  0.00000000000E+00 0. -1.
         21    1    1    2  504  501 -0.31167076858E+02  0.16386045080E+02 -0.28791296446E+02  0.45484369890E+02  0.00000000000E+00 0. -1.
</event>
<event>
 4    1  0.1589319E+006  0.3710364E+02  0.7546771E-02  0.1366349E+00
         21   -1    0    0  504  501  0.00000000000E+00  0.00000000000E+00  0.69696458971E+03  0.69696458971E+03  0.00000000000E+00 0.  1.
         21   -1    0    0  501  502 -0.00000000000E+00 -0.00000000000E+00 -0.59167851506E+01  0.59167851506E+01  0.00000000000E+00 0. -1.
         21    1    1    2  503  502  0.37090826459E+02 -0.97498073502E+00  0.58682532670E+02  0.69428521772E+02  0.00000000000E+00 0. -1.
         21    1    1    2  504  503 -0.37090826459E+02  0.97498073502E+00  0.63236527189E+03  0.63345285309E+03  0.00000000000E+00 0.  1.
</event>
<event>
 4    1  0.1589319E+006  0.2020339E+02  0.7546771E-02  0.1530949E+00
         21   -1    0    0  504  501  0.00000000000E+00  0.00000000000E+00  0.73243847274E+03  0.73243847274E+03  0.00000000000E+00 0. -1.
         21   -1    0    0  501  502 -0.00000000000E+00 -0.00000000000E+00 -0.42555316261E+01  0.42555316261E+01  0.00000000000E+00 0.  1.
         21    1    1    2  503  502 -0.19484929017E+02 -0.53399019529E+01  0.20708968877E+02  0.28931615987E+02  0.00000000000E+00 0.  1.
         21    1    1    2  504  503  0.19484929017E+02  0.53399019529E+01  0.70747397224E+03  0.70776238838E+03  0.00000000000E+00 0. -1.
</event>
<event>
 4    1  0.1589319E+006  0.2421347E+02  0.7546771E-02  0.1477798E+00
         21   -1    0    0  503  501  0.00000000000E+00  0.00000000000E+00  0.41985243924E+01  0.41985243924E+01  0.00000000000E+00 0. -1.
         21   -1    0    0  504  502 -0.00000000000E+00 -0.00000000000E+00 -0.13965054746E+03  0.13965054746E+03  0.00000000000E+00 0. -1.
         21    1    1    2  503  502  0.17501237876E+02 -0.16733170740E+02 -0.68272908651E+02  0.72439508460E+02  0.00000000000E+00 0. -1.
         21    1    1    2  504  501 -0.17501237876E+02  0.16733170740E+02 -0.67179114419E+02  0.71409563396E+02  0.00000000000E+00 0. -1.
</event>
<event>
 4    1  0.1589319E+006  0.2263320E+02  0.7546771E-02  0.1497156E+00
         21   -1    0    0  503  501  0.00000000000E+00  0.00000000000E+00  0.26083894461E+01  0.26083894461E+01  0.00000000000E+00 0.  1.
         21   -1    0    0  501  502 -0.00000000000E+00 -0.00000000000E+00 -0.37101402096E+03  0.37101402096E+03  0.00000000000E+00 0.  1.
         21    1    1    2  503  504  0.19945062223E+02  0.10698420389E+02 -0.56040689371E+02  0.60438568572E+02  0.00000000000E+00 0.  1.
         21    1    1    2  504  502 -0.19945062223E+02 -0.10698420389E+02 -0.31236494215E+03  0.31318384184E+03  0.00000000000E+00 0.  1.
</event>
<event>
 4    1  0.1589319E+006  0.2414640E+02  0.7546771E-02  0.1478584E+00
         21   -1    0    0  504  501  0.00000000000E+00  0.00000000000E+00  0.25284208966E+02  0.25284208966E+02  0.00000000000E+00 0. -1.
         21   -1    0    0  503  502 -0.00000000000E+00 -0.00000000000E+00 -0.32035345260E+02  0.32035345260E+02  0.00000000000E+00 0. -1.
         21    1    1    2  503  501 -0.15366951607E+02  0.18625393350E+02  0.11794545473E+02  0.26873030757E+02  0.00000000000E+00 0. -1.
         21    1    1    2  504  502  0.15366951607E+02 -0.18625393350E+02 -0.18545681767E+02  0.30446523469E+02  0.00000000000E+00 0. -1.
</event>
<event>
 4    1  0.1589319E+006  0.4116861E+02  0.7546771E-02  0.1341771E+00
         21   -1    0    0  504  501  0.00000000000E+00  0.00000000000E+00  0.24754163634E+02  0.24754163634E+02  0.00000000000E+00 0.  1.
         21   -1    0    0  503  502 -0.00000000000E+00 -0.00000000000E+00 -0.45013689022E+03  0.45013689022E+03  0.00000000000E+00 0. -1.
         21    1    1    2  503  501  0.18551740073E+02  0.36751698000E+02 -0.43133426661E+03  0.43329447714E+03  0.00000000000E+00 0. -1.
         21    1    1    2  504  502 -0.18551740073E+02 -0.36751698000E+02  0.59515400274E+01  0.41596576713E+02  0.00000000000E+00 0.  1.
</event>
<event>
 4    1  0.1589319E+006  0.2541575E+02  0.7546771E-02  0.1464206E+00
         21   -1    0    0  502  501  0.00000000000E+00  0.00000000000E+00  0.85676971596E+01  0.85676971596E+01  0.00000000000E+00 0.  1.
         21   -1    0    0  504  502 -0.00000000000E+00 -0.00000000000E+00 -0.31934388720E+03  0.31934388720E+03  0.00000000000E+00 0.  1.
         21    1    1    2  503  501 -0.16381883367E+02 -0.19431786877E+02 -0.12087830047E+02  0.28143846203E+02  0.00000000000E+00 0.  1.
         21    1    1    2  504  503  0.16381883367E+02  0.19431786877E+02 -0.29868835999E+03  0.29976773815E+03  0.00000000000E+00 0.  1.
</event>
<event>
 4    1  0.1589319E+006  0.2953772E+02  0.7546771E-02  0.1423657E+00
         21   -1    0    0  503  501  0.00000000000E+00  0.00000000000E+00  0.87948339350E+02  0.87948339350E+02  0.00000000000E+00 0. -1.
         21   -1    0    0  504  502 -0.00000000000E+00 -0.00000000000E+00 -0.10150163956E+02  0.10150163956E+02  0.00000000000E+00 0. -1.
         21    1    1    2  503  502 -0.20783066236E+02 -0.20989075064E+02  0.31518399058E+02  0.43195909452E+02  0.00000000000E+00 0. -1.
         21    1    1    2  504  501  0.20783066236E+02  0.20989075064E+02  0.46279776336E+02  0.54902593854E+02  0.00000000000E+00 0. -1.
</event>
<event>
 4    1  0.1589319E+006  0.3182649E+02  0.7546771E-02  0.1404361E+00
         21   -1    0    0  503  501  0.00000000000E+00  0.00000000000E+00  0.84308262389E+02  0.84308262389E+02  0.00000000000E+00 0. -1.
         21   -1    0    0  504  502 -0.00000000000E+00 -0.00000000000E+00 -0.12959798584E+02  0.12959798584E+02  0.00000000000E+00 0. -1.
         21    1    1    2  503  502  0.23386058242E+01  0.31740458111E+02  0.22539707242E+02  0.38999540522E+02  0.00000000000E+00 0. -1.
         21    1    1    2  504  501 -0.23386058242E+01 -0.31740458111E+02  0.48808756563E+02  0.58268520451E+02  0.00000000000E+00 0. -1.
</event>
<event>
 4    1  0.1589319E+006  0.2158373E+02  0.7546771E-02  0.1511092E+00
         21   -1    0    0  502  501  0.00000000000E+00  0.00000000000E+00  0.36137252392E+03  0.36137252392E+03  0.00000000000E+00 0. -1.
         21   -1    0    0  504  502 -0.00000000000E+00 -0.00000000000E+00 -0.46600652266E+02  0.46600652266E+02  0.00000000000E+00 0. -1.
         21    1    1    2  503  501  0.24443703479E+01  0.21444868977E+02  0.35853125324E+03  0.35918034036E+03  0.00000000000E+00 0. -1.
         21    1    1    2  504  503 -0.24443703479E+01 -0.21444868977E+02 -0.43759381582E+02  0.48792835829E+02  0.00000000000E+00 0. -1.
</event>
<event>
 4    1  0.1589319E+006  0.2399721E+02  0.7546771E-02  0.1480342E+00
         21   -1    0    0  503  501  0.00000000000E+00  0.00000000000E+00  0.12531341947E+03  0.12531341947E+03  0.00000000000E+00 0. -1.
         21   -1    0    0  504  502 -0.00000000000E+00 -0.00000000000E+00 -0.55229642739E+01  0.55229642739E+01  0.00000000000E+00 0.  1.
         21    1    1    2  503  502  0.19824841101E+02 -0.13521890761E+02  0.33086057684E+02  0.40872399826E+02  0.00000000000E+00 0.  1.
         21    1    1    2  504  501 -0.19824841101E+02  0.13521890761E+02  0.86704397509E+02  0.89963983915E+02  0.00000000000E+00 0. -1.
</event>
<event>
 4    1  0.1589319E+006  0.3777242E+02  0.7546771E-02  0.1362058E+00
         21   -1    0    0  503  501  0.00000000000E+00  0.00000000000E+00  0.37532409179E+02  0.37532409179E+02  0.00000000000E+00 0.  1.
         21   -1    0    0  501  502 -0.00000000000E+00 -0.00000000000E+00 -0.89513956304E+03  0.89513956304E+03  0.00000000000E+00 0.  1.
         21    1    1    2  503  504 -0.29164920340E+02  0.24003390602E+02  0.27523027276E+02  0.46736199774E+02  0.00000000000E+00 0.  1.
         21    1    1    2  504  502  0.29164920340E+02 -0.24003390602E+02 -0.88513018114E+03  0.88593577244E+03  0.00000000000E+00 0.  1.
</event>
<event>
 4    1  0.1589319E+006  0.2201713E+02  0.7546771E-02  0.1505223E+00
         21   -1    0    0  504  501  0.00000000000E+00  0.00000000000E+00  0.63936799837E+02  0.63936799837E+02  0.00000000000E+00 0. -1.
         21   -1    0    0  503  502 -0.00000000000E+00 -0.00000000000E+00 -0.12582630247E+02  0.12582630247E+02  0.00000000000E+00 0. -1.
         21    1    1    2  503  501 -0.20952154655E+02  0.67647037022E+01  0.49797148333E+02  0.54447313827E+02  0.00000000000E+00 0. -1.
         21    1    1    2  504  502  0.20952154655E+02 -0.67647037022E+01  0.15570212577E+01  0.22072116257E+02  0.00000000000E+00 0. -1.
</event>
<event>
 4    1  0.1589319E+006  0.2775679E+02  0.7546771E-02  0.1440151E+00
         21   -1    0    0  503  501  0.00000000000E+00  0.00000000000E+00  0.20491164805E+02  0.20491164805E+02  0.00000000000E+00 0.  1.
         21   -1    0    0  504  502 -0.00000000000E+00 -0.00000000000E+00 -0.31658020768E+03  0.31658020768E+03  0.00000000000E+00 0.  1.
         21    1    1    2  503  502 -0.26522765438E+02 -0.81842843243E+01  0.10166874236E+02  0.29560191611E+02  0.00000000000E+00 0.  1.
         21    1    1    2  504  501  0.26522765438E+02  0.81842843243E+01 -0.30625591711E+03  0.30751118087E+03  0.00000000000E+00 0.  1.
</event>
<event>
 4    1  0.1589319E+006  0.2949382E+02  0.7546771E-02  0.1424047E+00
         21   -1    0    0  502  501  0.00000000000E+00  0.00000000000E+00  0.32999273654E+01  0.32999273654E+01  0.00000000000E+00 0.  1.
         21   -1    0    0  503  502 -0.00000000000E+00 -0.00000000000E+00 -0.26376826926E+03  0.26376826926E+03  0.00000000000E+00 0.  1.
         21    1    1    2  503  504 -0.52575981032E+01  0.29021421966E+02 -0.12693641620E+03  0.13031783849E+03  0.00000000000E+00 0.  1.
         21    1    1    2  504  501  0.52575981032E+01 -0.29021421966E+02 -0.13353192569E+03  0.13675035814E+03  0.00000000000E+00 0.  1.
</event>
<event>
 4    1  0.1589319E+006  0.3656532E+02  0.7546771E-02  0.1369880E+00
         21   -1    0    0  503  501  0.00000000000E+00  0.00000000000E+00  0.97112030446E+02  0.97112030446E+02  0.00000000000E+00 0.  1.
         21   -1    0    0  504  502 -0.00000000000E+00 -0.00000000000E+00 -0.35386497371E+02  0.35386497371E+02  0.00000000000E+00 0. -1.
         21    1    1    2  503  502  0.23269096550E+02  0.28205880331E+02  0.82644509522E+02  0.90372216381E+02  0.00000000000E+00 0.  1.
         21    1    1    2  504  501 -0.23269096550E+02 -0.28205880331E+02 -0.20918976447E+02  0.42126311435E+02  0.00000000000E+00 0. -1.
</event>
<event>
 4    1  0.1589319E+006  0.2284502E+02  0.7546771E-02  0.1494454E+00
         21   -1    0    0  504  501  0.00000000000E+00  0.00000000000E+00  0.12756372455E+02  0.12756372455E+02  0.00000000000E+00 0. -1.
         21   -1    0    0  503  502 -0.00000000000E+00 -0.00000000000E+00 -0.52486857693E+02  0.52486857693E+02  0.00000000000E+00 0. -1.
         21    1    1    2  503  501  0.90096523846E+00 -0.22827242915E+02 -0.35184196490E+02  0.41950237664E+02  0.00000000000E+00 0. -1.
         21    1    1    2  504  502 -0.90096523846E+00  0.22827242915E+02 -0.45462887485E+01  0.23292992484E+02  0.00000000000E+00 0. -1.
</event>
<event>
 4    1  0.1589319E+006  0.2266654E+02  0.7546771E-02  0.1496728E+00
         21   -1    0    0  504  501  0.00000000000E+00  0.00000000000E+00  0.37825838178E+02  0.37825838178E+02  0.00000000000E+00 0.  1.
         21   -1    0    0  503  502 -0.00000000000E+00 -0.00000000000E+00 -0.15960157298E+02  0.15960157298E+02  0.00000000000E+00 0.  1.
         21    1    1    2  503  501 -0.22429448678E+02  0.32698257743E+01  0.55303366284E+00  0.22673283283E+02  0.00000000000E+00 0.  1.
         21    1    1    2  504  502  0.22429448678E+02 -0.32698257743E+01  0.21312647218E+02  0.31112712193E+02  0.00000000000E+00 0.  1.
</event>
<event>
 4    1  0.1589319E+006  0.2054229E+02  0.7546771E-02  0.1525901E+00
         21   -1    0    0  504  501  0.00000000000E+00  0.00000000000E+00  0.13301532644E+02  0.13301532644E+02  0.00000000000E+00 0. -1.
         21   -1    0    0  503  502 -0.00000000000E+00 -0.00000000000E+00 -0.73169249290E+02  0.73169249290E+02  0.00000000000E+00 0. -1.
         21    1    1    2  503  501 -0.23008991662E+01  0.20413018827E+02  0.26055352281E+01  0.20706865732E+02  0.00000000000E+00 0. -1.
         21    1    1    2  504  502  0.23008991662E+01 -0.20413018827E+02 -0.62473251874E+02  0.65763916203E+02  0.00000000000E+00 0. -1.
</event>
<event>
 4    1  0.1589319E+006  0.2250127E+02  0.7546771E-02  0.1498858E+00
         21   -1    0    0  504  501  0.00000000000E+00  0.00000000000E+00  0.43294866306E+03  0.43294866306E+03  0.00000000000E+00 0.  1.
         21   -1    0    0  501  502 -0.00000000000E+00 -0.00000000000E+00 -0.13532234066E+01  0.13532234066E+01  0.00000000000E+00 0.  1.
         21    1    1    2  503  502 -0.18544432780E+02 -0.12744060732E+02  0.13577169460E+03  0.13762361762E+03  0.00000000000E+00 0.  1.
         21    1    1    2  504  503  0.18544432780E+02  0.12744060732E+02  0.29582374505E+03  0.29667826885E+03  0.00000000000E+00 0.  1.
</event>
<event>
 4    1  0.1589319E+006  0.3008773E+02  0.7546771E-02  0.1418836E+00
         21   -1    0    0  503  501  0.00000000000E+00  0.00000000000E+00  0.12387431400E+02  0.12387431400E+02  0.00000000000E+00 0.  1.
         21   -1    0    0  504  502 -0.00000000000E+00 -0.00000000000E+00 -0.30139128513E+03  0.30139128513E+03  0.00000000000E+00 0.  1.
         21    1    1    2  503  502  0.14554843658E+02  0.26333024713E+02 -0.28105201055E+03  0.28265792807E+03  0.00000000000E+00 0.  1.
         21    1    1    2  504  501 -0.14554843658E+02 -0.26333024713E+02 -0.79518431757E+01  0.31120788459E+02  0.00000000000E+00 0.  1.
</event>
<event>
 4    1  0.1589319E+006  0.2039448E+02  0.7546771E-02  0.1528088E+00
         21   -1    0    0  503  501  0.00000000000E+00  0.00000000000E+00  0.13468410877E+02  0.13468410877E+02  0.00000000000E+00 0. -1.
         21   -1    0    0  501  502 -0.00000000000E+00 -0.00000000000E+00 -0.79009573086E+02  0.79009573086E+02  0.00000000000E+00 0. -1.
         21    1    1    2  503  504 -0.20391494859E+02  0.34893228675E+00  0.33175472320E+01  0.20662549116E+02  0.00000000000E+00 0. -1.
         21    1    1    2  504  502  0.20391494859E+02 -0.34893228675E+00 -0.68858709441E+02  0.71815434847E+02  0.00000000000E+00 0. -1.
</event>
<event>
 4    1  0.1589319E+006  0.4159082E+02  0.7546771E-02  0.1339408E+00
         21   -1    0    0  504  501  0.00000000000E+00  0.00000000000E+00  0.20511987378E+04  0.20511987378E+04  0.00000000000E+00 0.  1.
         21   -1    0    0  503  502 -0.00000000000E+00 -0.00000000000E+00 -0.67236948494E+01  0.67236948494E+01  0.00000000000E+00 0. -1.
         21    1    1    2  503  501 -0.10273882547E+02 -0.40301906969E+02  0.59965444297E+02  0.72977057201E+02  0.00000000000E+00 0. -1.
         21    1    1    2  504  502  0.10273882547E+02  0.40301906969E+02  0.19845095986E+04  0.19849453754E+04  0.00000000000E+00 0.  1.
</event>
<event>
 4    1  0.1589319E+006  0.3092301E+02  0.7546771E-02  0.1411741E+00
         21   -1    0    0  504  501  0.00000000000E+00  0.00000000000E+00  0.12471787463E+03  0.12471787463E+03  0.00000000000E+00 0.  1.
         21   -1    0    0  503  502 -0.00000000000E+00 -0.00000000000E+00 -0.13666837750E+02  0.13666837750E+02  0.00000000000E+00 0.  1.
         21    1    1    2  503  501 -0.16325016365E+00 -0.30922583140E+02  0.96809591825E+01  0.32402990130E+02  0.00000000000E+00 0.  1.
         21    1    1    2  504  502  0.16325016365E+00  0.30922583140E+02  0.10137007769E+03  0.10598172225E+03  0.00000000000E+00 0.  1.
</event>
<event>
 4    1  0.1589319E+006  0.2556058E+02  0.7546771E-02  0.1462629E+00
         21   -1    0    0  503  501  0.00000000000E+00  0.00000000000E+00  0.13064089939E+02  0.13064089939E+02  0.00000000000E+00 0.  1.
         21   -1    0    0  504  502 -0.00000000000E+00 -0.00000000000E+00 -0.52622341191E+02  0.52622341191E+02  0.00000000000E+00 0.  1.
         21    1    1    2  503  502 -0.52465077407E+01  0.25016345965E+02 -0.27095954601E+02  0.37249619658E+02  0.00000000000E+00 0.  1.
         21    1    1    2  504  501  0.52465077407E+01 -0.25016345965E+02 -0.12462296651E+02  0.28436811472E+02  0.00000000000E+00 0.  1.
</event>
<event>
 4    1  0.1589319E+006  0.2566483E+02  0.7546771E-02  0.1461502E+00
         21   -1    0    0  502  501  0.00000000000E+00  0.00000000000E+00  0.38027974401E+02  0.38027974401E+02  0.00000000000E+00 0.  1.
         21   -1    0    0  504  502 -0.00000000000E+00 -0.00000000000E+00 -0.43116930151E+02  0.43116930151E+02  0.00000000000E+00 0.  1.
         21    1    1    2  503  501  0.20432617962E+02  0.15530346792E+02  0.28837673716E+02  0.38604338792E+02  0.00000000000E+00 0.  1.
         21    1    1    2  504  503 -0.20432617962E+02 -0.15530346792E+02 -0.33926629466E+02  0.42540565760E+02  0.00000000000E+00 0.  1.
</event>
<event>
 4    1  0.1589319E+006  0.2276522E+02  0.7546771E-02  0.1495468E+00
         21   -1    0    0  504  501  0.00000000000E+00  0.00000000000E+00  0.17718484667E+01  0.17718484667E+01  0.00000000000E+00 0. -1.
         21   -1    0    0  503  502 -0.00000000000E+00 -0.00000000000E+00 -0.31196309575E+03  0.31196309575E+03  0.00000000000E+00 0. -1.
         21    1    1    2  503  501  0.20251614273E+02  0.10398432600E+02 -0.11590766026E+03  0.11812214436E+03  0.00000000000E+00 0. -1.
         21    1    1    2  504  502 -0.20251614273E+02 -0.10398432600E+02 -0.19428358703E+03  0.19561279986E+03  0.00000000000E+00 0. -1.
</event>
<event>
 4    1  0.1589319E+006  0.3056258E+02  0.7546771E-02  0.1414769E+00
         21   -1    0    0  503  501  0.00000000000E+00  0.00000000000E+00  0.26195924815E+02  0.26195924815E+02  0.00000000000E+00 0. -1.
         21   -1    0    0  504  502 -0.00000000000E+00 -0.00000000000E+00 -0.35796828185E+02  0.35796828185E+02  0.00000000000E+00 0. -1.
         21    1    1    2  503  502  0.30555188207E+02  0.67232460929E+00 -0.28641141600E+01  0.30696493230E+02  0.00000000000E+00 0. -1.
         21    1    1    2  504  501 -0.30555188207E+02 -0.67232460929E+00 -0.67367892094E+01  0.31296259770E+02  0.00000000000E+00 0. -1.
</event>
<event>
 4    1  0.1589319E+006  0.2065756E+02  0.7546771E-02  0.1524211E+00
         21   -1    0    0  503  501  0.00000000000E+00  0.00000000000E+00  0.18328447571E+02  0.18328447571E+02  0.00000000000E+00 0.  1.
         21   -1    0    0  501  502 -0.00000000000E+00 -0.00000000000E+00 -0.27694343516E+03  0.27694343516E+03  0.00000000000E+00 0. -1.
         21    1    1    2  503  504 -0.27753794316E+01  0.20470274553E+02  0.11986344950E+02  0.23883201974E+02  0.00000000000E+00 0.  1.
         21    1    1    2  504  502  0.27753794316E+01 -0.20470274553E+02 -0.27060133253E+03  0.27138868075E+03  0.00000000000E+00 0. -1.
</event>
<event>
 4    1  0.1589319E+006  0.2098619E+02  0.7546771E-02  0.1519462E+00
         21   -1    0    0  502  501  0.00000000000E+00  0.00000000000E+00  0.11640671132E+02  0.11640671132E+02  0.00000000000E+00 0.  1.
         21   -1    0    0  503  502 -0.00000000000E+00 -0.00000000000E+00 -0.42079918504E+02  0.42079918504E+02  0.00000000000E+00 0. -1.
         21    1    1    2  503  504  0.26139541250E+01  0.20822765529E+02 -0.23751168162E+02  0.31694452346E+02  0.00000000000E+00 0. -1.
         21    1    1    2  504  501 -0.26139541250E+01 -0.20822765529E+02 -0.66880792093E+01  0.22026137290E+02  0.00000000000E+00 0.  1.
</event>
<event>
 4    1  0.1589319E+006  0.9287200E+02  0.7546771E-02  0.1176768E+00
         21   -1    0    0  503  501  0.00000000000E+00  0.00000000000E+00  0.60574652020E+02  0.60574652020E+02  0.00000000000E+00 0. -1.
         21   -1    0    0  504  502 -0.00000000000E+00 -0.00000000000E+00 -0.14776032222E+03  0.14776032222E+03  0.00000000000E+00 0. -1.
         21    1    1    2  503  502  0.43122597403E+02 -0.82253565927E+02 -0.23733490260E+02  0.95856591189E+02  0.00000000000E+00 0. -1.
         21    1    1    2  504  501 -0.43122597403E+02  0.82253565927E+02 -0.63452179938E+02  0.11247838305E+03  0.00000000000E+00 0. -1.
</event>
<event>
 4    1  0.1589319E+006  0.3316367E+02  0.7546771E-02  0.1393954E+00
         21   -1    0    0  503  501  0.00000000000E+00  0.00000000000E+00  0.17545822467E+03  0.17545822467E+03  0.00000000000E+00 0. -1.
         21   -1    0    0  501  502 -0.00000000000E+00 -0.00000000000E+00 -0.12823692514E+02  0.12823692514E+02  0.00000000000E+00 0. -1.
         21    1    1    2  503  504 -0.33161102897E+02  0.41298761663E+00  0.14862586746E+03  0.15228091732E+03  0.00000000000E+00 0. -1.
         21    1    1    2  504  502  0.33161102897E+02 -0.41298761663E+00  0.14008664698E+02  0.36000999858E+02  0.00000000000E+00 0. -1.
</event>
<event>
 4    1  0.1589319E+006  0.2915724E+02  0.7546771E-02  0.1427064E+00
         21   -1    0    0  502  501  0.00000000000E+00  0.00000000000E+00  0.37082062636E+03  0.37082062636E+03  0.00000000000E+00 0. -1.
         21   -1    0    0  503  502 -0.00000000000E+00 -0.00000000000E+00 -0.47127056236E+01  0.47127056236E+01  0.00000000000E+00 0. -1.
         21    1    1    2  503  504  0.25181966747E+02 -0.14697389368E+02  0.48498856477E+02  0.56588724876E+02  0.00000000000E+00 0. -1.
         21    1    1    2  504  501 -0.25181966747E+02  0.14697389368E+02  0.31760906426E+03  0.31894460711E+03  0.00000000000E+00 0. -1.
</event>
<event>
 4    1  0.1589319E+006  0.4011233E+02  0.7546771E-02  0.1347829E+00
         21   -1    0    0  504  501  0.00000000000E+00  0.00000000000E+00  0.44017491643E+03  0.44017491643E+03  0.00000000000E+00 0. -1.
         21   -1    0    0  503  502 -0.00000000000E+00 -0.00000000000E+00 -0.46263797040E+01  0.46263797040E+01  0.00000000000E+00 0. -1.
         21    1    1    2  503  501 -0.24465257546E+02 -0.31787573445E+02  0.31966366509E+03  0.32217054091E+03  0.00000000000E+00 0. -1.
         21    1    1    2  504  502  0.24465257546E+02  0.31787573445E+02  0.11588487163E+03  0.12263075522E+03  0.00000000000E+00 0. -1.
</event>
<event>
 4    1  0.1589319E+006  0.2455146E+02  0.7546771E-02  0.1473884E+00
         21   -1    0    0  503  501  0.00000000000E+00  0.00000000000E+00  0.47499569690E+01  0.47499569690E+01  0.00000000000E+00 0. -1.
         21   -1    0    0  504  502 -0.00000000000E+00 -0.00000000000E+00 -0.15714597570E+03  0.15714597570E+03  0.00000000000E+00 0.  1.
         21    1    1    2  503  502 -0.79687195978E+01  0.23222268735E+02 -0.40685531263E+02  0.47519329871E+02  0.00000000000E+00 0. -1.
         21    1    1    2  504  501  0.79687195978E+01 -0.23222268735E+02 -0.11171048746E+03  0.11437660279E+03  0.00000000000E+00 0.  1.
</event>
<event>
 4    1  0.1589319E+006  0.2026749E+02  0.7546771E-02  0.1529985E+00
         21   -1    0    0  502  501  0.00000000000E+00  0.00000000000E+00  0.98101014659E+02  0.98101014659E+02  0.00000000000E+00 0.  1.
         21   -1    0    0  504  502 -0.00000000000E+00 -0.00000000000E+00 -0.34206703224E+02  0.34206703224E+02  0.00000000000E+00 0. -1.
         21    1    1    2  503  501 -0.61210117295E+01  0.19321085574E+02  0.93919958003E+02  0.96081890300E+02  0.00000000000E+00 0.  1.
         21    1    1    2  504  503  0.61210117295E+01 -0.19321085574E+02 -0.30025646568E+02  0.36225827584E+02  0.00000000000E+00 0. -1.
</event>
<event>
 4    1  0.1589319E+006  0.2142094E+02  0.7546771E-02  0.1513339E+00
         21   -1    0    0  503  501  0.00000000000E+00  0.00000000000E+00  0.22404227165E+02  0.22404227165E+02  0.00000000000E+00 0.  1.
         21   -1    0    0  501  502 -0.00000000000E+00 -0.00000000000E+00 -0.20892062741E+03  0.20892062741E+03  0.00000000000E+00 0.  1.
         21    1    1    2  503  504  0.17773872316E+02 -0.11956002552E+02  0.16588746218E+02  0.27093228586E+02  0.00000000000E+00 0.  1.
         21    1    1    2  504  502 -0.17773872316E+02  0.11956002552E+02 -0.20310514646E+03  0.20423162599E+03  0.00000000000E+00 0.  1.
</event>
<event>
 4    1  0.1589319E+006  0.2988787E+02  0.7546771E-02  0.1420574E+00
         21   -1    0    0  504  501  0.00000000000E+00  0.00000000000E+00  0.31064588531E+02  0.31064588531E+02  0.00000000000E+00 0. -1.
         21   -1    0    0  503  502 -0.00000000000E+00 -0.00000000000E+00 -0.35992397797E+02  0.35992397797E+02  0.00000000000E+00 0. -1.
         21    1    1    2  503  501 -0.71665311080E+01 -0.29015953927E+02 -0.17498028643E+02  0.34633304156E+02  0.00000000000E+00 0. -1.
         21    1    1    2  504  502  0.71665311080E+01  0.29015953927E+02  0.12570219377E+02  0.32423682172E+02  0.00000000000E+00 0. -1.
</event>
<event>
 4    1  0.1589319E+006  0.3718648E+02  0.7546771E-02  0.1365811E+00
         21   -1    0    0  504  501  0.00000000000E+00  0.00000000000E+00  0.90739786662E+03  0.90739786662E+03  0.00000000000E+00 0. -1.
         21   -1    0    0  503  502 -0.00000000000E+00 -0.00000000000E+00 -0.50169012027E+03  0.50169012027E+03  0.00000000000E+00 0. -1.
         21    1    1    2  503  501  0.48929175128E+01  0.36863173908E+02 -0.50061922962E+03  0.50199845348E+03  0.00000000000E+00 0. -1.
         21    1    1    2  504  502 -0.48929175128E+01 -0.36863173908E+02  0.90632697597E+03  0.90708953340E+03  0.00000000000E+00 0. -1.
</event>
<event>
 4    1  0.1589319E+006  0.2047443E+02  0.7546771E-02  0.1526902E+00
         21   -1    0    0  503  501  0.00000000000E+00  0.00000000000E+00  0.14707705008E+01  0.14707705008E+01  0.00000000000E+00 0.  1.
         21   -1    0    0  501  502 -0.00000000000E+00 -0.00000000000E+00 -0.50594107543E+03  0.50594107543E+03  0.00000000000E+00 0.  1.
         21    1    1    2  503  504 -0.20291207049E+02  0.27330195767E+01 -0.84587726041E+02  0.87030373297E+02  0.00000000000E+00 0.  1.
         21    1    1    2  504  502  0.20291207049E+02 -0.27330195767E+01 -0.41988257888E+03  0.42038147263E+03  0.00000000000E+00 0.  1.
</event>
<event>
 4    1  0.1589319E+006  0.2530293E+02  0.7546771E-02  0.1465443E+00
         21   -1    0    0  503  501  0.00000000000E+00  0.00000000000E+00  0.19260755211E+03  0.19260755211E+03  0.00000000000E+00 0.  1.
         21   -1    0    0  504  502 -0.00000000000E+00 -0.00000000000E+00 -0.37239664000E+01  0.37239664000E+01  0.00000000000E+00 0.  1.
         21    1    1    2  503  502 -0.10223045220E+02  0.23145792334E+02  0.12661084859E+03  0.12911446602E+03  0.00000000000E+00 0.  1.
         21    1    1    2  504  501  0.10223045220E+02 -0.23145792334E+02  0.62272737121E+02  0.67217052486E+02  0.00000000000E+00 0.  1.
</event>
<event>
 4    1  0.1589319E+006  0.2217643E+02  0.7546771E-02  0.1503107E+00
         21   -1    0    0  503  501  0.00000000000E+00  0.00000000000E+00  0.34832059771E+01  0.34832059771E+01  0.00000000000E+00 0. -1.
         21   -1    0    0  504  502 -0.00000000000E+00 -0.00000000000E+00 -0.14379810654E+03  0.14379810654E+03  0.00000000000E+00 0. -1.
         21    1    1    2  503  502 -0.21796440056E+02 -0.40877087534E+01 -0.80074815773E+02  0.83088929967E+02  0.00000000000E+00 0. -1.
         21    1    1    2  504  501  0.21796440056E+02  0.40877087534E+01 -0.60240084792E+02  0.64192382552E+02  0.00000000000E+00 0. -1.
</event>
<event>
 4    1  0.1589319E+006  0.2130922E+02  0.7546771E-02  0.1514895E+00
         21   -1    0    0  503  501  0.00000000000E+00  0.00000000000E+00  0.56640010065E+02  0.56640010065E+02  0.00000000000E+00 0. -1.
         21   -1    0    0  504  502 -0.00000000000E+00 -0.00000000000E+00 -0.83898073176E+01  0.83898073176E+01  0.00000000000E+00 0. -1.
         21    1    1    2  503  502 -0.16940368650E+02 -0.12926978984E+02  0.17271014039E+02  0.27429378440E+02  0.00000000000E+00 0. -1.
         21    1    1    2  504  501  0.16940368650E+02  0.12926978984E+02  0.30979188708E+02  0.37600438942E+02  0.00000000000E+00 0. -1.
</event>
<event>
 4    1  0.1589319E+006  0.2373368E+02  0.7546771E-02  0.1483485E+00
         21   -1    0    0  504  501  0.00000000000E+00  0.00000000000E+00  0.38938465608E+02  0.38938465608E+02  0.00000000000E+00 0. -1.
         21   -1    0    0  503  502 -0.00000000000E+00 -0.00000000000E+00 -0.31182251033E+02  0.31182251033E+02  0.00000000000E+00 0.  1.
         21    1    1    2  503  501 -0.16033994840E+02  0.17498532806E+02  0.29548398409E+02  0.37899808567E+02  0.00000000000E+00 0. -1.
         21    1    1    2  504  502  0.16033994840E+02 -0.17498532806E+02 -0.21792183834E+02  0.32220908074E+02  0.00000000000E+00 0.  1.
</event>
<event>
 4    1  0.1589319E+006  0.2478474E+02  0.7546771E-02  0.1471226E+00
         21   -1    0    0  502  501  0.00000000000E+00  0.00000000000E+00  0.47168964897E+03  0.47168964897E+03  0.00000000000E+00 0. -1.
         21   -1    0    0  504  502 -0.00000000000E+00 -0.00000000000E+00 -0.26613502446E+01  0.26613502446E+01  0.00000000000E+00 0.  1.
         21    1    1    2  503  501 -0.65524100378E+01 -0.23902915359E+02  0.40400095055E+03  0.40476048657E+03  0.00000000000E+00 0. -1.
         21    1    1    2  504  503  0.65524100378E+01  0.23902915359E+02  0.65027348176E+02  0.69590512649E+02  0.00000000000E+00 0.  1.
</event>
<event>
 4    1  0.1589319E+006  0.2086419E+02  0.7546771E-02  0.1521213E+00
         21   -1    0    0  503  501  0.00000000000E+00  0.00000000000E+00  0.65484350755E+03  0.65484350755E+03  0.00000000000E+00 0.  1.
         21   -1    0    0  504  502 -0.00000000000E+00 -0.00000000000E+00 -0.95199776926E+00  0.95199776926E+00  0.00000000000E+00 0.  1.
         21    1    1    2  503  502 -0.19145854803E+02 -0.82915921345E+01  0.14683456884E+03  0.14830949013E+03  0.00000000000E+00 0.  1.
         21    1    1    2  504  501  0.19145854803E+02  0.82915921345E+01  0.50705694094E+03  0.50748601518E+03  0.00000000000E+00 0.  1.
</event>
<event>
 4    1  0.1589319E+006  0.3750111E+02  0.7546771E-02  0.1363786E+00
         21   -1    0    0  504  501  0.00000000000E+00  0.00000000000E+00  0.52912008368E+01  0.52912008368E+01  0.00000000000E+00 0.  1.
         21   -1    0    0  501  502 -0.00000000000E+00 -0.00000000000E+00 -0.67738040902E+03  0.67738040902E+03  0.00000000000E+00 0.  1.
         21    1    1    2  503  502 -0.85937054213E+01 -0.36503166442E+02 -0.60211691586E+03  0.60328360934E+03  0.00000000000E+00 0.  1.
         21    1    1    2  504  503  0.85937054213E+01  0.36503166442E+02 -0.69972292324E+02  0.79388000518E+02  0.00000000000E+00 0.  1.
</event>
<event>
 4    1  0.1589319E+006  0.2087974E+02  0.7546771E-02  0.1520989E+00
         21   -1    0    0  503  501  0.00000000000E+00  0.00000000000E+00  0.78878168707E+01  0.78878168707E+01  0.00000000000E+00 0.  1.
         21   -1    0    0  504  502 -0.00000000000E+00 -0.00000000000E+00 -0.97026767483E+02  0.97026767483E+02  0.00000000000E+00 0.  1.
         21    1    1    2  503  502 -0.18175954263E+02  0.10276091693E+02 -0.78982358492E+02  0.81695632238E+02  0.00000000000E+00 0.  1.
         21    1    1    2  504  501  0.18175954263E+02 -0.10276091693E+02 -0.10156592121E+02  0.23218952116E+02  0.00000000000E+00 0.  1.
</event>
<event>
 4    1  0.1589319E+006  0.2024195E+02  0.7546771E-02  0.1530369E+00
         21   -1    0    0  502  501  0.00000000000E+00  0.00000000000E+00  0.13529201191E+03  0.13529201191E+03  0.00000000000E+00 0. -1.
         21   -1    0    0  504  502 -0.00000000000E+00 -0.00000000000E+00 -0.44560011132E+01  0.44560011132E+01  0.00000000000E+00 0.  1.
         21    1    1    2  503  501  0.56813266099E+01  0.19428304695E+02  0.10496614099E+03  0.10690008068E+03  0.00000000000E+00 0. -1.
         21    1    1    2  504  503 -0.56813266099E+01 -0.19428304695E+02  0.25869869811E+02  0.32847932346E+02  0.00000000000E+00 0.  1.
</event>
<event>
 4    1  0.1589319E+006  0.2679714E+02  0.7546771E-02  0.1449657E+00
         21   -1    0    0  503  501  0.00000000000E+00  0.00000000000E+00  0.11418317028E+03  0.11418317028E+03  0.00000000000E+00 0. -1.
         21   -1    0    0  504  502 -0.00000000000E+00 -0.00000000000E+00 -0.10379769381E+02  0.10379769381E+02  0.00000000000E+00 0.  1.
         21    1    1    2  503  502 -0.22999153959E+02  0.13752286232E+02  0.12802052701E+02  0.29698131470E+02  0.00000000000E+00 0.  1.
         21    1    1    2  504  501  0.22999153959E+02 -0.13752286232E+02  0.91001348199E+02  0.94864808193E+02  0.00000000000E+00 0. -1.
</event>
<event>
 4    1  0.1589319E+006  0.2802425E+02  0.7546771E-02  0.1437582E+00
         21   -1    0    0  504  501  0.00000000000E+00  0.00000000000E+00  0.12762237101E+02  0.12762237101E+02  0.00000000000E+00 0.  1.
         21   -1    0    0  501  502 -0.00000000000E+00 -0.00000000000E+00 -0.61734524178E+02  0.61734524178E+02  0.00000000000E+00 0. -1.
         21    1    1    2  503  502 -0.12138413706E+02 -0.25259010325E+02 -0.26589364984E+02  0.38630985234E+02  0.00000000000E+00 0.  1.
         21    1    1    2  504  503  0.12138413706E+02  0.25259010325E+02 -0.22382922093E+02  0.35865776045E+02  0.00000000000E+00 0. -1.
</event>
<event>
 4    1  0.1589319E+006  0.4511510E+02  0.7546771E-02  0.1320865E+00
         21   -1    0    0  504  501  0.00000000000E+00  0.00000000000E+00  0.20097295473E+03  0.20097295473E+03  0.00000000000E+00 0. -1.
         21   -1    0    0  501  502 -0.00000000000E+00 -0.00000000000E+00 -0.15714563833E+03  0.15714563833E+03  0.00000000000E+00 0. -1.
         21    1    1    2  503  502 -0.39418403324E+02 -0.21944519664E+02 -0.15127961860E+03  0.15786353432E+03  0.00000000000E+00 0. -1.
         21    1    1    2  504  503  0.39418403324E+02  0.21944519664E+02  0.19510693500E+03  0.20025505874E+03  0.00000000000E+00 0. -1.
</event>
<event>
 4    1  0.1589319E+006  0.2177213E+02  0.7546771E-02  0.1508520E+00
         21   -1    0    0  504  501  0.00000000000E+00  0.00000000000E+00  0.21650161742E+03  0.21650161742E+03  0.00000000000E+00 0.  1.
         21   -1    0    0  501  502 -0.00000000000E+00 -0.00000000000E+00 -0.38900365299E+01  0.38900365299E+01  0.00000000000E+00 0.  1.
         21    1    1    2  503  502  0.57100736798E+01  0.21010013191E+02  0.33446647052E+02  0.39908693222E+02  0.00000000000E+00 0.  1.
         21    1    1    2  504  503 -0.57100736798E+01 -0.21010013191E+02  0.17916493383E+03  0.18048296072E+03  0.00000000000E+00 0.  1.
</event>
<event>
 4    1  0.1589319E+006  0.3198932E+02  0.7546771E-02  0.1403062E+00
         21   -1    0    0  503  501  0.00000000000E+00  0.00000000000E+00  0.30671286129E+03  0.30671286129E+03  0.00000000000E+00 0.  1.
         21   -1    0    0  501  502 -0.00000000000E+00 -0.00000000000E+00 -0.78029943235E+01  0.78029943235E+01  0.00000000000E+00 0. -1.
         21    1    1    2  503  504 -0.29365927958E+02 -0.12686959914E+02  0.26843389557E+03  0.27033326278E+03  0.00000000000E+00 0.  1.
         21    1    1    2  504  502  0.29365927958E+02  0.12686959914E+02  0.30475971401E+02  0.44182592834E+02  0.00000000000E+00 0. -1.
</event>
<event>
 4    1  0.1589319E+006  0.2296767E+02  0.7546771E-02  0.1492905E+00
         21   -1    0    0  502  501  0.00000000000E+00  0.00000000000E+00  0.24930979339E+02  0.24930979339E+02  0.00000000000E+00 0.  1.
         21   -1    0    0  504  502 -0.00000000000E+00 -0.00000000000E+00 -0.23205726534E+02  0.23205726534E+02  0.00000000000E+00 0.  1.
         21    1    1    2  503  501 -0.17722772470E+02 -0.14608803608E+02  0.80105851364E+01  0.24324540718E+02  0.00000000000E+00 0.  1.
         21    1    1    2  504  503  0.17722772470E+02  0.14608803608E+02 -0.62853323305E+01  0.23812165156E+02  0.00000000000E+00 0.  1.
</event>
<event>
 4    1  0.1589319E+006  0.2217662E+02  0.7546771E-02  0.1503104E+00
         21   -1    0    0  504  501  0.00000000000E+00  0.00000000000E+00  0.20875276569E+03  0.20875276569E+03  0.00000000000E+00 0.  1.
         21   -1    0    0  503  502 -0.00000000000E+00 -0.00000000000E+00 -0.29893318699E+01  0.29893318699E+01  0.00000000000E+00 0. -1.
         21    1    1    2  503  501 -0.11973594865E+02  0.18666428633E+02  0.54147162615E+02  0.58512543537E+02  0.00000000000E+00 0. -1.
         21    1    1    2  504  502  0.11973594865E+02 -0.18666428633E+02  0.15161627120E+03  0.15322955402E+03  0.00000000000E+00 0.  1.
</event>
<event>
 4    1  0.1589319E+006  0.4937284E+02  0.7546771E-02  0.1300915E+00
         21   -1    0    0  503  501  0.00000000000E+00  0.00000000000E+00  0.12682126886E+03  0.12682126886E+03  0.00000000000E+00 0. -1.
         21   -1    0    0  504  502 -0.00000000000E+00 -0.00000000000E+00 -0.19819141931E+02  0.19819141931E+02  0.00000000000E+00 0. -1.
         21    1    1    2  503  502  0.46741185936E+02  0.15904066329E+02  0.40767465329E+02  0.64028618741E+02  0.00000000000E+00 0. -1.
         21    1    1    2  504  501 -0.46741185936E+02 -0.15904066329E+02  0.66234661598E+02  0.82611792048E+02  0.00000000000E+00 0. -1.
</event>
<event>
 4    1  0.1589319E+006  0.2230093E+02  0.7546771E-02  0.1501468E+00
         21   -1    0    0  503  501  0.00000000000E+00  0.00000000000E+00  0.92284397263E+02  0.92284397263E+02  0.00000000000E+00 0. -1.
         21   -1    0    0  504  502 -0.00000000000E+00 -0.00000000000E+00 -0.64015710489E+01  0.64015710489E+01  0.00000000000E+00 0.  1.
         21    1    1    2  503  502 -0.22255415593E+02 -0.14239890261E+01  0.23318199715E+02  0.32265611817E+02  0.00000000000E+00 0.  1.
         21    1    1    2  504  501  0.22255415593E+02  0.14239890261E+01  0.62564626499E+02  0.66420356495E+02  0.00000000000E+00 0. -1.
</event>
<event>
 4    1  0.1589319E+006  0.2167640E+02  0.7546771E-02  0.1509823E+00
         21   -1    0    0  502  501  0.00000000000E+00  0.00000000000E+00  0.25759859518E+01  0.25759859518E+01  0.00000000000E+00 0. -1.
         21   -1    0    0  504  502 -0.00000000000E+00 -0.00000000000E+00 -0.77951140045E+03  0.77951140045E+03  0.00000000000E+00 0.  1.
         21    1    1    2  503  501  0.18454000692E+02 -0.11371722873E+02 -0.46219776942E+02  0.51050308551E+02  0.00000000000E+00 0. -1.
         21    1    1    2  504  503 -0.18454000692E+02  0.11371722873E+02 -0.73071563756E+03  0.73103707786E+03  0.00000000000E+00 0.  1.
</event>
<event>
 4    1  0.1589319E+006  0.2012109E+02  0.7546771E-02  0.1532193E+00
         21   -1    0    0  503  501  0.00000000000E+00  0.00000000000E+00  0.46094123463E+01  0.46094123463E+01  0.00000000000E+00 0. -1.
         21   -1    0    0  501  502 -0.00000000000E+00 -0.00000000000E+00 -0.36181717096E+03  0.36181717096E+03  0.00000000000E+00 0.  1.
         21    1    1    2  503  504 -0.12200835042E+02 -0.15999927840E+02 -0.19171985796E+02  0.27792500894E+02  0.00000000000E+00 0. -1.
         21    1    1    2  504  502  0.12200835042E+02  0.15999927840E+02 -0.33803577282E+03  0.33863408242E+03  0.00000000000E+00 0.  1.
</event>
<event>
 4    1  0.1589319E+006  0.2000316E+02  0.7546771E-02  0.1533987E+00
         21   -1    0    0  503  501  0.00000000000E+00  0.00000000000E+00  0.58151706434E+01  0.58151706434E+01  0.00000000000E+00 0. -1.
         21   -1    0    0  504  502 -0.00000000000E+00 -0.00000000000E+00 -0.77097418380E+02  0.77097418380E+02  0.00000000000E+00 0. -1.
         21    1    1    2  503  502 -0.19831101578E+02 -0.26179892610E+01 -0.49235200959E+02  0.53143498860E+02  0.00000000000E+00 0. -1.
         21    1    1    2  504  501  0.19831101578E+02  0.26179892610E+01 -0.22047046778E+02  0.29769090164E+02  0.00000000000E+00 0. -1.
</event>
<event>
 4    1  0.1589319E+006  0.2010389E+02  0.7546771E-02  0.1532454E+00
         21   -1    0    0  503  501  0.00000000000E+00  0.00000000000E+00  0.13423054658E+03  0.13423054658E+03  0.00000000000E+00 0.  1.
         21   -1    0    0  501  502 -0.00000000000E+00 -0.00000000000E+00 -0.44031221827E+01  0.44031221827E+01  0.00000000000E+00 0. -1.
         21    1    1    2  503  504  0.71137881815E+00 -0.20091298406E+02  0.10388988322E+03  0.10581717331E+03  0.00000000000E+00 0.  1.
         21    1    1    2  504  502 -0.71137881815E+00  0.20091298406E+02  0.25937541169E+02  0.32816495447E+02  0.00000000000E+00 0. -1.
</event>
<event>
 4    1  0.1589319E+006  0.3004647E+02  0.7546771E-02  0.1419193E+00
         21   -1    0    0  504  501  0.00000000000E+00  0.00000000000E+00  0.13350497139E+02  0.13350497139E+02  0.00000000000E+00 0. -1.
         21   -1    0    0  501  502 -0.00000000000E+00 -0.00000000000E+00 -0.23206673453E+03  0.23206673453E+03  0.00000000000E+00 0. -1.
         21    1    1    2  503  502  0.28877636689E+02 -0.82989598552E+01 -0.21265287360E+03  0.21476506998E+03  0.00000000000E+00 0. -1.
         21    1    1    2  504  503 -0.28877636689E+02  0.82989598552E+01 -0.60633637914E+01  0.30652161684E+02  0.00000000000E+00 0. -1.
</event>
<event>
 4    1  0.1589319E+006  0.2310402E+02  0.7546771E-02  0.1491196E+00
         21   -1    0    0  503  501  0.00000000000E+00  0.00000000000E+00  0.30911090859E+02  0.30911090859E+02  0.00000000000E+00 0.  1.
         21   -1    0    0  501  502 -0.00000000000E+00 -0.00000000000E+00 -0.30442489769E+02  0.30442489769E+02  0.00000000000E+00 0.  1.
         21    1    1    2  503  504 -0.85796329418E+01 -0.21451938997E+02  0.20414452557E+02  0.30830920539E+02  0.00000000000E+00 0.  1.
         21    1    1    2  504  502  0.85796329418E+01  0.21451938997E+02 -0.19945851466E+02  0.30522660088E+02  0.00000000000E+00 0.  1.
</event>
<event>
 4    1  0.1589319E+006  0.2458535E+02  0.7546771E-02  0.1473496E+00
         21   -1    0    0  504  501  0.00000000000E+00  0.00000000000E+00  0.41340489160E+02  0.41340489160E+02  0.00000000000E+00 0. -1.
         21   -1    0    0  501  502 -0.00000000000E+00 -0.00000000000E+00 -0.22318843601E+03  0.22318843601E+03  0.00000000000E+00 0. -1.
         21    1    1    2  503  502  0.24301623894E+02  0.37242883712E+01 -0.21878276028E+03  0.22015979524E+03  0.00000000000E+00 0. -1.
         21    1    1    2  504  503 -0.24301623894E+02 -0.37242883712E+01  0.36934813425E+02  0.44369129927E+02  0.00000000000E+00 0. -1.
</event>
<event>
 4    1  0.1589319E+006  0.2363702E+02  0.7546771E-02  0.1484650E+00
         21   -1    0    0  503  501  0.00000000000E+00  0.00000000000E+00  0.25117333079E+01  0.25117333079E+01  0.00000000000E+00 0.  1.
         21   -1    0    0  504  502 -0.00000000000E+00 -0.00000000000E+00 -0.54303567636E+03  0.54303567636E+03  0.00000000000E+00 0. -1.
         21    1    1    2  503  502 -0.23066090628E+02 -0.51637481120E+01 -0.47985047419E+03  0.48043229118E+03  0.00000000000E+00 0. -1.
         21    1    1    2  504  501  0.23066090628E+02  0.51637481120E+01 -0.60673468856E+02  0.65115118479E+02  0.00000000000E+00 0.  1.
</event>
<event>
 4    1  0.1589319E+006  0.2167515E+02  0.7546771E-02  0.1509840E+00
         21   -1    0    0  504  501  0.00000000000E+00  0.00000000000E+00  0.10070001793E+02  0.10070001793E+02  0.00000000000E+00 0.  1.
         21   -1    0    0  503  502 -0.00000000000E+00 -0.00000000000E+00 -0.47684508558E+02  0.47684508558E+02  0.00000000000E+00 0.  1.
         21    1    1    2  503  501 -0.15382842228E+02 -0.15270241321E+02 -0.23051126724E+02  0.31641215973E+02  0.00000000000E+00 0.  1.
         21    1    1    2  504  502  0.15382842228E+02  0.15270241321E+02 -0.14563380042E+02  0.26113294378E+02  0.00000000000E+00 0.  1.
</event>
<event>
 4    1  0.1589319E+006  0.2189811E+02  0.7546771E-02  0.1506818E+00
         21   -1    0    0  502  501  0.00000000000E+00  0.00000000000E+00  0.19117016326E+02  0.19117016326E+02  0.00000000000E+00 0. -1.
         21   -1    0    0  503  502 -0.00000000000E+00 -0.00000000000E+00 -0.33749070375E+02  0.33749070375E+02  0.00000000000E+00 0. -1.
         21    1    1    2  503  504  0.17889217782E+02  0.12629455677E+02 -0.20709941372E+02  0.30140154863E+02  0.00000000000E+00 0. -1.
         21    1    1    2  504  501 -0.17889217782E+02 -0.12629455677E+02  0.60778873226E+01  0.22725931837E+02  0.00000000000E+00 0. -1.
</event>
<event>
 4    1  0.1589319E+006  0.2166115E+02  0.7546771E-02  0.1510031E+00
         21   -1    0    0  504  501  0.00000000000E+00  0.00000000000E+00  0.89784187666E+02  0.89784187666E+02  0.00000000000E+00 0. -1.
         21   -1    0    0  503  502 -0.00000000000E+00 -0.00000000000E+00 -0.11076382869E+03  0.11076382869E+03  0.00000000000E+00 0.  1.
         21    1    1    2  503  501  0.12966366738E+02 -0.17351617193E+02  0.87390105065E+02  0.90034636384E+02  0.00000000000E+00 0. -1.
         21    1    1    2  504  502 -0.12966366738E+02  0.17351617193E+02 -0.10836974608E+03  0.11051337997E+03  0.00000000000E+00 0.  1.
</event>
<event>
 4    1  0.1589319E+006  0.2428813E+02  0.7546771E-02  0.1476927E+00
         21   -1    0    0  503  501  0.00000000000E+00  0.00000000000E+00  0.20446893682E+02  0.20446893682E+02  0.00000000000E+00 0.  1.
         21   -1    0    0  504  502 -0.00000000000E+00 -0.00000000000E+00 -0.48472138153E+02  0.48472138153E+02  0.00000000000E+00 0. -1.
         21    1    1    2  503  502 -0.18099058194E+02  0.16196835063E+02  0.79116485626E+01  0.25544227460E+02  0.00000000000E+00 0.  1.
         21    1    1    2  504  501  0.18099058194E+02 -0.16196835063E+02 -0.35936893034E+02  0.43374804374E+02  0.00000000000E+00 0. -1.
</event>
<event>
 4    1  0.1589319E+006  0.3076006E+02  0.7546771E-02  0.1413104E+00
         21   -1    0    0  504  501  0.00000000000E+00  0.00000000000E+00  0.38258117519E+01  0.38258117519E+01  0.00000000000E+00 0.  1.
         21   -1    0    0  503  502 -0.00000000000E+00 -0.00000000000E+00 -0.28056445721E+03  0.28056445721E+03  0.00000000000E+00 0.  1.
         21    1    1    2  503  501  0.25418977228E+02 -0.17322147266E+02 -0.89418528653E+02  0.94561379303E+02  0.00000000000E+00 0.  1.
         21    1    1    2  504  502 -0.25418977228E+02  0.17322147266E+02 -0.18732011681E+03  0.18982888966E+03  0.00000000000E+00 0.  1.
</event>
<event>
 4    1  0.1589319E+006  0.2799028E+02  0.7546771E-02  0.1437906E+00
         21   -1    0    0  503  501  0.00000000000E+00  0.00000000000E+00  0.19114913340E+03  0.19114913340E+03  0.00000000000E+00 0. -1.
         21   -1    0    0  504  502 -0.00000000000E+00 -0.00000000000E+00 -0.14726395371E+02  0.14726395371E+02  0.00000000000E+00 0.  1.
         21    1    1    2  503  502 -0.27805333429E+02 -0.32123360297E+01  0.17565875484E+03  0.17787482627E+03  0.00000000000E+00 0. -1.
         21    1    1    2  504  501  0.27805333429E+02  0.32123360297E+01  0.76398318668E+00  0.28000702494E+02  0.00000000000E+00 0.  1.
</event>
<event>
 4    1  0.1589319E+006  0.2156590E+02  0.7546771E-02  0.1511337E+00
         21   -1    0    0  504  501  0.00000000000E+00  0.00000000000E+00  0.53799034544E+01  0.53799034544E+01  0.00000000000E+00 0. -1.
         21   -1    0    0  503  502 -0.00000000000E+00 -0.00000000000E+00 -0.11821189571E+03  0.11821189571E+03  0.00000000000E+00 0. -1.
         21    1    1    2  503  501 -0.17915786141E+02 -0.12004684826E+02 -0.24383677278E+02  0.32552289756E+02  0.00000000000E+00 0. -1.
         21    1    1    2  504  502  0.17915786141E+02  0.12004684826E+02 -0.88448314980E+02  0.91039509410E+02  0.00000000000E+00 0. -1.
</event>
<event>
 4    1  0.1589319E+006  0.2311979E+02  0.7546771E-02  0.1490999E+00
         21   -1    0    0  504  501  0.00000000000E+00  0.00000000000E+00  0.29181205443E+01  0.29181205443E+01  0.00000000000E+00 0.  1.
         21   -1    0    0  503  502 -0.00000000000E+00 -0.00000000000E+00 -0.22663592207E+03  0.22663592207E+03  0.00000000000E+00 0.  1.
         21    1    1    2  503  501 -0.21494962718E+02  0.85141760050E+01 -0.61596449367E+02  0.65792455418E+02  0.00000000000E+00 0.  1.
         21    1    1    2  504  502  0.21494962718E+02 -0.85141760050E+01 -0.16212135216E+03  0.16376158719E+03  0.00000000000E+00 0.  1.
</event>
<event>
 4    1  0.1589319E+006  0.2207217E+02  0.7546771E-02  0.1504490E+00
         21   -1    0    0  503  501  0.00000000000E+00  0.00000000000E+00  0.13243165416E+03  0.13243165416E+03  0.00000000000E+00 0. -1.
         21   -1    0    0  504  502 -0.00000000000E+00 -0.00000000000E+00 -0.82542479142E+01  0.82542479142E+01  0.00000000000E+00 0. -1.
         21    1    1    2  503  502 -0.20515390894E+02 -0.81424532342E+01  0.11446101883E+03  0.11656974581E+03  0.00000000000E+00 0. -1.
         21    1    1    2  504  501  0.20515390894E+02  0.81424532342E+01  0.97163874163E+01  0.24116156258E+02  0.00000000000E+00 0. -1.
</event>
<event>
 4    1  0.1589319E+006  0.2620485E+02  0.7546771E-02  0.1455763E+00
         21   -1    0    0  502  501  0.00000000000E+00  0.00000000000E+00  0.27852402100E+02  0.27852402100E+02  0.00000000000E+00 0.  1.
         21   -1    0    0  504  502 -0.00000000000E+00 -0.00000000000E+00 -0.37861075825E+03  0.37861075825E+03  0.00000000000E+00 0.  1.
         21    1    1    2  503  501 -0.16453654957E+02 -0.20395379043E+02  0.21123900098E+02  0.33658778990E+02  0.00000000000E+00 0.  1.
         21    1    1    2  504  503  0.16453654957E+02  0.20395379043E+02 -0.37188225625E+03  0.37280438136E+03  0.00000000000E+00 0.  1.
</event>
<event>
 4    1  0.1589319E+006  0.8449920E+02  0.7546771E-02  0.1193771E+00
         21   -1    0    0  504  501  0.00000000000E+00  0.00000000000E+00  0.51914312283E+02  0.51914312283E+02  0.00000000000E+00 0.  1.
         21   -1    0    0  503  502 -0.00000000000E+00 -0.00000000000E+00 -0.23022651980E+03  0.23022651980E+03  0.00000000000E+00 0.  1.
         21    1    1    2  503  501  0.42570331150E+02  0.72992343249E+02  0.35453359839E+00  0.84499946516E+02  0.00000000000E+00 0.  1.
         21    1    1    2  504  502 -0.42570331150E+02 -0.72992343249E+02 -0.17866674112E+03  0.19764088557E+03  0.00000000000E+00 0.  1.
</event>
<event>
 4    1  0.1589319E+006  0.2044277E+02  0.7546771E-02  0.1527371E+00
         21   -1    0    0  504  501  0.00000000000E+00  0.00000000000E+00  0.54845177818E+02  0.54845177818E+02  0.00000000000E+00 0.  1.
         21   -1    0    0  501  502 -0.00000000000E+00 -0.00000000000E+00 -0.22545629707E+02  0.22545629707E+02  0.00000000000E+00 0.  1.
         21    1    1    2  503  502  0.20034366070E+02 -0.40658161345E+01 -0.15334822231E+02  0.25555106291E+02  0.00000000000E+00 0.  1.
         21    1    1    2  504  503 -0.20034366070E+02  0.40658161345E+01  0.47634370341E+02  0.51835701235E+02  0.00000000000E+00 0.  1.
</event>
<event>
 4    1  0.1589319E+006  0.2900762E+02  0.7546771E-02  0.1428421E+00
         21   -1    0    0  504  501  0.00000000000E+00  0.00000000000E+00  0.46466623013E+02  0.46466623013E+02  0.00000000000E+00 0.  1.
         21   -1    0    0  501  502 -0.00000000000E+00 -0.00000000000E+00 -0.89973858776E+02  0.89973858776E+02  0.00000000000E+00 0.  1.
         21    1    1    2  503  502  0.28955837508E+02  0.17324688563E+01 -0.82723422134E+02  0.87661887635E+02  0.00000000000E+00 0.  1.
         21    1    1    2  504  503 -0.28955837508E+02 -0.17324688563E+01  0.39216186371E+02  0.48778594154E+02  0.00000000000E+00 0.  1.
</event>
<event>
 4    1  0.1589319E+006  0.5046309E+02  0.7546771E-02  0.1296177E+00
         21   -1    0    0  503  501  0.00000000000E+00  0.00000000000E+00  0.76755322941E+02  0.76755322941E+02  0.00000000000E+00 0.  1.
         21   -1    0    0  501  502 -0.00000000000E+00 -0.00000000000E+00 -0.54829479155E+02  0.54829479155E+02  0.00000000000E+00 0. -1.
         21    1    1    2  503  504  0.49413731372E+02  0.10237523919E+02  0.52307719553E+02  0.72681643273E+02  0.00000000000E+00 0.  1.
         21    1    1    2  504  502 -0.49413731372E+02 -0.10237523919E+02 -0.30381875767E+02  0.58903158822E+02  0.00000000000E+00 0. -1.
</event>
<event>
 4    1  0.1589319E+006  0.2618872E+02  0.7546771E-02  0.1455932E+00
         21   -1    0    0  502  501  0.00000000000E+00  0.00000000000E+00  0.44456275459E+02  0.44456275459E+02  0.00000000000E+00 0. -1.
         21   -1    0    0  503  502 -0.00000000000E+00 -0.00000000000E+00 -0.65600524524E+02  0.65600524524E+02  0.00000000000E+00 0. -1.
         21    1    1    2  503  504  0.12698595802E+02 -0.22904032959E+02 -0.58696863065E+02  0.64274184513E+02  0.00000000000E+00 0. -1.
         21    1    1    2  504  501 -0.12698595802E+02  0.22904032959E+02  0.37552614000E+02  0.45782615471E+02  0.00000000000E+00 0. -1.
</event>
<event>
 4    1  0.1589319E+006  0.2430865E+02  0.7546771E-02  0.1476688E+00
         21   -1    0    0  504  501  0.00000000000E+00  0.00000000000E+00  0.13500417567E+02  0.13500417567E+02  0.00000000000E+00 0.  1.
         21   -1    0    0  503  502 -0.00000000000E+00 -0.00000000000E+00 -0.57201123916E+02  0.57201123916E+02  0.00000000000E+00 0. -1.
         21    1    1    2  503  501  0.22152455765E+02  0.10008952104E+02 -0.38980307573E+02  0.45938815800E+02  0.00000000000E+00 0. -1.
         21    1    1    2  504  502 -0.22152455765E+02 -0.10008952104E+02 -0.47203987761E+01  0.24762725683E+02  0.00000000000E+00 0.  1.
</event>
<event>
 4    1  0.1589319E+006  0.2042959E+02  0.7546771E-02  0.1527567E+00
         21   -1    0    0  502  501  0.00000000000E+00  0.00000000000E+00  0.21544556968E+02  0.21544556968E+02  0.00000000000E+00 0. -1.
         21   -1    0    0  503  502 -0.00000000000E+00 -0.00000000000E+00 -0.40409927365E+02  0.40409927365E+02  0.00000000000E+00 0.  1.
         21    1    1    2  503  504  0.20011118686E+02  0.41138035599E+01 -0.31783676697E+02  0.37783202024E+02  0.00000000000E+00 0.  1.
         21    1    1    2  504  501 -0.20011118686E+02 -0.41138035599E+01  0.12918306299E+02  0.24171282309E+02  0.00000000000E+00 0. -1.
</event>
<event>
 4    1  0.1589319E+006  0.2495815E+02  0.7546771E-02  0.1469272E+00
         21   -1    0    0  503  501  0.00000000000E+00  0.00000000000E+00  0.30737696924E+01  0.30737696924E+01  0.00000000000E+00 0. -1.
         21   -1    0    0  504  502 -0.00000000000E+00 -0.00000000000E+00 -0.36218004908E+03  0.36218004908E+03  0.00000000000E+00 0. -1.
         21    1    1    2  503  502 -0.21420841168E+02  0.12808461178E+02 -0.30075784167E+03  0.30179163083E+03  0.00000000000E+00 0. -1.
         21    1    1    2  504  501  0.21420841168E+02 -0.12808461178E+02 -0.58348437717E+02  0.63462187939E+02  0.00000000000E+00 0. -1.
</event>
<event>
 4    1  0.1589319E+006  0.2782787E+02  0.7546771E-02  0.1439465E+00
         21   -1    0    0  504  501  0.00000000000E+00  0.00000000000E+00  0.18089327279E+03  0.18089327279E+03  0.00000000000E+00 0.  1.
         21   -1    0    0  503  502 -0.00000000000E+00 -0.00000000000E+00 -0.49525540658E+01  0.49525540658E+01  0.00000000000E+00 0. -1.
         21    1    1    2  503  501 -0.11120745757E+01  0.27805642801E+02  0.12218981056E+03  0.12531855523E+03  0.00000000000E+00 0.  1.
         21    1    1    2  504  502  0.11120745757E+01 -0.27805642801E+02  0.53750908167E+02  0.60527271624E+02  0.00000000000E+00 0. -1.
</event>
<event>
 4    1  0.1589319E+006  0.2276354E+02  0.7546771E-02  0.1495489E+00
         21   -1    0    0  504  501  0.00000000000E+00  0.00000000000E+00  0.25321813005E+02  0.25321813005E+02  0.00000000000E+00 0. -1.
         21   -1    0    0  501  502 -0.00000000000E+00 -0.00000000000E+00 -0.71465417822E+02  0.71465417822E+02  0.00000000000E+00 0.  1.
         21    1    1    2  503  502  0.12650398240E+02 -0.18924749632E+02 -0.63953825381E+02  0.67884243423E+02  0.00000000000E+00 0.  1.
         21    1    1    2  504  503 -0.12650398240E+02  0.18924749632E+02  0.17810220565E+02  0.28902987403E+02  0.00000000000E+00 0. -1.
</event>
<event>
 4    1  0.1589319E+006  0.2020078E+02  0.7546771E-02  0.1530988E+00
         21   -1    0    0  504  501  0.00000000000E+00  0.00000000000E+00  0.10519673061E+01  0.10519673061E+01  0.00000000000E+00 0.  1.
         21   -1    0    0  503  502 -0.00000000000E+00 -0.00000000000E+00 -0.43207522241E+03  0.43207522241E+03  0.00000000000E+00 0.  1.
         21    1    1    2  503  501 -0.19575876335E+02 -0.49856190484E+01 -0.14627540095E+03  0.14766368631E+03  0.00000000000E+00 0.  1.
         21    1    1    2  504  502  0.19575876335E+02  0.49856190484E+01 -0.28474785415E+03  0.28546350340E+03  0.00000000000E+00 0.  1.
</event>
<event>
 4    1  0.1589319E+006  0.2408548E+02  0.7546771E-02  0.1479300E+00
         21   -1    0    0  502  501  0.00000000000E+00  0.00000000000E+00  0.18910928621E+01  0.18910928621E+01  0.00000000000E+00 0. -1.
         21   -1    0    0  504  502 -0.00000000000E+00 -0.00000000000E+00 -0.30844425698E+03  0.30844425698E+03  0.00000000000E+00 0. -1.
         21    1    1    2  503  501 -0.94240477420E+01 -0.22165235271E+02 -0.14180807777E+03  0.14383894205E+03  0.00000000000E+00 0. -1.
         21    1    1    2  504  503  0.94240477420E+01  0.22165235271E+02 -0.16474508635E+03  0.16649640779E+03  0.00000000000E+00 0. -1.
</event>
<event>
 4    1  0.1589319E+006  0.2090684E+02  0.7546771E-02  0.1520599E+00
         21   -1    0    0  502  501  0.00000000000E+00  0.00000000000E+00  0.10211376791E+03  0.10211376791E+03  0.00000000000E+00 0.  1.
         21   -1    0    0  503  502 -0.00000000000E+00 -0.00000000000E+00 -0.63771019191E+01  0.63771019191E+01  0.00000000000E+00 0. -1.
         21    1    1    2  503  504  0.10820883041E+00 -0.20906555681E+02  0.16764655412E+02  0.26798310593E+02  0.00000000000E+00 0. -1.
         21    1    1    2  504  501 -0.10820883041E+00  0.20906555681E+02  0.78972010583E+02  0.81692559239E+02  0.00000000000E+00 0.  1.
</event>
<event>
 4    1  0.1589319E+006  0.2362542E+02  0.7546771E-02  0.1484791E+00
         21   -1    0    0  503  501  0.00000000000E+00  0.00000000000E+00  0.13293971642E+03  0.13293971642E+03  0.00000000000E+00 0. -1.
         21   -1    0    0  504  502 -0.00000000000E+00 -0.00000000000E+00 -0.46793298983E+01  0.46793298983E+01  0.00000000000E+00 0. -1.
         21    1    1    2  503  502 -0.59279698403E+01  0.22869620106E+02  0.42075122850E+02  0.48254288027E+02  0.00000000000E+00 0. -1.
         21    1    1    2  504  501  0.59279698403E+01 -0.22869620106E+02  0.86185263674E+02  0.89364758293E+02  0.00000000000E+00 0. -1.
</event>
<event>
 4    1  0.1589319E+006  0.2428171E+02  0.7546771E-02  0.1477002E+00
         21   -1    0    0  504  501  0.00000000000E+00  0.00000000000E+00  0.96532535847E+01  0.96532535847E+01  0.00000000000E+00 0. -1.
         21   -1    0    0  503  502 -0.00000000000E+00 -0.00000000000E+00 -0.13955206731E+03  0.13955206731E+03  0.00000000000E+00 0.  1.
         21    1    1    2  503  501 -0.16668286776E+01  0.24224435638E+02 -0.12089285210E+03  0.12330727184E+03  0.00000000000E+00 0.  1.
         21    1    1    2  504  502  0.16668286776E+01 -0.24224435638E+02 -0.90059616187E+01  0.25898049048E+02  0.00000000000E+00 0. -1.
</event>
<event>
 4    1  0.1589319E+006  0.2571603E+02  0.7546771E-02  0.1460950E+00
         21   -1    0    0  502  501  0.00000000000E+00  0.00000000000E+00  0.22511735580E+02  0.22511735580E+02  0.00000000000E+00 0.  1.
         21   -1    0    0  503  502 -0.00000000000E+00 -0.00000000000E+00 -0.18658631650E+03  0.18658631650E+03  0.00000000000E+00 0. -1.
         21    1    1    2  503  504  0.89003289410E+01 -0.24126715168E+02 -0.17800387405E+03  0.17985186520E+03  0.00000000000E+00 0. -1.
         21    1    1    2  504  501 -0.89003289410E+01  0.24126715168E+02  0.13929293127E+02  0.29246186881E+02  0.00000000000E+00 0.  1.
</event>
<event>
 4    1  0.1589319E+006  0.2513339E+02  0.7546771E-02  0.1467317E+00
         21   -1    0    0  503  501  0.00000000000E+00  0.00000000000E+00  0.33372716417E+02  0.33372716417E+02  0.00000000000E+00 0. -1.
         21   -1    0    0  504  502 -0.00000000000E+00 -0.00000000000E+00 -0.19208598520E+02  0.19208598520E+02  0.00000000000E+00 0. -1.
         21    1    1    2  503  502 -0.19461777216E+02  0.15903663647E+02  0.39059251522E+01  0.25435084845E+02  0.00000000000E+00 0. -1.
         21    1    1    2  504  501  0.19461777216E+02 -0.15903663647E+02  0.10258192744E+02  0.27146230091E+02  0.00000000000E+00 0. -1.
</event>
<event>
 4    1  0.1589319E+006  0.2384843E+02  0.7546771E-02  0.1482111E+00
         21   -1    0    0  502  501  0.00000000000E+00  0.00000000000E+00  0.20566883030E+03  0.20566883030E+03  0.00000000000E+00 0.  1.
         21   -1    0    0  504  502 -0.00000000000E+00 -0.00000000000E+00 -0.70196516058E+02  0.70196516058E+02  0.00000000000E+00 0. -1.
         21    1    1    2  503  501 -0.91747316223E+01 -0.22012989240E+02  0.20292463921E+03  0.20432120936E+03  0.00000000000E+00 0.  1.
         21    1    1    2  504  503  0.91747316223E+01  0.22012989240E+02 -0.67452324966E+02  0.71544137000E+02  0.00000000000E+00 0. -1.
</event>
<event>
 4    1  0.1589319E+006  0.2520214E+02  0.7546771E-02  0.1466555E+00
         21   -1    0    0  502  501  0.00000000000E+00  0.00000000000E+00  0.23415232958E+02  0.23415232958E+02  0.00000000000E+00 0. -1.
         21   -1    0    0  504  502 -0.00000000000E+00 -0.00000000000E+00 -0.91659126936E+02  0.91659126936E+02  0.00000000000E+00 0.  1.
         21    1    1    2  503  501 -0.12056264838E+02  0.22131295893E+02  0.14156585002E+02  0.28905997278E+02  0.00000000000E+00 0. -1.
         21    1    1    2  504  503  0.12056264838E+02 -0.22131295893E+02 -0.82400478980E+02  0.86168362616E+02  0.00000000000E+00 0.  1.
</event>
<event>
 4    1  0.1589319E+006  0.3392338E+02  0.7546771E-02  0.1388294E+00
         21   -1    0    0  504  501  0.00000000000E+00  0.00000000000E+00  0.28013065386E+02  0.28013065386E+02  0.00000000000E+00 0. -1.
         21   -1    0    0  503  502 -0.00000000000E+00 -0.00000000000E+00 -0.53971036502E+02  0.53971036502E+02  0.00000000000E+00 0. -1.
         21    1    1    2  503  501  0.22647355251E+02 -0.25256541745E+02 -0.33012255243E+02  0.47335025056E+02  0.00000000000E+00 0. -1.
         21    1    1    2  504  502 -0.22647355251E+02  0.25256541745E+02  0.70542841275E+01  0.34649076832E+02  0.00000000000E+00 0. -1.
</event>
<event>
 4    1  0.1589319E+006  0.2206537E+02  0.7546771E-02  0.1504580E+00
         21   -1    0    0  503  501  0.00000000000E+00  0.00000000000E+00  0.41947928779E+02  0.41947928779E+02  0.00000000000E+00 0. -1.
         21   -1    0    0  504  502 -0.00000000000E+00 -0.00000000000E+00 -0.27776490889E+03  0.27776490889E+03  0.00000000000E+00 0.  1.
         21    1    1    2  503  502 -0.18239631973E+02  0.12417576155E+02 -0.27438936209E+03  0.27527513945E+03  0.00000000000E+00 0.  1.
         21    1    1    2  504  501  0.18239631973E+02 -0.12417576155E+02  0.38572381975E+02  0.44437698222E+02  0.00000000000E+00 0. -1.
</event>
<event>
 4    1  0.1589319E+006  0.2105279E+02  0.7546771E-02  0.1518512E+00
         21   -1    0    0  503  501  0.00000000000E+00  0.00000000000E+00  0.10756506447E+03  0.10756506447E+03  0.00000000000E+00 0. -1.
         21   -1    0    0  501  502 -0.00000000000E+00 -0.00000000000E+00 -0.73085550437E+02  0.73085550437E+02  0.00000000000E+00 0.  1.
         21    1    1    2  503  504 -0.91264971567E+00 -0.21032999687E+02  0.10498190670E+03  0.10707203529E+03  0.00000000000E+00 0. -1.
         21    1    1    2  504  502  0.91264971567E+00  0.21032999687E+02 -0.70502392676E+02  0.73578579616E+02  0.00000000000E+00 0.  1.
</event>
<event>
 4    1  0.1589319E+006  0.2049196E+02  0.7546771E-02  0.1526643E+00
         21   -1    0    0  503  501  0.00000000000E+00  0.00000000000E+00  0.54474656040E+01  0.54474656040E+01  0.00000000000E+00 0. -1.
         21   -1    0    0  501  502 -0.00000000000E+00 -0.00000000000E+00 -0.22456651294E+03  0.22456651294E+03  0.00000000000E+00 0. -1.
         21    1    1    2  503  504 -0.88566640588E+01  0.18479175390E+02 -0.16358680032E+02  0.26220732899E+02  0.00000000000E+00 0. -1.
         21    1    1    2  504  502  0.88566640588E+01 -0.18479175390E+02 -0.20276036731E+03  0.20379324565E+03  0.00000000000E+00 0. -1.
</event>
<event>
 4    1  0.1589319E+006  0.3170827E+02  0.7546771E-02  0.1405310E+00
         21   -1    0    0  504  501  0.00000000000E+00  0.00000000000E+00  0.19198771564E+03  0.19198771564E+03  0.00000000000E+00 0.  1.
         21   -1    0    0  503  502 -0.00000000000E+00 -0.00000000000E+00 -0.94013305395E+02  0.94013305395E+02  0.00000000000E+00 0.  1.
         21    1    1    2  503  501 -0.19514028881E+02  0.24992346268E+02  0.18794783643E+03  0.19060378777E+03  0.00000000000E+00 0.  1.
         21    1    1    2  504  502  0.19514028881E+02 -0.24992346268E+02 -0.89973426183E+02  0.95397233263E+02  0.00000000000E+00 0.  1.
</event>
<event>
 4    1  0.1589319E+006  0.2085355E+02  0.7546771E-02  0.1521366E+00
         21   -1    0    0  504  501  0.00000000000E+00  0.00000000000E+00  0.10647837958E+01  0.10647837958E+01  0.00000000000E+00 0.  1.
         21   -1    0    0  503  502 -0.00000000000E+00 -0.00000000000E+00 -0.50605943281E+03  0.50605943281E+03  0.00000000000E+00 0.  1.
         21    1    1    2  503  501 -0.86425618842E+01  0.18978320475E+02 -0.36387904301E+03  0.36447610136E+03  0.00000000000E+00 0.  1.
         21    1    1    2  504  502  0.86425618842E+01 -0.18978320475E+02 -0.14111560600E+03  0.14264811524E+03  0.00000000000E+00 0.  1.
</event>
<event>
 4    1  0.1589319E+006  0.2628617E+02  0.7546771E-02  0.1454913E+00
         21   -1    0    0  504  501  0.00000000000E+00  0.00000000000E+00  0.20811148003E+01  0.20811148003E+01  0.00000000000E+00 0. -1.
         21   -1    0    0  503  502 -0.00000000000E+00 -0.00000000000E+00 -0.73214390829E+03  0.73214390829E+03  0.00000000000E+00 0. -1.
         21    1    1    2  503  501  0.23287403515E+02  0.12192602093E+02 -0.93637195157E+02  0.97256809659E+02  0.00000000000E+00 0. -1.
         21    1    1    2  504  502 -0.23287403515E+02 -0.12192602093E+02 -0.63642559833E+03  0.63696821343E+03  0.00000000000E+00 0. -1.
</event>
<event>
 4    1  0.1589319E+006  0.2463760E+02  0.7546771E-02  0.1472899E+00
         21   -1    0    0  504  501  0.00000000000E+00  0.00000000000E+00  0.47736128853E+02  0.47736128853E+02  0.00000000000E+00 0.  1.
         21   -1    0    0  501  502 -0.00000000000E+00 -0.00000000000E+00 -0.57248373807E+02  0.57248373807E+02  0.00000000000E+00 0.  1.
         21    1    1    2  503  502 -0.14716712640E+02 -0.19759290286E+02 -0.51052998953E+02  0.56687034546E+02  0.00000000000E+00 0.  1.
         21    1    1    2  504  503  0.14716712640E+02  0.19759290286E+02  0.41540753998E+02  0.48297468115E+02  0.00000000000E+00 0.  1.
</event>
<event>
 4    1  0.1589319E+006  0.2443121E+02  0.7546771E-02  0.1475268E+00
         21   -1    0    0  504  501  0.00000000000E+00  0.00000000000E+00  0.16206752661E+02  0.16206752661E+02  0.00000000000E+00 0. -1.
         21   -1    0    0  503  502 -0.00000000000E+00 -0.00000000000E+00 -0.40582210476E+02  0.40582210476E+02  0.00000000000E+00 0. -1.
         21    1    1    2  503  501 -0.23554888586E+02  0.64846847893E+01 -0.35530099492E+01  0.24688211616E+02  0.00000000000E+00 0. -1.
         21    1    1    2  504  502  0.23554888586E+02 -0.64846847893E+01 -0.20822447866E+02  0.32100751521E+02  0.00000000000E+00 0. -1.
</event>
<event>
 4    1  0.1589319E+006  0.2150173E+02  0.7546771E-02  0.1512221E+00
         21   -1    0    0  503  501  0.00000000000E+00  0.00000000000E+00  0.39129128243E+02  0.39129128243E+02  0.00000000000E+00 0. -1.
         21   -1    0    0  504  502 -0.00000000000E+00 -0.00000000000E+00 -0.91886947840E+02  0.91886947840E+02  0.00000000000E+00 0.  1.
         21    1    1    2  503  502 -0.16471838160E+02 -0.13820380293E+02 -0.87530383235E+02  0.90132637557E+02  0.00000000000E+00 0.  1.
         21    1    1    2  504  501  0.16471838160E+02  0.13820380293E+02  0.34772563637E+02  0.40883438526E+02  0.00000000000E+00 0. -1.
</event>
<event>
 4    1  0.1589319E+006  0.2599734E+02  0.7546771E-02  0.1457949E+00
         21   -1    0    0  504  501  0.00000000000E+00  0.00000000000E+00  0.14149380527E+03  0.14149380527E+03  0.00000000000E+00 0. -1.
         21   -1    0    0  503  502 -0.00000000000E+00 -0.00000000000E+00 -0.20035420648E+02  0.20035420648E+02  0.00000000000E+00 0. -1.
         21    1    1    2  503  501 -0.24403787096E+02  0.89619552701E+01  0.13121183042E+03  0.13376249814E+03  0.00000000000E+00 0. -1.
         21    1    1    2  504  502  0.24403787096E+02 -0.89619552701E+01 -0.97534457924E+01  0.27766727782E+02  0.00000000000E+00 0. -1.
</event>
<event>
 4    1  0.1589319E+006  0.2953820E+02  0.7546771E-02  0.1423653E+00
         21   -1    0    0  502  501  0.00000000000E+00  0.00000000000E+00  0.11223914434E+03  0.11223914434E+03  0.00000000000E+00 0. -1.
         21   -1    0    0  503  502 -0.00000000000E+00 -0.00000000000E+00 -0.12550313224E+03  0.12550313224E+03  0.00000000000E+00 0.  1.
         21    1    1    2  503  504  0.25140830453E+02  0.15506245644E+02 -0.12176286815E+03  0.12529445746E+03  0.00000000000E+00 0.  1.
         21    1    1    2  504  501 -0.25140830453E+02 -0.15506245644E+02  0.10849888025E+03  0.11244781912E+03  0.00000000000E+00 0. -1.
</event>
<event>
 4    1  0.1589319E+006  0.3053730E+02  0.7546771E-02  0.1414984E+00
         21   -1    0    0  504  501  0.00000000000E+00  0.00000000000E+00  0.98874131645E+03  0.98874131645E+03  0.00000000000E+00 0.  1.
         21   -1    0    0  501  502 -0.00000000000E+00 -0.00000000000E+00 -0.11156467738E+01  0.11156467738E+01  0.00000000000E+00 0.  1.
         21    1    1    2  503  502  0.12512375508E+02  0.27856186457E+02  0.29919816572E+03  0.30075250462E+03  0.00000000000E+00 0.  1.
         21    1    1    2  504  503 -0.12512375508E+02 -0.27856186457E+02  0.68842750396E+03  0.68910445861E+03  0.00000000000E+00 0.  1.
</event>
<event>
 4    1  0.1589319E+006  0.4270028E+02  0.7546771E-02  0.1333350E+00
         21   -1    0    0  504  501  0.00000000000E+00  0.00000000000E+00  0.14270724336E+02  0.14270724336E+02  0.00000000000E+00 0.  1.
         21   -1    0    0  503  502 -0.00000000000E+00 -0.00000000000E+00 -0.21959448455E+03  0.21959448455E+03  0.00000000000E+00 0.  1.
         21    1    1    2  503  501  0.32157229578E+02 -0.28093174659E+02 -0.17827785100E+03  0.18332022811E+03  0.00000000000E+00 0.  1.
         21    1    1    2  504  502 -0.32157229578E+02  0.28093174659E+02 -0.27045909212E+02  0.50544980776E+02  0.00000000000E+00 0.  1.
</event>
<event>
 4    1  0.1589319E+006  0.2919782E+02  0.7546771E-02  0.1426698E+00
         21   -1    0    0  503  501  0.00000000000E+00  0.00000000000E+00  0.31101650193E+03  0.31101650193E+03  0.00000000000E+00 0.  1.
         21   -1    0    0  504  502 -0.00000000000E+00 -0.00000000000E+00 -0.16064557578E+03  0.16064557578E+03  0.00000000000E+00 0. -1.
         21    1    1    2  503  502 -0.25954479725E+02  0.13374506856E+02 -0.15862495866E+03  0.16128977017E+03  0.00000000000E+00 0. -1.
         21    1    1    2  504  501  0.25954479725E+02 -0.13374506856E+02  0.30899588482E+03  0.31037230754E+03  0.00000000000E+00 0.  1.
</event>
<event>
 4    1  0.1589319E+006  0.3123607E+02  0.7546771E-02  0.1409151E+00
         21   -1    0    0  504  501  0.00000000000E+00  0.00000000000E+00  0.64394809434E+00  0.64394809434E+00  0.00000000000E+00 0.  1.
         21   -1    0    0  503  502 -0.00000000000E+00 -0.00000000000E+00 -0.16057870124E+04  0.16057870124E+04  0.00000000000E+00 0.  1.
         21    1    1    2  503  501  0.18894722157E+02 -0.24873315526E+02 -0.61176759777E+03  0.61256451581E+03  0.00000000000E+00 0.  1.
         21    1    1    2  504  502 -0.18894722157E+02  0.24873315526E+02 -0.99337546653E+03  0.99386644467E+03  0.00000000000E+00 0.  1.
</event>
<event>
 4    1  0.1589319E+006  0.4459124E+02  0.7546771E-02  0.1323496E+00
         21   -1    0    0  504  501  0.00000000000E+00  0.00000000000E+00  0.24044844114E+03  0.24044844114E+03  0.00000000000E+00 0.  1.
         21   -1    0    0  503  502 -0.00000000000E+00 -0.00000000000E+00 -0.50075015929E+02  0.50075015929E+02  0.00000000000E+00 0.  1.
         21    1    1    2  503  501 -0.44397701199E+02  0.41500234367E+01  0.22791321973E+03  0.23223439516E+03  0.00000000000E+00 0.  1.
         21    1    1    2  504  502  0.44397701199E+02 -0.41500234367E+01 -0.37539794518E+02  0.58289061913E+02  0.00000000000E+00 0.  1.
</event>
<event>
 4    1  0.1589319E+006  0.2383151E+02  0.7546771E-02  0.1482313E+00
         21   -1    0    0  504  501  0.00000000000E+00  0.00000000000E+00  0.23954133488E+02  0.23954133488E+02  0.00000000000E+00 0.  1.
         21   -1    0    0  503  502 -0.00000000000E+00 -0.00000000000E+00 -0.25750402732E+03  0.25750402732E+03  0.00000000000E+00 0. -1.
         21    1    1    2  503  501 -0.22989080353E+02 -0.62803605627E+01  0.17318945974E+02  0.29459915715E+02  0.00000000000E+00 0.  1.
         21    1    1    2  504  502  0.22989080353E+02  0.62803605627E+01 -0.25086883981E+03  0.25199824509E+03  0.00000000000E+00 0. -1.
</event>
<event>
 4    1  0.1589319E+006  0.2557504E+02  0.7546771E-02  0.1462472E+00
         21   -1    0    0  504  501  0.00000000000E+00  0.00000000000E+00  0.10664055018E+03  0.10664055018E+03  0.00000000000E+00 0. -1.
         21   -1    0    0  503  502 -0.00000000000E+00 -0.00000000000E+00 -0.79412660127E+01  0.79412660127E+01  0.00000000000E+00 0. -1.
         21    1    1    2  503  501  0.25504958041E+02 -0.18919685627E+01  0.76684007565E+02  0.80836374522E+02  0.00000000000E+00 0. -1.
         21    1    1    2  504  502 -0.25504958041E+02  0.18919685627E+01  0.22015276604E+02  0.33745441672E+02  0.00000000000E+00 0. -1.
</event>
<event>
 4    1  0.1589319E+006  0.2102028E+02  0.7546771E-02  0.1518975E+00
         21   -1    0    0  503  501  0.00000000000E+00  0.00000000000E+00  0.73366523963E+03  0.73366523963E+03  0.00000000000E+00 0. -1.
         21   -1    0    0  504  502 -0.00000000000E+00 -0.00000000000E+00 -0.12804003314E+01  0.12804003314E+01  0.00000000000E+00 0. -1.
         21    1    1    2  503  502 -0.41971919560E+01 -0.20596981929E+02  0.98759808524E+02  0.10097203506E+03  0.00000000000E+00 0. -1.
         21    1    1    2  504  501  0.41971919560E+01  0.20596981929E+02  0.63362503078E+03  0.63397360490E+03  0.00000000000E+00 0. -1.
</event>
<event>
 4    1  0.1589319E+006  0.3225892E+02  0.7546771E-02  0.1400931E+00
         21   -1    0    0  502  501  0.00000000000E+00  0.00000000000E+00  0.30738056482E+03  0.30738056482E+03  0.00000000000E+00 0.  1.
         21   -1    0    0  503  502 -0.00000000000E+00 -0.00000000000E+00 -0.35327226729E+01  0.35327226729E+01  0.00000000000E+00 0.  1.
         21    1    1    2  503  504  0.32258729169E+02  0.11066723203E+00  0.12018900952E+03  0.12444290202E+03  0.00000000000E+00 0.  1.
         21    1    1    2  504  501 -0.32258729169E+02 -0.11066723203E+00  0.18365883263E+03  0.18647038547E+03  0.00000000000E+00 0.  1.
</event>
<event>
 4    1  0.1589319E+006  0.2104827E+02  0.7546771E-02  0.1518577E+00
         21   -1    0    0  503  501  0.00000000000E+00  0.00000000000E+00  0.71886765588E+01  0.71886765588E+01  0.00000000000E+00 0. -1.
         21   -1    0    0  504  502 -0.00000000000E+00 -0.00000000000E+00 -0.84370927962E+02  0.84370927962E+02  0.00000000000E+00 0. -1.
         21    1    1    2  503  502 -0.18208478305E+02 -0.10558464220E+02 -0.62359123511E+02  0.65815576681E+02  0.00000000000E+00 0. -1.
         21    1    1    2  504  501  0.18208478305E+02  0.10558464220E+02 -0.14823127893E+02  0.25744027840E+02  0.00000000000E+00 0. -1.
</event>
<event>
 4    1  0.1589319E+006  0.2706643E+02  0.7546771E-02  0.1446942E+00
         21   -1    0    0  503  501  0.00000000000E+00  0.00000000000E+00  0.10587835179E+02  0.10587835179E+02  0.00000000000E+00 0.  1.
         21   -1    0    0  504  502 -0.00000000000E+00 -0.00000000000E+00 -0.74919255158E+02  0.74919255158E+02  0.00000000000E+00 0.  1.
         21    1    1    2  503  502 -0.21923749743E+02 -0.15872638235E+02 -0.43986758348E+02  0.51647133098E+02  0.00000000000E+00 0.  1.
         21    1    1    2  504  501  0.21923749743E+02  0.15872638235E+02 -0.20344661631E+02  0.33859957239E+02  0.00000000000E+00 0.  1.
</event>
<event>
 4    1  0.1589319E+006  0.2132437E+02  0.7546771E-02  0.1514684E+00
         21   -1    0    0  504  501  0.00000000000E+00  0.00000000000E+00  0.19907110291E+02  0.19907110291E+02  0.00000000000E+00 0. -1.
         21   -1    0    0  503  502 -0.00000000000E+00 -0.00000000000E+00 -0.24443700537E+02  0.24443700537E+02  0.00000000000E+00 0. -1.
         21    1    1    2  503  501  0.42269227091E+01 -0.20901243884E+02  0.34072313580E+01  0.21594862746E+02  0.00000000000E+00 0. -1.
         21    1    1    2  504  502 -0.42269227091E+01  0.20901243884E+02 -0.79438216038E+01  0.22755948083E+02  0.00000000000E+00 0. -1.
</event>
<event>
 4    1  0.1589319E+006  0.2714126E+02  0.7546771E-02  0.1446194E+00
         21   -1    0    0  503  501  0.00000000000E+00  0.00000000000E+00  0.26237061680E+03  0.26237061680E+03  0.00000000000E+00 0.  1.
         21   -1    0    0  501  502 -0.00000000000E+00 -0.00000000000E+00 -0.27975508126E+02  0.27975508126E+02  0.00000000000E+00 0.  1.
         21    1    1    2  503  504  0.25814118952E+02 -0.83832818627E+01  0.25489315571E+03  0.25633409640E+03  0.00000000000E+00 0.  1.
         21    1    1    2  504  502 -0.25814118952E+02  0.83832818627E+01 -0.20498047033E+02  0.34012028523E+02  0.00000000000E+00 0.  1.
</event>
<event>
 4    1  0.1589319E+006  0.2188881E+02  0.7546771E-02  0.1506943E+00
         21   -1    0    0  504  501  0.00000000000E+00  0.00000000000E+00  0.51005409252E+01  0.51005409252E+01  0.00000000000E+00 0.  1.
         21   -1    0    0  501  502 -0.00000000000E+00 -0.00000000000E+00 -0.39590315371E+03  0.39590315371E+03  0.00000000000E+00 0.  1.
         21    1    1    2  503  502  0.72574213868E+01  0.20650664884E+02 -0.37050864799E+03  0.37115465558E+03  0.00000000000E+00 0.  1.
         21    1    1    2  504  503 -0.72574213868E+01 -0.20650664884E+02 -0.20293964800E+02  0.29849039057E+02  0.00000000000E+00 0.  1.
</event>
<event>
 4    1  0.1589319E+006  0.2353146E+02  0.7546771E-02  0.1485930E+00
         21   -1    0    0  503  501  0.00000000000E+00  0.00000000000E+00  0.50812860918E+03  0.50812860918E+03  0.00000000000E+00 0. -1.
         21   -1    0    0  504  502 -0.00000000000E+00 -0.00000000000E+00 -0.32458531068E+02  0.32458531068E+02  0.00000000000E+00 0. -1.
         21    1    1    2  503  502  0.23147768070E+02  0.42320998318E+01 -0.27882456543E+02  0.36485082136E+02  0.00000000000E+00 0. -1.
         21    1    1    2  504  501 -0.23147768070E+02 -0.42320998318E+01  0.50355253465E+03  0.50410205811E+03  0.00000000000E+00 0. -1.
</event>
<event>
 4    1  0.1589319E+006  0.4163001E+02  0.7546771E-02  0.1339190E+00
         21   -1    0    0  504  501  0.00000000000E+00  0.00000000000E+00  0.29936857722E+03  0.29936857722E+03  0.00000000000E+00 0.  1.
         21   -1    0    0  501  502 -0.00000000000E+00 -0.00000000000E+00 -0.65629226082E+01  0.65629226082E+01  0.00000000000E+00 0.  1.
         21    1    1    2  503  502 -0.37621998799E+02  0.17822549782E+02  0.19892972894E+03  0.20323900986E+03  0.00000000000E+00 0.  1.
         21    1    1    2  504  503  0.37621998799E+02 -0.17822549782E+02  0.93875925674E+02  0.10269248997E+03  0.00000000000E+00 0.  1.
</event>
<event>
 4    1  0.1589319E+006  0.2865634E+02  0.7546771E-02  0.1431644E+00
         21   -1    0    0  503  501  0.00000000000E+00  0.00000000000E+00  0.13281404054E+01  0.13281404054E+01  0.00000000000E+00 0.  1.
         21   -1    0    0  504  502 -0.00000000000E+00 -0.00000000000E+00 -0.72718609387E+03  0.72718609387E+03  0.00000000000E+00 0.  1.
         21    1    1    2  503  502  0.27384464960E+02 -0.84425619864E+01 -0.22197522628E+03  0.22381730688E+03  0.00000000000E+00 0.  1.
         21    1    1    2  504  501 -0.27384464960E+02  0.84425619864E+01 -0.50388272718E+03  0.50469692740E+03  0.00000000000E+00 0.  1.
</event>
<event>
 4    1  0.1589319E+006  0.2852897E+02  0.7546771E-02  0.1432826E+00
         21   -1    0    0  503  501  0.00000000000E+00  0.00000000000E+00  0.25515259738E+02  0.25515259738E+02  0.00000000000E+00 0. -1.
         21   -1    0    0  501  502 -0.00000000000E+00 -0.00000000000E+00 -0.14717867574E+03  0.14717867574E+03  0.00000000000E+00 0. -1.
         21    1    1    2  503  504  0.26024383199E+02 -0.11689030054E+02  0.15587354774E+02  0.32509499740E+02  0.00000000000E+00 0. -1.
         21    1    1    2  504  502 -0.26024383199E+02  0.11689030054E+02 -0.13725077077E+03  0.14018443574E+03  0.00000000000E+00 0. -1.
</event>
<event>
 4    1  0.1589319E+006  0.3219803E+02  0.7546771E-02  0.1401410E+00
         21   -1    0    0  503  501  0.00000000000E+00  0.00000000000E+00  0.14751593056E+02  0.14751593056E+02  0.00000000000E+00 0.  1.
         21   -1    0    0  504  502 -0.00000000000E+00 -0.00000000000E+00 -0.22750720350E+03  0.22750720350E+03  0.00000000000E+00 0. -1.
         21    1    1    2  503  502 -0.40929723239E+01  0.31936824127E+02 -0.56803430708E+01  0.32695251263E+02  0.00000000000E+00 0.  1.
         21    1    1    2  504  501  0.40929723239E+01 -0.31936824127E+02 -0.20707526737E+03  0.20956354529E+03  0.00000000000E+00 0. -1.
</event>
<event>
 4    1  0.1589319E+006  0.2495229E+02  0.7546771E-02  0.1469338E+00
         21   -1    0    0  504  501  0.00000000000E+00  0.00000000000E+00  0.89915041986E+03  0.89915041986E+03  0.00000000000E+00 0. -1.
         21   -1    0    0  503  502 -0.00000000000E+00 -0.00000000000E+00 -0.11823979114E+01  0.11823979114E+01  0.00000000000E+00 0.  1.
         21    1    1    2  503  501  0.10300722327E+02 -0.22726901888E+02  0.15920555479E+03  0.16114907888E+03  0.00000000000E+00 0.  1.
         21    1    1    2  504  502 -0.10300722327E+02  0.22726901888E+02  0.73876246716E+03  0.73918373889E+03  0.00000000000E+00 0. -1.
</event>
<event>
 4    1  0.1589319E+006  0.2473609E+02  0.7546771E-02  0.1471777E+00
         21   -1    0    0  503  501  0.00000000000E+00  0.00000000000E+00  0.89723846134E+01  0.89723846134E+01  0.00000000000E+00 0.  1.
         21   -1    0    0  504  502 -0.00000000000E+00 -0.00000000000E+00 -0.10523391751E+03  0.10523391751E+03  0.00000000000E+00 0.  1.
         21    1    1    2  503  502  0.92563174772E+00  0.24718765919E+02 -0.14253389962E+02  0.28548788207E+02  0.00000000000E+00 0.  1.
         21    1    1    2  504  501 -0.92563174772E+00 -0.24718765919E+02 -0.82008142935E+02  0.85657513916E+02  0.00000000000E+00 0.  1.
</event>
<event>
 4    1  0.1589319E+006  0.6751847E+02  0.7546771E-02  0.1236226E+00
         21   -1    0    0  503  501  0.00000000000E+00  0.00000000000E+00  0.41364765687E+03  0.41364765687E+03  0.00000000000E+00 0.  1.
         21   -1    0    0  501  502 -0.00000000000E+00 -0.00000000000E+00 -0.25909245535E+03  0.25909245535E+03  0.00000000000E+00 0.  1.
         21    1    1    2  503  504  0.27119842238E+02  0.61832496075E+02  0.40641594815E+03  0.41198624531E+03  0.00000000000E+00 0.  1.
         21    1    1    2  504  502 -0.27119842238E+02 -0.61832496075E+02 -0.25186074663E+03  0.26075386691E+03  0.00000000000E+00 0.  1.
</event>
<event>
 4    1  0.1589319E+006  0.2201064E+02  0.7546771E-02  0.1505310E+00
         21   -1    0    0  503  501  0.00000000000E+00  0.00000000000E+00  0.27199747916E+01  0.27199747916E+01  0.00000000000E+00 0.  1.
         21   -1    0    0  504  502 -0.00000000000E+00 -0.00000000000E+00 -0.24123659015E+03  0.24123659015E+03  0.00000000000E+00 0.  1.
         21    1    1    2  503  502  0.74453091653E+00  0.21998047061E+02 -0.18165330552E+03  0.18298194394E+03  0.00000000000E+00 0.  1.
         21    1    1    2  504  501 -0.74453091653E+00 -0.21998047061E+02 -0.56863309831E+02  0.60974620997E+02  0.00000000000E+00 0.  1.
</event>
<event>
 4    1  0.1589319E+006  0.2726393E+02  0.7546771E-02  0.1444975E+00
         21   -1    0    0  504  501  0.00000000000E+00  0.00000000000E+00  0.30307550499E+02  0.30307550499E+02  0.00000000000E+00 0. -1.
         21   -1    0    0  503  502 -0.00000000000E+00 -0.00000000000E+00 -0.27639118694E+02  0.27639118694E+02  0.00000000000E+00 0. -1.
         21    1    1    2  503  501 -0.27001758011E+02 -0.37718930704E+01  0.11058020648E+02  0.29421113739E+02  0.00000000000E+00 0. -1.
         21    1    1    2  504  502  0.27001758011E+02  0.37718930704E+01 -0.83895888428E+01  0.28525555454E+02  0.00000000000E+00 0. -1.
</event>
<event>
 4    1  0.1589319E+006  0.2216803E+02  0.7546771E-02  0.1503218E+00
         21   -1    0    0  504  501  0.00000000000E+00  0.00000000000E+00  0.78750194081E+02  0.78750194081E+02  0.00000000000E+00 0.  1.
         21   -1    0    0  503  502 -0.00000000000E+00 -0.00000000000E+00 -0.53960143096E+02  0.53960143096E+02  0.00000000000E+00 0.  1.
         21    1    1    2  503  501 -0.88538762308E+01 -0.20323155309E+02  0.74795499902E+02  0.78011464360E+02  0.00000000000E+00 0.  1.
         21    1    1    2  504  502  0.88538762308E+01  0.20323155309E+02 -0.50005448917E+02  0.54698872816E+02  0.00000000000E+00 0.  1.
</event>
<event>
 4    1  0.1589319E+006  0.2097352E+02  0.7546771E-02  0.1519643E+00
         21   -1    0    0  503  501  0.00000000000E+00  0.00000000000E+00  0.93506694540E+03  0.93506694540E+03  0.00000000000E+00 0. -1.
         21   -1    0    0  501  502 -0.00000000000E+00 -0.00000000000E+00 -0.21932550696E+01  0.21932550696E+01  0.00000000000E+00 0. -1.
         21    1    1    2  503  504  0.20963250987E+02  0.65610128087E+00  0.88177855941E+03  0.88202795658E+03  0.00000000000E+00 0. -1.
         21    1    1    2  504  502 -0.20963250987E+02 -0.65610128087E+00  0.51095130917E+02  0.55232243882E+02  0.00000000000E+00 0. -1.
</event>
<event>
 4    1  0.1589319E+006  0.2710903E+02  0.7546771E-02  0.1446516E+00
         21   -1    0    0  503  501  0.00000000000E+00  0.00000000000E+00  0.11321584619E+03  0.11321584619E+03  0.00000000000E+00 0.  1.
         21   -1    0    0  501  502 -0.00000000000E+00 -0.00000000000E+00 -0.72968020994E+01  0.72968020994E+01  0.00000000000E+00 0.  1.
         21    1    1    2  503  504  0.25938187151E+02  0.78809709085E+01  0.72981840818E+02  0.77854019449E+02  0.00000000000E+00 0.  1.
         21    1    1    2  504  502 -0.25938187151E+02 -0.78809709085E+01  0.32937203273E+02  0.42658628841E+02  0.00000000000E+00 0.  1.
</event>
<event>
 4    1  0.1589319E+006  0.2214233E+02  0.7546771E-02  0.1503558E+00
         21   -1    0    0  504  501  0.00000000000E+00  0.00000000000E+00  0.89084637363E+02  0.89084637363E+02  0.00000000000E+00 0. -1.
         21   -1    0    0  503  502 -0.00000000000E+00 -0.00000000000E+00 -0.33128424717E+02  0.33128424717E+02  0.00000000000E+00 0. -1.
         21    1    1    2  503  501  0.21171397289E+02 -0.64849680393E+01  0.83778504403E+02  0.86655182612E+02  0.00000000000E+00 0. -1.
         21    1    1    2  504  502 -0.21171397289E+02  0.64849680393E+01 -0.27822291757E+02  0.35557879468E+02  0.00000000000E+00 0. -1.
</event>
<event>
 4    1  0.1589319E+006  0.2322972E+02  0.7546771E-02  0.1489633E+00
         21   -1    0    0  503  501  0.00000000000E+00  0.00000000000E+00  0.84432770516E+03  0.84432770516E+03  0.00000000000E+00 0.  1.
         21   -1    0    0  504  502 -0.00000000000E+00 -0.00000000000E+00 -0.64083091096E+00  0.64083091096E+00  0.00000000000E+00 0.  1.
         21    1    1    2  503  502  0.30755543526E+01  0.23025225397E+02  0.39996305491E+03  0.40063707434E+03  0.00000000000E+00 0.  1.
         21    1    1    2  504  501 -0.30755543526E+01 -0.23025225397E+02  0.44372381934E+03  0.44433146173E+03  0.00000000000E+00 0.  1.
</event>
<event>
 4    1  0.1589319E+006  0.2278884E+02  0.7546771E-02  0.1495167E+00
         21   -1    0    0  504  501  0.00000000000E+00  0.00000000000E+00  0.30407406184E+02  0.30407406184E+02  0.00000000000E+00 0.  1.
         21   -1    0    0  503  502 -0.00000000000E+00 -0.00000000000E+00 -0.19407952765E+02  0.19407952765E+02  0.00000000000E+00 0. -1.
         21    1    1    2  503  501 -0.10702380944E+02 -0.20119405299E+02 -0.31283403524E+01  0.23002563788E+02  0.00000000000E+00 0. -1.
         21    1    1    2  504  502  0.10702380944E+02  0.20119405299E+02  0.14127793771E+02  0.26812795160E+02  0.00000000000E+00 0.  1.
</event>
<event>
 4    1  0.1589319E+006  0.2429718E+02  0.7546771E-02  0.1476822E+00
         21   -1    0    0  502  501  0.00000000000E+00  0.00000000000E+00  0.18761527403E+02  0.18761527403E+02  0.00000000000E+00 0. -1.
         21   -1    0    0  503  502 -0.00000000000E+00 -0.00000000000E+00 -0.10488125242E+04  0.10488125242E+04  0.00000000000E+00 0.  1.
         21    1    1    2  503  504 -0.22364394952E+02  0.94966759084E+01 -0.10407442916E+04  0.10410278735E+04  0.00000000000E+00 0.  1.
         21    1    1    2  504  501  0.22364394952E+02 -0.94966759084E+01  0.10693294809E+02  0.26546178044E+02  0.00000000000E+00 0. -1.
</event>
<event>
 4    1  0.1589319E+006  0.2217020E+02  0.7546771E-02  0.1503189E+00
         21   -1    0    0  504  501  0.00000000000E+00  0.00000000000E+00  0.70476656444E+01  0.70476656444E+01  0.00000000000E+00 0.  1.
         21   -1    0    0  503  502 -0.00000000000E+00 -0.00000000000E+00 -0.69960739495E+02  0.69960739495E+02  0.00000000000E+00 0.  1.
         21    1    1    2  503  501 -0.20789324520E+02  0.77020569065E+01 -0.29303113511E+02  0.36744933746E+02  0.00000000000E+00 0.  1.
         21    1    1    2  504  502  0.20789324520E+02 -0.77020569065E+01 -0.33609960340E+02  0.40263471394E+02  0.00000000000E+00 0.  1.
</event>
<event>
 4    1  0.1589319E+006  0.2735772E+02  0.7546771E-02  0.1444047E+00
         21   -1    0    0  503  501  0.00000000000E+00  0.00000000000E+00  0.60240002949E+02  0.60240002949E+02  0.00000000000E+00 0.  1.
         21   -1    0    0  504  502 -0.00000000000E+00 -0.00000000000E+00 -0.12917947733E+02  0.12917947733E+02  0.00000000000E+00 0.  1.
         21    1    1    2  503  502 -0.27311229042E+02  0.15943059507E+01  0.30811019651E+02  0.41203931550E+02  0.00000000000E+00 0.  1.
         21    1    1    2  504  501  0.27311229042E+02 -0.15943059507E+01  0.16511035565E+02  0.31954019132E+02  0.00000000000E+00 0.  1.
</event>
<event>
 4    1  0.1589319E+006  0.2451534E+02  0.7546771E-02  0.1474299E+00
         21   -1    0    0  504  501  0.00000000000E+00  0.00000000000E+00  0.87567752305E+02  0.87567752305E+02  0.00000000000E+00 0.  1.
         21   -1    0    0  501  502 -0.00000000000E+00 -0.00000000000E+00 -0.11005573629E+02  0.11005573629E+02  0.00000000000E+00 0. -1.
         21    1    1    2  503  502  0.15985689037E+02 -0.18586547356E+02  0.80437539544E+01  0.25801239782E+02  0.00000000000E+00 0. -1.
         21    1    1    2  504  503 -0.15985689037E+02  0.18586547356E+02  0.68518424721E+02  0.72772086152E+02  0.00000000000E+00 0.  1.
</event>
<event>
 4    1  0.1589319E+006  0.2098572E+02  0.7546771E-02  0.1519469E+00
         21   -1    0    0  502  501  0.00000000000E+00  0.00000000000E+00  0.33851843796E+03  0.33851843796E+03  0.00000000000E+00 0. -1.
         21   -1    0    0  503  502 -0.00000000000E+00 -0.00000000000E+00 -0.18943567713E+01  0.18943567713E+01  0.00000000000E+00 0. -1.
         21    1    1    2  503  504 -0.16043561621E+01 -0.20924304389E+02  0.73050865997E+02  0.76005457013E+02  0.00000000000E+00 0. -1.
         21    1    1    2  504  501  0.16043561621E+01  0.20924304389E+02  0.26357321519E+03  0.26440733772E+03  0.00000000000E+00 0. -1.
</event>
<event>
 4    1  0.1589319E+006  0.2690607E+02  0.7546771E-02  0.1448554E+00
         21   -1    0    0  503  501  0.00000000000E+00  0.00000000000E+00  0.12925941907E+02  0.12925941907E+02  0.00000000000E+00 0.  1.
         21   -1    0    0  504  502 -0.00000000000E+00 -0.00000000000E+00 -0.13414069152E+03  0.13414069152E+03  0.00000000000E+00 0.  1.
         21    1    1    2  503  502 -0.24771792425E+02 -0.10502139293E+02 -0.44864944197E+01  0.27277559676E+02  0.00000000000E+00 0.  1.
         21    1    1    2  504  501  0.24771792425E+02  0.10502139293E+02 -0.11672825519E+03  0.11978907375E+03  0.00000000000E+00 0.  1.
</event>
<event>
 4    1  0.1589319E+006  0.2154277E+02  0.7546771E-02  0.1511655E+00
         21   -1    0    0  504  501  0.00000000000E+00  0.00000000000E+00  0.65163915329E+02  0.65163915329E+02  0.00000000000E+00 0. -1.
         21   -1    0    0  501  502 -0.00000000000E+00 -0.00000000000E+00 -0.98878488443E+02  0.98878488443E+02  0.00000000000E+00 0. -1.
         21    1    1    2  503  502  0.20629142402E+02  0.62072086803E+01 -0.95869430456E+02  0.98260056238E+02  0.00000000000E+00 0. -1.
         21    1    1    2  504  503 -0.20629142402E+02 -0.62072086803E+01  0.62154857342E+02  0.65782347534E+02  0.00000000000E+00 0. -1.
</event>
<event>
 4    1  0.1589319E+006  0.2138837E+02  0.7546771E-02  0.1513792E+00
         21   -1    0    0  503  501  0.00000000000E+00  0.00000000000E+00  0.54485445539E+03  0.54485445539E+03  0.00000000000E+00 0. -1.
         21   -1    0    0  501  502 -0.00000000000E+00 -0.00000000000E+00 -0.35356356756E+01  0.35356356756E+01  0.00000000000E+00 0. -1.
         21    1    1    2  503  504 -0.10425297270E+02  0.18675537144E+02  0.51009475800E+03  0.51054297043E+03  0.00000000000E+00 0. -1.
         21    1    1    2  504  502  0.10425297270E+02 -0.18675537144E+02  0.31224061708E+02  0.37847120635E+02  0.00000000000E+00 0. -1.
</event>
<event>
 4    1  0.1589319E+006  0.2464279E+02  0.7546771E-02  0.1472839E+00
         21   -1    0    0  502  501  0.00000000000E+00  0.00000000000E+00  0.46137134737E+02  0.46137134737E+02  0.00000000000E+00 0.  1.
         21   -1    0    0  503  502 -0.00000000000E+00 -0.00000000000E+00 -0.13689392939E+02  0.13689392939E+02  0.00000000000E+00 0.  1.
         21    1    1    2  503  504  0.73646259460E+01  0.23516579132E+02  0.10353744659E+02  0.26729519971E+02  0.00000000000E+00 0.  1.
         21    1    1    2  504  501 -0.73646259460E+01 -0.23516579132E+02  0.22093997140E+02  0.33097007705E+02  0.00000000000E+00 0.  1.
</event>
<event>
 4    1  0.1589319E+006  0.2042329E+02  0.7546771E-02  0.1527660E+00
         21   -1    0    0  502  501  0.00000000000E+00  0.00000000000E+00  0.30303244902E+03  0.30303244902E+03  0.00000000000E+00 0. -1.
         21   -1    0    0  504  502 -0.00000000000E+00 -0.00000000000E+00 -0.35493082751E+01  0.35493082751E+01  0.00000000000E+00 0. -1.
         21    1    1    2  503  501  0.24185388111E+01  0.20279579502E+02  0.26968034441E+03  0.27045258150E+03  0.00000000000E+00 0. -1.
         21    1    1    2  504  503 -0.24185388111E+01 -0.20279579502E+02  0.29802796330E+02  0.36129175798E+02  0.00000000000E+00 0. -1.
</event>
<event>
 4    1  0.1589319E+006  0.2524752E+02  0.7546771E-02  0.1466053E+00
         21   -1    0    0  504  501  0.00000000000E+00  0.00000000000E+00  0.12870343650E+03  0.12870343650E+03  0.00000000000E+00 0. -1.
         21   -1    0    0  503  502 -0.00000000000E+00 -0.00000000000E+00 -0.26734523201E+02  0.26734523201E+02  0.00000000000E+00 0. -1.
         21    1    1    2  503  501 -0.23878612563E+02 -0.82005549612E+01  0.12113602510E+03  0.12373913616E+03  0.00000000000E+00 0. -1.
         21    1    1    2  504  502  0.23878612563E+02  0.82005549612E+01 -0.19167111798E+02  0.31698823547E+02  0.00000000000E+00 0. -1.
</event>
<event>
 4    1  0.1589319E+006  0.4548202E+02  0.7546771E-02  0.1319047E+00
         21   -1    0    0  502  501  0.00000000000E+00  0.00000000000E+00  0.11711613994E+04  0.11711613994E+04  0.00000000000E+00 0. -1.
         21   -1    0    0  503  502 -0.00000000000E+00 -0.00000000000E+00 -0.22177271501E+01  0.22177271501E+01  0.00000000000E+00 0. -1.
         21    1    1    2  503  504  0.37293642093E+02 -0.26034553551E+02  0.31977320181E+03  0.32299150811E+03  0.00000000000E+00 0. -1.
         21    1    1    2  504  501 -0.37293642093E+02  0.26034553551E+02  0.84917047048E+03  0.85038761848E+03  0.00000000000E+00 0. -1.
</event>
<event>
 4    1  0.1589319E+006  0.2998959E+02  0.7546771E-02  0.1419687E+00
         21   -1    0    0  503  501  0.00000000000E+00  0.00000000000E+00  0.36153233475E+02  0.36153233475E+02  0.00000000000E+00 0.  1.
         21   -1    0    0  504  502 -0.00000000000E+00 -0.00000000000E+00 -0.11879127247E+03  0.11879127247E+03  0.00000000000E+00 0.  1.
         21    1    1    2  503  502 -0.32402574114E+01 -0.29814025931E+02 -0.11020332221E+03  0.11421097861E+03  0.00000000000E+00 0.  1.
         21    1    1    2  504  501  0.32402574114E+01  0.29814025931E+02  0.27565283212E+02  0.40733527332E+02  0.00000000000E+00 0.  1.
</event>
<event>
 4    1  0.1589319E+006  0.2101410E+02  0.7546771E-02  0.1519064E+00
         21   -1    0    0  504  501  0.00000000000E+00  0.00000000000E+00  0.23976162611E+02  0.23976162611E+02  0.00000000000E+00 0. -1.
         21   -1    0    0  503  502 -0.00000000000E+00 -0.00000000000E+00 -0.18627444428E+02  0.18627444428E+02  0.00000000000E+00 0. -1.
         21    1    1    2  503  501 -0.13200486819E+02  0.16350521512E+02  0.49332654373E+01  0.21585400480E+02  0.00000000000E+00 0. -1.
         21    1    1    2  504  502  0.13200486819E+02 -0.16350521512E+02  0.41545274560E+00  0.21018206560E+02  0.00000000000E+00 0. -1.
</event>
<event>
 4    1  0.1589319E+006  0.2167254E+02  0.7546771E-02  0.1509875E+00
         21   -1    0    0  504  501  0.00000000000E+00  0.00000000000E+00  0.17868233713E+01  0.17868233713E+01  0.00000000000E+00 0. -1.
         21   -1    0    0  503  502 -0.00000000000E+00 -0.00000000000E+00 -0.35888691750E+03  0.35888691750E+03  0.00000000000E+00 0. -1.
         21    1    1    2  503  501  0.18384862096E+02 -0.11475878637E+02 -0.27182902744E+03  0.27269161906E+03  0.00000000000E+00 0. -1.
         21    1    1    2  504  502 -0.18384862096E+02  0.11475878637E+02 -0.85271066687E+02  0.87982121813E+02  0.00000000000E+00 0. -1.
</event>
<event>
 4    1  0.1589319E+006  0.3759712E+02  0.7546771E-02  0.1363172E+00
         21   -1    0    0  504  501  0.00000000000E+00  0.00000000000E+00  0.22870526508E+03  0.22870526508E+03  0.00000000000E+00 0. -1.
         21   -1    0    0  501  502 -0.00000000000E+00 -0.00000000000E+00 -0.62266515345E+01  0.62266515345E+01  0.00000000000E+00 0. -1.
         21    1    1    2  503  502  0.37092487924E+02 -0.61393076104E+01  0.12133745774E+03  0.12702882512E+03  0.00000000000E+00 0. -1.
         21    1    1    2  504  503 -0.37092487924E+02  0.61393076104E+01  0.10114115580E+03  0.10790309150E+03  0.00000000000E+00 0. -1.
</event>
<event>
 4    1  0.1589319E+006  0.3453979E+02  0.7546771E-02  0.1383828E+00
         21   -1    0    0  504  501  0.00000000000E+00  0.00000000000E+00  0.11513204729E+03  0.11513204729E+03  0.00000000000E+00 0.  1.
         21   -1    0    0  501  502 -0.00000000000E+00 -0.00000000000E+00 -0.10584527452E+02  0.10584527452E+02  0.00000000000E+00 0. -1.
         21    1    1    2  503  502  0.25264587321E+02  0.23552028181E+02  0.43159404109E+02  0.55278671900E+02  0.00000000000E+00 0. -1.
         21    1    1    2  504  503 -0.25264587321E+02 -0.23552028181E+02  0.61388115727E+02  0.70437902840E+02  0.00000000000E+00 0.  1.
</event>
<event>
 4    1  0.1589319E+006  0.2071611E+02  0.7546771E-02  0.1523357E+00
         21   -1    0    0  504  501  0.00000000000E+00  0.00000000000E+00  0.12922609741E+03  0.12922609741E+03  0.00000000000E+00 0. -1.
         21   -1    0    0  503  502 -0.00000000000E+00 -0.00000000000E+00 -0.36871370589E+02  0.36871370589E+02  0.00000000000E+00 0. -1.
         21    1    1    2  503  501  0.78435389163E+01  0.19173842494E+02 -0.33043060722E+02  0.39000015392E+02  0.00000000000E+00 0. -1.
         21    1    1    2  504  502 -0.78435389163E+01 -0.19173842494E+02  0.12539778755E+03  0.12709745261E+03  0.00000000000E+00 0. -1.
</event>
<event>
 4    1  0.1589319E+006  0.2236048E+02  0.7546771E-02  0.1500689E+00
         21   -1    0    0  503  501  0.00000000000E+00  0.00000000000E+00  0.50692777427E+02  0.50692777427E+02  0.00000000000E+00 0. -1.
         21   -1    0    0  504  502 -0.00000000000E+00 -0.00000000000E+00 -0.21646482992E+02  0.21646482992E+02  0.00000000000E+00 0.  1.
         21    1    1    2  503  502 -0.22317298383E+02 -0.13890435193E+01  0.41209190604E+02  0.46884844452E+02  0.00000000000E+00 0. -1.
         21    1    1    2  504  501  0.22317298383E+02  0.13890435193E+01 -0.12162896169E+02  0.25454415967E+02  0.00000000000E+00 0.  1.
</event>
<event>
 4    1  0.1589319E+006  0.2260684E+02  0.7546771E-02  0.1497495E+00
         21   -1    0    0  503  501  0.00000000000E+00  0.00000000000E+00  0.12698688600E+02  0.12698688600E+02  0.00000000000E+00 0. -1.
         21   -1    0    0  504  502 -0.00000000000E+00 -0.00000000000E+00 -0.12848419043E+03  0.12848419043E+03  0.00000000000E+00 0.  1.
         21    1    1    2  503  502  0.12498734044E+02 -0.18837480894E+02  0.60726041937E+00  0.22614990700E+02  0.00000000000E+00 0. -1.
         21    1    1    2  504  501 -0.12498734044E+02  0.18837480894E+02 -0.11639276224E+03  0.11856788833E+03  0.00000000000E+00 0.  1.
</event>
<event>
 4    1  0.1589319E+006  0.2035242E+02  0.7546771E-02  0.1528715E+00
         21   -1    0    0  504  501  0.00000000000E+00  0.00000000000E+00  0.34492775534E+02  0.34492775534E+02  0.00000000000E+00 0. -1.
         21   -1    0    0  503  502 -0.00000000000E+00 -0.00000000000E+00 -0.29617306453E+02  0.29617306453E+02  0.00000000000E+00 0.  1.
         21    1    1    2  503  501 -0.30854356038E+01 -0.20117187601E+02 -0.22278555200E+02  0.30175406735E+02  0.00000000000E+00 0.  1.
         21    1    1    2  504  502  0.30854356038E+01  0.20117187601E+02  0.27154024281E+02  0.33934675252E+02  0.00000000000E+00 0. -1.
</event>
<event>
 4    1  0.1589319E+006  0.2394535E+02  0.7546771E-02  0.1480957E+00
         21   -1    0    0  502  501  0.00000000000E+00  0.00000000000E+00  0.28016364973E+03  0.28016364973E+03  0.00000000000E+00 0. -1.
         21   -1    0    0  504  502 -0.00000000000E+00 -0.00000000000E+00 -0.28799766031E+01  0.28799766031E+01  0.00000000000E+00 0. -1.
         21    1    1    2  503  501 -0.21057116328E+02  0.11400772669E+02  0.21477125199E+03  0.21610199084E+03  0.00000000000E+00 0. -1.
         21    1    1    2  504  503  0.21057116328E+02 -0.11400772669E+02  0.62512421137E+02  0.66941635489E+02  0.00000000000E+00 0. -1.
</event>
<event>
 4    1  0.1589319E+006  0.2753990E+02  0.7546771E-02  0.1442259E+00
         21   -1    0    0  503  501  0.00000000000E+00  0.00000000000E+00  0.66107698010E+02  0.66107698010E+02  0.00000000000E+00 0.  1.
         21   -1    0    0  504  502 -0.00000000000E+00 -0.00000000000E+00 -0.24822744287E+02  0.24822744287E+02  0.00000000000E+00 0.  1.
         21    1    1    2  503  502  0.27267309733E+02  0.38651881596E+01  0.53984564903E+02  0.60603457883E+02  0.00000000000E+00 0.  1.
         21    1    1    2  504  501 -0.27267309733E+02 -0.38651881596E+01 -0.12699611179E+02  0.30326984415E+02  0.00000000000E+00 0.  1.
</event>
<event>
 4    1  0.1589319E+006  0.2428484E+02  0.7546771E-02  0.1476965E+00
         21   -1    0    0  504  501  0.00000000000E+00  0.00000000000E+00  0.31322639369E+03  0.31322639369E+03  0.00000000000E+00 0. -1.
         21   -1    0    0  503  502 -0.00000000000E+00 -0.00000000000E+00 -0.43230383212E+02  0.43230383212E+02  0.00000000000E+00 0. -1.
         21    1    1    2  503  501  0.87662465648E+01 -0.22647433030E+02 -0.39305942735E+02  0.46202926704E+02  0.00000000000E+00 0. -1.
         21    1    1    2  504  502 -0.87662465648E+01  0.22647433030E+02  0.30930195321E+03  0.31025385020E+03  0.00000000000E+00 0. -1.
</event>
<event>
 4    1  0.1589319E+006  0.2852608E+02  0.7546771E-02  0.1432853E+00
         21   -1    0    0  504  501  0.00000000000E+00  0.00000000000E+00  0.91579114818E+02  0.91579114818E+02  0.00000000000E+00 0. -1.
         21   -1    0    0  503  502 -0.00000000000E+00 -0.00000000000E+00 -0.21133051246E+02  0.21133051246E+02  0.00000000000E+00 0.  1.
         21    1    1    2  503  501 -0.96240050099E+01 -0.26853600736E+02  0.78125489999E+02  0.83170484744E+02  0.00000000000E+00 0. -1.
         21    1    1    2  504  502  0.96240050099E+01  0.26853600736E+02 -0.76794264270E+01  0.29541681319E+02  0.00000000000E+00 0.  1.
</event>
<event>
 4    1  0.1589319E+006  0.3556511E+02  0.7546771E-02  0.1376633E+00
         21   -1    0    0  504  501  0.00000000000E+00  0.00000000000E+00  0.35215393404E+01  0.35215393404E+01  0.00000000000E+00 0. -1.
         21   -1    0    0  503  502 -0.00000000000E+00 -0.00000000000E+00 -0.47429853290E+03  0.47429853290E+03  0.00000000000E+00 0. -1.
         21    1    1    2  503  501 -0.11555737407E+02  0.33635424121E+02 -0.11768873140E+03  0.12294516795E+03  0.00000000000E+00 0. -1.
         21    1    1    2  504  502  0.11555737407E+02 -0.33635424121E+02 -0.35308826216E+03  0.35487490429E+03  0.00000000000E+00 0. -1.
</event>
<event>
 4    1  0.1589319E+006  0.5605339E+02  0.7546771E-02  0.1273865E+00
         21   -1    0    0  503  501  0.00000000000E+00  0.00000000000E+00  0.14676506643E+03  0.14676506643E+03  0.00000000000E+00 0. -1.
         21   -1    0    0  501  502 -0.00000000000E+00 -0.00000000000E+00 -0.23034047047E+03  0.23034047047E+03  0.00000000000E+00 0.  1.
         21    1    1    2  503  504  0.29488655624E+02 -0.47669713395E+02  0.13778921220E+03  0.14875432560E+03  0.00000000000E+00 0. -1.
         21    1    1    2  504  502 -0.29488655624E+02  0.47669713395E+02 -0.22136461623E+03  0.22835121130E+03  0.00000000000E+00 0.  1.
</event>
<event>
 4    1  0.1589319E+006  0.2846229E+02  0.7546771E-02  0.1433447E+00
         21   -1    0    0  503  501  0.00000000000E+00  0.00000000000E+00  0.59063040105E+01  0.59063040105E+01  0.00000000000E+00 0. -1.
         21   -1    0    0  504  502 -0.00000000000E+00 -0.00000000000E+00 -0.25424066009E+03  0.25424066009E+03  0.00000000000E+00 0. -1.
         21    1    1    2  503  502  0.11229370187E+02 -0.26153451076E+02 -0.35897608119E+02  0.45812007451E+02  0.00000000000E+00 0. -1.
         21    1    1    2  504  501 -0.11229370187E+02  0.26153451076E+02 -0.21243674796E+03  0.21433495665E+03  0.00000000000E+00 0. -1.
</event>
<event>
 4    1  0.1589319E+006  0.2072134E+02  0.7546771E-02  0.1523281E+00
         21   -1    0    0  504  501  0.00000000000E+00  0.00000000000E+00  0.51885580425E+00  0.51885580425E+00  0.00000000000E+00 0.  1.
         21   -1    0    0  503  502 -0.00000000000E+00 -0.00000000000E+00 -0.83682922933E+03  0.83682922933E+03  0.00000000000E+00 0.  1.
         21    1    1    2  503  501 -0.19233575973E+02  0.77099535517E+01 -0.46226671793E+03  0.46273090704E+03  0.00000000000E+00 0.  1.
         21    1    1    2  504  502  0.19233575973E+02 -0.77099535517E+01 -0.37404365559E+03  0.37461717809E+03  0.00000000000E+00 0.  1.
</event>
<event>
 4    1  0.1589319E+006  0.2997542E+02  0.7546771E-02  0.1419810E+00
         21   -1    0    0  504  501  0.00000000000E+00  0.00000000000E+00  0.10471660390E+03  0.10471660390E+03  0.00000000000E+00 0.  1.
         21   -1    0    0  501  502 -0.00000000000E+00 -0.00000000000E+00 -0.11262763650E+02  0.11262763650E+02  0.00000000000E+00 0. -1.
         21    1    1    2  503  502 -0.21587623338E+02 -0.20796647943E+02  0.18427668807E+02  0.35186716595E+02  0.00000000000E+00 0. -1.
         21    1    1    2  504  503  0.21587623338E+02  0.20796647943E+02  0.75026171443E+02  0.80792650955E+02  0.00000000000E+00 0.  1.
</event>
<event>
 4    1  0.1589319E+006  0.3543349E+02  0.7546771E-02  0.1377541E+00
         21   -1    0    0  504  501  0.00000000000E+00  0.00000000000E+00  0.29879094175E+02  0.29879094175E+02  0.00000000000E+00 0.  1.
         21   -1    0    0  503  502 -0.00000000000E+00 -0.00000000000E+00 -0.61901231449E+02  0.61901231449E+02  0.00000000000E+00 0.  1.
         21    1    1    2  503  501 -0.42821699698E+01 -0.35173789095E+02 -0.42017866717E+02  0.54963929466E+02  0.00000000000E+00 0.  1.
         21    1    1    2  504  502  0.42821699698E+01  0.35173789095E+02  0.99957294426E+01  0.36816396158E+02  0.00000000000E+00 0.  1.
</event>
<event>
 4    1  0.1589319E+006  0.2009340E+02  0.7546771E-02  0.1532613E+00
         21   -1    0    0  504  501  0.00000000000E+00  0.00000000000E+00  0.33451314668E+02  0.33451314668E+02  0.00000000000E+00 0.  1.
         21   -1    0    0  503  502 -0.00000000000E+00 -0.00000000000E+00 -0.27312796187E+02  0.27312796187E+02  0.00000000000E+00 0. -1.
         21    1    1    2  503  501  0.13495031336E+02 -0.14887205281E+02 -0.19627913549E+02  0.28089139220E+02  0.00000000000E+00 0. -1.
         21    1    1    2  504  502 -0.13495031336E+02  0.14887205281E+02  0.25766432029E+02  0.32674971635E+02  0.00000000000E+00 0.  1.
</event>
<event>
 4    1  0.1589319E+006  0.2328985E+02  0.7546771E-02  0.1488890E+00
         21   -1    0    0  503  501  0.00000000000E+00  0.00000000000E+00  0.93620466660E+02  0.93620466660E+02  0.00000000000E+00 0. -1.
         21   -1    0    0  501  502 -0.00000000000E+00 -0.00000000000E+00 -0.39372095006E+02  0.39372095006E+02  0.00000000000E+00 0.  1.
         21    1    1    2  503  504 -0.31828776064E+01  0.23071336910E+02  0.88533250151E+02  0.91545364049E+02  0.00000000000E+00 0. -1.
         21    1    1    2  504  502  0.31828776064E+01 -0.23071336910E+02 -0.34284878497E+02  0.41447197616E+02  0.00000000000E+00 0.  1.
</event>
<event>
 4    1  0.1589319E+006  0.3136864E+02  0.7546771E-02  0.1408064E+00
         21   -1    0    0  503  501  0.00000000000E+00  0.00000000000E+00  0.19262065759E+02  0.19262065759E+02  0.00000000000E+00 0. -1.
         21   -1    0    0  504  502 -0.00000000000E+00 -0.00000000000E+00 -0.53847400033E+02  0.53847400033E+02  0.00000000000E+00 0.  1.
         21    1    1    2  503  502  0.31359337472E+02 -0.76368924759E+00 -0.25573059025E+02  0.40471874381E+02  0.00000000000E+00 0.  1.
         21    1    1    2  504  501 -0.31359337472E+02  0.76368924759E+00 -0.90122752494E+01  0.32637591411E+02  0.00000000000E+00 0. -1.
</event>
<event>
 4    1  0.1589319E+006  0.2507462E+02  0.7546771E-02  0.1467970E+00
         21   -1    0    0  502  501  0.00000000000E+00  0.00000000000E+00  0.12873652556E+01  0.12873652556E+01  0.00000000000E+00 0.  1.
         21   -1    0    0  503  502 -0.00000000000E+00 -0.00000000000E+00 -0.48865168591E+03  0.48865168591E+03  0.00000000000E+00 0.  1.
         21    1    1    2  503  504  0.52858217717E+01 -0.24511151923E+02 -0.23801458523E+03  0.23933173476E+03  0.00000000000E+00 0.  1.
         21    1    1    2  504  501 -0.52858217717E+01  0.24511151923E+02 -0.24934973543E+03  0.25060731641E+03  0.00000000000E+00 0.  1.
</event>
<event>
 4    1  0.1589319E+006  0.2526349E+02  0.7546771E-02  0.1465877E+00
         21   -1    0    0  502  501  0.00000000000E+00  0.00000000000E+00  0.45544449580E+02  0.45544449580E+02  0.00000000000E+00 0. -1.
         21   -1    0    0  503  502 -0.00000000000E+00 -0.00000000000E+00 -0.92052652321E+02  0.92052652321E+02  0.00000000000E+00 0. -1.
         21    1    1    2  503  504 -0.10661642476E+02  0.22903566159E+02 -0.86599779979E+02  0.90209566320E+02  0.00000000000E+00 0. -1.
         21    1    1    2  504  501  0.10661642476E+02 -0.22903566159E+02  0.40091577238E+02  0.47387535582E+02  0.00000000000E+00 0. -1.
</event>
<event>
 4    1  0.1589319E+006  0.3764035E+02  0.7546771E-02  0.1362897E+00
         21   -1    0    0  502  501  0.00000000000E+00  0.00000000000E+00  0.90541820525E+01  0.90541820525E+01  0.00000000000E+00 0.  1.
         21   -1    0    0  504  502 -0.00000000000E+00 -0.00000000000E+00 -0.37628440481E+03  0.37628440481E+03  0.00000000000E+00 0. -1.
         21    1    1    2  503  501 -0.29092604495E+02  0.23883395496E+02 -0.36359168862E+02  0.52333405938E+02  0.00000000000E+00 0.  1.
         21    1    1    2  504  503  0.29092604495E+02 -0.23883395496E+02 -0.33087105390E+03  0.33300518093E+03  0.00000000000E+00 0. -1.
</event>
<event>
 4    1  0.1589319E+006  0.3938164E+02  0.7546771E-02  0.1352148E+00
         21   -1    0    0  503  501  0.00000000000E+00  0.00000000000E+00  0.66991315236E+03  0.66991315236E+03  0.00000000000E+00 0.  1.
         21   -1    0    0  501  502 -0.00000000000E+00 -0.00000000000E+00 -0.95091709949E+01  0.95091709949E+01  0.00000000000E+00 0.  1.
         21    1    1    2  503  504 -0.38527668343E+02  0.81567197043E+01  0.62568054557E+03  0.62691870160E+03  0.00000000000E+00 0.  1.
         21    1    1    2  504  502  0.38527668343E+02 -0.81567197043E+01  0.34723435787E+02  0.52503621752E+02  0.00000000000E+00 0.  1.
</event>
<event>
 4    1  0.1589319E+006  0.3692198E+02  0.7546771E-02  0.1367532E+00
         21   -1    0    0  503  501  0.00000000000E+00  0.00000000000E+00  0.37014220208E+02  0.37014220208E+02  0.00000000000E+00 0. -1.
         21   -1    0    0  504  502 -0.00000000000E+00 -0.00000000000E+00 -0.12717260171E+03  0.12717260171E+03  0.00000000000E+00 0.  1.
         21    1    1    2  503  502  0.36914752857E+02  0.73045023725E+00 -0.11427151144E+03  0.12008834607E+03  0.00000000000E+00 0.  1.
         21    1    1    2  504  501 -0.36914752857E+02 -0.73045023725E+00  0.24113129940E+02  0.44098475842E+02  0.00000000000E+00 0. -1.
</event>
<event>
 4    1  0.1589319E+006  0.2353103E+02  0.7546771E-02  0.1485935E+00
         21   -1    0    0  504  501  0.00000000000E+00  0.00000000000E+00  0.33811626521E+02  0.33811626521E+02  0.00000000000E+00 0. -1.
         21   -1    0    0  503  502 -0.00000000000E+00 -0.00000000000E+00 -0.11562674288E+03  0.11562674288E+03  0.00000000000E+00 0.  1.
         21    1    1    2  503  501  0.21176822136E+02  0.10259227204E+02 -0.11013355087E+03  0.11261930814E+03  0.00000000000E+00 0.  1.
         21    1    1    2  504  502 -0.21176822136E+02 -0.10259227204E+02  0.28318434514E+02  0.36819061258E+02  0.00000000000E+00 0. -1.
</event>
<event>
 4    1  0.1589319E+006  0.2364018E+02  0.7546771E-02  0.1484612E+00
         21   -1    0    0  503  501  0.00000000000E+00  0.00000000000E+00  0.23765786838E+02  0.23765786838E+02  0.00000000000E+00 0.  1.
         21   -1    0    0  504  502 -0.00000000000E+00 -0.00000000000E+00 -0.36474129067E+02  0.36474129067E+02  0.00000000000E+00 0.  1.
         21    1    1    2  503  502 -0.13793124990E+02  0.19199159938E+02  0.11599194787E+02  0.26332477267E+02  0.00000000000E+00 0.  1.
         21    1    1    2  504  501  0.13793124990E+02 -0.19199159938E+02 -0.24307537015E+02  0.33907438639E+02  0.00000000000E+00 0.  1.
</event>
<event>
 4    1  0.1589319E+006  0.2310054E+02  0.7546771E-02  0.1491239E+00
         21   -1    0    0  504  501  0.00000000000E+00  0.00000000000E+00  0.20801691272E+03  0.20801691272E+03  0.00000000000E+00 0. -1.
         21   -1    0    0  501  502 -0.00000000000E+00 -0.00000000000E+00 -0.27681369436E+01  0.27681369436E+01  0.00000000000E+00 0. -1.
         21    1    1    2  503  502  0.17403281574E+02  0.15190813487E+02  0.74098313855E+02  0.77615688750E+02  0.00000000000E+00 0. -1.
         21    1    1    2  504  503 -0.17403281574E+02 -0.15190813487E+02  0.13115046192E+03  0.13316936091E+03  0.00000000000E+00 0. -1.
</event>
<event>
 4    1  0.1589319E+006  0.2351670E+02  0.7546771E-02  0.1486110E+00
         21   -1    0    0  502  501  0.00000000000E+00  0.00000000000E+00  0.10434966828E+04  0.10434966828E+04  0.00000000000E+00 0. -1.
         21   -1    0    0  504  502 -0.00000000000E+00 -0.00000000000E+00 -0.10774173704E+01  0.10774173704E+01  0.00000000000E+00 0.  1.
         21    1    1    2  503  501  0.23086961810E+02  0.44752154793E+01  0.89350133457E+03  0.89381075751E+03  0.00000000000E+00 0. -1.
         21    1    1    2  504  503 -0.23086961810E+02 -0.44752154793E+01  0.14891793088E+03  0.15076334268E+03  0.00000000000E+00 0.  1.
</event>
<event>
 4    1  0.1589319E+006  0.2872289E+02  0.7546771E-02  0.1431029E+00
         21   -1    0    0  504  501  0.00000000000E+00  0.00000000000E+00  0.63405467550E+02  0.63405467550E+02  0.00000000000E+00 0.  1.
         21   -1    0    0  503  502 -0.00000000000E+00 -0.00000000000E+00 -0.18433831237E+02  0.18433831237E+02  0.00000000000E+00 0.  1.
         21    1    1    2  503  501 -0.22492289653E+02  0.17863408028E+02  0.29289700404E+00  0.28724383873E+02  0.00000000000E+00 0.  1.
         21    1    1    2  504  502  0.22492289653E+02 -0.17863408028E+02  0.44678739308E+02  0.53114914915E+02  0.00000000000E+00 0.  1.
</event>
<event>
 4    1  0.1589319E+006  0.2818838E+02  0.7546771E-02  0.1436022E+00
         21   -1    0    0  503  501  0.00000000000E+00  0.00000000000E+00  0.96140442141E+02  0.96140442141E+02  0.00000000000E+00 0.  1.
         21   -1    0    0  504  502 -0.00000000000E+00 -0.00000000000E+00 -0.12239077448E+02  0.12239077448E+02  0.00000000000E+00 0.  1.
         21    1    1    2  503  502 -0.27072773569E+02 -0.78517271599E+01  0.11071188106E+02  0.30284581790E+02  0.00000000000E+00 0.  1.
         21    1    1    2  504  501  0.27072773569E+02  0.78517271599E+01  0.72830176587E+02  0.78094937799E+02  0.00000000000E+00 0.  1.
</event>
<event>
 4    1  0.1589319E+006  0.2382086E+02  0.7546771E-02  0.1482440E+00
         21   -1    0    0  502  501  0.00000000000E+00  0.00000000000E+00  0.64361303245E+03  0.64361303245E+03  0.00000000000E+00 0.  1.
         21   -1    0    0  504  502 -0.00000000000E+00 -0.00000000000E+00 -0.32522115333E+01  0.32522115333E+01  0.00000000000E+00 0.  1.
         21    1    1    2  503  501 -0.23727567520E+02 -0.21061611145E+01  0.59631524182E+03  0.59679083522E+03  0.00000000000E+00 0.  1.
         21    1    1    2  504  503  0.23727567520E+02  0.21061611145E+01  0.44045579096E+02  0.50074408763E+02  0.00000000000E+00 0.  1.
</event>
<event>
 4    1  0.1589319E+006  0.2213170E+02  0.7546771E-02  0.1503699E+00
         21   -1    0    0  504  501  0.00000000000E+00  0.00000000000E+00  0.21982926059E+02  0.21982926059E+02  0.00000000000E+00 0.  1.
         21   -1    0    0  503  502 -0.00000000000E+00 -0.00000000000E+00 -0.22464913368E+02  0.22464913368E+02  0.00000000000E+00 0. -1.
         21    1    1    2  503  501 -0.11190043588E+02 -0.19094371960E+02 -0.22491987426E+01  0.22245696461E+02  0.00000000000E+00 0. -1.
         21    1    1    2  504  502  0.11190043588E+02  0.19094371960E+02  0.17672114341E+01  0.22202142966E+02  0.00000000000E+00 0.  1.
</event>
<event>
 4    1  0.1589319E+006  0.4743807E+02  0.7546771E-02  0.1309679E+00
         21   -1    0    0  502  501  0.00000000000E+00  0.00000000000E+00  0.87430201199E+02  0.87430201199E+02  0.00000000000E+00 0. -1.
         21   -1    0    0  503  502 -0.00000000000E+00 -0.00000000000E+00 -0.98445159614E+02  0.98445159614E+02  0.00000000000E+00 0. -1.
         21    1    1    2  503  504 -0.39968745415E+02  0.25551323212E+02 -0.85376817189E+02  0.97670730730E+02  0.00000000000E+00 0. -1.
         21    1    1    2  504  501  0.39968745415E+02 -0.25551323212E+02  0.74361858773E+02  0.88204630084E+02  0.00000000000E+00 0. -1.
</event>
<event>
 4    1  0.1589319E+006  0.4645693E+02  0.7546771E-02  0.1314311E+00
         21   -1    0    0  502  501  0.00000000000E+00  0.00000000000E+00  0.55358876124E+03  0.55358876124E+03  0.00000000000E+00 0. -1.
         21   -1    0    0  503  502 -0.00000000000E+00 -0.00000000000E+00 -0.27200429201E+02  0.27200429201E+02  0.00000000000E+00 0.  1.
         21    1    1    2  503  504 -0.45176053027E+02  0.10833774914E+02 -0.55847709924E+01  0.46791410676E+02  0.00000000000E+00 0.  1.
         21    1    1    2  504  501  0.45176053027E+02 -0.10833774914E+02  0.53197310303E+03  0.53399777977E+03  0.00000000000E+00 0. -1.
</event>
<event>
 4    1  0.1589319E+006  0.4237724E+02  0.7546771E-02  0.1335091E+00
         21   -1    0    0  504  501  0.00000000000E+00  0.00000000000E+00  0.19433555570E+03  0.19433555570E+03  0.00000000000E+00 0.  1.
         21   -1    0    0  503  502 -0.00000000000E+00 -0.00000000000E+00 -0.10481316798E+02  0.10481316798E+02  0.00000000000E+00 0.  1.
         21    1    1    2  503  501  0.41535484782E+02  0.84043891062E+01  0.12715741611E+03  0.13403297626E+03  0.00000000000E+00 0.  1.
         21    1    1    2  504  502 -0.41535484782E+02 -0.84043891062E+01  0.56696822784E+02  0.70783896234E+02  0.00000000000E+00 0.  1.
</event>
<event>
 4    1  0.1589319E+006  0.2137504E+02  0.7546771E-02  0.1513977E+00
         21   -1    0    0  504  501  0.00000000000E+00  0.00000000000E+00  0.33010055097E+01  0.33010055097E+01  0.00000000000E+00 0. -1.
         21   -1    0    0  503  502 -0.00000000000E+00 -0.00000000000E+00 -0.14357583023E+03  0.14357583023E+03  0.00000000000E+00 0. -1.
         21    1    1    2  503  501  0.35454612734E+01  0.21078950815E+02 -0.56207479954E+02  0.60134626181E+02  0.00000000000E+00 0. -1.
         21    1    1    2  504  502 -0.35454612734E+01 -0.21078950815E+02 -0.84067344765E+02  0.86742209558E+02  0.00000000000E+00 0. -1.
</event>
<event>
 4    1  0.1589319E+006  0.5036486E+02  0.7546771E-02  0.1296598E+00
         21   -1    0    0  502  501  0.00000000000E+00  0.00000000000E+00  0.13758126060E+03  0.13758126060E+03  0.00000000000E+00 0.  1.
         21   -1    0    0  503  502 -0.00000000000E+00 -0.00000000000E+00 -0.31642555580E+02  0.31642555580E+02  0.00000000000E+00 0. -1.
         21    1    1    2  503  504 -0.45456927309E+02  0.21686102815E+02 -0.16906990109E+01  0.50393231280E+02  0.00000000000E+00 0. -1.
         21    1    1    2  504  501  0.45456927309E+02 -0.21686102815E+02  0.10762940403E+03  0.11883058490E+03  0.00000000000E+00 0.  1.
</event>
<event>
 4    1  0.1589319E+006  0.2538442E+02  0.7546771E-02  0.1464548E+00
         21   -1    0    0  503  501  0.00000000000E+00  0.00000000000E+00  0.23296165863E+02  0.23296165863E+02  0.00000000000E+00 0.  1.
         21   -1    0    0  501  502 -0.00000000000E+00 -0.00000000000E+00 -0.10796614531E+03  0.10796614531E+03  0.00000000000E+00 0. -1.
         21    1    1    2  503  504  0.24715649513E+02  0.57884051603E+01  0.14268210942E+02  0.29119594925E+02  0.00000000000E+00 0.  1.
         21    1    1    2  504  502 -0.24715649513E+02 -0.57884051603E+01 -0.98938190394E+02  0.10214271625E+03  0.00000000000E+00 0. -1.
</event>
<event>
 4    1  0.1589319E+006  0.3568360E+02  0.7546771E-02  0.1375820E+00
         21   -1    0    0  503  501  0.00000000000E+00  0.00000000000E+00  0.35919549797E+03  0.35919549797E+03  0.00000000000E+00 0. -1.
         21   -1    0    0  501  502 -0.00000000000E+00 -0.00000000000E+00 -0.35899298789E+01  0.35899298789E+01  0.00000000000E+00 0. -1.
         21    1    1    2  503  504 -0.21354475422E+02  0.28588555808E+02  0.19811386041E+03  0.20130181527E+03  0.00000000000E+00 0. -1.
         21    1    1    2  504  502  0.21354475422E+02 -0.28588555808E+02  0.15749170768E+03  0.16148361258E+03  0.00000000000E+00 0. -1.
</event>
<event>
 4    1  0.1589319E+006  0.2053380E+02  0.7546771E-02  0.1526026E+00
         21   -1    0    0  504  501  0.00000000000E+00  0.00000000000E+00  0.51573001522E+01  0.51573001522E+01  0.00000000000E+00 0. -1.
         21   -1    0    0  501  502 -0.00000000000E+00 -0.00000000000E+00 -0.61673650822E+03  0.61673650822E+03  0.00000000000E+00 0. -1.
         21    1    1    2  503  502  0.17301148201E+02 -0.11059251305E+02 -0.59539434055E+03  0.59574831727E+03  0.00000000000E+00 0. -1.
         21    1    1    2  504  503 -0.17301148201E+02  0.11059251305E+02 -0.16184867517E+02  0.26145491103E+02  0.00000000000E+00 0. -1.
</event>
<event>
 4    1  0.1589319E+006  0.2034154E+02  0.7546771E-02  0.1528877E+00
         21   -1    0    0  504  501  0.00000000000E+00  0.00000000000E+00  0.59663363440E+01  0.59663363440E+01  0.00000000000E+00 0.  1.
         21   -1    0    0  503  502 -0.00000000000E+00 -0.00000000000E+00 -0.94343080535E+02  0.94343080535E+02  0.00000000000E+00 0. -1.
         21    1    1    2  503  501  0.20164810387E+02  0.26756026448E+01 -0.18374827535E+02  0.27411908259E+02  0.00000000000E+00 0.  1.
         21    1    1    2  504  502 -0.20164810387E+02 -0.26756026448E+01 -0.70001916656E+02  0.72897508620E+02  0.00000000000E+00 0. -1.
</event>
<event>
 4    1  0.1589319E+006  0.2398261E+02  0.7546771E-02  0.1480515E+00
         21   -1    0    0  502  501  0.00000000000E+00  0.00000000000E+00  0.13464971136E+03  0.13464971136E+03  0.00000000000E+00 0. -1.
         21   -1    0    0  504  502 -0.00000000000E+00 -0.00000000000E+00 -0.93624579431E+01  0.93624579431E+01  0.00000000000E+00 0.  1.
         21    1    1    2  503  501  0.14706841692E+02 -0.18943985248E+02  0.11574075011E+03  0.11819935281E+03  0.00000000000E+00 0. -1.
         21    1    1    2  504  503 -0.14706841692E+02  0.18943985248E+02  0.95465033039E+01  0.25812816486E+02  0.00000000000E+00 0.  1.
</event>
<event>
 4    1  0.1589319E+006  0.2969304E+02  0.7546771E-02  0.1422283E+00
         21   -1    0    0  504  501  0.00000000000E+00  0.00000000000E+00  0.68879705710E+02  0.68879705710E+02  0.00000000000E+00 0. -1.
         21   -1    0    0  503  502 -0.00000000000E+00 -0.00000000000E+00 -0.16925963254E+02  0.16925963254E+02  0.00000000000E+00 0. -1.
         21    1    1    2  503  501  0.17249745988E+02  0.24168634844E+02  0.47952389037E+01  0.30077748636E+02  0.00000000000E+00 0. -1.
         21    1    1    2  504  502 -0.17249745988E+02 -0.24168634844E+02  0.47158503552E+02  0.55727920328E+02  0.00000000000E+00 0. -1.
</event>
<event>
 4    1  0.1589319E+006  0.2795893E+02  0.7546771E-02  0.1438206E+00
         21   -1    0    0  503  501  0.00000000000E+00  0.00000000000E+00  0.52186494235E+01  0.52186494235E+01  0.00000000000E+00 0. -1.
         21   -1    0    0  504  502 -0.00000000000E+00 -0.00000000000E+00 -0.18014432043E+03  0.18014432043E+03  0.00000000000E+00 0. -1.
         21    1    1    2  503  502  0.24319526517E+02 -0.13793567984E+02 -0.49418288445E+02  0.56779125747E+02  0.00000000000E+00 0. -1.
         21    1    1    2  504  501 -0.24319526517E+02  0.13793567984E+02 -0.12550738256E+03  0.12858384410E+03  0.00000000000E+00 0. -1.
</event>
<event>
 4    1  0.1589319E+006  0.2470442E+02  0.7546771E-02  0.1472137E+00
         21   -1    0    0  503  501  0.00000000000E+00  0.00000000000E+00  0.60229500223E+02  0.60229500223E+02  0.00000000000E+00 0. -1.
         21   -1    0    0  504  502 -0.00000000000E+00 -0.00000000000E+00 -0.12680883099E+03  0.12680883099E+03  0.00000000000E+00 0. -1.
         21    1    1    2  503  502  0.13363309714E+02  0.20778117941E+02 -0.12299458092E+03  0.12545108675E+03  0.00000000000E+00 0. -1.
         21    1    1    2  504  501 -0.13363309714E+02 -0.20778117941E+02  0.56415250147E+02  0.61587244466E+02  0.00000000000E+00 0. -1.
</event>
<event>
 4    1  0.1589319E+006  0.3143445E+02  0.7546771E-02  0.1407528E+00
         21   -1    0    0  504  501  0.00000000000E+00  0.00000000000E+00  0.43269861189E+02  0.43269861189E+02  0.00000000000E+00 0. -1.
         21   -1    0    0  503  502 -0.00000000000E+00 -0.00000000000E+00 -0.24977843320E+02  0.24977843320E+02  0.00000000000E+00 0. -1.
         21    1    1    2  503  501 -0.27446708538E+02  0.15323271777E+02 -0.84574710676E+00  0.31445822548E+02  0.00000000000E+00 0. -1.
         21    1    1    2  504  502  0.27446708538E+02 -0.15323271777E+02  0.19137764976E+02  0.36801881960E+02  0.00000000000E+00 0. -1.
</event>
<event>
 4    1  0.1589319E+006  0.3046475E+02  0.7546771E-02  0.1415600E+00
         21   -1    0    0  503  501  0.00000000000E+00  0.00000000000E+00  0.11011180254E+02  0.11011180254E+02  0.00000000000E+00 0.  1.
         21   -1    0    0  504  502 -0.00000000000E+00 -0.00000000000E+00 -0.54904483873E+03  0.54904483873E+03  0.00000000000E+00 0. -1.
         21    1    1    2  503  502  0.29005896385E+02 -0.93144478898E+01 -0.11378271160E+02  0.32520240147E+02  0.00000000000E+00 0.  1.
         21    1    1    2  504  501 -0.29005896385E+02  0.93144478898E+01 -0.52665538732E+03  0.52753577884E+03  0.00000000000E+00 0. -1.
</event>
<event>
 4    1  0.1589319E+006  0.2095365E+02  0.7546771E-02  0.1519928E+00
         21   -1    0    0  502  501  0.00000000000E+00  0.00000000000E+00  0.11771067389E+02  0.11771067389E+02  0.00000000000E+00 0. -1.
         21   -1    0    0  503  502 -0.00000000000E+00 -0.00000000000E+00 -0.68591565156E+02  0.68591565156E+02  0.00000000000E+00 0. -1.
         21    1    1    2  503  504  0.27147395407E+01  0.20777048314E+02 -0.55549980633E+02  0.59370496846E+02  0.00000000000E+00 0. -1.
         21    1    1    2  504  501 -0.27147395407E+01 -0.20777048314E+02 -0.12705171338E+01  0.20992135699E+02  0.00000000000E+00 0. -1.
</event>
<event>
 4    1  0.1589319E+006  0.2711711E+02  0.7546771E-02  0.1446435E+00
         21   -1    0    0  502  501  0.00000000000E+00  0.00000000000E+00  0.13895502671E+02  0.13895502671E+02  0.00000000000E+00 0.  1.
         21   -1    0    0  503  502 -0.00000000000E+00 -0.00000000000E+00 -0.24475806514E+03  0.24475806514E+03  0.00000000000E+00 0. -1.
         21    1    1    2  503  504 -0.11250256186E+02  0.24673248101E+02 -0.22992677341E+03  0.23152031999E+03  0.00000000000E+00 0. -1.
         21    1    1    2  504  501  0.11250256186E+02 -0.24673248101E+02 -0.93578905531E+00  0.27133247820E+02  0.00000000000E+00 0.  1.
</event>
<event>
 4    1  0.1589319E+006  0.2217206E+02  0.7546771E-02  0.1503165E+00
         21   -1    0    0  504  501  0.00000000000E+00  0.00000000000E+00  0.38801832638E+02  0.38801832638E+02  0.00000000000E+00 0.  1.
         21   -1    0    0  503  502 -0.00000000000E+00 -0.00000000000E+00 -0.15225349764E+02  0.15225349764E+02  0.00000000000E+00 0.  1.
         21    1    1    2  503  501 -0.11467038430E+02  0.18976496166E+02  0.22856138780E+02  0.31843420938E+02  0.00000000000E+00 0.  1.
         21    1    1    2  504  502  0.11467038430E+02 -0.18976496166E+02  0.72034409508E+00  0.22183761464E+02  0.00000000000E+00 0.  1.
</event>
<event>
 4    1  0.1589319E+006  0.3194012E+02  0.7546771E-02  0.1403454E+00
         21   -1    0    0  504  501  0.00000000000E+00  0.00000000000E+00  0.19217122969E+03  0.19217122969E+03  0.00000000000E+00 0. -1.
         21   -1    0    0  501  502 -0.00000000000E+00 -0.00000000000E+00 -0.22252833963E+02  0.22252833963E+02  0.00000000000E+00 0.  1.
         21    1    1    2  503  502  0.13562283295E+02 -0.28917744644E+02 -0.85945260824E+01  0.33076235609E+02  0.00000000000E+00 0.  1.
         21    1    1    2  504  503 -0.13562283295E+02  0.28917744644E+02  0.17851292181E+03  0.18134782804E+03  0.00000000000E+00 0. -1.
</event>
<event>
 4    1  0.1589319E+006  0.2528439E+02  0.7546771E-02  0.1465647E+00
         21   -1    0    0  502  501  0.00000000000E+00  0.00000000000E+00  0.26543201400E+02  0.26543201400E+02  0.00000000000E+00 0. -1.
         21   -1    0    0  503  502 -0.00000000000E+00 -0.00000000000E+00 -0.96328937520E+02  0.96328937520E+02  0.00000000000E+00 0.  1.
         21    1    1    2  503  504  0.27403625181E+01  0.25135453285E+02 -0.88096941225E+02  0.91653541403E+02  0.00000000000E+00 0.  1.
         21    1    1    2  504  501 -0.27403625181E+01 -0.25135453285E+02  0.18311205105E+02  0.31218597517E+02  0.00000000000E+00 0. -1.
</event>
<event>
 4    1  0.1589319E+006  0.2503287E+02  0.7546771E-02  0.1468436E+00
         21   -1    0    0  504  501  0.00000000000E+00  0.00000000000E+00  0.18732810850E+01  0.18732810850E+01  0.00000000000E+00 0. -1.
         21   -1    0    0  503  502 -0.00000000000E+00 -0.00000000000E+00 -0.11295714048E+04  0.11295714048E+04  0.00000000000E+00 0. -1.
         21    1    1    2  503  501  0.24876582903E+02  0.27928995595E+01 -0.10384677858E+04  0.10387694580E+04  0.00000000000E+00 0. -1.
         21    1    1    2  504  502 -0.24876582903E+02 -0.27928995595E+01 -0.89230337916E+02  0.92675227917E+02  0.00000000000E+00 0. -1.
</event>
<event>
 4    1  0.1589319E+006  0.2073079E+02  0.7546771E-02  0.1523143E+00
         21   -1    0    0  502  501  0.00000000000E+00  0.00000000000E+00  0.39339561408E+03  0.39339561408E+03  0.00000000000E+00 0. -1.
         21   -1    0    0  503  502 -0.00000000000E+00 -0.00000000000E+00 -0.11797268995E+02  0.11797268995E+02  0.00000000000E+00 0. -1.
         21    1    1    2  503  504 -0.83243852275E+01  0.18986051416E+02 -0.21890074249E+01  0.20846037784E+02  0.00000000000E+00 0. -1.
         21    1    1    2  504  501  0.83243852275E+01 -0.18986051416E+02  0.38378735251E+03  0.38434684529E+03  0.00000000000E+00 0. -1.
</event>
<event>
 4    1  0.1589319E+006  0.2859320E+02  0.7546771E-02  0.1432229E+00
         21   -1    0    0  503  501  0.00000000000E+00  0.00000000000E+00  0.14874884148E+02  0.14874884148E+02  0.00000000000E+00 0. -1.
         21   -1    0    0  504  502 -0.00000000000E+00 -0.00000000000E+00 -0.17815904250E+03  0.17815904250E+03  0.00000000000E+00 0. -1.
         21    1    1    2  503  502  0.17005274913E+02 -0.22986774212E+02 -0.16190181918E+03  0.16440733018E+03  0.00000000000E+00 0. -1.
         21    1    1    2  504  501 -0.17005274913E+02  0.22986774212E+02 -0.13823391688E+01  0.28626596464E+02  0.00000000000E+00 0. -1.
</event>
<event>
 4    1  0.1589319E+006  0.2582422E+02  0.7546771E-02  0.1459790E+00
         21   -1    0    0  502  501  0.00000000000E+00  0.00000000000E+00  0.39751466098E+03  0.39751466098E+03  0.00000000000E+00 0. -1.
         21   -1    0    0  504  502 -0.00000000000E+00 -0.00000000000E+00 -0.18120702177E+02  0.18120702177E+02  0.00000000000E+00 0.  1.
         21    1    1    2  503  501  0.25676893377E+02  0.27545415179E+01  0.38766097263E+03  0.38852016686E+03  0.00000000000E+00 0. -1.
         21    1    1    2  504  503 -0.25676893377E+02 -0.27545415179E+01 -0.82670138332E+01  0.27115196296E+02  0.00000000000E+00 0.  1.
</event>
<event>
 4    1  0.1589319E+006  0.7002965E+02  0.7546771E-02  0.1229102E+00
         21   -1    0    0  504  501  0.00000000000E+00  0.00000000000E+00  0.48604863983E+02  0.48604863983E+02  0.00000000000E+00 0. -1.
         21   -1    0    0  503  502 -0.00000000000E+00 -0.00000000000E+00 -0.10712182174E+03  0.10712182174E+03  0.00000000000E+00 0. -1.
         21    1    1    2  503  501 -0.25832263070E+02 -0.65091061528E+02 -0.48026104612E+02  0.84915598275E+02  0.00000000000E+00 0. -1.
         21    1    1    2  504  502  0.25832263070E+02  0.65091061528E+02 -0.10490853148E+02  0.70811087451E+02  0.00000000000E+00 0. -1.
</event>
<event>
 4    1  0.1589319E+006  0.3490232E+02  0.7546771E-02  0.1381251E+00
         21   -1    0    0  502  501  0.00000000000E+00  0.00000000000E+00  0.22290562928E+02  0.22290562928E+02  0.00000000000E+00 0. -1.
         21   -1    0    0  504  502 -0.00000000000E+00 -0.00000000000E+00 -0.81675944803E+02  0.81675944803E+02  0.00000000000E+00 0.  1.
         21    1    1    2  503  501 -0.90813284945E+01 -0.33700165943E+02  0.20994971929E+00  0.34902948166E+02  0.00000000000E+00 0. -1.
         21    1    1    2  504  503  0.90813284945E+01  0.33700165943E+02 -0.59595331595E+02  0.69063559565E+02  0.00000000000E+00 0.  1.
</event>
<event>
 4    1  0.1589319E+006  0.2584941E+02  0.7546771E-02  0.1459521E+00
         21   -1    0    0  503  501  0.00000000000E+00  0.00000000000E+00  0.55280651856E+01  0.55280651856E+01  0.00000000000E+00 0.  1.
         21   -1    0    0  501  502 -0.00000000000E+00 -0.00000000000E+00 -0.20824177673E+03  0.20824177673E+03  0.00000000000E+00 0.  1.
         21    1    1    2  503  504 -0.22166404563E+02 -0.13298214744E+02 -0.32124126208E+02  0.41232893316E+02  0.00000000000E+00 0.  1.
         21    1    1    2  504  502  0.22166404563E+02  0.13298214744E+02 -0.17058958534E+03  0.17253694860E+03  0.00000000000E+00 0.  1.
</event>
<event>
 4    1  0.1589319E+006  0.6392741E+02  0.7546771E-02  0.1247042E+00
         21   -1    0    0  504  501  0.00000000000E+00  0.00000000000E+00  0.16788860725E+03  0.16788860725E+03  0.00000000000E+00 0.  1.
         21   -1    0    0  501  502 -0.00000000000E+00 -0.00000000000E+00 -0.46326632478E+02  0.46326632478E+02  0.00000000000E+00 0.  1.
         21    1    1    2  503  502  0.60318693711E+02  0.21174729501E+02 -0.13003727190E+02  0.65236576407E+02  0.00000000000E+00 0.  1.
         21    1    1    2  504  503 -0.60318693711E+02 -0.21174729501E+02  0.13456570196E+03  0.14897866332E+03  0.00000000000E+00 0.  1.
</event>
<event>
 4    1  0.1589319E+006  0.2057786E+02  0.7546771E-02  0.1525378E+00
         21   -1    0    0  504  501  0.00000000000E+00  0.00000000000E+00  0.24541873411E+02  0.24541873411E+02  0.00000000000E+00 0.  1.
         21   -1    0    0  503  502 -0.00000000000E+00 -0.00000000000E+00 -0.17342792636E+02  0.17342792636E+02  0.00000000000E+00 0.  1.
         21    1    1    2  503  501 -0.55103419005E+00  0.20570478924E+02  0.50970824070E+01  0.21199728557E+02  0.00000000000E+00 0.  1.
         21    1    1    2  504  502  0.55103419005E+00 -0.20570478924E+02  0.21019983677E+01  0.20684937490E+02  0.00000000000E+00 0.  1.
</event>
<event>
 4    1  0.1589319E+006  0.2186820E+02  0.7546771E-02  0.1507221E+00
         21   -1    0    0  503  501  0.00000000000E+00  0.00000000000E+00  0.54738918988E+02  0.54738918988E+02  0.00000000000E+00 0. -1.
         21   -1    0    0  504  502 -0.00000000000E+00 -0.00000000000E+00 -0.32450998309E+03  0.32450998309E+03  0.00000000000E+00 0. -1.
         21    1    1    2  503  502 -0.18466749034E+02 -0.11713133781E+02 -0.32194006539E+03  0.32268192392E+03  0.00000000000E+00 0. -1.
         21    1    1    2  504  501  0.18466749034E+02  0.11713133781E+02  0.52169001286E+02  0.56566978159E+02  0.00000000000E+00 0. -1.
</event>
<event>
 4    1  0.1589319E+006  0.2481056E+02  0.7546771E-02  0.1470934E+00
         21   -1    0    0  503  501  0.00000000000E+00  0.00000000000E+00  0.68501247914E+01  0.68501247914E+01  0.00000000000E+00 0.  1.
         21   -1    0    0  504  502 -0.00000000000E+00 -0.00000000000E+00 -0.91090227319E+02  0.91090227319E+02  0.00000000000E+00 0.  1.
         21    1    1    2  503  502  0.24749804396E+02  0.17352720121E+01 -0.36433029518E+02  0.44078675416E+02  0.00000000000E+00 0.  1.
         21    1    1    2  504  501 -0.24749804396E+02 -0.17352720121E+01 -0.47807073010E+02  0.53861676695E+02  0.00000000000E+00 0.  1.
</event>
<event>
 4    1  0.1589319E+006  0.2543412E+02  0.7546771E-02  0.1464005E+00
         21   -1    0    0  504  501  0.00000000000E+00  0.00000000000E+00  0.27943101214E+03  0.27943101214E+03  0.00000000000E+00 0.  1.
         21   -1    0    0  501  502 -0.00000000000E+00 -0.00000000000E+00 -0.94560708006E+01  0.94560708006E+01  0.00000000000E+00 0. -1.
         21    1    1    2  503  502  0.18896583113E+01  0.25363825237E+02  0.94645105331E+01  0.27138006537E+02  0.00000000000E+00 0. -1.
         21    1    1    2  504  503 -0.18896583113E+01 -0.25363825237E+02  0.26051043081E+03  0.26174907640E+03  0.00000000000E+00 0.  1.
</event>
<event>
 4    1  0.1589319E+006  0.2630315E+02  0.7546771E-02  0.1454736E+00
         21   -1    0    0  504  501  0.00000000000E+00  0.00000000000E+00  0.87933159935E+00  0.87933159935E+00  0.00000000000E+00 0. -1.
         21   -1    0    0  503  502 -0.00000000000E+00 -0.00000000000E+00 -0.79591080082E+03  0.79591080082E+03  0.00000000000E+00 0. -1.
         21    1    1    2  503  501 -0.25425240133E+02 -0.67389101715E+01 -0.35488489512E+03  0.35585832087E+03  0.00000000000E+00 0. -1.
         21    1    1    2  504  502  0.25425240133E+02  0.67389101715E+01 -0.44014657410E+03  0.44093181155E+03  0.00000000000E+00 0. -1.
</event>
<event>
 4    1  0.1589319E+006  0.4914318E+02  0.7546771E-02  0.1301931E+00
         21   -1    0    0  503  501  0.00000000000E+00  0.00000000000E+00  0.21054744570E+03  0.21054744570E+03  0.00000000000E+00 0. -1.
         21   -1    0    0  504  502 -0.00000000000E+00 -0.00000000000E+00 -0.14194573418E+02  0.14194573418E+02  0.00000000000E+00 0. -1.
         21    1    1    2  503  502  0.35829889043E+02  0.33634370213E+02  0.14740474104E+03  0.15538085304E+03  0.00000000000E+00 0. -1.
         21    1    1    2  504  501 -0.35829889043E+02 -0.33634370213E+02  0.48948131241E+02  0.69361166084E+02  0.00000000000E+00 0. -1.
</event>
<event>
 4    1  0.1589319E+006  0.2544527E+02  0.7546771E-02  0.1463883E+00
         21   -1    0    0  502  501  0.00000000000E+00  0.00000000000E+00  0.22485648342E+02  0.22485648342E+02  0.00000000000E+00 0. -1.
         21   -1    0    0  503  502 -0.00000000000E+00 -0.00000000000E+00 -0.18700297433E+03  0.18700297433E+03  0.00000000000E+00 0. -1.
         21    1    1    2  503  504  0.22663251956E+02  0.11568865558E+02 -0.17860187982E+03  0.18040535778E+03  0.00000000000E+00 0. -1.
         21    1    1    2  504  501 -0.22663251956E+02 -0.11568865558E+02  0.14084553841E+02  0.29083264886E+02  0.00000000000E+00 0. -1.
</event>
<event>
 4    1  0.1589319E+006  0.3081937E+02  0.7546771E-02  0.1412607E+00
         21   -1    0    0  503  501  0.00000000000E+00  0.00000000000E+00  0.12325678392E+03  0.12325678392E+03  0.00000000000E+00 0. -1.
         21   -1    0    0  504  502 -0.00000000000E+00 -0.00000000000E+00 -0.77171162407E+01  0.77171162407E+01  0.00000000000E+00 0. -1.
         21    1    1    2  503  502  0.27801054017E+02  0.13301684083E+02  0.60240163858E+02  0.67666171353E+02  0.00000000000E+00 0. -1.
         21    1    1    2  504  501 -0.27801054017E+02 -0.13301684083E+02  0.55299503819E+02  0.63307728806E+02  0.00000000000E+00 0. -1.
</event>
<event>
 4    1  0.1589319E+006  0.2021888E+02  0.7546771E-02  0.1530716E+00
         21   -1    0    0  502  501  0.00000000000E+00  0.00000000000E+00  0.11870450587E+03  0.11870450587E+03  0.00000000000E+00 0. -1.
         21   -1    0    0  503  502 -0.00000000000E+00 -0.00000000000E+00 -0.35717444251E+01  0.35717444251E+01  0.00000000000E+00 0. -1.
         21    1    1    2  503  504  0.16748439512E+02 -0.11326642606E+02  0.45998299945E+02  0.50245862085E+02  0.00000000000E+00 0. -1.
         21    1    1    2  504  501 -0.16748439512E+02  0.11326642606E+02  0.69134461501E+02  0.72030388211E+02  0.00000000000E+00 0. -1.
</event>
<event>
 4    1  0.1589319E+006  0.3483573E+02  0.7546771E-02  0.1381722E+00
         21   -1    0    0  502  501  0.00000000000E+00  0.00000000000E+00  0.21606570774E+02  0.21606570774E+02  0.00000000000E+00 0.  1.
         21   -1    0    0  503  502 -0.00000000000E+00 -0.00000000000E+00 -0.24774977312E+03  0.24774977312E+03  0.00000000000E+00 0.  1.
         21    1    1    2  503  504  0.63257212111E+01 -0.34256579798E+02 -0.23150422173E+03  0.23411051383E+03  0.00000000000E+00 0.  1.
         21    1    1    2  504  501 -0.63257212111E+01  0.34256579798E+02  0.53610193790E+01  0.35245830066E+02  0.00000000000E+00 0.  1.
</event>
<event>
 4    1  0.1589319E+006  0.2384353E+02  0.7546771E-02  0.1482169E+00
         21   -1    0    0  504  501  0.00000000000E+00  0.00000000000E+00  0.85004514898E+02  0.85004514898E+02  0.00000000000E+00 0. -1.
         21   -1    0    0  503  502 -0.00000000000E+00 -0.00000000000E+00 -0.69375212793E+02  0.69375212793E+02  0.00000000000E+00 0.  1.
         21    1    1    2  503  501 -0.46499843862E+01  0.23385717060E+02  0.81189535660E+02  0.84618288909E+02  0.00000000000E+00 0. -1.
         21    1    1    2  504  502  0.46499843862E+01 -0.23385717060E+02 -0.65560233555E+02  0.69761438782E+02  0.00000000000E+00 0.  1.
</event>
<event>
 4    1  0.1589319E+006  0.2110826E+02  0.7546771E-02  0.1517725E+00
         21   -1    0    0  503  501  0.00000000000E+00  0.00000000000E+00  0.61029301897E+02  0.61029301897E+02  0.00000000000E+00 0.  1.
         21   -1    0    0  504  502 -0.00000000000E+00 -0.00000000000E+00 -0.76237573883E+01  0.76237573883E+01  0.00000000000E+00 0. -1.
         21    1    1    2  503  502  0.34015364962E+01 -0.20832381016E+02  0.33768615561E+02  0.39823083083E+02  0.00000000000E+00 0.  1.
         21    1    1    2  504  501 -0.34015364962E+01  0.20832381016E+02  0.19636928948E+02  0.28829976202E+02  0.00000000000E+00 0. -1.
</event>
<event>
 4    1  0.1589319E+006  0.2321182E+02  0.7546771E-02  0.1489855E+00
         21   -1    0    0  502  501  0.00000000000E+00  0.00000000000E+00  0.11264571587E+03  0.11264571587E+03  0.00000000000E+00 0. -1.
         21   -1    0    0  503  502 -0.00000000000E+00 -0.00000000000E+00 -0.10123295909E+02  0.10123295909E+02  0.00000000000E+00 0.  1.
         21    1    1    2  503  504 -0.16640727270E+02 -0.16182538487E+02  0.66772076301E+01  0.24153125215E+02  0.00000000000E+00 0.  1.
         21    1    1    2  504  501  0.16640727270E+02  0.16182538487E+02  0.95845212328E+02  0.98615886561E+02  0.00000000000E+00 0. -1.
</event>
<event>
 4    1  0.1589319E+006  0.2020305E+02  0.7546771E-02  0.1530954E+00
         21   -1    0    0  503  501  0.00000000000E+00  0.00000000000E+00  0.28402382657E+01  0.28402382657E+01  0.00000000000E+00 0.  1.
         21   -1    0    0  501  502 -0.00000000000E+00 -0.00000000000E+00 -0.16053340140E+03  0.16053340140E+03  0.00000000000E+00 0. -1.
         21    1    1    2  503  504  0.94590870491E+01  0.17851862757E+02 -0.52400617481E+02  0.56160377884E+02  0.00000000000E+00 0.  1.
         21    1    1    2  504  502 -0.94590870491E+01 -0.17851862757E+02 -0.10529254565E+03  0.10721326178E+03  0.00000000000E+00 0. -1.
</event>
<event>
 4    1  0.1589319E+006  0.2140833E+02  0.7546771E-02  0.1513514E+00
         21   -1    0    0  503  501  0.00000000000E+00  0.00000000000E+00  0.10471071526E+02  0.10471071526E+02  0.00000000000E+00 0. -1.
         21   -1    0    0  501  502 -0.00000000000E+00 -0.00000000000E+00 -0.52389233378E+02  0.52389233378E+02  0.00000000000E+00 0. -1.
         21    1    1    2  503  504  0.19511033528E+02 -0.88111415977E+01 -0.82104082424E+01  0.22928747221E+02  0.00000000000E+00 0. -1.
         21    1    1    2  504  502 -0.19511033528E+02  0.88111415977E+01 -0.33707753610E+02  0.39931557683E+02  0.00000000000E+00 0. -1.
</event>
<event>
 4    1  0.1589319E+006  0.2278238E+02  0.7546771E-02  0.1495249E+00
         21   -1    0    0  502  501  0.00000000000E+00  0.00000000000E+00  0.14212611047E+02  0.14212611047E+02  0.00000000000E+00 0.  1.
         21   -1    0    0  503  502 -0.00000000000E+00 -0.00000000000E+00 -0.61876205616E+02  0.61876205616E+02  0.00000000000E+00 0.  1.
         21    1    1    2  503  504  0.21879233970E+02  0.63510494128E+01 -0.48186108888E+02  0.53300448380E+02  0.00000000000E+00 0.  1.
         21    1    1    2  504  501 -0.21879233970E+02 -0.63510494128E+01  0.52251431942E+00  0.22788368283E+02  0.00000000000E+00 0.  1.
</event>
<event>
 4    1  0.1589319E+006  0.2704919E+02  0.7546771E-02  0.1447115E+00
         21   -1    0    0  503  501  0.00000000000E+00  0.00000000000E+00  0.47478449577E+03  0.47478449577E+03  0.00000000000E+00 0. -1.
         21   -1    0    0  504  502 -0.00000000000E+00 -0.00000000000E+00 -0.15485653307E+01  0.15485653307E+01  0.00000000000E+00 0. -1.
         21    1    1    2  503  502 -0.26187076693E+02  0.67746220248E+01  0.22000734273E+03  0.22166391078E+03  0.00000000000E+00 0. -1.
         21    1    1    2  504  501  0.26187076693E+02 -0.67746220248E+01  0.25322858771E+03  0.25466915032E+03  0.00000000000E+00 0. -1.
</event>
<event>
 4    1  0.1589319E+006  0.5654455E+02  0.7546771E-02  0.1272048E+00
         21   -1    0    0  504  501  0.00000000000E+00  0.00000000000E+00  0.41602692310E+03  0.41602692310E+03  0.00000000000E+00 0. -1.
         21   -1    0    0  503  502 -0.00000000000E+00 -0.00000000000E+00 -0.25605137583E+02  0.25605137583E+02  0.00000000000E+00 0.  1.
         21    1    1    2  503  501 -0.16053841841E+00  0.56544319501E+02  0.10482246801E+02  0.57507941525E+02  0.00000000000E+00 0.  1.
         21    1    1    2  504  502  0.16053841841E+00 -0.56544319501E+02  0.37993953871E+03  0.38412411916E+03  0.00000000000E+00 0. -1.
</event>
<event>
 4    1  0.1589319E+006  0.2361141E+02  0.7546771E-02  0.1484960E+00
         21   -1    0    0  504  501  0.00000000000E+00  0.00000000000E+00  0.16828732885E+02  0.16828732885E+02  0.00000000000E+00 0.  1.
         21   -1    0    0  503  502 -0.00000000000E+00 -0.00000000000E+00 -0.34004548379E+02  0.34004548379E+02  0.00000000000E+00 0.  1.
         21    1    1    2  503  501 -0.85961058958E+01  0.21991030533E+02 -0.12669161115E+02  0.26795635910E+02  0.00000000000E+00 0.  1.
         21    1    1    2  504  502  0.85961058958E+01 -0.21991030533E+02 -0.45066543786E+01  0.24037645354E+02  0.00000000000E+00 0.  1.
</event>
<event>
 4    1  0.1589319E+006  0.2482627E+02  0.7546771E-02  0.1470756E+00
         21   -1    0    0  503  501  0.00000000000E+00  0.00000000000E+00  0.32232410922E+03  0.32232410922E+03  0.00000000000E+00 0.  1.
         21   -1    0    0  504  502 -0.00000000000E+00 -0.00000000000E+00 -0.12304650716E+02  0.12304650716E+02  0.00000000000E+00 0.  1.
         21    1    1    2  503  502  0.24298714031E+02  0.50908112255E+01  0.12445889761E+01  0.24857450879E+02  0.00000000000E+00 0.  1.
         21    1    1    2  504  501 -0.24298714031E+02 -0.50908112255E+01  0.30877486953E+03  0.30977130906E+03  0.00000000000E+00 0.  1.
</event>
<event>
 4    1  0.1589319E+006  0.2139458E+02  0.7546771E-02  0.1513705E+00
         21   -1    0    0  504  501  0.00000000000E+00  0.00000000000E+00  0.11925572998E+01  0.11925572998E+01  0.00000000000E+00 0. -1.
         21   -1    0    0  503  502 -0.00000000000E+00 -0.00000000000E+00 -0.46031279456E+03  0.46031279456E+03  0.00000000000E+00 0. -1.
         21    1    1    2  503  501 -0.11859883225E+02  0.17806487938E+02 -0.32362538647E+03  0.32433180327E+03  0.00000000000E+00 0. -1.
         21    1    1    2  504  502  0.11859883225E+02 -0.17806487938E+02 -0.13549485079E+03  0.13717354859E+03  0.00000000000E+00 0. -1.
</event>
<event>
 4    1  0.1589319E+006  0.2042091E+02  0.7546771E-02  0.1527696E+00
         21   -1    0    0  504  501  0.00000000000E+00  0.00000000000E+00  0.17900944103E+03  0.17900944103E+03  0.00000000000E+00 0. -1.
         21   -1    0    0  501  502 -0.00000000000E+00 -0.00000000000E+00 -0.38207700812E+02  0.38207700812E+02  0.00000000000E+00 0. -1.
         21    1    1    2  503  502 -0.19591275532E+02 -0.57615537758E+01 -0.34844645573E+02  0.40387657818E+02  0.00000000000E+00 0. -1.
         21    1    1    2  504  503  0.19591275532E+02  0.57615537758E+01  0.17564638579E+03  0.17682948403E+03  0.00000000000E+00 0. -1.
</event>
<event>
 4    1  0.1589319E+006  0.2033415E+02  0.7546771E-02  0.1528987E+00
         21   -1    0    0  503  501  0.00000000000E+00  0.00000000000E+00  0.14672974422E+03  0.14672974422E+03  0.00000000000E+00 0. -1.
         21   -1    0    0  504  502 -0.00000000000E+00 -0.00000000000E+00 -0.29034110856E+02  0.29034110856E+02  0.00000000000E+00 0.  1.
         21    1    1    2  503  502  0.19509688078E+02  0.57314628116E+01  0.14235615195E+03  0.14380108342E+03  0.00000000000E+00 0. -1.
         21    1    1    2  504  501 -0.19509688078E+02 -0.57314628116E+01 -0.24660518587E+02  0.31962771654E+02  0.00000000000E+00 0.  1.
</event>
<event>
 4    1  0.1589319E+006  0.2451130E+02  0.7546771E-02  0.1474345E+00
         21   -1    0    0  504  501  0.00000000000E+00  0.00000000000E+00  0.25213202214E+03  0.25213202214E+03  0.00000000000E+00 0. -1.
         21   -1    0    0  501  502 -0.00000000000E+00 -0.00000000000E+00 -0.77877338453E+01  0.77877338453E+01  0.00000000000E+00 0. -1.
         21    1    1    2  503  502  0.78541896016E+01 -0.23218857648E+02  0.13905369904E+02  0.28180897021E+02  0.00000000000E+00 0. -1.
         21    1    1    2  504  503 -0.78541896016E+01  0.23218857648E+02  0.23043891839E+03  0.23173885896E+03  0.00000000000E+00 0. -1.
</event>
<event>
 4    1  0.1589319E+006  0.3048538E+02  0.7546771E-02  0.1415424E+00
         21   -1    0    0  503  501  0.00000000000E+00  0.00000000000E+00  0.18641298404E+02  0.18641298404E+02  0.00000000000E+00 0. -1.
         21   -1    0    0  504  502 -0.00000000000E+00 -0.00000000000E+00 -0.64268131360E+02  0.64268131360E+02  0.00000000000E+00 0. -1.
         21    1    1    2  503  502  0.34325753842E+00  0.30483447539E+02 -0.31817067787E+01  0.30650965036E+02  0.00000000000E+00 0. -1.
         21    1    1    2  504  501 -0.34325753842E+00 -0.30483447539E+02 -0.42445126177E+02  0.52258464729E+02  0.00000000000E+00 0. -1.
</event>
<event>
 4    1  0.1589319E+006  0.2873392E+02  0.7546771E-02  0.1430927E+00
         21   -1    0    0  503  501  0.00000000000E+00  0.00000000000E+00  0.43058632876E+03  0.43058632876E+03  0.00000000000E+00 0. -1.
         21   -1    0    0  501  502 -0.00000000000E+00 -0.00000000000E+00 -0.71126683968E+01  0.71126683968E+01  0.00000000000E+00 0. -1.
         21    1    1    2  503  504 -0.19491755667E+02  0.21111839279E+02  0.39877496218E+03  0.39980884027E+03  0.00000000000E+00 0. -1.
         21    1    1    2  504  502  0.19491755667E+02 -0.21111839279E+02  0.24698698175E+02  0.37890156879E+02  0.00000000000E+00 0. -1.
</event>
<event>
 4    1  0.1589319E+006  0.2451744E+02  0.7546771E-02  0.1474275E+00
         21   -1    0    0  503  501  0.00000000000E+00  0.00000000000E+00  0.34209105567E+01  0.34209105567E+01  0.00000000000E+00 0.  1.
         21   -1    0    0  504  502 -0.00000000000E+00 -0.00000000000E+00 -0.24830604341E+03  0.24830604341E+03  0.00000000000E+00 0.  1.
         21    1    1    2  503  502 -0.21005301037E+02 -0.12644456777E+02 -0.54389469047E+02  0.59660031026E+02  0.00000000000E+00 0.  1.
         21    1    1    2  504  501  0.21005301037E+02  0.12644456777E+02 -0.19049566380E+03  0.19206692294E+03  0.00000000000E+00 0.  1.
</event>
<event>
 4    1  0.1589319E+006  0.2256876E+02  0.7546771E-02  0.1497985E+00
         21   -1    0    0  504  501  0.00000000000E+00  0.00000000000E+00  0.30361030046E+02  0.30361030046E+02  0.00000000000E+00 0. -1.
         21   -1    0    0  503  502 -0.00000000000E+00 -0.00000000000E+00 -0.17122334408E+02  0.17122334408E+02  0.00000000000E+00 0. -1.
         21    1    1    2  503  501  0.20016077302E+02  0.10426191082E+02  0.32447165084E+01  0.22800811307E+02  0.00000000000E+00 0. -1.
         21    1    1    2  504  502 -0.20016077302E+02 -0.10426191082E+02  0.99939791294E+01  0.24682553147E+02  0.00000000000E+00 0. -1.
</event>
<event>
 4    1  0.1589319E+006  0.2844512E+02  0.7546771E-02  0.1433608E+00
         21   -1    0    0  503  501  0.00000000000E+00  0.00000000000E+00  0.10231271798E+02  0.10231271798E+02  0.00000000000E+00 0. -1.
         21   -1    0    0  504  502 -0.00000000000E+00 -0.00000000000E+00 -0.43341985342E+03  0.43341985342E+03  0.00000000000E+00 0. -1.
         21    1    1    2  503  502 -0.72676360852E+01 -0.27501025339E+02 -0.41216385839E+03  0.41314424974E+03  0.00000000000E+00 0. -1.
         21    1    1    2  504  501  0.72676360852E+01  0.27501025339E+02 -0.11024723227E+02  0.30506875474E+02  0.00000000000E+00 0. -1.
</event>
<event>
 4    1  0.1589319E+006  0.2105682E+02  0.7546771E-02  0.1518455E+00
         21   -1    0    0  504  501  0.00000000000E+00  0.00000000000E+00  0.13420690734E+04  0.13420690734E+04  0.00000000000E+00 0. -1.
         21   -1    0    0  503  502 -0.00000000000E+00 -0.00000000000E+00 -0.37883656493E+00  0.37883656493E+00  0.00000000000E+00 0. -1.
         21    1    1    2  503  501 -0.19667063638E+02  0.75230627245E+01  0.91090940113E+03  0.91115274622E+03  0.00000000000E+00 0. -1.
         21    1    1    2  504  502  0.19667063638E+02 -0.75230627245E+01  0.43078083575E+03  0.43129516380E+03  0.00000000000E+00 0. -1.
</event>
<event>
 4    1  0.1589319E+006  0.2189137E+02  0.7546771E-02  0.1506909E+00
         21   -1    0    0  504  501  0.00000000000E+00  0.00000000000E+00  0.17756960746E+02  0.17756960746E+02  0.00000000000E+00 0. -1.
         21   -1    0    0  501  502 -0.00000000000E+00 -0.00000000000E+00 -0.83560160816E+02  0.83560160816E+02  0.00000000000E+00 0. -1.
         21    1    1    2  503  502  0.22350069818E+01  0.21776976681E+02 -0.74584032936E+02  0.77730366901E+02  0.00000000000E+00 0. -1.
         21    1    1    2  504  503 -0.22350069818E+01 -0.21776976681E+02  0.87808328666E+01  0.23586754660E+02  0.00000000000E+00 0. -1.
</event>
<event>
 4    1  0.1589319E+006  0.2065730E+02  0.7546771E-02  0.1524214E+00
         21   -1    0    0  503  501  0.00000000000E+00  0.00000000000E+00  0.33436899388E+03  0.33436899388E+03  0.00000000000E+00 0.  1.
         21   -1    0    0  504  502 -0.00000000000E+00 -0.00000000000E+00 -0.10132794370E+03  0.10132794370E+03  0.00000000000E+00 0. -1.
         21    1    1    2  503  502 -0.84235642499E+01  0.18861806547E+02  0.33299276549E+03  0.33363289114E+03  0.00000000000E+00 0.  1.
         21    1    1    2  504  501  0.84235642499E+01 -0.18861806547E+02 -0.99951715315E+02  0.10206404644E+03  0.00000000000E+00 0. -1.
</event>
<event>
 4    1  0.1589319E+006  0.2261553E+02  0.7546771E-02  0.1497383E+00
         21   -1    0    0  503  501  0.00000000000E+00  0.00000000000E+00  0.44911074199E+01  0.44911074199E+01  0.00000000000E+00 0. -1.
         21   -1    0    0  504  502 -0.00000000000E+00 -0.00000000000E+00 -0.16412836655E+03  0.16412836655E+03  0.00000000000E+00 0. -1.
         21    1    1    2  503  502  0.18353627654E+02 -0.13213878357E+02 -0.33170682919E+02  0.40146686471E+02  0.00000000000E+00 0. -1.
         21    1    1    2  504  501 -0.18353627654E+02  0.13213878357E+02 -0.12646657621E+03  0.12847278750E+03  0.00000000000E+00 0. -1.
</event>
<event>
 4    1  0.1589319E+006  0.2591459E+02  0.7546771E-02  0.1458827E+00
         21   -1    0    0  504  501  0.00000000000E+00  0.00000000000E+00  0.15790176081E+02  0.15790176081E+02  0.00000000000E+00 0. -1.
         21   -1    0    0  501  502 -0.00000000000E+00 -0.00000000000E+00 -0.22944691905E+03  0.22944691905E+03  0.00000000000E+00 0. -1.
         21    1    1    2  503  502 -0.46677337120E+01 -0.25490746295E+02 -0.21750059767E+03  0.21903898254E+03  0.00000000000E+00 0. -1.
         21    1    1    2  504  503  0.46677337120E+01  0.25490746295E+02  0.38438546976E+01  0.26198112597E+02  0.00000000000E+00 0. -1.
</event>
<event>
 4    1  0.1589319E+006  0.2529319E+02  0.7546771E-02  0.1465550E+00
         21   -1    0    0  504  501  0.00000000000E+00  0.00000000000E+00  0.65240540407E+02  0.65240540407E+02  0.00000000000E+00 0.  1.
         21   -1    0    0  503  502 -0.00000000000E+00 -0.00000000000E+00 -0.26195005725E+03  0.26195005725E+03  0.00000000000E+00 0. -1.
         21    1    1    2  503  501  0.23364834750E+02 -0.96865738775E+01 -0.25885880471E+03  0.26009157233E+03  0.00000000000E+00 0. -1.
         21    1    1    2  504  502 -0.23364834750E+02  0.96865738775E+01  0.62149287876E+02  0.67099025327E+02  0.00000000000E+00 0.  1.
</event>
<event>
 4    1  0.1589319E+006  0.2793543E+02  0.7546771E-02  0.1438431E+00
         21   -1    0    0  504  501  0.00000000000E+00  0.00000000000E+00  0.17500579802E+02  0.17500579802E+02  0.00000000000E+00 0.  1.
         21   -1    0    0  501  502 -0.00000000000E+00 -0.00000000000E+00 -0.19422438839E+03  0.19422438839E+03  0.00000000000E+00 0.  1.
         21    1    1    2  503  502  0.17936484281E+02  0.21416600440E+02 -0.18128053589E+03  0.18342033948E+03  0.00000000000E+00 0.  1.
         21    1    1    2  504  503 -0.17936484281E+02 -0.21416600440E+02  0.45567273014E+01  0.28304628711E+02  0.00000000000E+00 0.  1.
</event>
<event>
 4    1  0.1589319E+006  0.3163428E+02  0.7546771E-02  0.1405907E+00
         21   -1    0    0  503  501  0.00000000000E+00  0.00000000000E+00  0.36255251450E+02  0.36255251450E+02  0.00000000000E+00 0.  1.
         21   -1    0    0  501  502 -0.00000000000E+00 -0.00000000000E+00 -0.51983200600E+03  0.51983200600E+03  0.00000000000E+00 0. -1.
         21    1    1    2  503  504  0.93036697692E+01  0.30235236918E+02  0.28772722837E+02  0.42762102405E+02  0.00000000000E+00 0.  1.
         21    1    1    2  504  502 -0.93036697692E+01 -0.30235236918E+02 -0.51234947739E+03  0.51332515504E+03  0.00000000000E+00 0. -1.
</event>
<event>
 4    1  0.1589319E+006  0.2023473E+02  0.7546771E-02  0.1530477E+00
         21   -1    0    0  504  501  0.00000000000E+00  0.00000000000E+00  0.47929773753E+01  0.47929773753E+01  0.00000000000E+00 0. -1.
         21   -1    0    0  503  502 -0.00000000000E+00 -0.00000000000E+00 -0.90230509121E+02  0.90230509121E+02  0.00000000000E+00 0. -1.
         21    1    1    2  503  501 -0.12488278516E+02 -0.15921279523E+02 -0.53682407693E+02  0.57369374562E+02  0.00000000000E+00 0. -1.
         21    1    1    2  504  502  0.12488278516E+02  0.15921279523E+02 -0.31755124053E+02  0.37654111935E+02  0.00000000000E+00 0. -1.
</event>
<event>
 4    1  0.1589319E+006  0.2146848E+02  0.7546771E-02  0.1512680E+00
         21   -1    0    0  502  501  0.00000000000E+00  0.00000000000E+00  0.12141039295E+01  0.12141039295E+01  0.00000000000E+00 0. -1.
         21   -1    0    0  503  502 -0.00000000000E+00 -0.00000000000E+00 -0.43346606061E+03  0.43346606061E+03  0.00000000000E+00 0.  1.
         21    1    1    2  503  504  0.18462289414E+02  0.10956252025E+02 -0.29272931702E+03  0.29351549982E+03  0.00000000000E+00 0.  1.
         21    1    1    2  504  501 -0.18462289414E+02 -0.10956252025E+02 -0.13952263966E+03  0.14116466472E+03  0.00000000000E+00 0. -1.
</event>
<event>
 4    1  0.1589319E+006  0.2507084E+02  0.7546771E-02  0.1468012E+00
         21   -1    0    0  504  501  0.00000000000E+00  0.00000000000E+00  0.39950893154E+02  0.39950893154E+02  0.00000000000E+00 0. -1.
         21   -1    0    0  503  502 -0.00000000000E+00 -0.00000000000E+00 -0.24775387629E+02  0.24775387629E+02  0.00000000000E+00 0.  1.
         21    1    1    2  503  501  0.12899135443E+02  0.21497889213E+02 -0.11963845665E+02  0.27779138555E+02  0.00000000000E+00 0.  1.
         21    1    1    2  504  502 -0.12899135443E+02 -0.21497889213E+02  0.27139351189E+02  0.36947142227E+02  0.00000000000E+00 0. -1.
</event>
<event>
 4    1  0.1589319E+006  0.2176493E+02  0.7546771E-02  0.1508618E+00
         21   -1    0    0  502  501  0.00000000000E+00  0.00000000000E+00  0.36252314028E+02  0.36252314028E+02  0.00000000000E+00 0.  1.
         21   -1    0    0  503  502 -0.00000000000E+00 -0.00000000000E+00 -0.19152179707E+02  0.19152179707E+02  0.00000000000E+00 0. -1.
         21    1    1    2  503  504 -0.21405290845E+02 -0.39402670677E+01 -0.70648416340E+01  0.22882835664E+02  0.00000000000E+00 0. -1.
         21    1    1    2  504  501  0.21405290845E+02  0.39402670677E+01  0.24164975956E+02  0.32521658071E+02  0.00000000000E+00 0.  1.
</event>
<event>
 4    1  0.1589319E+006  0.2045335E+02  0.7546771E-02  0.1527215E+00
         21   -1    0    0  504  501  0.00000000000E+00  0.00000000000E+00  0.25195735332E+01  0.25195735332E+01  0.00000000000E+00 0.  1.
         21   -1    0    0  503  502 -0.00000000000E+00 -0.00000000000E+00 -0.13186464075E+04  0.13186464075E+04  0.00000000000E+00 0. -1.
         21    1    1    2  503  501  0.15974895908E+02 -0.12772707736E+02 -0.12756594791E+04  0.12758234384E+04  0.00000000000E+00 0. -1.
         21    1    1    2  504  502 -0.15974895908E+02  0.12772707736E+02 -0.40467354864E+02  0.45342542626E+02  0.00000000000E+00 0.  1.
</event>
<event>
 4    1  0.1589319E+006  0.2084459E+02  0.7546771E-02  0.1521495E+00
         21   -1    0    0  504  501  0.00000000000E+00  0.00000000000E+00  0.70499773044E+02  0.70499773044E+02  0.00000000000E+00 0. -1.
         21   -1    0    0  503  502 -0.00000000000E+00 -0.00000000000E+00 -0.62550840737E+01  0.62550840737E+01  0.00000000000E+00 0. -1.
         21    1    1    2  503  501 -0.26141654203E-01 -0.20844570028E+02  0.27468327694E+02  0.34481963537E+02  0.00000000000E+00 0. -1.
         21    1    1    2  504  502  0.26141654203E-01  0.20844570028E+02  0.36776361276E+02  0.42272893581E+02  0.00000000000E+00 0. -1.
</event>
<event>
 4    1  0.1589319E+006  0.2313921E+02  0.7546771E-02  0.1490757E+00
         21   -1    0    0  504  501  0.00000000000E+00  0.00000000000E+00  0.24525645064E+02  0.24525645064E+02  0.00000000000E+00 0.  1.
         21   -1    0    0  503  502 -0.00000000000E+00 -0.00000000000E+00 -0.12703953075E+03  0.12703953075E+03  0.00000000000E+00 0.  1.
         21    1    1    2  503  501 -0.12030694943E+02 -0.19765769580E+02 -0.12022137112E+03  0.12242794347E+03  0.00000000000E+00 0.  1.
         21    1    1    2  504  502  0.12030694943E+02  0.19765769580E+02  0.17707485439E+02  0.29137232341E+02  0.00000000000E+00 0.  1.
</event>
<event>
 4    1  0.1589319E+006  0.2295015E+02  0.7546771E-02  0.1493125E+00
         21   -1    0    0  503  501  0.00000000000E+00  0.00000000000E+00  0.24735296529E+03  0.24735296529E+03  0.00000000000E+00 0.  1.
         21   -1    0    0  504  502 -0.00000000000E+00 -0.00000000000E+00 -0.22496502689E+01  0.22496502689E+01  0.00000000000E+00 0.  1.
         21    1    1    2  503  502  0.65867682434E+01  0.21984623680E+02  0.93695706403E+02  0.96465509860E+02  0.00000000000E+00 0.  1.
         21    1    1    2  504  501 -0.65867682434E+01 -0.21984623680E+02  0.15140760861E+03  0.15313710569E+03  0.00000000000E+00 0.  1.
</event>
<event>
 4    1  0.1589319E+006  0.2060503E+02  0.7546771E-02  0.1524979E+00
         21   -1    0    0  504  501  0.00000000000E+00  0.00000000000E+00  0.32808546008E+02  0.32808546008E+02  0.00000000000E+00 0. -1.
         21   -1    0    0  503  502 -0.00000000000E+00 -0.00000000000E+00 -0.95348727751E+02  0.95348727751E+02  0.00000000000E+00 0.  1.
         21    1    1    2  503  501  0.20507077686E+02  0.20067060847E+01  0.28301671541E+02  0.35007880778E+02  0.00000000000E+00 0. -1.
         21    1    1    2  504  502 -0.20507077686E+02 -0.20067060847E+01 -0.90841853284E+02  0.93149392980E+02  0.00000000000E+00 0.  1.
</event>
<event>
 4    1  0.1589319E+006  0.2231585E+02  0.7546771E-02  0.1501272E+00
         21   -1    0    0  504  501  0.00000000000E+00  0.00000000000E+00  0.38523189498E+02  0.38523189498E+02  0.00000000000E+00 0. -1.
         21   -1    0    0  501  502 -0.00000000000E+00 -0.00000000000E+00 -0.15053556080E+03  0.15053556080E+03  0.00000000000E+00 0.  1.
         21    1    1    2  503  502 -0.10768806358E+02  0.19545592668E+02 -0.14638562206E+03  0.14807683049E+03  0.00000000000E+00 0.  1.
         21    1    1    2  504  503  0.10768806358E+02 -0.19545592668E+02  0.34373250759E+02  0.40981919804E+02  0.00000000000E+00 0. -1.
</event>
<event>
 4    1  0.1589319E+006  0.2428689E+02  0.7546771E-02  0.1476941E+00
         21   -1    0    0  504  501  0.00000000000E+00  0.00000000000E+00  0.91238403469E+00  0.91238403469E+00  0.00000000000E+00 0. -1.
         21   -1    0    0  503  502 -0.00000000000E+00 -0.00000000000E+00 -0.91357801526E+03  0.91357801526E+03  0.00000000000E+00 0. -1.
         21    1    1    2  503  501 -0.14607331241E+02 -0.19403066482E+02 -0.20910449206E+03  0.21051019385E+03  0.00000000000E+00 0. -1.
         21    1    1    2  504  502  0.14607331241E+02  0.19403066482E+02 -0.70356113917E+03  0.70398020545E+03  0.00000000000E+00 0. -1.
</event>
<event>
 4    1  0.1589319E+006  0.3814373E+02  0.7546771E-02  0.1359721E+00
         21   -1    0    0  504  501  0.00000000000E+00  0.00000000000E+00  0.20468169347E+01  0.20468169347E+01  0.00000000000E+00 0.  1.
         21   -1    0    0  503  502 -0.00000000000E+00 -0.00000000000E+00 -0.71329047173E+03  0.71329047173E+03  0.00000000000E+00 0.  1.
         21    1    1    2  503  501 -0.33721026849E+02  0.17827970019E+02 -0.33462620049E+03  0.33679316831E+03  0.00000000000E+00 0.  1.
         21    1    1    2  504  502  0.33721026849E+02 -0.17827970019E+02 -0.37661745431E+03  0.37854412036E+03  0.00000000000E+00 0.  1.
</event>
<event>
 4    1  0.1589319E+006  0.4300693E+02  0.7546771E-02  0.1331712E+00
         21   -1    0    0  503  501  0.00000000000E+00  0.00000000000E+00  0.90461606859E+02  0.90461606859E+02  0.00000000000E+00 0.  1.
         21   -1    0    0  504  502 -0.00000000000E+00 -0.00000000000E+00 -0.10225116398E+03  0.10225116398E+03  0.00000000000E+00 0. -1.
         21    1    1    2  503  502 -0.94139728537E+01 -0.41963950910E+02 -0.92080674384E+02  0.10162896563E+03  0.00000000000E+00 0. -1.
         21    1    1    2  504  501  0.94139728537E+01  0.41963950910E+02  0.80291117258E+02  0.91083805210E+02  0.00000000000E+00 0.  1.
</event>
<event>
 4    1  0.1589319E+006  0.2623769E+02  0.7546771E-02  0.1455420E+00
         21   -1    0    0  503  501  0.00000000000E+00  0.00000000000E+00  0.61735945319E+01  0.61735945319E+01  0.00000000000E+00 0.  1.
         21   -1    0    0  504  502 -0.00000000000E+00 -0.00000000000E+00 -0.11151522096E+03  0.11151522096E+03  0.00000000000E+00 0.  1.
         21    1    1    2  503  502  0.63962084549E+01  0.25446116505E+02 -0.53080867043E+02  0.59211441241E+02  0.00000000000E+00 0.  1.
         21    1    1    2  504  501 -0.63962084549E+01 -0.25446116505E+02 -0.52260759382E+02  0.58477374248E+02  0.00000000000E+00 0.  1.
</event>
<event>
 4    1  0.1589319E+006  0.2404192E+02  0.7546771E-02  0.1479813E+00
         21   -1    0    0  504  501  0.00000000000E+00  0.00000000000E+00  0.71610436701E+03  0.71610436701E+03  0.00000000000E+00 0.  1.
         21   -1    0    0  503  502 -0.00000000000E+00 -0.00000000000E+00 -0.17295940538E+02  0.17295940538E+02  0.00000000000E+00 0. -1.
         21    1    1    2  503  501 -0.14979626793E+02 -0.18804906993E+02 -0.86371606864E+01  0.25546316576E+02  0.00000000000E+00 0. -1.
         21    1    1    2  504  502  0.14979626793E+02  0.18804906993E+02  0.70744558716E+03  0.70785399098E+03  0.00000000000E+00 0.  1.
</event>
<event>
 4    1  0.1589319E+006  0.2383844E+02  0.7546771E-02  0.1482230E+00
         21   -1    0    0  503  501  0.00000000000E+00  0.00000000000E+00  0.38867896872E+02  0.38867896872E+02  0.00000000000E+00 0.  1.
         21   -1    0    0  504  502 -0.00000000000E+00 -0.00000000000E+00 -0.41884583403E+02  0.41884583403E+02  0.00000000000E+00 0.  1.
         21    1    1    2  503  502  0.20562384284E+02  0.12060665396E+02 -0.34084029063E+02  0.41593176537E+02  0.00000000000E+00 0.  1.
         21    1    1    2  504  501 -0.20562384284E+02 -0.12060665396E+02  0.31067342532E+02  0.39159303738E+02  0.00000000000E+00 0.  1.
</event>
<event>
 4    1  0.1589319E+006  0.2785556E+02  0.7546771E-02  0.1439198E+00
         21   -1    0    0  504  501  0.00000000000E+00  0.00000000000E+00  0.58977217809E+02  0.58977217809E+02  0.00000000000E+00 0.  1.
         21   -1    0    0  501  502 -0.00000000000E+00 -0.00000000000E+00 -0.13756103589E+02  0.13756103589E+02  0.00000000000E+00 0. -1.
         21    1    1    2  503  502 -0.25660942528E+02  0.10837347820E+02  0.15017823279E+02  0.31645964913E+02  0.00000000000E+00 0. -1.
         21    1    1    2  504  503  0.25660942528E+02 -0.10837347820E+02  0.30203290942E+02  0.41087356485E+02  0.00000000000E+00 0.  1.
</event>
<event>
 4    1  0.1589319E+006  0.3144593E+02  0.7546771E-02  0.1407434E+00
         21   -1    0    0  502  501  0.00000000000E+00  0.00000000000E+00  0.21684030222E+02  0.21684030222E+02  0.00000000000E+00 0.  1.
         21   -1    0    0  504  502 -0.00000000000E+00 -0.00000000000E+00 -0.60095531708E+02  0.60095531708E+02  0.00000000000E+00 0. -1.
         21    1    1    2  503  501 -0.22520437881E+02 -0.21947130704E+02  0.87467166406E+00  0.31458094650E+02  0.00000000000E+00 0.  1.
         21    1    1    2  504  503  0.22520437881E+02  0.21947130704E+02 -0.39286173150E+02  0.50321467281E+02  0.00000000000E+00 0. -1.
</event>
<event>
 4    1  0.1589319E+006  0.2507813E+02  0.7546771E-02  0.1467931E+00
         21   -1    0    0  503  501  0.00000000000E+00  0.00000000000E+00  0.12634487147E+03  0.12634487147E+03  0.00000000000E+00 0.  1.
         21   -1    0    0  504  502 -0.00000000000E+00 -0.00000000000E+00 -0.70165000968E+01  0.70165000968E+01  0.00000000000E+00 0.  1.
         21    1    1    2  503  502 -0.16877529359E+02  0.18548902205E+02  0.23720539051E+02  0.34519222807E+02  0.00000000000E+00 0.  1.
         21    1    1    2  504  501  0.16877529359E+02 -0.18548902205E+02  0.95607832326E+02  0.98842148764E+02  0.00000000000E+00 0.  1.
</event>
<event>
 4    1  0.1589319E+006  0.2823720E+02  0.7546771E-02  0.1435561E+00
         21   -1    0    0  503  501  0.00000000000E+00  0.00000000000E+00  0.87173561714E+02  0.87173561714E+02  0.00000000000E+00 0.  1.
         21   -1    0    0  504  502 -0.00000000000E+00 -0.00000000000E+00 -0.66695750421E+02  0.66695750421E+02  0.00000000000E+00 0.  1.
         21    1    1    2  503  502  0.28229893103E+02 -0.64214372313E+00  0.81703758021E+02  0.86445608841E+02  0.00000000000E+00 0.  1.
         21    1    1    2  504  501 -0.28229893103E+02  0.64214372313E+00 -0.61225946728E+02  0.67423703294E+02  0.00000000000E+00 0.  1.
</event>
<event>
 4    1  0.1589319E+006  0.2204634E+02  0.7546771E-02  0.1504833E+00
         21   -1    0    0  503  501  0.00000000000E+00  0.00000000000E+00  0.41966534994E+01  0.41966534994E+01  0.00000000000E+00 0. -1.
         21   -1    0    0  501  502 -0.00000000000E+00 -0.00000000000E+00 -0.23702196277E+03  0.23702196277E+03  0.00000000000E+00 0. -1.
         21    1    1    2  503  504  0.19441919849E+02 -0.10394857334E+02 -0.30164898577E+02  0.37362580379E+02  0.00000000000E+00 0. -1.
         21    1    1    2  504  502 -0.19441919849E+02  0.10394857334E+02 -0.20266041069E+03  0.20385603589E+03  0.00000000000E+00 0. -1.
</event>
<event>
 4    1  0.1589319E+006  0.3123341E+02  0.7546771E-02  0.1409172E+00
         21   -1    0    0  503  501  0.00000000000E+00  0.00000000000E+00  0.82344051808E+02  0.82344051808E+02  0.00000000000E+00 0. -1.
         21   -1    0    0  504  502 -0.00000000000E+00 -0.00000000000E+00 -0.69415239760E+02  0.69415239760E+02  0.00000000000E+00 0.  1.
         21    1    1    2  503  502 -0.13179200241E+02  0.28316686592E+02  0.75566233952E+02  0.81766629943E+02  0.00000000000E+00 0. -1.
         21    1    1    2  504  501  0.13179200241E+02 -0.28316686592E+02 -0.62637421904E+02  0.69992661625E+02  0.00000000000E+00 0.  1.
</event>
<event>
 4    1  0.1589319E+006  0.2990120E+02  0.7546771E-02  0.1420457E+00
         21   -1    0    0  503  501  0.00000000000E+00  0.00000000000E+00  0.20007078182E+02  0.20007078182E+02  0.00000000000E+00 0.  1.
         21   -1    0    0  501  502 -0.00000000000E+00 -0.00000000000E+00 -0.14230810093E+03  0.14230810093E+03  0.00000000000E+00 0. -1.
         21    1    1    2  503  504 -0.19512687371E+02  0.22656930519E+02  0.60671472405E+01  0.30510518590E+02  0.00000000000E+00 0.  1.
         21    1    1    2  504  502  0.19512687371E+02 -0.22656930519E+02 -0.12836816998E+03  0.13180466052E+03  0.00000000000E+00 0. -1.
</event>
<event>
 4    1  0.1589319E+006  0.2183210E+02  0.7546771E-02  0.1507708E+00
         21   -1    0    0  502  501  0.00000000000E+00  0.00000000000E+00  0.44450241873E+02  0.44450241873E+02  0.00000000000E+00 0. -1.
         21   -1    0    0  504  502 -0.00000000000E+00 -0.00000000000E+00 -0.63420438566E+02  0.63420438566E+02  0.00000000000E+00 0. -1.
         21    1    1    2  503  501  0.21538130893E+02 -0.35706210734E+01  0.39679614993E+02  0.45289206917E+02  0.00000000000E+00 0. -1.
         21    1    1    2  504  503 -0.21538130893E+02  0.35706210734E+01 -0.58649811686E+02  0.62581473521E+02  0.00000000000E+00 0. -1.
</event>
<event>
 4    1  0.1589319E+006  0.2120711E+02  0.7546771E-02  0.1516328E+00
         21   -1    0    0  503  501  0.00000000000E+00  0.00000000000E+00  0.15539406482E+03  0.15539406482E+03  0.00000000000E+00 0. -1.
         21   -1    0    0  501  502 -0.00000000000E+00 -0.00000000000E+00 -0.18078154303E+02  0.18078154303E+02  0.00000000000E+00 0.  1.
         21    1    1    2  503  504 -0.18830934697E+02  0.97538431026E+01  0.14814847436E+03  0.14965865164E+03  0.00000000000E+00 0. -1.
         21    1    1    2  504  502  0.18830934697E+02 -0.97538431026E+01 -0.10832563841E+02  0.23813567481E+02  0.00000000000E+00 0.  1.
</event>
<event>
 4    1  0.1589319E+006  0.2475991E+02  0.7546771E-02  0.1471507E+00
         21   -1    0    0  503  501  0.00000000000E+00  0.00000000000E+00  0.31813335221E+03  0.31813335221E+03  0.00000000000E+00 0.  1.
         21   -1    0    0  504  502 -0.00000000000E+00 -0.00000000000E+00 -0.82392749720E+02  0.82392749720E+02  0.00000000000E+00 0.  1.
         21    1    1    2  503  502  0.17957493928E+02 -0.17046448651E+02 -0.80036981381E+02  0.83779301670E+02  0.00000000000E+00 0.  1.
         21    1    1    2  504  501 -0.17957493928E+02  0.17046448651E+02  0.31577758387E+03  0.31674680026E+03  0.00000000000E+00 0.  1.
</event>
<event>
 4    1  0.1589319E+006  0.3919304E+02  0.7546771E-02  0.1353280E+00
         21   -1    0    0  503  501  0.00000000000E+00  0.00000000000E+00  0.30856283053E+01  0.30856283053E+01  0.00000000000E+00 0.  1.
         21   -1    0    0  504  502 -0.00000000000E+00 -0.00000000000E+00 -0.99554636818E+03  0.99554636818E+03  0.00000000000E+00 0. -1.
         21    1    1    2  503  502 -0.21395164642E+02 -0.32838113520E+02 -0.14317808278E+03  0.14844547200E+03  0.00000000000E+00 0.  1.
         21    1    1    2  504  501  0.21395164642E+02  0.32838113520E+02 -0.84928265709E+03  0.85018652448E+03  0.00000000000E+00 0. -1.
</event>
<event>
 4    1  0.1589319E+006  0.2141872E+02  0.7546771E-02  0.1513370E+00
         21   -1    0    0  504  501  0.00000000000E+00  0.00000000000E+00  0.14662009879E+03  0.14662009879E+03  0.00000000000E+00 0. -1.
         21   -1    0    0  503  502 -0.00000000000E+00 -0.00000000000E+00 -0.31378520982E+01  0.31378520982E+01  0.00000000000E+00 0. -1.
         21    1    1    2  503  501  0.62639009370E+01 -0.20482312509E+02  0.67744597349E+02  0.71049926465E+02  0.00000000000E+00 0. -1.
         21    1    1    2  504  502 -0.62639009370E+01  0.20482312509E+02  0.75737649339E+02  0.78708024420E+02  0.00000000000E+00 0. -1.
</event>
<event>
 4    1  0.1589319E+006  0.2614727E+02  0.7546771E-02  0.1456367E+00
         21   -1    0    0  504  501  0.00000000000E+00  0.00000000000E+00  0.38347384661E+01  0.38347384661E+01  0.00000000000E+00 0. -1.
         21   -1    0    0  501  502 -0.00000000000E+00 -0.00000000000E+00 -0.18208834825E+03  0.18208834825E+03  0.00000000000E+00 0. -1.
         21    1    1    2  503  502  0.17511069981E+02  0.19417574270E+02 -0.75693142074E+02  0.80082029941E+02  0.00000000000E+00 0. -1.
         21    1    1    2  504  503 -0.17511069981E+02 -0.19417574270E+02 -0.10256046771E+03  0.10584105677E+03  0.00000000000E+00 0. -1.
</event>
<event>
 4    1  0.1589319E+006  0.2404122E+02  0.7546771E-02  0.1479822E+00
         21   -1    0    0  503  501  0.00000000000E+00  0.00000000000E+00  0.31786277644E+03  0.31786277644E+03  0.00000000000E+00 0. -1.
         21   -1    0    0  504  502 -0.00000000000E+00 -0.00000000000E+00 -0.18334594594E+01  0.18334594594E+01  0.00000000000E+00 0. -1.
         21    1    1    2  503  502  0.23790395995E+02  0.34636980993E+01  0.14349518424E+03  0.14549518221E+03  0.00000000000E+00 0. -1.
         21    1    1    2  504  501 -0.23790395995E+02 -0.34636980993E+01  0.17253413275E+03  0.17420105369E+03  0.00000000000E+00 0. -1.
</event>
<event>
 4    1  0.1589319E+006  0.3385839E+02  0.7546771E-02  0.1388772E+00
         21   -1    0    0  502  501  0.00000000000E+00  0.00000000000E+00  0.58564081699E+02  0.58564081699E+02  0.00000000000E+00 0. -1.
         21   -1    0    0  504  502 -0.00000000000E+00 -0.00000000000E+00 -0.29233285866E+02  0.29233285866E+02  0.00000000000E+00 0. -1.
         21    1    1    2  503  501 -0.52812022412E+01 -0.33443973908E+02  0.39898070467E+02  0.52328257327E+02  0.00000000000E+00 0. -1.
         21    1    1    2  504  503  0.52812022412E+01  0.33443973908E+02 -0.10567274634E+02  0.35469110238E+02  0.00000000000E+00 0. -1.
</event>
<event>
 4    1  0.1589319E+006  0.3482813E+02  0.7546771E-02  0.1381776E+00
         21   -1    0    0  504  501  0.00000000000E+00  0.00000000000E+00  0.24686668728E+02  0.24686668728E+02  0.00000000000E+00 0.  1.
         21   -1    0    0  503  502 -0.00000000000E+00 -0.00000000000E+00 -0.51614767808E+02  0.51614767808E+02  0.00000000000E+00 0.  1.
         21    1    1    2  503  501 -0.32190908246E+02 -0.13294513682E+02 -0.21824951355E+02  0.41101425394E+02  0.00000000000E+00 0.  1.
         21    1    1    2  504  502  0.32190908246E+02  0.13294513682E+02 -0.51031477252E+01  0.35200011143E+02  0.00000000000E+00 0.  1.
</event>
<event>
 4    1  0.1589319E+006  0.3359660E+02  0.7546771E-02  0.1390707E+00
         21   -1    0    0  503  501  0.00000000000E+00  0.00000000000E+00  0.17998346040E+03  0.17998346040E+03  0.00000000000E+00 0. -1.
         21   -1    0    0  504  502 -0.00000000000E+00 -0.00000000000E+00 -0.33258262282E+02  0.33258262282E+02  0.00000000000E+00 0. -1.
         21    1    1    2  503  502  0.32972820779E+02 -0.64439761690E+01 -0.22681203283E+02  0.40536017581E+02  0.00000000000E+00 0. -1.
         21    1    1    2  504  501 -0.32972820779E+02  0.64439761690E+01  0.16940640140E+03  0.17270570510E+03  0.00000000000E+00 0. -1.
</event>
<event>
 4    1  0.1589319E+006  0.3206998E+02  0.7546771E-02  0.1402422E+00
         21   -1    0    0  504  501  0.00000000000E+00  0.00000000000E+00  0.51093775194E+03  0.51093775194E+03  0.00000000000E+00 0. -1.
         21   -1    0    0  501  502 -0.00000000000E+00 -0.00000000000E+00 -0.48180367635E+01  0.48180367635E+01  0.00000000000E+00 0. -1.
         21    1    1    2  503  502  0.22268357074E+01  0.31992571781E+02  0.56292284812E+02  0.64786609541E+02  0.00000000000E+00 0. -1.
         21    1    1    2  504  503 -0.22268357074E+01 -0.31992571781E+02  0.44982743037E+03  0.45096917917E+03  0.00000000000E+00 0. -1.
</event>
<event>
 4    1  0.1589319E+006  0.3094953E+02  0.7546771E-02  0.1411520E+00
         21   -1    0    0  502  501  0.00000000000E+00  0.00000000000E+00  0.14488245735E+03  0.14488245735E+03  0.00000000000E+00 0. -1.
         21   -1    0    0  503  502 -0.00000000000E+00 -0.00000000000E+00 -0.13380517039E+02  0.13380517039E+02  0.00000000000E+00 0.  1.
         21    1    1    2  503  504 -0.20166639238E+02 -0.23477227549E+02  0.94676890779E+01  0.32365269781E+02  0.00000000000E+00 0.  1.
         21    1    1    2  504  501  0.20166639238E+02  0.23477227549E+02  0.12203425123E+03  0.12589770460E+03  0.00000000000E+00 0. -1.
</event>
<event>
 4    1  0.1589319E+006  0.3173989E+02  0.7546771E-02  0.1405056E+00
         21   -1    0    0  504  501  0.00000000000E+00  0.00000000000E+00  0.13463661093E+04  0.13463661093E+04  0.00000000000E+00 0. -1.
         21   -1    0    0  503  502 -0.00000000000E+00 -0.00000000000E+00 -0.35165654348E+01  0.35165654348E+01  0.00000000000E+00 0. -1.
         21    1    1    2  503  501  0.31281110994E+02  0.53770377086E+01  0.12702696603E+04  0.12706661364E+04  0.00000000000E+00 0. -1.
         21    1    1    2  504  502 -0.31281110994E+02 -0.53770377086E+01  0.72579883557E+02  0.79216538278E+02  0.00000000000E+00 0. -1.
</event>
<event>
 4    1  0.1589319E+006  0.3238969E+02  0.7546771E-02  0.1399906E+00
         21   -1    0    0  503  501  0.00000000000E+00  0.00000000000E+00  0.38581562853E+02  0.38581562853E+02  0.00000000000E+00 0.  1.
         21   -1    0    0  504  502 -0.00000000000E+00 -0.00000000000E+00 -0.29026793081E+02  0.29026793081E+02  0.00000000000E+00 0.  1.
         21    1    1    2  503  502  0.28846922530E+02 -0.14729116763E+02  0.13277400425E+02  0.35005445036E+02  0.00000000000E+00 0.  1.
         21    1    1    2  504  501 -0.28846922530E+02  0.14729116763E+02 -0.37226306533E+01  0.32602910899E+02  0.00000000000E+00 0.  1.
</event>
<event>
 4    1  0.1589319E+006  0.2308906E+02  0.7546771E-02  0.1491383E+00
         21   -1    0    0  504  501  0.00000000000E+00  0.00000000000E+00  0.56863625920E+00  0.56863625920E+00  0.00000000000E+00 0.  1.
         21   -1    0    0  503  502 -0.00000000000E+00 -0.00000000000E+00 -0.11603386280E+04  0.11603386280E+04  0.00000000000E+00 0.  1.
         21    1    1    2  503  501  0.12695945755E+02  0.19285168679E+02 -0.83424932747E+03  0.83456877797E+03  0.00000000000E+00 0.  1.
         21    1    1    2  504  502 -0.12695945755E+02 -0.19285168679E+02 -0.32552066426E+03  0.32633848629E+03  0.00000000000E+00 0.  1.
</event>
<event>
 4    1  0.1589319E+006  0.2276185E+02  0.7546771E-02  0.1495510E+00
         21   -1    0    0  504  501  0.00000000000E+00  0.00000000000E+00  0.37411414000E+03  0.37411414000E+03  0.00000000000E+00 0.  1.
         21   -1    0    0  503  502 -0.00000000000E+00 -0.00000000000E+00 -0.48351697442E+01  0.48351697442E+01  0.00000000000E+00 0.  1.
         21    1    1    2  503  501 -0.20975267139E+02  0.88396809058E+01  0.34469597241E+03  0.34544668935E+03  0.00000000000E+00 0.  1.
         21    1    1    2  504  502  0.20975267139E+02 -0.88396809058E+01  0.24582997854E+02  0.33502620398E+02  0.00000000000E+00 0.  1.
</event>
<event>
 4    1  0.1589319E+006  0.2141023E+02  0.7546771E-02  0.1513488E+00
         21   -1    0    0  504  501  0.00000000000E+00  0.00000000000E+00  0.76105420329E+02  0.76105420329E+02  0.00000000000E+00 0. -1.
         21   -1    0    0  501  502 -0.00000000000E+00 -0.00000000000E+00 -0.10626723002E+02  0.10626723002E+02  0.00000000000E+00 0.  1.
         21    1    1    2  503  502 -0.21407417276E+02 -0.34711368023E+00  0.41966084803E+01  0.21817642519E+02  0.00000000000E+00 0.  1.
         21    1    1    2  504  503  0.21407417276E+02  0.34711368023E+00  0.61282088847E+02  0.64914500812E+02  0.00000000000E+00 0. -1.
</event>
<event>
 4    1  0.1589319E+006  0.5664949E+02  0.7546771E-02  0.1271662E+00
         21   -1    0    0  503  501  0.00000000000E+00  0.00000000000E+00  0.43017401101E+02  0.43017401101E+02  0.00000000000E+00 0. -1.
         21   -1    0    0  501  502 -0.00000000000E+00 -0.00000000000E+00 -0.13674779897E+03  0.13674779897E+03  0.00000000000E+00 0.  1.
         21    1    1    2  503  504 -0.25975712646E+02  0.50343096382E+02  0.13727862875E+02  0.58289100352E+02  0.00000000000E+00 0. -1.
         21    1    1    2  504  502  0.25975712646E+02 -0.50343096382E+02 -0.10745826075E+03  0.12147609972E+03  0.00000000000E+00 0.  1.
</event>
<event>
 4    1  0.1589319E+006  0.2034126E+02  0.7546771E-02  0.1528881E+00
         21   -1    0    0  502  501  0.00000000000E+00  0.00000000000E+00  0.48998362411E+03  0.48998362411E+03  0.00000000000E+00 0.  1.
         21   -1    0    0  503  502 -0.00000000000E+00 -0.00000000000E+00 -0.21166523615E+01  0.21166523615E+01  0.00000000000E+00 0.  1.
         21    1    1    2  503  504 -0.11658541882E+02  0.16668691375E+02  0.53178071032E+02  0.56935701538E+02  0.00000000000E+00 0.  1.
         21    1    1    2  504  501  0.11658541882E+02 -0.16668691375E+02  0.43468890072E+03  0.43516457493E+03  0.00000000000E+00 0.  1.
</event>
<event>
 4    1  0.1589319E+006  0.2169612E+02  0.7546771E-02  0.1509554E+00
         21   -1    0    0  503  501  0.00000000000E+00  0.00000000000E+00  0.21482755828E+01  0.21482755828E+01  0.00000000000E+00 0. -1.
         21   -1    0    0  504  502 -0.00000000000E+00 -0.00000000000E+00 -0.10930439900E+04  0.10930439900E+04  0.00000000000E+00 0. -1.
         21    1    1    2  503  502 -0.12328274791E+02 -0.17853152322E+02 -0.10350906805E+04  0.10353180373E+04  0.00000000000E+00 0. -1.
         21    1    1    2  504  501  0.12328274791E+02  0.17853152322E+02 -0.55805033891E+02  0.59874228302E+02  0.00000000000E+00 0. -1.
</event>
<event>
 4    1  0.1589319E+006  0.2373543E+02  0.7546771E-02  0.1483464E+00
         21   -1    0    0  502  501  0.00000000000E+00  0.00000000000E+00  0.38827628558E+03  0.38827628558E+03  0.00000000000E+00 0. -1.
         21   -1    0    0  503  502 -0.00000000000E+00 -0.00000000000E+00 -0.12943919049E+02  0.12943919049E+02  0.00000000000E+00 0.  1.
         21    1    1    2  503  504  0.29134826363E+01  0.23555942968E+02 -0.13660903936E+01  0.23774714155E+02  0.00000000000E+00 0.  1.
         21    1    1    2  504  501 -0.29134826363E+01 -0.23555942968E+02  0.37669845692E+03  0.37744549047E+03  0.00000000000E+00 0. -1.
</event>
<event>
 4    1  0.1589319E+006  0.3237979E+02  0.7546771E-02  0.1399983E+00
         21   -1    0    0  503  501  0.00000000000E+00  0.00000000000E+00  0.10093727317E+03  0.10093727317E+03  0.00000000000E+00 0.  1.
         21   -1    0    0  501  502 -0.00000000000E+00 -0.00000000000E+00 -0.13561939400E+03  0.13561939400E+03  0.00000000000E+00 0.  1.
         21    1    1    2  503  504 -0.29423888640E+02 -0.13516130346E+02  0.96317557777E+02  0.10161458034E+03  0.00000000000E+00 0.  1.
         21    1    1    2  504  502  0.29423888640E+02  0.13516130346E+02 -0.13099967860E+03  0.13494208682E+03  0.00000000000E+00 0.  1.
</event>
<event>
 4    1  0.1589319E+006  0.2171881E+02  0.7546771E-02  0.1509245E+00
         21   -1    0    0  504  501  0.00000000000E+00  0.00000000000E+00  0.34777931789E+03  0.34777931789E+03  0.00000000000E+00 0. -1.
         21   -1    0    0  501  502 -0.00000000000E+00 -0.00000000000E+00 -0.28236341978E+02  0.28236341978E+02  0.00000000000E+00 0. -1.
         21    1    1    2  503  502  0.18315897741E+02 -0.11671951956E+02 -0.23665275099E+02  0.32120893793E+02  0.00000000000E+00 0. -1.
         21    1    1    2  504  503 -0.18315897741E+02  0.11671951956E+02  0.34320825101E+03  0.34389476608E+03  0.00000000000E+00 0. -1.
</event>
<event>
 4    1  0.1589319E+006  0.2483396E+02  0.7546771E-02  0.1470669E+00
         21   -1    0    0  504  501  0.00000000000E+00  0.00000000000E+00  0.16399364903E+03  0.16399364903E+03  0.00000000000E+00 0.  1.
         21   -1    0    0  503  502 -0.00000000000E+00 -0.00000000000E+00 -0.39263933778E+01  0.39263933778E+01  0.00000000000E+00 0.  1.
         21    1    1    2  503  501 -0.18294182813E+02  0.16794302892E+02  0.62784401748E+02  0.67517455797E+02  0.00000000000E+00 0.  1.
         21    1    1    2  504  502  0.18294182813E+02 -0.16794302892E+02  0.97282853901E+02  0.10040258661E+03  0.00000000000E+00 0.  1.
</event>
<event>
 4    1  0.1589319E+006  0.2194027E+02  0.7546771E-02  0.1506252E+00
         21   -1    0    0  504  501  0.00000000000E+00  0.00000000000E+00  0.53492455963E+02  0.53492455963E+02  0.00000000000E+00 0. -1.
         21   -1    0    0  503  502 -0.00000000000E+00 -0.00000000000E+00 -0.15334732933E+02  0.15334732933E+02  0.00000000000E+00 0. -1.
         21    1    1    2  503  501 -0.11144901461E+02 -0.18898853681E+02 -0.30415067640E+01  0.22150084930E+02  0.00000000000E+00 0. -1.
         21    1    1    2  504  502  0.11144901461E+02  0.18898853681E+02  0.41199229794E+02  0.46677103966E+02  0.00000000000E+00 0. -1.
</event>
<event>
 4    1  0.1589319E+006  0.2721569E+02  0.7546771E-02  0.1445453E+00
         21   -1    0    0  504  501  0.00000000000E+00  0.00000000000E+00  0.26984797512E+01  0.26984797512E+01  0.00000000000E+00 0. -1.
         21   -1    0    0  503  502 -0.00000000000E+00 -0.00000000000E+00 -0.47544501919E+03  0.47544501919E+03  0.00000000000E+00 0. -1.
         21    1    1    2  503  501  0.17764061448E+02 -0.20618720706E+02 -0.39180239988E+03  0.39274650103E+03  0.00000000000E+00 0. -1.
         21    1    1    2  504  502 -0.17764061448E+02  0.20618720706E+02 -0.80944139561E+02  0.85396997909E+02  0.00000000000E+00 0. -1.
</event>
<event>
 4    1  0.1589319E+006  0.2757871E+02  0.7546771E-02  0.1441880E+00
         21   -1    0    0  503  501  0.00000000000E+00  0.00000000000E+00  0.23272542818E+03  0.23272542818E+03  0.00000000000E+00 0.  1.
         21   -1    0    0  504  502 -0.00000000000E+00 -0.00000000000E+00 -0.73606206176E+01  0.73606206176E+01  0.00000000000E+00 0. -1.
         21    1    1    2  503  502 -0.21505791419E+02 -0.17265167815E+02  0.20219243409E+03  0.20406461106E+03  0.00000000000E+00 0.  1.
         21    1    1    2  504  501  0.21505791419E+02  0.17265167815E+02  0.23172373472E+02  0.36021437736E+02  0.00000000000E+00 0. -1.
</event>
<event>
 4    1  0.1589319E+006  0.2897197E+02  0.7546771E-02  0.1428745E+00
         21   -1    0    0  504  501  0.00000000000E+00  0.00000000000E+00  0.10756453773E+03  0.10756453773E+03  0.00000000000E+00 0.  1.
         21   -1    0    0  503  502 -0.00000000000E+00 -0.00000000000E+00 -0.11057097704E+02  0.11057097704E+02  0.00000000000E+00 0.  1.
         21    1    1    2  503  501  0.12966322489E+02 -0.25908483344E+02  0.16080222927E+02  0.33135307414E+02  0.00000000000E+00 0.  1.
         21    1    1    2  504  502 -0.12966322489E+02  0.25908483344E+02  0.80427217100E+02  0.85486328021E+02  0.00000000000E+00 0.  1.
</event>
<event>
 4    1  0.1589319E+006  0.2158082E+02  0.7546771E-02  0.1511131E+00
         21   -1    0    0  502  501  0.00000000000E+00  0.00000000000E+00  0.78489622393E+02  0.78489622393E+02  0.00000000000E+00 0.  1.
         21   -1    0    0  503  502 -0.00000000000E+00 -0.00000000000E+00 -0.99525792187E+01  0.99525792187E+01  0.00000000000E+00 0. -1.
         21    1    1    2  503  504 -0.19809586153E+02 -0.85622512631E+01  0.61679213268E+01  0.22444934924E+02  0.00000000000E+00 0. -1.
         21    1    1    2  504  501  0.19809586153E+02  0.85622512631E+01  0.62369121847E+02  0.65997266688E+02  0.00000000000E+00 0.  1.
</event>
<event>
 4    1  0.1589319E+006  0.2340865E+02  0.7546771E-02  0.1487430E+00
         21   -1    0    0  504  501  0.00000000000E+00  0.00000000000E+00  0.10046864283E+04  0.10046864283E+04  0.00000000000E+00 0.  1.
         21   -1    0    0  503  502 -0.00000000000E+00 -0.00000000000E+00 -0.83075042460E+00  0.83075042460E+00  0.00000000000E+00 0.  1.
         21    1    1    2  503  501  0.17350700167E+02  0.15713625004E+02  0.20727760715E+03  0.20859523300E+03  0.00000000000E+00 0.  1.
         21    1    1    2  504  502 -0.17350700167E+02 -0.15713625004E+02  0.79657807071E+03  0.79692194570E+03  0.00000000000E+00 0.  1.
</event>
<event>
 4    1  0.1589319E+006  0.2144122E+02  0.7546771E-02  0.1513058E+00
         21   -1    0    0  503  501  0.00000000000E+00  0.00000000000E+00  0.18009274127E+02  0.18009274127E+02  0.00000000000E+00 0. -1.
         21   -1    0    0  504  502 -0.00000000000E+00 -0.00000000000E+00 -0.25528565258E+02  0.25528565258E+02  0.00000000000E+00 0. -1.
         21    1    1    2  503  502  0.19115955596E+02 -0.97111338144E+01 -0.39203368148E+01  0.21796672201E+02  0.00000000000E+00 0. -1.
         21    1    1    2  504  501 -0.19115955596E+02  0.97111338144E+01 -0.35989543163E+01  0.21741167183E+02  0.00000000000E+00 0. -1.
</event>
<event>
 4    1  0.1589319E+006  0.2563633E+02  0.7546771E-02  0.1461809E+00
         21   -1    0    0  503  501  0.00000000000E+00  0.00000000000E+00  0.10377608707E+03  0.10377608707E+03  0.00000000000E+00 0.  1.
         21   -1    0    0  504  502 -0.00000000000E+00 -0.00000000000E+00 -0.15642374525E+02  0.15642374525E+02  0.00000000000E+00 0. -1.
         21    1    1    2  503  502 -0.48002699421E+01  0.25182909283E+02  0.90129481976E+02  0.93704562497E+02  0.00000000000E+00 0.  1.
         21    1    1    2  504  501  0.48002699421E+01 -0.25182909283E+02 -0.19957694265E+01  0.25713899102E+02  0.00000000000E+00 0. -1.
</event>
<event>
 4    1  0.1589319E+006  0.2699855E+02  0.7546771E-02  0.1447623E+00
         21   -1    0    0  504  501  0.00000000000E+00  0.00000000000E+00  0.23711900135E+01  0.23711900135E+01  0.00000000000E+00 0.  1.
         21   -1    0    0  503  502 -0.00000000000E+00 -0.00000000000E+00 -0.43737131726E+03  0.43737131726E+03  0.00000000000E+00 0.  1.
         21    1    1    2  503  501  0.26229606784E+02  0.63975953965E+01 -0.97645493169E+02  0.10130924852E+03  0.00000000000E+00 0.  1.
         21    1    1    2  504  502 -0.26229606784E+02 -0.63975953965E+01 -0.33735463408E+03  0.33843325876E+03  0.00000000000E+00 0.  1.
</event>
<event>
 4    1  0.1589319E+006  0.2517947E+02  0.7546771E-02  0.1466806E+00
         21   -1    0    0  502  501  0.00000000000E+00  0.00000000000E+00  0.36237235370E+02  0.36237235370E+02  0.00000000000E+00 0. -1.
         21   -1    0    0  504  502 -0.00000000000E+00 -0.00000000000E+00 -0.37963965092E+02  0.37963965092E+02  0.00000000000E+00 0. -1.
         21    1    1    2  503  501  0.11075073719E+02  0.22613016972E+02  0.26378243396E+02  0.36466663120E+02  0.00000000000E+00 0. -1.
         21    1    1    2  504  503 -0.11075073719E+02 -0.22613016972E+02 -0.28104973118E+02  0.37734537342E+02  0.00000000000E+00 0. -1.
</event>
<event>
 4    1  0.1589319E+006  0.2729148E+02  0.7546771E-02  0.1444702E+00
         21   -1    0    0  503  501  0.00000000000E+00  0.00000000000E+00  0.63171514089E+02  0.63171514089E+02  0.00000000000E+00 0.  1.
         21   -1    0    0  504  502 -0.00000000000E+00 -0.00000000000E+00 -0.68624018005E+02  0.68624018005E+02  0.00000000000E+00 0.  1.
         21    1    1    2  503  502  0.20425151452E+02  0.18100772690E+02 -0.62696359451E+02  0.68378785249E+02  0.00000000000E+00 0.  1.
         21    1    1    2  504  501 -0.20425151452E+02 -0.18100772690E+02  0.57243855535E+02  0.63416746844E+02  0.00000000000E+00 0.  1.
</event>
<event>
 4    1  0.1589319E+006  0.2185719E+02  0.7546771E-02  0.1507370E+00
         21   -1    0    0  502  501  0.00000000000E+00  0.00000000000E+00  0.26760312601E+02  0.26760312601E+02  0.00000000000E+00 0. -1.
         21   -1    0    0  503  502 -0.00000000000E+00 -0.00000000000E+00 -0.27785247978E+03  0.27785247978E+03  0.00000000000E+00 0.  1.
         21    1    1    2  503  504 -0.12083781514E+02 -0.18213153998E+02 -0.27287829739E+03  0.27375226381E+03  0.00000000000E+00 0.  1.
         21    1    1    2  504  501  0.12083781514E+02  0.18213153998E+02  0.21786130210E+02  0.30860528572E+02  0.00000000000E+00 0. -1.
</event>
<event>
 4    1  0.1589319E+006  0.2680882E+02  0.7546771E-02  0.1449538E+00
         21   -1    0    0  503  501  0.00000000000E+00  0.00000000000E+00  0.10855970461E+03  0.10855970461E+03  0.00000000000E+00 0. -1.
         21   -1    0    0  504  502 -0.00000000000E+00 -0.00000000000E+00 -0.19365241416E+02  0.19365241416E+02  0.00000000000E+00 0. -1.
         21    1    1    2  503  502 -0.23916319709E+02  0.12112901350E+02 -0.72923740215E+01  0.27782934446E+02  0.00000000000E+00 0. -1.
         21    1    1    2  504  501  0.23916319709E+02 -0.12112901350E+02  0.96486837214E+02  0.10014201158E+03  0.00000000000E+00 0. -1.
</event>
<event>
 4    1  0.1589319E+006  0.2266728E+02  0.7546771E-02  0.1496719E+00
         21   -1    0    0  502  501  0.00000000000E+00  0.00000000000E+00  0.89628918950E+01  0.89628918950E+01  0.00000000000E+00 0. -1.
         21   -1    0    0  503  502 -0.00000000000E+00 -0.00000000000E+00 -0.16540860281E+03  0.16540860281E+03  0.00000000000E+00 0.  1.
         21    1    1    2  503  504 -0.88310592339E+01 -0.20876257743E+02 -0.14869939451E+03  0.15041713889E+03  0.00000000000E+00 0.  1.
         21    1    1    2  504  501  0.88310592339E+01  0.20876257743E+02 -0.77463164028E+01  0.23954355812E+02  0.00000000000E+00 0. -1.
</event>
<event>
 4    1  0.1589319E+006  0.8146324E+02  0.7546771E-02  0.1200491E+00
         21   -1    0    0  504  501  0.00000000000E+00  0.00000000000E+00  0.53444179152E+03  0.53444179152E+03  0.00000000000E+00 0.  1.
         21   -1    0    0  503  502 -0.00000000000E+00 -0.00000000000E+00 -0.12484099496E+02  0.12484099496E+02  0.00000000000E+00 0.  1.
         21    1    1    2  503  501  0.38677960470E+01 -0.81371363778E+02  0.28100067316E+03  0.29257073847E+03  0.00000000000E+00 0.  1.
         21    1    1    2  504  502 -0.38677960470E+01  0.81371363778E+02  0.24095701886E+03  0.25435515255E+03  0.00000000000E+00 0.  1.
</event>
<event>
 4    1  0.1589319E+006  0.2600174E+02  0.7546771E-02  0.1457902E+00
         21   -1    0    0  503  501  0.00000000000E+00  0.00000000000E+00  0.20219314681E+03  0.20219314681E+03  0.00000000000E+00 0.  1.
         21   -1    0    0  501  502 -0.00000000000E+00 -0.00000000000E+00 -0.62535605494E+01  0.62535605494E+01  0.00000000000E+00 0. -1.
         21    1    1    2  503  504 -0.15287618462E+02  0.21032814585E+02  0.16906348238E+03  0.17105131289E+03  0.00000000000E+00 0.  1.
         21    1    1    2  504  502  0.15287618462E+02 -0.21032814585E+02  0.26876103881E+02  0.37395394468E+02  0.00000000000E+00 0. -1.
</event>
<event>
 4    1  0.1589319E+006  0.2160993E+02  0.7546771E-02  0.1510732E+00
         21   -1    0    0  503  501  0.00000000000E+00  0.00000000000E+00  0.33129365033E+03  0.33129365033E+03  0.00000000000E+00 0.  1.
         21   -1    0    0  504  502 -0.00000000000E+00 -0.00000000000E+00 -0.14171489467E+01  0.14171489467E+01  0.00000000000E+00 0.  1.
         21    1    1    2  503  502 -0.20174169685E+02  0.77454370478E+01  0.17708608898E+03  0.17839975288E+03  0.00000000000E+00 0.  1.
         21    1    1    2  504  501  0.20174169685E+02 -0.77454370478E+01  0.15279041240E+03  0.15431104639E+03  0.00000000000E+00 0.  1.
</event>
<event>
 4    1  0.1589319E+006  0.2246985E+02  0.7546771E-02  0.1499265E+00
         21   -1    0    0  503  501  0.00000000000E+00  0.00000000000E+00  0.66622274522E+03  0.66622274522E+03  0.00000000000E+00 0. -1.
         21   -1    0    0  504  502 -0.00000000000E+00 -0.00000000000E+00 -0.15101658740E+01  0.15101658740E+01  0.00000000000E+00 0. -1.
         21    1    1    2  503  502 -0.21922348392E+02  0.49299723913E+01  0.96709331191E+02  0.99285390296E+02  0.00000000000E+00 0. -1.
         21    1    1    2  504  501  0.21922348392E+02 -0.49299723913E+01  0.56800324816E+03  0.56844752080E+03  0.00000000000E+00 0. -1.
</event>
<event>
 4    1  0.1589319E+006  0.2842189E+02  0.7546771E-02  0.1433825E+00
         21   -1    0    0  503  501  0.00000000000E+00  0.00000000000E+00  0.13248428522E+02  0.13248428522E+02  0.00000000000E+00 0. -1.
         21   -1    0    0  504  502 -0.00000000000E+00 -0.00000000000E+00 -0.61707871115E+02  0.61707871115E+02  0.00000000000E+00 0. -1.
         21    1    1    2  503  502 -0.18158915125E+02 -0.21864523597E+02 -0.28318124612E+02  0.40121313191E+02  0.00000000000E+00 0. -1.
         21    1    1    2  504  501  0.18158915125E+02  0.21864523597E+02 -0.20141317981E+02  0.34834986445E+02  0.00000000000E+00 0. -1.
</event>
<event>
 4    1  0.1589319E+006  0.2374658E+02  0.7546771E-02  0.1483330E+00
         21   -1    0    0  504  501  0.00000000000E+00  0.00000000000E+00  0.13031174601E+02  0.13031174601E+02  0.00000000000E+00 0. -1.
         21   -1    0    0  503  502 -0.00000000000E+00 -0.00000000000E+00 -0.92526375076E+02  0.92526375076E+02  0.00000000000E+00 0. -1.
         21    1    1    2  503  501 -0.35029526007E+00  0.23744000189E+02 -0.12402377701E+01  0.23778949545E+02  0.00000000000E+00 0. -1.
         21    1    1    2  504  502  0.35029526007E+00 -0.23744000189E+02 -0.78254962704E+02  0.81778600132E+02  0.00000000000E+00 0. -1.
</event>
<event>
 4    1  0.1589319E+006  0.2129000E+02  0.7546771E-02  0.1515164E+00
         21   -1    0    0  504  501  0.00000000000E+00  0.00000000000E+00  0.34883634646E+02  0.34883634646E+02  0.00000000000E+00 0.  1.
         21   -1    0    0  503  502 -0.00000000000E+00 -0.00000000000E+00 -0.14796768994E+02  0.14796768994E+02  0.00000000000E+00 0.  1.
         21    1    1    2  503  501 -0.24558220039E+01 -0.21147883430E+02  0.13720222440E+01  0.21334162283E+02  0.00000000000E+00 0.  1.
         21    1    1    2  504  502  0.24558220039E+01  0.21147883430E+02  0.18714843409E+02  0.28346241357E+02  0.00000000000E+00 0.  1.
</event>
<event>
 4    1  0.1589319E+006  0.2081849E+02  0.7546771E-02  0.1521872E+00
         21   -1    0    0  503  501  0.00000000000E+00  0.00000000000E+00  0.14385898171E+03  0.14385898171E+03  0.00000000000E+00 0.  1.
         21   -1    0    0  504  502 -0.00000000000E+00 -0.00000000000E+00 -0.36356670009E+01  0.36356670009E+01  0.00000000000E+00 0.  1.
         21    1    1    2  503  502 -0.20554999981E+02 -0.33017311495E+01  0.10063790454E+03  0.10276865905E+03  0.00000000000E+00 0.  1.
         21    1    1    2  504  501  0.20554999981E+02  0.33017311495E+01  0.39585410162E+02  0.44725989654E+02  0.00000000000E+00 0.  1.
</event>
<event>
 4    1  0.1589319E+006  0.2425829E+02  0.7546771E-02  0.1477275E+00
         21   -1    0    0  503  501  0.00000000000E+00  0.00000000000E+00  0.13062467818E+03  0.13062467818E+03  0.00000000000E+00 0.  1.
         21   -1    0    0  504  502 -0.00000000000E+00 -0.00000000000E+00 -0.30238916974E+02  0.30238916974E+02  0.00000000000E+00 0.  1.
         21    1    1    2  503  502 -0.20810744139E+02  0.12465044702E+02  0.12439180182E+03  0.12673509684E+03  0.00000000000E+00 0.  1.
         21    1    1    2  504  501  0.20810744139E+02 -0.12465044702E+02 -0.24006040615E+02  0.34128498313E+02  0.00000000000E+00 0.  1.
</event>
<event>
 4    1  0.1589319E+006  0.2622021E+02  0.7546771E-02  0.1455602E+00
         21   -1    0    0  504  501  0.00000000000E+00  0.00000000000E+00  0.27862286526E+02  0.27862286526E+02  0.00000000000E+00 0.  1.
         21   -1    0    0  501  502 -0.00000000000E+00 -0.00000000000E+00 -0.40038256575E+02  0.40038256575E+02  0.00000000000E+00 0.  1.
         21    1    1    2  503  502  0.32188778148E+01  0.26021884607E+02 -0.27118430155E+02  0.37721464804E+02  0.00000000000E+00 0.  1.
         21    1    1    2  504  503 -0.32188778148E+01 -0.26021884607E+02  0.14942460105E+02  0.30179078297E+02  0.00000000000E+00 0.  1.
</event>
<event>
 4    1  0.1589319E+006  0.2713296E+02  0.7546771E-02  0.1446277E+00
         21   -1    0    0  504  501  0.00000000000E+00  0.00000000000E+00  0.37775244134E+01  0.37775244134E+01  0.00000000000E+00 0. -1.
         21   -1    0    0  503  502 -0.00000000000E+00 -0.00000000000E+00 -0.85868574575E+03  0.85868574575E+03  0.00000000000E+00 0. -1.
         21    1    1    2  503  501  0.20039236813E+02  0.18292794310E+02 -0.48304076516E+02  0.55402898334E+02  0.00000000000E+00 0. -1.
         21    1    1    2  504  502 -0.20039236813E+02 -0.18292794310E+02 -0.80660414482E+03  0.80706037183E+03  0.00000000000E+00 0. -1.
</event>
<event>
 4    1  0.1589319E+006  0.2495082E+02  0.7546771E-02  0.1469354E+00
         21   -1    0    0  504  501  0.00000000000E+00  0.00000000000E+00  0.23581960214E+02  0.23581960214E+02  0.00000000000E+00 0. -1.
         21   -1    0    0  503  502 -0.00000000000E+00 -0.00000000000E+00 -0.30879885017E+02  0.30879885017E+02  0.00000000000E+00 0. -1.
         21    1    1    2  503  501  0.13010041803E+02 -0.21290423321E+02 -0.14021856765E+02  0.28620897611E+02  0.00000000000E+00 0. -1.
         21    1    1    2  504  502 -0.13010041803E+02  0.21290423321E+02  0.67239319633E+01  0.25840947621E+02  0.00000000000E+00 0. -1.
</event>
<event>
 4    1  0.1589319E+006  0.2069069E+02  0.7546771E-02  0.1523727E+00
         21   -1    0    0  502  501  0.00000000000E+00  0.00000000000E+00  0.18557108122E+02  0.18557108122E+02  0.00000000000E+00 0.  1.
         21   -1    0    0  504  502 -0.00000000000E+00 -0.00000000000E+00 -0.10316731315E+03  0.10316731315E+03  0.00000000000E+00 0.  1.
         21    1    1    2  503  501  0.63716409809E+01 -0.19685191073E+02  0.11322304055E+02  0.23585994265E+02  0.00000000000E+00 0.  1.
         21    1    1    2  504  503 -0.63716409809E+01  0.19685191073E+02 -0.95932509081E+02  0.98138427004E+02  0.00000000000E+00 0.  1.
</event>
<event>
 4    1  0.1589319E+006  0.2384852E+02  0.7546771E-02  0.1482110E+00
         21   -1    0    0  503  501  0.00000000000E+00  0.00000000000E+00  0.49603160917E+01  0.49603160917E+01  0.00000000000E+00 0.  1.
         21   -1    0    0  504  502 -0.00000000000E+00 -0.00000000000E+00 -0.23200665954E+03  0.23200665954E+03  0.00000000000E+00 0. -1.
         21    1    1    2  503  502 -0.23228250489E+02  0.54037264043E+01 -0.19778719873E+03  0.19921979786E+03  0.00000000000E+00 0. -1.
         21    1    1    2  504  501  0.23228250489E+02 -0.54037264043E+01 -0.29259144725E+02  0.37747177773E+02  0.00000000000E+00 0.  1.
</event>
<event>
 4    1  0.1589319E+006  0.3169539E+02  0.7546771E-02  0.1405414E+00
         21   -1    0    0  504  501  0.00000000000E+00  0.00000000000E+00  0.78677623495E+02  0.78677623495E+02  0.00000000000E+00 0.  1.
         21   -1    0    0  503  502 -0.00000000000E+00 -0.00000000000E+00 -0.41105202945E+02  0.41105202945E+02  0.00000000000E+00 0.  1.
         21    1    1    2  503  501  0.30158145636E+02  0.97510955792E+01 -0.30940598563E+02  0.44293546399E+02  0.00000000000E+00 0.  1.
         21    1    1    2  504  502 -0.30158145636E+02 -0.97510955792E+01  0.68513019113E+02  0.75489280041E+02  0.00000000000E+00 0.  1.
</event>
<event>
 4    1  0.1589319E+006  0.2091011E+02  0.7546771E-02  0.1520552E+00
         21   -1    0    0  504  501  0.00000000000E+00  0.00000000000E+00  0.55594224283E+01  0.55594224283E+01  0.00000000000E+00 0. -1.
         21   -1    0    0  503  502 -0.00000000000E+00 -0.00000000000E+00 -0.10664306716E+03  0.10664306716E+03  0.00000000000E+00 0. -1.
         21    1    1    2  503  501  0.11543759667E+02 -0.17434863164E+02 -0.21797413697E+02  0.30205298951E+02  0.00000000000E+00 0. -1.
         21    1    1    2  504  502 -0.11543759667E+02  0.17434863164E+02 -0.79286231034E+02  0.81997190637E+02  0.00000000000E+00 0. -1.
</event>
<event>
 4    1  0.1589319E+006  0.3926959E+02  0.7546771E-02  0.1352820E+00
         21   -1    0    0  503  501  0.00000000000E+00  0.00000000000E+00  0.16015675343E+03  0.16015675343E+03  0.00000000000E+00 0.  1.
         21   -1    0    0  501  502 -0.00000000000E+00 -0.00000000000E+00 -0.34082157548E+02  0.34082157548E+02  0.00000000000E+00 0. -1.
         21    1    1    2  503  504  0.39249603305E+02  0.12527010410E+01  0.14530187618E+03  0.15051490238E+03  0.00000000000E+00 0.  1.
         21    1    1    2  504  502 -0.39249603305E+02 -0.12527010410E+01 -0.19227280297E+02  0.43724008590E+02  0.00000000000E+00 0. -1.
</event>
<event>
 4    1  0.1589319E+006  0.2377839E+02  0.7546771E-02  0.1482948E+00
         21   -1    0    0  503  501  0.00000000000E+00  0.00000000000E+00  0.79619778140E+02  0.79619778140E+02  0.00000000000E+00 0.  1.
         21   -1    0    0  504  502 -0.00000000000E+00 -0.00000000000E+00 -0.69807759390E+02  0.69807759390E+02  0.00000000000E+00 0. -1.
         21    1    1    2  503  502 -0.96686853966E+01  0.21723913097E+02 -0.65905620200E+02  0.70063989691E+02  0.00000000000E+00 0. -1.
         21    1    1    2  504  501  0.96686853966E+01 -0.21723913097E+02  0.75717638949E+02  0.79363547839E+02  0.00000000000E+00 0.  1.
</event>
<event>
 4    1  0.1589319E+006  0.2095220E+02  0.7546771E-02  0.1519948E+00
         21   -1    0    0  504  501  0.00000000000E+00  0.00000000000E+00  0.22807988828E+02  0.22807988828E+02  0.00000000000E+00 0.  1.
         21   -1    0    0  501  502 -0.00000000000E+00 -0.00000000000E+00 -0.71775404350E+02  0.71775404350E+02  0.00000000000E+00 0.  1.
         21    1    1    2  503  502  0.14551733856E+02 -0.15074532846E+02 -0.64940600005E+02  0.68236911036E+02  0.00000000000E+00 0.  1.
         21    1    1    2  504  503 -0.14551733856E+02  0.15074532846E+02  0.15973184483E+02  0.26346482142E+02  0.00000000000E+00 0.  1.
</event>
<event>
 4    1  0.1589319E+006  0.2228336E+02  0.7546771E-02  0.1501699E+00
         21   -1    0    0  503  501  0.00000000000E+00  0.00000000000E+00  0.92062046771E+02  0.92062046771E+02  0.00000000000E+00 0. -1.
         21   -1    0    0  504  502 -0.00000000000E+00 -0.00000000000E+00 -0.69633251002E+01  0.69633251002E+01  0.00000000000E+00 0. -1.
         21    1    1    2  503  502 -0.22108245229E+02  0.27881375551E+01  0.66057399783E+02  0.69714620305E+02  0.00000000000E+00 0. -1.
         21    1    1    2  504  501  0.22108245229E+02 -0.27881375551E+01  0.19041321888E+02  0.29310751566E+02  0.00000000000E+00 0. -1.
</event>
<event>
 4    1  0.1589319E+006  0.2267232E+02  0.7546771E-02  0.1496654E+00
         21   -1    0    0  504  501  0.00000000000E+00  0.00000000000E+00  0.28165494979E+02  0.28165494979E+02  0.00000000000E+00 0. -1.
         21   -1    0    0  503  502 -0.00000000000E+00 -0.00000000000E+00 -0.26435671823E+02  0.26435671823E+02  0.00000000000E+00 0.  1.
         21    1    1    2  503  501 -0.56291460653E+01 -0.21962390591E+02  0.16056077405E+02  0.27781855725E+02  0.00000000000E+00 0. -1.
         21    1    1    2  504  502  0.56291460653E+01  0.21962390591E+02 -0.14326254249E+02  0.26819311078E+02  0.00000000000E+00 0.  1.
</event>
<event>
 4    1  0.1589319E+006  0.2489546E+02  0.7546771E-02  0.1469976E+00
         21   -1    0    0  503  501  0.00000000000E+00  0.00000000000E+00  0.34778167809E+02  0.34778167809E+02  0.00000000000E+00 0. -1.
         21   -1    0    0  504  502 -0.00000000000E+00 -0.00000000000E+00 -0.46946494058E+02  0.46946494058E+02  0.00000000000E+00 0.  1.
         21    1    1    2  503  502  0.12885711628E+02 -0.21301226091E+02 -0.38269477930E+02  0.45654536885E+02  0.00000000000E+00 0.  1.
         21    1    1    2  504  501 -0.12885711628E+02  0.21301226091E+02  0.26101151681E+02  0.36070124982E+02  0.00000000000E+00 0. -1.
</event>
<event>
 4    1  0.1589319E+006  0.2444265E+02  0.7546771E-02  0.1475136E+00
         21   -1    0    0  503  501  0.00000000000E+00  0.00000000000E+00  0.69230610353E+00  0.69230610353E+00  0.00000000000E+00 0. -1.
         21   -1    0    0  504  502 -0.00000000000E+00 -0.00000000000E+00 -0.13997041629E+04  0.13997041629E+04  0.00000000000E+00 0. -1.
         21    1    1    2  503  502  0.20561221931E+02 -0.13216624299E+02 -0.26591479184E+03  0.26703580195E+03  0.00000000000E+00 0. -1.
         21    1    1    2  504  501 -0.20561221931E+02  0.13216624299E+02 -0.11330970650E+04  0.11333606671E+04  0.00000000000E+00 0. -1.
</event>
<event>
 4    1  0.1589319E+006  0.3037740E+02  0.7546771E-02  0.1416345E+00
         21   -1    0    0  502  501  0.00000000000E+00  0.00000000000E+00  0.50557210865E+01  0.50557210865E+01  0.00000000000E+00 0.  1.
         21   -1    0    0  503  502 -0.00000000000E+00 -0.00000000000E+00 -0.47775136784E+03  0.47775136784E+03  0.00000000000E+00 0.  1.
         21    1    1    2  503  504 -0.20216471509E+02  0.22673342899E+02 -0.42611521864E+03  0.42719663594E+03  0.00000000000E+00 0.  1.
         21    1    1    2  504  501  0.20216471509E+02 -0.22673342899E+02 -0.46580428110E+02  0.55610452987E+02  0.00000000000E+00 0.  1.
</event>
<event>
 4    1  0.1589319E+006  0.2866670E+02  0.7546771E-02  0.1431548E+00
         21   -1    0    0  503  501  0.00000000000E+00  0.00000000000E+00  0.26704136605E+03  0.26704136605E+03  0.00000000000E+00 0.  1.
         21   -1    0    0  504  502 -0.00000000000E+00 -0.00000000000E+00 -0.43153605841E+01  0.43153605841E+01  0.00000000000E+00 0.  1.
         21    1    1    2  503  502 -0.40748419604E+01  0.28375615050E+02  0.20403450728E+03  0.20603849162E+03  0.00000000000E+00 0.  1.
         21    1    1    2  504  501  0.40748419604E+01 -0.28375615050E+02  0.58691498180E+02  0.65318235012E+02  0.00000000000E+00 0.  1.
</event>
<event>
 4    1  0.1589319E+006  0.2749517E+02  0.7546771E-02  0.1442696E+00
         21   -1    0    0  503  501  0.00000000000E+00  0.00000000000E+00  0.62537196965E+02  0.62537196965E+02  0.00000000000E+00 0.  1.
         21   -1    0    0  501  502 -0.00000000000E+00 -0.00000000000E+00 -0.12427824343E+02  0.12427824343E+02  0.00000000000E+00 0.  1.
         21    1    1    2  503  504  0.27484742931E+02 -0.75714129251E+00  0.18861654545E+02  0.33342860841E+02  0.00000000000E+00 0.  1.
         21    1    1    2  504  502 -0.27484742931E+02  0.75714129251E+00  0.31247718077E+02  0.41622160467E+02  0.00000000000E+00 0.  1.
</event>
<event>
 4    1  0.1589319E+006  0.2244371E+02  0.7546771E-02  0.1499604E+00
         21   -1    0    0  504  501  0.00000000000E+00  0.00000000000E+00  0.46568425895E+02  0.46568425895E+02  0.00000000000E+00 0. -1.
         21   -1    0    0  503  502 -0.00000000000E+00 -0.00000000000E+00 -0.23427546547E+03  0.23427546547E+03  0.00000000000E+00 0. -1.
         21    1    1    2  503  501 -0.14769347321E+02 -0.16899299242E+02  0.43288395839E+02  0.48760692668E+02  0.00000000000E+00 0. -1.
         21    1    1    2  504  502  0.14769347321E+02  0.16899299242E+02 -0.23099543541E+03  0.23208319869E+03  0.00000000000E+00 0. -1.
</event>
<event>
 4    1  0.1589319E+006  0.2805992E+02  0.7546771E-02  0.1437242E+00
         21   -1    0    0  504  501  0.00000000000E+00  0.00000000000E+00  0.17348186041E+03  0.17348186041E+03  0.00000000000E+00 0. -1.
         21   -1    0    0  503  502 -0.00000000000E+00 -0.00000000000E+00 -0.16402676397E+02  0.16402676397E+02  0.00000000000E+00 0. -1.
         21    1    1    2  503  501 -0.27943463669E+02 -0.25537951310E+01  0.15928536906E+03  0.16173802221E+03  0.00000000000E+00 0. -1.
         21    1    1    2  504  502  0.27943463669E+02  0.25537951310E+01 -0.22061850498E+01  0.28146514595E+02  0.00000000000E+00 0. -1.
</event>
<event>
 4    1  0.1589319E+006  0.2650440E+02  0.7546771E-02  0.1452651E+00
         21   -1    0    0  504  501  0.00000000000E+00  0.00000000000E+00  0.11256009023E+02  0.11256009023E+02  0.00000000000E+00 0. -1.
         21   -1    0    0  503  502 -0.00000000000E+00 -0.00000000000E+00 -0.70292774153E+02  0.70292774153E+02  0.00000000000E+00 0. -1.
         21    1    1    2  503  501  0.24625637803E+02 -0.98010719021E+01 -0.15863667490E+02  0.30889140387E+02  0.00000000000E+00 0. -1.
         21    1    1    2  504  502 -0.24625637803E+02  0.98010719021E+01 -0.43173097640E+02  0.50659642789E+02  0.00000000000E+00 0. -1.
</event>
<event>
 4    1  0.1589319E+006  0.2067228E+02  0.7546771E-02  0.1523996E+00
         21   -1    0    0  503  501  0.00000000000E+00  0.00000000000E+00  0.12610545460E+02  0.12610545460E+02  0.00000000000E+00 0.  1.
         21   -1    0    0  501  502 -0.00000000000E+00 -0.00000000000E+00 -0.95001902495E+03  0.95001902495E+03  0.00000000000E+00 0. -1.
         21    1    1    2  503  504 -0.14832989960E+02  0.14398801679E+02  0.39482009302E+01  0.21045934798E+02  0.00000000000E+00 0.  1.
         21    1    1    2  504  502  0.14832989960E+02 -0.14398801679E+02 -0.94135668042E+03  0.94158363561E+03  0.00000000000E+00 0. -1.
</event>
<event>
 4    1  0.1589319E+006  0.2918285E+02  0.7546771E-02  0.1426833E+00
         21   -1    0    0  503  501  0.00000000000E+00  0.00000000000E+00  0.29638917109E+02  0.29638917109E+02  0.00000000000E+00 0.  1.
         21   -1    0    0  504  502 -0.00000000000E+00 -0.00000000000E+00 -0.18307516875E+03  0.18307516875E+03  0.00000000000E+00 0.  1.
         21    1    1    2  503  502  0.29159045776E+02 -0.11785715193E+01  0.20936471511E+02  0.35916219466E+02  0.00000000000E+00 0.  1.
         21    1    1    2  504  501 -0.29159045776E+02  0.11785715193E+01 -0.17437272315E+03  0.17679786639E+03  0.00000000000E+00 0.  1.
</event>
<event>
 4    1  0.1589319E+006  0.4188779E+02  0.7546771E-02  0.1337765E+00
         21   -1    0    0  504  501  0.00000000000E+00  0.00000000000E+00  0.15645271642E+01  0.15645271642E+01  0.00000000000E+00 0. -1.
         21   -1    0    0  503  502 -0.00000000000E+00 -0.00000000000E+00 -0.13533344760E+04  0.13533344760E+04  0.00000000000E+00 0.  1.
         21    1    1    2  503  501  0.31994173080E+02 -0.27036275792E+02 -0.39548287460E+03  0.39769497284E+03  0.00000000000E+00 0. -1.
         21    1    1    2  504  502 -0.31994173080E+02  0.27036275792E+02 -0.95628707427E+03  0.95720403036E+03  0.00000000000E+00 0.  1.
</event>
<event>
 4    1  0.1589319E+006  0.2810211E+02  0.7546771E-02  0.1436841E+00
         21   -1    0    0  503  501  0.00000000000E+00  0.00000000000E+00  0.91756843763E+02  0.91756843763E+02  0.00000000000E+00 0. -1.
         21   -1    0    0  504  502 -0.00000000000E+00 -0.00000000000E+00 -0.26916039924E+02  0.26916039924E+02  0.00000000000E+00 0. -1.
         21    1    1    2  503  502 -0.73640118299E+01  0.27120097476E+02  0.81359014235E+02  0.86075650184E+02  0.00000000000E+00 0. -1.
         21    1    1    2  504  501  0.73640118299E+01 -0.27120097476E+02 -0.16518210396E+02  0.32597233503E+02  0.00000000000E+00 0. -1.
</event>
<event>
 4    1  0.1589319E+006  0.2022397E+02  0.7546771E-02  0.1530639E+00
         21   -1    0    0  503  501  0.00000000000E+00  0.00000000000E+00  0.18185360169E+02  0.18185360169E+02  0.00000000000E+00 0. -1.
         21   -1    0    0  504  502 -0.00000000000E+00 -0.00000000000E+00 -0.46830855530E+02  0.46830855530E+02  0.00000000000E+00 0. -1.
         21    1    1    2  503  502 -0.19764221130E+02 -0.42877282093E+01 -0.37758754016E+02  0.42833778201E+02  0.00000000000E+00 0. -1.
         21    1    1    2  504  501  0.19764221130E+02  0.42877282093E+01  0.91132586549E+01  0.22182437499E+02  0.00000000000E+00 0. -1.
</event>
<event>
 4    1  0.1589319E+006  0.2202247E+02  0.7546771E-02  0.1505152E+00
         21   -1    0    0  503  501  0.00000000000E+00  0.00000000000E+00  0.42433682635E+02  0.42433682635E+02  0.00000000000E+00 0. -1.
         21   -1    0    0  504  502 -0.00000000000E+00 -0.00000000000E+00 -0.13294631549E+02  0.13294631549E+02  0.00000000000E+00 0. -1.
         21    1    1    2  503  502 -0.17778699571E+02  0.12996419966E+02  0.41324017928E+01  0.22406825633E+02  0.00000000000E+00 0. -1.
         21    1    1    2  504  501  0.17778699571E+02 -0.12996419966E+02  0.25006649293E+02  0.33321488551E+02  0.00000000000E+00 0. -1.
</event>
<event>
 4    1  0.1589319E+006  0.2029375E+02  0.7546771E-02  0.1529592E+00
         21   -1    0    0  503  501  0.00000000000E+00  0.00000000000E+00  0.51538452216E+01  0.51538452216E+01  0.00000000000E+00 0. -1.
         21   -1    0    0  504  502 -0.00000000000E+00 -0.00000000000E+00 -0.80481904907E+02  0.80481904907E+02  0.00000000000E+00 0. -1.
         21    1    1    2  503  502  0.18373375673E+02  0.86171561080E+01 -0.34050041937E+02  0.39638890864E+02  0.00000000000E+00 0. -1.
         21    1    1    2  504  501 -0.18373375673E+02 -0.86171561080E+01 -0.41278017748E+02  0.45996859265E+02  0.00000000000E+00 0. -1.
</event>
<event>
 4    1  0.1589319E+006  0.2512406E+02  0.7546771E-02  0.1467420E+00
         21   -1    0    0  502  501  0.00000000000E+00  0.00000000000E+00  0.98564184950E+02  0.98564184950E+02  0.00000000000E+00 0. -1.
         21   -1    0    0  503  502 -0.00000000000E+00 -0.00000000000E+00 -0.20211347119E+02  0.20211347119E+02  0.00000000000E+00 0.  1.
         21    1    1    2  503  504 -0.23773114355E+02  0.81275824629E+01 -0.99089797247E+01  0.27007525655E+02  0.00000000000E+00 0.  1.
         21    1    1    2  504  501  0.23773114355E+02 -0.81275824629E+01  0.88261817556E+02  0.91768006414E+02  0.00000000000E+00 0. -1.
</event>
<event>
 4    1  0.1589319E+006  0.2230882E+02  0.7546771E-02  0.1501365E+00
         21   -1    0    0  503  501  0.00000000000E+00  0.00000000000E+00  0.15307153204E+03  0.15307153204E+03  0.00000000000E+00 0. -1.
         21   -1    0    0  501  502 -0.00000000000E+00 -0.00000000000E+00 -0.38426779029E+01  0.38426779029E+01  0.00000000000E+00 0. -1.
         21    1    1    2  503  504 -0.20740824784E+01  0.22212194259E+02  0.10539262786E+03  0.10772784876E+03  0.00000000000E+00 0. -1.
         21    1    1    2  504  502  0.20740824784E+01 -0.22212194259E+02  0.43836226285E+02  0.49186361187E+02  0.00000000000E+00 0. -1.
</event>
<event>
 4    1  0.1589319E+006  0.2950682E+02  0.7546771E-02  0.1423931E+00
         21   -1    0    0  504  501  0.00000000000E+00  0.00000000000E+00  0.27573905209E+03  0.27573905209E+03  0.00000000000E+00 0. -1.
         21   -1    0    0  501  502 -0.00000000000E+00 -0.00000000000E+00 -0.57472711243E+01  0.57472711243E+01  0.00000000000E+00 0. -1.
         21    1    1    2  503  502 -0.27766513448E+01 -0.29375880872E+02  0.40519064731E+02  0.50124313226E+02  0.00000000000E+00 0. -1.
         21    1    1    2  504  503  0.27766513448E+01  0.29375880872E+02  0.22947271623E+03  0.23136200999E+03  0.00000000000E+00 0. -1.
</event>
<event>
 4    1  0.1589319E+006  0.3773150E+02  0.7546771E-02  0.1362318E+00
         21   -1    0    0  503  501  0.00000000000E+00  0.00000000000E+00  0.51497872357E+02  0.51497872357E+02  0.00000000000E+00 0.  1.
         21   -1    0    0  504  502 -0.00000000000E+00 -0.00000000000E+00 -0.11304555720E+03  0.11304555720E+03  0.00000000000E+00 0.  1.
         21    1    1    2  503  502  0.28666592075E+02  0.24533499390E+02 -0.10228170322E+03  0.10901932355E+03  0.00000000000E+00 0.  1.
         21    1    1    2  504  501 -0.28666592075E+02 -0.24533499390E+02  0.40734018384E+02  0.55524106001E+02  0.00000000000E+00 0.  1.
</event>
<event>
 4    1  0.1589319E+006  0.3025662E+02  0.7546771E-02  0.1417379E+00
         21   -1    0    0  504  501  0.00000000000E+00  0.00000000000E+00  0.11452206719E+03  0.11452206719E+03  0.00000000000E+00 0.  1.
         21   -1    0    0  503  502 -0.00000000000E+00 -0.00000000000E+00 -0.39646518899E+02  0.39646518899E+02  0.00000000000E+00 0.  1.
         21    1    1    2  503  501 -0.22291666422E+02  0.20458357185E+02  0.10631396127E+03  0.11053561024E+03  0.00000000000E+00 0.  1.
         21    1    1    2  504  502  0.22291666422E+02 -0.20458357185E+02 -0.31438412980E+02  0.43632975847E+02  0.00000000000E+00 0.  1.
</event>
<event>
 4    1  0.1589319E+006  0.2392060E+02  0.7546771E-02  0.1481251E+00
         21   -1    0    0  503  501  0.00000000000E+00  0.00000000000E+00  0.25861667292E+03  0.25861667292E+03  0.00000000000E+00 0.  1.
         21   -1    0    0  501  502 -0.00000000000E+00 -0.00000000000E+00 -0.25771206989E+02  0.25771206989E+02  0.00000000000E+00 0.  1.
         21    1    1    2  503  504 -0.51877383534E+01 -0.23351279283E+02  0.25237587161E+03  0.25350695344E+03  0.00000000000E+00 0.  1.
         21    1    1    2  504  502  0.51877383534E+01  0.23351279283E+02 -0.19530405679E+02  0.30880926466E+02  0.00000000000E+00 0.  1.
</event>
<event>
 4    1  0.1589319E+006  0.2134944E+02  0.7546771E-02  0.1514334E+00
         21   -1    0    0  503  501  0.00000000000E+00  0.00000000000E+00  0.43372693087E+02  0.43372693087E+02  0.00000000000E+00 0.  1.
         21   -1    0    0  501  502 -0.00000000000E+00 -0.00000000000E+00 -0.46355865882E+02  0.46355865882E+02  0.00000000000E+00 0.  1.
         21    1    1    2  503  504  0.18982191850E+02  0.97711276713E+01  0.37960925068E+02  0.43552616171E+02  0.00000000000E+00 0.  1.
         21    1    1    2  504  502 -0.18982191850E+02 -0.97711276713E+01 -0.40944097864E+02  0.46175942798E+02  0.00000000000E+00 0.  1.
</event>
<event>
 4    1  0.1589319E+006  0.2422426E+02  0.7546771E-02  0.1477672E+00
         21   -1    0    0  503  501  0.00000000000E+00  0.00000000000E+00  0.11855712331E+02  0.11855712331E+02  0.00000000000E+00 0. -1.
         21   -1    0    0  501  502 -0.00000000000E+00 -0.00000000000E+00 -0.34063690238E+03  0.34063690238E+03  0.00000000000E+00 0. -1.
         21    1    1    2  503  504 -0.74473055123E+01 -0.23051085794E+02 -0.14514237761E+01  0.24267705838E+02  0.00000000000E+00 0. -1.
         21    1    1    2  504  502  0.74473055123E+01  0.23051085794E+02 -0.32732976627E+03  0.32822490887E+03  0.00000000000E+00 0. -1.
</event>
<event>
 4    1  0.1589319E+006  0.4002308E+02  0.7546771E-02  0.1348351E+00
         21   -1    0    0  503  501  0.00000000000E+00  0.00000000000E+00  0.10589327994E+03  0.10589327994E+03  0.00000000000E+00 0.  1.
         21   -1    0    0  501  502 -0.00000000000E+00 -0.00000000000E+00 -0.58529307137E+02  0.58529307137E+02  0.00000000000E+00 0.  1.
         21    1    1    2  503  504 -0.39605619440E+02  0.57655720859E+01  0.94476765775E+02  0.10260461093E+03  0.00000000000E+00 0.  1.
         21    1    1    2  504  502  0.39605619440E+02 -0.57655720859E+01 -0.47112792975E+02  0.61817976145E+02  0.00000000000E+00 0.  1.
</event>
<event>
 4    1  0.1589319E+006  0.2799086E+02  0.7546771E-02  0.1437901E+00
         21   -1    0    0  504  501  0.00000000000E+00  0.00000000000E+00  0.38658755612E+03  0.38658755612E+03  0.00000000000E+00 0.  1.
         21   -1    0    0  503  502 -0.00000000000E+00 -0.00000000000E+00 -0.20267864832E+01  0.20267864832E+01  0.00000000000E+00 0.  1.
         21    1    1    2  503  501 -0.10064620310E+02 -0.26118793705E+02  0.19084989310E+03  0.19289160081E+03  0.00000000000E+00 0.  1.
         21    1    1    2  504  502  0.10064620310E+02  0.26118793705E+02  0.19371087653E+03  0.19572274179E+03  0.00000000000E+00 0.  1.
</event>
<event>
 4    1  0.1589319E+006  0.2815636E+02  0.7546771E-02  0.1436326E+00
         21   -1    0    0  503  501  0.00000000000E+00  0.00000000000E+00  0.48423637703E+01  0.48423637703E+01  0.00000000000E+00 0. -1.
         21   -1    0    0  504  502 -0.00000000000E+00 -0.00000000000E+00 -0.18393505355E+03  0.18393505355E+03  0.00000000000E+00 0. -1.
         21    1    1    2  503  502 -0.27130215754E+02 -0.75320499523E+01 -0.12083958680E+03  0.12407653332E+03  0.00000000000E+00 0. -1.
         21    1    1    2  504  501  0.27130215754E+02  0.75320499523E+01 -0.58253102980E+02  0.64700883998E+02  0.00000000000E+00 0. -1.
</event>
<event>
 4    1  0.1589319E+006  0.2801538E+02  0.7546771E-02  0.1437667E+00
         21   -1    0    0  502  501  0.00000000000E+00  0.00000000000E+00  0.16675132080E+03  0.16675132080E+03  0.00000000000E+00 0.  1.
         21   -1    0    0  503  502 -0.00000000000E+00 -0.00000000000E+00 -0.55679660352E+01  0.55679660352E+01  0.00000000000E+00 0.  1.
         21    1    1    2  503  504 -0.91465747874E+00 -0.28000442131E+02  0.46706892371E+02  0.54464622947E+02  0.00000000000E+00 0.  1.
         21    1    1    2  504  501  0.91465747874E+00  0.28000442131E+02  0.11447646239E+03  0.11785466389E+03  0.00000000000E+00 0.  1.
</event>
<event>
 4    1  0.1589319E+006  0.2195277E+02  0.7546771E-02  0.1506084E+00
         21   -1    0    0  503  501  0.00000000000E+00  0.00000000000E+00  0.54378070496E+02  0.54378070496E+02  0.00000000000E+00 0.  1.
         21   -1    0    0  501  502 -0.00000000000E+00 -0.00000000000E+00 -0.17849521074E+02  0.17849521074E+02  0.00000000000E+00 0.  1.
         21    1    1    2  503  504 -0.21410179114E+02 -0.48505935389E+01  0.43889544997E+02  0.49073579321E+02  0.00000000000E+00 0.  1.
         21    1    1    2  504  502  0.21410179114E+02  0.48505935389E+01 -0.73609955752E+01  0.23154012249E+02  0.00000000000E+00 0.  1.
</event>
<event>
 4    1  0.1589319E+006  0.2481908E+02  0.7546771E-02  0.1470838E+00
         21   -1    0    0  504  501  0.00000000000E+00  0.00000000000E+00  0.39028012617E+03  0.39028012617E+03  0.00000000000E+00 0.  1.
         21   -1    0    0  501  502 -0.00000000000E+00 -0.00000000000E+00 -0.65159259602E+01  0.65159259602E+01  0.00000000000E+00 0.  1.
         21    1    1    2  503  502 -0.20979275335E+02 -0.13261099880E+02  0.19176066825E+02  0.31364124449E+02  0.00000000000E+00 0.  1.
         21    1    1    2  504  503  0.20979275335E+02  0.13261099880E+02  0.36458813339E+03  0.36543192768E+03  0.00000000000E+00 0.  1.
</event>
<event>
 4    1  0.1589319E+006  0.2140836E+02  0.7546771E-02  0.1513514E+00
         21   -1    0    0  503  501  0.00000000000E+00  0.00000000000E+00  0.94457807278E+02  0.94457807278E+02  0.00000000000E+00 0.  1.
         21   -1    0    0  504  502 -0.00000000000E+00 -0.00000000000E+00 -0.48700883309E+01  0.48700883309E+01  0.00000000000E+00 0. -1.
         21    1    1    2  503  502 -0.28398393083E+01 -0.21219170997E+02  0.47812929778E+02  0.52386965545E+02  0.00000000000E+00 0. -1.
         21    1    1    2  504  501  0.28398393083E+01  0.21219170997E+02  0.41774789169E+02  0.46940930064E+02  0.00000000000E+00 0.  1.
</event>
<event>
 4    1  0.1589319E+006  0.2214139E+02  0.7546771E-02  0.1503571E+00
         21   -1    0    0  502  501  0.00000000000E+00  0.00000000000E+00  0.72862709101E+02  0.72862709101E+02  0.00000000000E+00 0.  1.
         21   -1    0    0  503  502 -0.00000000000E+00 -0.00000000000E+00 -0.26563498582E+03  0.26563498582E+03  0.00000000000E+00 0. -1.
         21    1    1    2  503  504  0.22131146891E+02  0.67328640702E+00 -0.26347778137E+03  0.26440647165E+03  0.00000000000E+00 0. -1.
         21    1    1    2  504  501 -0.22131146891E+02 -0.67328640702E+00  0.70705504650E+02  0.74091223266E+02  0.00000000000E+00 0.  1.
</event>
<event>
 4    1  0.1589319E+006  0.3389560E+02  0.7546771E-02  0.1388498E+00
         21   -1    0    0  504  501  0.00000000000E+00  0.00000000000E+00  0.37365397291E+02  0.37365397291E+02  0.00000000000E+00 0. -1.
         21   -1    0    0  503  502 -0.00000000000E+00 -0.00000000000E+00 -0.15913658000E+03  0.15913658000E+03  0.00000000000E+00 0. -1.
         21    1    1    2  503  501 -0.27641362355E+02  0.19618022391E+02  0.27364486050E+02  0.43562906378E+02  0.00000000000E+00 0. -1.
         21    1    1    2  504  502  0.27641362355E+02 -0.19618022391E+02 -0.14913566876E+03  0.15293907092E+03  0.00000000000E+00 0. -1.
</event>
<event>
 4    1  0.1589319E+006  0.2284833E+02  0.7546771E-02  0.1494412E+00
         21   -1    0    0  504  501  0.00000000000E+00  0.00000000000E+00  0.14478322048E+03  0.14478322048E+03  0.00000000000E+00 0.  1.
         21   -1    0    0  503  502 -0.00000000000E+00 -0.00000000000E+00 -0.17062747464E+02  0.17062747464E+02  0.00000000000E+00 0. -1.
         21    1    1    2  503  501 -0.79602985316E+01 -0.21416808056E+02 -0.80055478183E+01  0.24210221311E+02  0.00000000000E+00 0. -1.
         21    1    1    2  504  502  0.79602985316E+01  0.21416808056E+02  0.13572602083E+03  0.13763574663E+03  0.00000000000E+00 0.  1.
</event>
<event>
 4    1  0.1589319E+006  0.2205104E+02  0.7546771E-02  0.1504771E+00
         21   -1    0    0  502  501  0.00000000000E+00  0.00000000000E+00  0.21352601391E+02  0.21352601391E+02  0.00000000000E+00 0. -1.
         21   -1    0    0  504  502 -0.00000000000E+00 -0.00000000000E+00 -0.90798908550E+02  0.90798908550E+02  0.00000000000E+00 0.  1.
         21    1    1    2  503  501 -0.11700075731E+02  0.18691085517E+02  0.13813981096E+02  0.26020655712E+02  0.00000000000E+00 0. -1.
         21    1    1    2  504  503  0.11700075731E+02 -0.18691085517E+02 -0.83260288255E+02  0.86130854229E+02  0.00000000000E+00 0.  1.
</event>
<event>
 4    1  0.1589319E+006  0.3418748E+02  0.7546771E-02  0.1386367E+00
         21   -1    0    0  503  501  0.00000000000E+00  0.00000000000E+00  0.26442240510E+02  0.26442240510E+02  0.00000000000E+00 0. -1.
         21   -1    0    0  504  502 -0.00000000000E+00 -0.00000000000E+00 -0.12603325172E+03  0.12603325172E+03  0.00000000000E+00 0. -1.
         21    1    1    2  503  502  0.30537267890E+02 -0.15370728307E+02  0.11635647880E+02  0.36113326079E+02  0.00000000000E+00 0. -1.
         21    1    1    2  504  501 -0.30537267890E+02  0.15370728307E+02 -0.11122665909E+03  0.11636216615E+03  0.00000000000E+00 0. -1.
</event>
<event>
 4    1  0.1589319E+006  0.3167556E+02  0.7546771E-02  0.1405574E+00
         21   -1    0    0  504  501  0.00000000000E+00  0.00000000000E+00  0.31669044118E+02  0.31669044118E+02  0.00000000000E+00 0. -1.
         21   -1    0    0  503  502 -0.00000000000E+00 -0.00000000000E+00 -0.63910946241E+02  0.63910946241E+02  0.00000000000E+00 0.  1.
         21    1    1    2  503  501  0.26500176925E+02  0.17351714577E+02  0.17815923035E+02  0.36342103536E+02  0.00000000000E+00 0. -1.
         21    1    1    2  504  502 -0.26500176925E+02 -0.17351714577E+02 -0.50057825157E+02  0.59237886824E+02  0.00000000000E+00 0.  1.
</event>
<event>
 4    1  0.1589319E+006  0.2252599E+02  0.7546771E-02  0.1498538E+00
         21   -1    0    0  503  501  0.00000000000E+00  0.00000000000E+00  0.17934063628E+03  0.17934063628E+03  0.00000000000E+00 0.  1.
         21   -1    0    0  501  502 -0.00000000000E+00 -0.00000000000E+00 -0.40142597825E+01  0.40142597825E+01  0.00000000000E+00 0.  1.
         21    1    1    2  503  504  0.22505006045E+02  0.97203096528E+00  0.13747125090E+03  0.13930457625E+03  0.00000000000E+00 0.  1.
         21    1    1    2  504  502 -0.22505006045E+02 -0.97203096528E+00  0.37855125603E+02  0.44050319814E+02  0.00000000000E+00 0.  1.
</event>
<event>
 4    1  0.1589319E+006  0.3447093E+02  0.7546771E-02  0.1384321E+00
         21   -1    0    0  504  501  0.00000000000E+00  0.00000000000E+00  0.44387115340E+02  0.44387115340E+02  0.00000000000E+00 0. -1.
         21   -1    0    0  503  502 -0.00000000000E+00 -0.00000000000E+00 -0.33430914123E+02  0.33430914123E+02  0.00000000000E+00 0. -1.
         21    1    1    2  503  501 -0.12686453677E+01  0.34447579965E+02 -0.11889564914E+02  0.36463776277E+02  0.00000000000E+00 0. -1.
         21    1    1    2  504  502  0.12686453677E+01 -0.34447579965E+02  0.22845766131E+02  0.41354253187E+02  0.00000000000E+00 0. -1.
</event>
<event>
 4    1  0.1589319E+006  0.2148369E+02  0.7546771E-02  0.1512470E+00
         21   -1    0    0  503  501  0.00000000000E+00  0.00000000000E+00  0.72310231923E+03  0.72310231923E+03  0.00000000000E+00 0. -1.
         21   -1    0    0  504  502 -0.00000000000E+00 -0.00000000000E+00 -0.10611647519E+03  0.10611647519E+03  0.00000000000E+00 0.  1.
         21    1    1    2  503  502 -0.19629504352E+02 -0.87310738304E+01  0.72185350159E+03  0.72217312803E+03  0.00000000000E+00 0. -1.
         21    1    1    2  504  501  0.19629504352E+02  0.87310738304E+01 -0.10486765756E+03  0.10704566639E+03  0.00000000000E+00 0.  1.
</event>
<event>
 4    1  0.1589319E+006  0.2839988E+02  0.7546771E-02  0.1434031E+00
         21   -1    0    0  503  501  0.00000000000E+00  0.00000000000E+00  0.12510963856E+02  0.12510963856E+02  0.00000000000E+00 0.  1.
         21   -1    0    0  504  502 -0.00000000000E+00 -0.00000000000E+00 -0.67037082032E+02  0.67037082032E+02  0.00000000000E+00 0.  1.
         21    1    1    2  503  502 -0.28291371622E+02 -0.24802288211E+01 -0.35049788861E+02  0.45111428069E+02  0.00000000000E+00 0.  1.
         21    1    1    2  504  501  0.28291371622E+02  0.24802288211E+01 -0.19476329315E+02  0.34436617820E+02  0.00000000000E+00 0.  1.
</event>
<event>
 4    1  0.1589319E+006  0.2307164E+02  0.7546771E-02  0.1491601E+00
         21   -1    0    0  503  501  0.00000000000E+00  0.00000000000E+00  0.10176570702E+03  0.10176570702E+03  0.00000000000E+00 0. -1.
         21   -1    0    0  504  502 -0.00000000000E+00 -0.00000000000E+00 -0.52323154292E+01  0.52323154292E+01  0.00000000000E+00 0. -1.
         21    1    1    2  503  502  0.27266082234E+01 -0.22909957510E+02  0.47311523206E+02  0.52637256516E+02  0.00000000000E+00 0. -1.
         21    1    1    2  504  501 -0.27266082234E+01  0.22909957510E+02  0.49221868387E+02  0.54360765934E+02  0.00000000000E+00 0. -1.
</event>
<event>
 4    1  0.1589319E+006  0.2151474E+02  0.7546771E-02  0.1512041E+00
         21   -1    0    0  503  501  0.00000000000E+00  0.00000000000E+00  0.21159647569E+01  0.21159647569E+01  0.00000000000E+00 0.  1.
         21   -1    0    0  504  502 -0.00000000000E+00 -0.00000000000E+00 -0.21897539766E+03  0.21897539766E+03  0.00000000000E+00 0.  1.
         21    1    1    2  503  502  0.12550239019E+02  0.17475003417E+02 -0.11191276469E+03  0.11396206011E+03  0.00000000000E+00 0.  1.
         21    1    1    2  504  501 -0.12550239019E+02 -0.17475003417E+02 -0.10494666822E+03  0.10712930231E+03  0.00000000000E+00 0.  1.
</event>
<event>
 4    1  0.1589319E+006  0.2449003E+02  0.7546771E-02  0.1474590E+00
         21   -1    0    0  502  501  0.00000000000E+00  0.00000000000E+00  0.30135990899E+02  0.30135990899E+02  0.00000000000E+00 0. -1.
         21   -1    0    0  504  502 -0.00000000000E+00 -0.00000000000E+00 -0.44544402444E+02  0.44544402444E+02  0.00000000000E+00 0.  1.
         21    1    1    2  503  501 -0.65956149645E+01 -0.23585156339E+02  0.20568803913E+02  0.31981829696E+02  0.00000000000E+00 0. -1.
         21    1    1    2  504  503  0.65956149645E+01  0.23585156339E+02 -0.34977215458E+02  0.42698563647E+02  0.00000000000E+00 0.  1.
</event>
<event>
 4    1  0.1589319E+006  0.4709828E+02  0.7546771E-02  0.1311268E+00
         21   -1    0    0  504  501  0.00000000000E+00  0.00000000000E+00  0.40362648001E+02  0.40362648001E+02  0.00000000000E+00 0.  1.
         21   -1    0    0  503  502 -0.00000000000E+00 -0.00000000000E+00 -0.68678492934E+02  0.68678492934E+02  0.00000000000E+00 0.  1.
         21    1    1    2  503  501  0.24392019158E+02  0.40289919464E+02  0.10210966711E+02  0.48192448062E+02  0.00000000000E+00 0.  1.
         21    1    1    2  504  502 -0.24392019158E+02 -0.40289919464E+02 -0.38526811645E+02  0.60848692874E+02  0.00000000000E+00 0.  1.
</event>
<event>
 4    1  0.1589319E+006  0.6562309E+02  0.7546771E-02  0.1241838E+00
         21   -1    0    0  504  501  0.00000000000E+00  0.00000000000E+00  0.85362206803E+02  0.85362206803E+02  0.00000000000E+00 0. -1.
         21   -1    0    0  503  502 -0.00000000000E+00 -0.00000000000E+00 -0.79580081858E+03  0.79580081858E+03  0.00000000000E+00 0.  1.
         21    1    1    2  503  501 -0.63576196919E+02  0.16262124919E+02 -0.78160723553E+03  0.78435722738E+03  0.00000000000E+00 0.  1.
         21    1    1    2  504  502  0.63576196919E+02 -0.16262124919E+02  0.71168623745E+02  0.96805798005E+02  0.00000000000E+00 0. -1.
</event>
<event>
 4    1  0.1589319E+006  0.2178127E+02  0.7546771E-02  0.1508396E+00
         21   -1    0    0  503  501  0.00000000000E+00  0.00000000000E+00  0.19578104687E+02  0.19578104687E+02  0.00000000000E+00 0. -1.
         21   -1    0    0  504  502 -0.00000000000E+00 -0.00000000000E+00 -0.33452779441E+02  0.33452779441E+02  0.00000000000E+00 0.  1.
         21    1    1    2  503  502 -0.81478121819E+01  0.20199919128E+02 -0.20857946317E+02  0.30157544673E+02  0.00000000000E+00 0.  1.
         21    1    1    2  504  501  0.81478121819E+01 -0.20199919128E+02  0.69832715628E+01  0.22873339455E+02  0.00000000000E+00 0. -1.
</event>
<event>
 4    1  0.1589319E+006  0.2239794E+02  0.7546771E-02  0.1500200E+00
         21   -1    0    0  502  501  0.00000000000E+00  0.00000000000E+00  0.52608259710E+01  0.52608259710E+01  0.00000000000E+00 0.  1.
         21   -1    0    0  504  502 -0.00000000000E+00 -0.00000000000E+00 -0.98055145580E+02  0.98055145580E+02  0.00000000000E+00 0.  1.
         21    1    1    2  503  501  0.16022055695E+02 -0.15651244883E+02 -0.37831431836E+02  0.43964587680E+02  0.00000000000E+00 0.  1.
         21    1    1    2  504  503 -0.16022055695E+02  0.15651244883E+02 -0.54962887772E+02  0.59351383871E+02  0.00000000000E+00 0.  1.
</event>
<event>
 4    1  0.1589319E+006  0.2382868E+02  0.7546771E-02  0.1482347E+00
         21   -1    0    0  504  501  0.00000000000E+00  0.00000000000E+00  0.12193044037E+02  0.12193044037E+02  0.00000000000E+00 0.  1.
         21   -1    0    0  501  502 -0.00000000000E+00 -0.00000000000E+00 -0.11255908546E+03  0.11255908546E+03  0.00000000000E+00 0.  1.
         21    1    1    2  503  502 -0.99024596739E+01  0.21673650542E+02 -0.97943677092E+02  0.10080064344E+03  0.00000000000E+00 0.  1.
         21    1    1    2  504  503  0.99024596739E+01 -0.21673650542E+02 -0.24223643311E+01  0.23951486058E+02  0.00000000000E+00 0.  1.
</event>
<event>
 4    1  0.1589319E+006  0.3486819E+02  0.7546771E-02  0.1381492E+00
         21   -1    0    0  503  501  0.00000000000E+00  0.00000000000E+00  0.74322905313E+02  0.74322905313E+02  0.00000000000E+00 0. -1.
         21   -1    0    0  501  502 -0.00000000000E+00 -0.00000000000E+00 -0.17397542983E+02  0.17397542983E+02  0.00000000000E+00 0. -1.
         21    1    1    2  503  504  0.81301436932E+01 -0.33907101099E+02  0.39671674773E+02  0.52816971900E+02  0.00000000000E+00 0. -1.
         21    1    1    2  504  502 -0.81301436932E+01  0.33907101099E+02  0.17253687556E+02  0.38903476396E+02  0.00000000000E+00 0. -1.
</event>
<event>
 4    1  0.1589319E+006  0.4008885E+02  0.7546771E-02  0.1347966E+00
         21   -1    0    0  502  501  0.00000000000E+00  0.00000000000E+00  0.42239355556E+03  0.42239355556E+03  0.00000000000E+00 0. -1.
         21   -1    0    0  503  502 -0.00000000000E+00 -0.00000000000E+00 -0.77275763085E+01  0.77275763085E+01  0.00000000000E+00 0.  1.
         21    1    1    2  503  504  0.39771861971E+02  0.50314229037E+01  0.54105462259E+02  0.67338824368E+02  0.00000000000E+00 0.  1.
         21    1    1    2  504  501 -0.39771861971E+02 -0.50314229037E+01  0.36056051699E+03  0.36278230750E+03  0.00000000000E+00 0. -1.
</event>
<event>
 4    1  0.1589319E+006  0.2233616E+02  0.7546771E-02  0.1501007E+00
         21   -1    0    0  502  501  0.00000000000E+00  0.00000000000E+00  0.62530631672E+01  0.62530631672E+01  0.00000000000E+00 0.  1.
         21   -1    0    0  504  502 -0.00000000000E+00 -0.00000000000E+00 -0.14546511110E+03  0.14546511110E+03  0.00000000000E+00 0.  1.
         21    1    1    2  503  501 -0.19669374497E+02 -0.10583930897E+02 -0.18632645846E+02  0.29087443641E+02  0.00000000000E+00 0.  1.
         21    1    1    2  504  503  0.19669374497E+02  0.10583930897E+02 -0.12057940209E+03  0.12263073063E+03  0.00000000000E+00 0.  1.
</event>
<event>
 4    1  0.1589319E+006  0.2065564E+02  0.7546771E-02  0.1524239E+00
         21   -1    0    0  502  501  0.00000000000E+00  0.00000000000E+00  0.31183061031E+01  0.31183061031E+01  0.00000000000E+00 0. -1.
         21   -1    0    0  503  502 -0.00000000000E+00 -0.00000000000E+00 -0.14447465348E+03  0.14447465348E+03  0.00000000000E+00 0. -1.
         21    1    1    2  503  504 -0.55648674082E+01 -0.19891899013E+02 -0.87661506690E+02  0.90062173806E+02  0.00000000000E+00 0. -1.
         21    1    1    2  504  501  0.55648674082E+01  0.19891899013E+02 -0.53694840684E+02  0.57530785774E+02  0.00000000000E+00 0. -1.
</event>
<event>
 4    1  0.1589319E+006  0.2098065E+02  0.7546771E-02  0.1519541E+00
         21   -1    0    0  502  501  0.00000000000E+00  0.00000000000E+00  0.20549272136E+02  0.20549272136E+02  0.00000000000E+00 0. -1.
         21   -1    0    0  503  502 -0.00000000000E+00 -0.00000000000E+00 -0.21194636253E+03  0.21194636253E+03  0.00000000000E+00 0. -1.
         21    1    1    2  503  504  0.18383381548E+02  0.10111321539E+02 -0.20591543059E+03  0.20698152597E+03  0.00000000000E+00 0. -1.
         21    1    1    2  504  501 -0.18383381548E+02 -0.10111321539E+02  0.14518340193E+02  0.25514108692E+02  0.00000000000E+00 0. -1.
</event>
<event>
 4    1  0.1589319E+006  0.2240780E+02  0.7546771E-02  0.1500071E+00
         21   -1    0    0  502  501  0.00000000000E+00  0.00000000000E+00  0.97636013780E+02  0.97636013780E+02  0.00000000000E+00 0.  1.
         21   -1    0    0  504  502 -0.00000000000E+00 -0.00000000000E+00 -0.20281627741E+03  0.20281627741E+03  0.00000000000E+00 0.  1.
         21    1    1    2  503  501 -0.19401736286E+02 -0.11210802355E+02  0.95719196740E+02  0.98307039854E+02  0.00000000000E+00 0.  1.
         21    1    1    2  504  503  0.19401736286E+02  0.11210802355E+02 -0.20089946037E+03  0.20214525133E+03  0.00000000000E+00 0.  1.
</event>
<event>
 4    1  0.1589319E+006  0.2510495E+02  0.7546771E-02  0.1467633E+00
         21   -1    0    0  504  501  0.00000000000E+00  0.00000000000E+00  0.22555334973E+02  0.22555334973E+02  0.00000000000E+00 0.  1.
         21   -1    0    0  501  502 -0.00000000000E+00 -0.00000000000E+00 -0.29800872639E+02  0.29800872639E+02  0.00000000000E+00 0.  1.
         21    1    1    2  503  502 -0.24704671885E+02  0.44651550674E+01 -0.10159477647E+02  0.27082714206E+02  0.00000000000E+00 0.  1.
         21    1    1    2  504  503  0.24704671885E+02 -0.44651550674E+01  0.29139399819E+01  0.25273493406E+02  0.00000000000E+00 0.  1.
</event>
<event>
 4    1  0.1589319E+006  0.4212047E+02  0.7546771E-02  0.1336489E+00
         21   -1    0    0  503  501  0.00000000000E+00  0.00000000000E+00  0.29763054234E+03  0.29763054234E+03  0.00000000000E+00 0. -1.
         21   -1    0    0  504  502 -0.00000000000E+00 -0.00000000000E+00 -0.59661897886E+01  0.59661897886E+01  0.00000000000E+00 0. -1.
         21    1    1    2  503  502 -0.37183696353E+02  0.19786533081E+02  0.14129537118E+03  0.14743987277E+03  0.00000000000E+00 0. -1.
         21    1    1    2  504  501  0.37183696353E+02 -0.19786533081E+02  0.15036898137E+03  0.15615685936E+03  0.00000000000E+00 0. -1.
</event>
<event>
 4    1  0.1589319E+006  0.2451575E+02  0.7546771E-02  0.1474294E+00
         21   -1    0    0  503  501  0.00000000000E+00  0.00000000000E+00  0.15011781363E+01  0.15011781363E+01  0.00000000000E+00 0. -1.
         21   -1    0    0  504  502 -0.00000000000E+00 -0.00000000000E+00 -0.75451087975E+03  0.75451087975E+03  0.00000000000E+00 0. -1.
         21    1    1    2  503  502 -0.15081591434E+02  0.19327893572E+02 -0.11753096508E+03  0.12006060812E+03  0.00000000000E+00 0. -1.
         21    1    1    2  504  501  0.15081591434E+02 -0.19327893572E+02 -0.63547873654E+03  0.63595144977E+03  0.00000000000E+00 0. -1.
</event>
<event>
 4    1  0.1589319E+006  0.2304961E+02  0.7546771E-02  0.1491876E+00
         21   -1    0    0  503  501  0.00000000000E+00  0.00000000000E+00  0.55153162117E+02  0.55153162117E+02  0.00000000000E+00 0. -1.
         21   -1    0    0  501  502 -0.00000000000E+00 -0.00000000000E+00 -0.35237353315E+02  0.35237353315E+02  0.00000000000E+00 0.  1.
         21    1    1    2  503  504  0.11097322466E+02  0.20202323915E+02  0.48483472169E+02  0.53683624421E+02  0.00000000000E+00 0. -1.
         21    1    1    2  504  502 -0.11097322466E+02 -0.20202323915E+02 -0.28567663367E+02  0.36706891011E+02  0.00000000000E+00 0.  1.
</event>
<event>
 4    1  0.1589319E+006  0.2475252E+02  0.7546771E-02  0.1471591E+00
         21   -1    0    0  503  501  0.00000000000E+00  0.00000000000E+00  0.71650762061E+00  0.71650762061E+00  0.00000000000E+00 0.  1.
         21   -1    0    0  504  502 -0.00000000000E+00 -0.00000000000E+00 -0.86250869248E+03  0.86250869248E+03  0.00000000000E+00 0.  1.
         21    1    1    2  503  502  0.15725529691E+02  0.19115310336E+02 -0.47089179424E+03  0.47154190615E+03  0.00000000000E+00 0.  1.
         21    1    1    2  504  501 -0.15725529691E+02 -0.19115310336E+02 -0.39090039062E+03  0.39168329395E+03  0.00000000000E+00 0.  1.
</event>
<event>
 4    1  0.1589319E+006  0.5582767E+02  0.7546771E-02  0.1274708E+00
         21   -1    0    0  503  501  0.00000000000E+00  0.00000000000E+00  0.26672959654E+03  0.26672959654E+03  0.00000000000E+00 0. -1.
         21   -1    0    0  504  502 -0.00000000000E+00 -0.00000000000E+00 -0.26058088865E+02  0.26058088865E+02  0.00000000000E+00 0.  1.
         21    1    1    2  503  502  0.67794836590E+01 -0.55414500608E+02  0.22906014530E+03  0.23576530373E+03  0.00000000000E+00 0. -1.
         21    1    1    2  504  501 -0.67794836590E+01  0.55414500608E+02  0.11611362376E+02  0.57022381681E+02  0.00000000000E+00 0.  1.
</event>
<event>
 4    1  0.1589319E+006  0.2550365E+02  0.7546771E-02  0.1463247E+00
         21   -1    0    0  502  501  0.00000000000E+00  0.00000000000E+00  0.12355167429E+03  0.12355167429E+03  0.00000000000E+00 0.  1.
         21   -1    0    0  503  502 -0.00000000000E+00 -0.00000000000E+00 -0.28600800395E+03  0.28600800395E+03  0.00000000000E+00 0.  1.
         21    1    1    2  503  504 -0.24833241723E+02 -0.58091550827E+01 -0.28411458161E+03  0.28525695726E+03  0.00000000000E+00 0.  1.
         21    1    1    2  504  501  0.24833241723E+02  0.58091550827E+01  0.12165825195E+03  0.12430272098E+03  0.00000000000E+00 0.  1.
</event>
<event>
 4    1  0.1589319E+006  0.2392442E+02  0.7546771E-02  0.1481205E+00
         21   -1    0    0  504  501  0.00000000000E+00  0.00000000000E+00  0.14364587473E+02  0.14364587473E+02  0.00000000000E+00 0.  1.
         21   -1    0    0  503  502 -0.00000000000E+00 -0.00000000000E+00 -0.15166733921E+03  0.15166733921E+03  0.00000000000E+00 0. -1.
         21    1    1    2  503  501  0.16748672890E+02  0.17083904843E+02  0.26301593214E+01  0.24068560121E+02  0.00000000000E+00 0.  1.
         21    1    1    2  504  502 -0.16748672890E+02 -0.17083904843E+02 -0.13993291106E+03  0.14196336656E+03  0.00000000000E+00 0. -1.
</event>
<event>
 4    1  0.1589319E+006  0.2560546E+02  0.7546771E-02  0.1462143E+00
         21   -1    0    0  503  501  0.00000000000E+00  0.00000000000E+00  0.71078503757E+02  0.71078503757E+02  0.00000000000E+00 0.  1.
         21   -1    0    0  504  502 -0.00000000000E+00 -0.00000000000E+00 -0.35698696565E+02  0.35698696565E+02  0.00000000000E+00 0. -1.
         21    1    1    2  503  502  0.25250716200E+02  0.42474813952E+01  0.63666466957E+02  0.68622582155E+02  0.00000000000E+00 0.  1.
         21    1    1    2  504  501 -0.25250716200E+02 -0.42474813952E+01 -0.28286659765E+02  0.38154618167E+02  0.00000000000E+00 0. -1.
</event>
<event>
 4    1  0.1589319E+006  0.2207210E+02  0.7546771E-02  0.1504491E+00
         21   -1    0    0  504  501  0.00000000000E+00  0.00000000000E+00  0.38391852162E+02  0.38391852162E+02  0.00000000000E+00 0. -1.
         21   -1    0    0  503  502 -0.00000000000E+00 -0.00000000000E+00 -0.53294730999E+02  0.53294730999E+02  0.00000000000E+00 0.  1.
         21    1    1    2  503  501  0.15872598404E+02  0.15337470846E+02 -0.47466556622E+02  0.52347410534E+02  0.00000000000E+00 0.  1.
         21    1    1    2  504  502 -0.15872598404E+02 -0.15337470846E+02  0.32563677786E+02  0.39339172627E+02  0.00000000000E+00 0. -1.
</event>
<event>
 4    1  0.1589319E+006  0.2846716E+02  0.7546771E-02  0.1433402E+00
         21   -1    0    0  502  501  0.00000000000E+00  0.00000000000E+00  0.78279639004E+02  0.78279639004E+02  0.00000000000E+00 0.  1.
         21   -1    0    0  503  502 -0.00000000000E+00 -0.00000000000E+00 -0.32433330272E+02  0.32433330272E+02  0.00000000000E+00 0.  1.
         21    1    1    2  503  504 -0.28452514816E+02 -0.91307620885E+00 -0.22752183538E+02  0.36442299094E+02  0.00000000000E+00 0.  1.
         21    1    1    2  504  501  0.28452514816E+02  0.91307620885E+00  0.68598492271E+02  0.74270670182E+02  0.00000000000E+00 0.  1.
</event>
<event>
 4    1  0.1589319E+006  0.4431373E+02  0.7546771E-02  0.1324907E+00
         21   -1    0    0  503  501  0.00000000000E+00  0.00000000000E+00  0.12640869668E+02  0.12640869668E+02  0.00000000000E+00 0.  1.
         21   -1    0    0  504  502 -0.00000000000E+00 -0.00000000000E+00 -0.24905849771E+03  0.24905849771E+03  0.00000000000E+00 0.  1.
         21    1    1    2  503  502 -0.43194301185E+02 -0.98974262410E+01 -0.19847286751E+03  0.20335974488E+03  0.00000000000E+00 0.  1.
         21    1    1    2  504  501  0.43194301185E+02  0.98974262410E+01 -0.37944760532E+02  0.58339622495E+02  0.00000000000E+00 0.  1.
</event>
<event>
 4    1  0.1589319E+006  0.2873904E+02  0.7546771E-02  0.1430880E+00
         21   -1    0    0  503  501  0.00000000000E+00  0.00000000000E+00  0.27103970616E+01  0.27103970616E+01  0.00000000000E+00 0. -1.
         21   -1    0    0  504  502 -0.00000000000E+00 -0.00000000000E+00 -0.31655071730E+03  0.31655071730E+03  0.00000000000E+00 0. -1.
         21    1    1    2  503  502  0.28736191649E+02 -0.40434196486E+00 -0.12606950670E+03  0.12930372277E+03  0.00000000000E+00 0. -1.
         21    1    1    2  504  501 -0.28736191649E+02  0.40434196486E+00 -0.18777081354E+03  0.18995739159E+03  0.00000000000E+00 0. -1.
</event>
<event>
 4    1  0.1589319E+006  0.2918102E+02  0.7546771E-02  0.1426849E+00
         21   -1    0    0  503  501  0.00000000000E+00  0.00000000000E+00  0.12803146671E+03  0.12803146671E+03  0.00000000000E+00 0.  1.
         21   -1    0    0  504  502 -0.00000000000E+00 -0.00000000000E+00 -0.67580361647E+01  0.67580361647E+01  0.00000000000E+00 0.  1.
         21    1    1    2  503  502 -0.26036934457E+02  0.13176112587E+02  0.52153384095E+02  0.59762089751E+02  0.00000000000E+00 0.  1.
         21    1    1    2  504  501  0.26036934457E+02 -0.13176112587E+02  0.69120046452E+02  0.75027413126E+02  0.00000000000E+00 0.  1.
</event>
<event>
 4    1  0.1589319E+006  0.3559980E+02  0.7546771E-02  0.1376395E+00
         21   -1    0    0  504  501  0.00000000000E+00  0.00000000000E+00  0.23190759437E+01  0.23190759437E+01  0.00000000000E+00 0.  1.
         21   -1    0    0  503  502 -0.00000000000E+00 -0.00000000000E+00 -0.12134221789E+04  0.12134221789E+04  0.00000000000E+00 0.  1.
         21    1    1    2  503  501 -0.34965643864E+02  0.66895280335E+01 -0.15489380430E+03  0.15893217625E+03  0.00000000000E+00 0.  1.
         21    1    1    2  504  502  0.34965643864E+02 -0.66895280335E+01 -0.10562092986E+04  0.10568090786E+04  0.00000000000E+00 0.  1.
</event>
<event>
 4    1  0.1589319E+006  0.2649069E+02  0.7546771E-02  0.1452792E+00
         21   -1    0    0  503  501  0.00000000000E+00  0.00000000000E+00  0.12363357674E+02  0.12363357674E+02  0.00000000000E+00 0. -1.
         21   -1    0    0  504  502 -0.00000000000E+00 -0.00000000000E+00 -0.11110416267E+03  0.11110416267E+03  0.00000000000E+00 0.  1.
         21    1    1    2  503  502  0.16862635795E+02  0.20430572339E+02 -0.92545163950E+02  0.96261955843E+02  0.00000000000E+00 0.  1.
         21    1    1    2  504  501 -0.16862635795E+02 -0.20430572339E+02 -0.61956410493E+01  0.27205564505E+02  0.00000000000E+00 0. -1.
</event>
<event>
 4    1  0.1589319E+006  0.5032241E+02  0.7546771E-02  0.1296781E+00
         21   -1    0    0  504  501  0.00000000000E+00  0.00000000000E+00  0.12752371551E+02  0.12752371551E+02  0.00000000000E+00 0. -1.
         21   -1    0    0  503  502 -0.00000000000E+00 -0.00000000000E+00 -0.31908373954E+03  0.31908373954E+03  0.00000000000E+00 0. -1.
         21    1    1    2  503  501 -0.30979849790E+02 -0.39655949231E+02 -0.25512912361E+03  0.26004464062E+03  0.00000000000E+00 0. -1.
         21    1    1    2  504  502  0.30979849790E+02  0.39655949231E+02 -0.51202244377E+02  0.71791470466E+02  0.00000000000E+00 0. -1.
</event>
<event>
 4    1  0.1589319E+006  0.2135044E+02  0.7546771E-02  0.1514320E+00
         21   -1    0    0  504  501  0.00000000000E+00  0.00000000000E+00  0.90783360172E+01  0.90783360172E+01  0.00000000000E+00 0. -1.
         21   -1    0    0  503  502 -0.00000000000E+00 -0.00000000000E+00 -0.55693641257E+02  0.55693641257E+02  0.00000000000E+00 0. -1.
         21    1    1    2  503  501  0.20277108378E+02 -0.66843342753E+01 -0.33468021593E+02  0.39698235707E+02  0.00000000000E+00 0. -1.
         21    1    1    2  504  502 -0.20277108378E+02  0.66843342753E+01 -0.13147283647E+02  0.25073741567E+02  0.00000000000E+00 0. -1.
</event>
<event>
 4    1  0.1589319E+006  0.3240130E+02  0.7546771E-02  0.1399815E+00
         21   -1    0    0  503  501  0.00000000000E+00  0.00000000000E+00  0.28164441029E+02  0.28164441029E+02  0.00000000000E+00 0. -1.
         21   -1    0    0  504  502 -0.00000000000E+00 -0.00000000000E+00 -0.63211525430E+02  0.63211525430E+02  0.00000000000E+00 0. -1.
         21    1    1    2  503  502  0.18406153658E+02 -0.26665661770E+02 -0.46789008510E+02  0.56912699176E+02  0.00000000000E+00 0. -1.
         21    1    1    2  504  501 -0.18406153658E+02  0.26665661770E+02  0.11741924109E+02  0.34463267284E+02  0.00000000000E+00 0. -1.
</event>
<event>
 4    1  0.1589319E+006  0.3195151E+02  0.7546771E-02  0.1403363E+00
         21   -1    0    0  503  501  0.00000000000E+00  0.00000000000E+00  0.64958193151E+02  0.64958193151E+02  0.00000000000E+00 0.  1.
         21   -1    0    0  504  502 -0.00000000000E+00 -0.00000000000E+00 -0.15737332659E+02  0.15737332659E+02  0.00000000000E+00 0.  1.
         21    1    1    2  503  502  0.12586426153E+02 -0.29368028674E+02  0.23133662880E+02  0.39446997221E+02  0.00000000000E+00 0.  1.
         21    1    1    2  504  501 -0.12586426153E+02  0.29368028674E+02  0.26087197612E+02  0.41248528589E+02  0.00000000000E+00 0.  1.
</event>
<event>
 4    1  0.1589319E+006  0.3825328E+02  0.7546771E-02  0.1359037E+00
         21   -1    0    0  504  501  0.00000000000E+00  0.00000000000E+00  0.47015599765E+02  0.47015599765E+02  0.00000000000E+00 0. -1.
         21   -1    0    0  501  502 -0.00000000000E+00 -0.00000000000E+00 -0.10355775595E+03  0.10355775595E+03  0.00000000000E+00 0. -1.
         21    1    1    2  503  502 -0.28555494860E+02  0.25453828572E+02 -0.91235803179E+02  0.98930710385E+02  0.00000000000E+00 0. -1.
         21    1    1    2  504  503  0.28555494860E+02 -0.25453828572E+02  0.34693646989E+02  0.51642645334E+02  0.00000000000E+00 0. -1.
</event>
<event>
 4    1  0.1589319E+006  0.2053747E+02  0.7546771E-02  0.1525972E+00
         21   -1    0    0  504  501  0.00000000000E+00  0.00000000000E+00  0.11082306292E+02  0.11082306292E+02  0.00000000000E+00 0. -1.
         21   -1    0    0  503  502 -0.00000000000E+00 -0.00000000000E+00 -0.55245366158E+02  0.55245366158E+02  0.00000000000E+00 0. -1.
         21    1    1    2  503  501  0.14937943124E+02  0.14094161714E+02 -0.35845011297E+01  0.20847930054E+02  0.00000000000E+00 0. -1.
         21    1    1    2  504  502 -0.14937943124E+02 -0.14094161714E+02 -0.40578558736E+02  0.45479742395E+02  0.00000000000E+00 0. -1.
</event>
<event>
 4    1  0.1589319E+006  0.2611228E+02  0.7546771E-02  0.1456735E+00
         21   -1    0    0  504  501  0.00000000000E+00  0.00000000000E+00  0.99792938829E+01  0.99792938829E+01  0.00000000000E+00 0.  1.
         21   -1    0    0  503  502 -0.00000000000E+00 -0.00000000000E+00 -0.68448688767E+02  0.68448688767E+02  0.00000000000E+00 0.  1.
         21    1    1    2  503  501  0.18627092215E+02  0.18299802671E+02 -0.27578642230E+02  0.37979374000E+02  0.00000000000E+00 0.  1.
         21    1    1    2  504  502 -0.18627092215E+02 -0.18299802671E+02 -0.30890752654E+02  0.40448608650E+02  0.00000000000E+00 0.  1.
</event>
<event>
 4    1  0.1589319E+006  0.2426482E+02  0.7546771E-02  0.1477198E+00
         21   -1    0    0  504  501  0.00000000000E+00  0.00000000000E+00  0.25178888756E+01  0.25178888756E+01  0.00000000000E+00 0.  1.
         21   -1    0    0  503  502 -0.00000000000E+00 -0.00000000000E+00 -0.38251695164E+03  0.38251695164E+03  0.00000000000E+00 0. -1.
         21    1    1    2  503  501  0.23465558121E+02 -0.61764870860E+01 -0.31002337060E+03  0.31097149665E+03  0.00000000000E+00 0. -1.
         21    1    1    2  504  502 -0.23465558121E+02  0.61764870860E+01 -0.69975692165E+02  0.74063343866E+02  0.00000000000E+00 0.  1.
</event>
<event>
 4    1  0.1589319E+006  0.3214062E+02  0.7546771E-02  0.1401863E+00
         21   -1    0    0  503  501  0.00000000000E+00  0.00000000000E+00  0.24227420480E+02  0.24227420480E+02  0.00000000000E+00 0.  1.
         21   -1    0    0  504  502 -0.00000000000E+00 -0.00000000000E+00 -0.10120865893E+03  0.10120865893E+03  0.00000000000E+00 0.  1.
         21    1    1    2  503  502 -0.30960757050E+02  0.86284897382E+01  0.92207719457E+01  0.33437134261E+02  0.00000000000E+00 0.  1.
         21    1    1    2  504  501  0.30960757050E+02 -0.86284897382E+01 -0.86202010399E+02  0.91998945152E+02  0.00000000000E+00 0.  1.
</event>
<event>
 4    1  0.1589319E+006  0.4587108E+02  0.7546771E-02  0.1317140E+00
         21   -1    0    0  504  501  0.00000000000E+00  0.00000000000E+00  0.36850090983E+02  0.36850090983E+02  0.00000000000E+00 0. -1.
         21   -1    0    0  503  502 -0.00000000000E+00 -0.00000000000E+00 -0.16214255332E+03  0.16214255332E+03  0.00000000000E+00 0. -1.
         21    1    1    2  503  501  0.45820295921E+02 -0.21578366731E+01 -0.14272922203E+03  0.14991926693E+03  0.00000000000E+00 0. -1.
         21    1    1    2  504  502 -0.45820295921E+02  0.21578366731E+01  0.17436759694E+02  0.49073377365E+02  0.00000000000E+00 0. -1.
</event>
<event>
 4    1  0.1589319E+006  0.2595336E+02  0.7546771E-02  0.1458415E+00
         21   -1    0    0  503  501  0.00000000000E+00  0.00000000000E+00  0.30780499253E+01  0.30780499253E+01  0.00000000000E+00 0.  1.
         21   -1    0    0  504  502 -0.00000000000E+00 -0.00000000000E+00 -0.66631731130E+03  0.66631731130E+03  0.00000000000E+00 0.  1.
         21    1    1    2  503  502 -0.52336179656E+01 -0.25420192059E+02 -0.57335063040E+02  0.62935573208E+02  0.00000000000E+00 0.  1.
         21    1    1    2  504  501  0.52336179656E+01  0.25420192059E+02 -0.60590419833E+03  0.60645978802E+03  0.00000000000E+00 0.  1.
</event>
<event>
 4    1  0.1589319E+006  0.2165085E+02  0.7546771E-02  0.1510172E+00
         21   -1    0    0  504  501  0.00000000000E+00  0.00000000000E+00  0.24094464725E+03  0.24094464725E+03  0.00000000000E+00 0. -1.
         21   -1    0    0  503  502 -0.00000000000E+00 -0.00000000000E+00 -0.23119716204E+01  0.23119716204E+01  0.00000000000E+00 0. -1.
         21    1    1    2  503  501 -0.21418038588E+02  0.31665563513E+01  0.16774021395E+03  0.16913172037E+03  0.00000000000E+00 0. -1.
         21    1    1    2  504  502  0.21418038588E+02 -0.31665563513E+01  0.70892461671E+02  0.74124898502E+02  0.00000000000E+00 0. -1.
</event>
<event>
 4    1  0.1589319E+006  0.2074876E+02  0.7546771E-02  0.1522882E+00
         21   -1    0    0  503  501  0.00000000000E+00  0.00000000000E+00  0.11241358830E+03  0.11241358830E+03  0.00000000000E+00 0. -1.
         21   -1    0    0  504  502 -0.00000000000E+00 -0.00000000000E+00 -0.43154549867E+01  0.43154549867E+01  0.00000000000E+00 0. -1.
         21    1    1    2  503  502 -0.10309183941E+02  0.18006436990E+02  0.73630360106E+02  0.76497980208E+02  0.00000000000E+00 0. -1.
         21    1    1    2  504  501  0.10309183941E+02 -0.18006436990E+02  0.34467773211E+02  0.40231063083E+02  0.00000000000E+00 0. -1.
</event>
<event>
 4    1  0.1589319E+006  0.4251956E+02  0.7546771E-02  0.1334322E+00
         21   -1    0    0  503  501  0.00000000000E+00  0.00000000000E+00  0.70602823970E+02  0.70602823970E+02  0.00000000000E+00 0.  1.
         21   -1    0    0  501  502 -0.00000000000E+00 -0.00000000000E+00 -0.11268127752E+03  0.11268127752E+03  0.00000000000E+00 0. -1.
         21    1    1    2  503  504 -0.36424257717E+02 -0.21935964960E+02  0.59519822351E+02  0.73147264895E+02  0.00000000000E+00 0.  1.
         21    1    1    2  504  502  0.36424257717E+02  0.21935964960E+02 -0.10159827590E+03  0.11013683659E+03  0.00000000000E+00 0. -1.
</event>
<event>
 4    1  0.1589319E+006  0.2082969E+02  0.7546771E-02  0.1521710E+00
         21   -1    0    0  502  501  0.00000000000E+00  0.00000000000E+00  0.44878961405E+03  0.44878961405E+03  0.00000000000E+00 0. -1.
         21   -1    0    0  503  502 -0.00000000000E+00 -0.00000000000E+00 -0.20702589200E+01  0.20702589200E+01  0.00000000000E+00 0. -1.
         21    1    1    2  503  504  0.98600133163E+00 -0.20806344577E+02  0.58777306095E+02  0.62359024087E+02  0.00000000000E+00 0. -1.
         21    1    1    2  504  501 -0.98600133163E+00  0.20806344577E+02  0.38794204904E+03  0.38850084889E+03  0.00000000000E+00 0. -1.
</event>
<event>
 4    1  0.1589319E+006  0.2342391E+02  0.7546771E-02  0.1487243E+00
         21   -1    0    0  503  501  0.00000000000E+00  0.00000000000E+00  0.96478571226E+01  0.96478571226E+01  0.00000000000E+00 0.  1.
         21   -1    0    0  501  502 -0.00000000000E+00 -0.00000000000E+00 -0.15823207702E+03  0.15823207702E+03  0.00000000000E+00 0. -1.
         21    1    1    2  503  504 -0.20665837560E+02  0.11027353517E+02 -0.71093242565E+01  0.24479008538E+02  0.00000000000E+00 0.  1.
         21    1    1    2  504  502  0.20665837560E+02 -0.11027353517E+02 -0.14147489564E+03  0.14340092560E+03  0.00000000000E+00 0. -1.
</event>
<event>
 4    1  0.1589319E+006  0.2124773E+02  0.7546771E-02  0.1515757E+00
         21   -1    0    0  504  501  0.00000000000E+00  0.00000000000E+00  0.16434734715E+02  0.16434734715E+02  0.00000000000E+00 0.  1.
         21   -1    0    0  503  502 -0.00000000000E+00 -0.00000000000E+00 -0.67818256455E+02  0.67818256455E+02  0.00000000000E+00 0. -1.
         21    1    1    2  503  501 -0.17144067820E+02 -0.12551767441E+02 -0.58185012660E+02  0.61943212909E+02  0.00000000000E+00 0. -1.
         21    1    1    2  504  502  0.17144067820E+02  0.12551767441E+02  0.68014909200E+01  0.22309778261E+02  0.00000000000E+00 0.  1.
</event>
<event>
 4    1  0.1589319E+006  0.2288440E+02  0.7546771E-02  0.1493955E+00
         21   -1    0    0  502  501  0.00000000000E+00  0.00000000000E+00  0.33752501499E+01  0.33752501499E+01  0.00000000000E+00 0. -1.
         21   -1    0    0  503  502 -0.00000000000E+00 -0.00000000000E+00 -0.18077289650E+03  0.18077289650E+03  0.00000000000E+00 0. -1.
         21    1    1    2  503  504  0.63435667548E+01 -0.21987609197E+02 -0.12335815445E+03  0.12546286330E+03  0.00000000000E+00 0. -1.
         21    1    1    2  504  501 -0.63435667548E+01  0.21987609197E+02 -0.54039491898E+02  0.58685283351E+02  0.00000000000E+00 0. -1.
</event>
<event>
 4    1  0.1589319E+006  0.2160605E+02  0.7546771E-02  0.1510785E+00
         21   -1    0    0  503  501  0.00000000000E+00  0.00000000000E+00  0.14299304505E+04  0.14299304505E+04  0.00000000000E+00 0. -1.
         21   -1    0    0  504  502 -0.00000000000E+00 -0.00000000000E+00 -0.34045344586E+00  0.34045344586E+00  0.00000000000E+00 0. -1.
         21    1    1    2  503  502 -0.19954951079E+02 -0.82837884214E+01  0.56983263484E+03  0.57024210030E+03  0.00000000000E+00 0. -1.
         21    1    1    2  504  501  0.19954951079E+02  0.82837884214E+01  0.85975736219E+03  0.86002880362E+03  0.00000000000E+00 0. -1.
</event>
<event>
 4    1  0.1589319E+006  0.2335989E+02  0.7546771E-02  0.1488028E+00
         21   -1    0    0  504  501  0.00000000000E+00  0.00000000000E+00  0.13127567076E+02  0.13127567076E+02  0.00000000000E+00 0.  1.
         21   -1    0    0  501  502 -0.00000000000E+00 -0.00000000000E+00 -0.25826258936E+03  0.25826258936E+03  0.00000000000E+00 0.  1.
         21    1    1    2  503  502  0.14438763351E+02  0.18363186013E+02 -0.24686362441E+03  0.24796639600E+03  0.00000000000E+00 0.  1.
         21    1    1    2  504  503 -0.14438763351E+02 -0.18363186013E+02  0.17286021284E+01  0.23423760436E+02  0.00000000000E+00 0.  1.
</event>
<event>
 4    1  0.1589319E+006  0.2743873E+02  0.7546771E-02  0.1443250E+00
         21   -1    0    0  504  501  0.00000000000E+00  0.00000000000E+00  0.23890539166E+02  0.23890539166E+02  0.00000000000E+00 0. -1.
         21   -1    0    0  503  502 -0.00000000000E+00 -0.00000000000E+00 -0.31740422287E+02  0.31740422287E+02  0.00000000000E+00 0. -1.
         21    1    1    2  503  501 -0.10458637794E+02  0.25367316619E+02 -0.15750710905E+01  0.27483899031E+02  0.00000000000E+00 0. -1.
         21    1    1    2  504  502  0.10458637794E+02 -0.25367316619E+02 -0.62748120312E+01  0.28147062422E+02  0.00000000000E+00 0. -1.
</event>
<event>
 4    1  0.1589319E+006  0.2366535E+02  0.7546771E-02  0.1484308E+00
         21   -1    0    0  503  501  0.00000000000E+00  0.00000000000E+00  0.71252556785E+02  0.71252556785E+02  0.00000000000E+00 0.  1.
         21   -1    0    0  504  502 -0.00000000000E+00 -0.00000000000E+00 -0.77900966020E+02  0.77900966020E+02  0.00000000000E+00 0.  1.
         21    1    1    2  503  502 -0.69864010641E+01 -0.22610592521E+02  0.67390218880E+02  0.71424717673E+02  0.00000000000E+00 0.  1.
         21    1    1    2  504  501  0.69864010641E+01  0.22610592521E+02 -0.74038628115E+02  0.77728805132E+02  0.00000000000E+00 0.  1.
</event>
<event>
 4    1  0.1589319E+006  0.2354793E+02  0.7546771E-02  0.1485730E+00
         21   -1    0    0  504  501  0.00000000000E+00  0.00000000000E+00  0.32449863323E+01  0.32449863323E+01  0.00000000000E+00 0.  1.
         21   -1    0    0  503  502 -0.00000000000E+00 -0.00000000000E+00 -0.19602203658E+03  0.19602203658E+03  0.00000000000E+00 0.  1.
         21    1    1    2  503  501  0.21069898415E+02 -0.10514951725E+02 -0.60706536453E+02  0.65113657532E+02  0.00000000000E+00 0.  1.
         21    1    1    2  504  502 -0.21069898415E+02  0.10514951725E+02 -0.13207051380E+03  0.13415336538E+03  0.00000000000E+00 0.  1.
</event>
<event>
 4    1  0.1589319E+006  0.3331869E+02  0.7546771E-02  0.1392785E+00
         21   -1    0    0  504  501  0.00000000000E+00  0.00000000000E+00  0.21004060126E+01  0.21004060126E+01  0.00000000000E+00 0.  1.
         21   -1    0    0  503  502 -0.00000000000E+00 -0.00000000000E+00 -0.55310524493E+03  0.55310524493E+03  0.00000000000E+00 0.  1.
         21    1    1    2  503  501 -0.67250970184E+01  0.32632926759E+02 -0.21699129772E+03  0.21953441216E+03  0.00000000000E+00 0.  1.
         21    1    1    2  504  502  0.67250970184E+01 -0.32632926759E+02 -0.33401354119E+03  0.33567123877E+03  0.00000000000E+00 0.  1.
</event>
<event>
 4    1  0.1589319E+006  0.2071692E+02  0.7546771E-02  0.1523345E+00
         21   -1    0    0  502  501  0.00000000000E+00  0.00000000000E+00  0.72313220064E+02  0.72313220064E+02  0.00000000000E+00 0.  1.
         21   -1    0    0  504  502 -0.00000000000E+00 -0.00000000000E+00 -0.15475211896E+02  0.15475211896E+02  0.00000000000E+00 0. -1.
         21    1    1    2  503  501 -0.97526612349E+01 -0.18277758620E+02  0.62882891170E+02  0.66207619374E+02  0.00000000000E+00 0.  1.
         21    1    1    2  504  503  0.97526612349E+01  0.18277758620E+02 -0.60448830019E+01  0.21580812586E+02  0.00000000000E+00 0. -1.
</event>
<event>
 4    1  0.1589319E+006  0.2516830E+02  0.7546771E-02  0.1466929E+00
         21   -1    0    0  502  501  0.00000000000E+00  0.00000000000E+00  0.90257927241E+01  0.90257927241E+01  0.00000000000E+00 0.  1.
         21   -1    0    0  504  502 -0.00000000000E+00 -0.00000000000E+00 -0.73323948222E+02  0.73323948222E+02  0.00000000000E+00 0. -1.
         21    1    1    2  503  501  0.99986964945E+00  0.25148434131E+02 -0.23625049756E+02  0.34519363472E+02  0.00000000000E+00 0.  1.
         21    1    1    2  504  503 -0.99986964945E+00 -0.25148434131E+02 -0.40673105742E+02  0.47830377474E+02  0.00000000000E+00 0. -1.
</event>
<event>
 4    1  0.1589319E+006  0.2407733E+02  0.7546771E-02  0.1479396E+00
         21   -1    0    0  504  501  0.00000000000E+00  0.00000000000E+00  0.83602689561E+00  0.83602689561E+00  0.00000000000E+00 0.  1.
         21   -1    0    0  503  502 -0.00000000000E+00 -0.00000000000E+00 -0.11111033318E+04  0.11111033318E+04  0.00000000000E+00 0.  1.
         21    1    1    2  503  501 -0.10242359164E+01 -0.24055533999E+02 -0.21425684686E+03  0.21560545958E+03  0.00000000000E+00 0.  1.
         21    1    1    2  504  502  0.10242359164E+01  0.24055533999E+02 -0.89601045802E+03  0.89633389909E+03  0.00000000000E+00 0.  1.
</event>
<event>
 4    1  0.1589319E+006  0.2018065E+02  0.7546771E-02  0.1531292E+00
         21   -1    0    0  503  501  0.00000000000E+00  0.00000000000E+00  0.87957266943E+02  0.87957266943E+02  0.00000000000E+00 0. -1.
         21   -1    0    0  504  502 -0.00000000000E+00 -0.00000000000E+00 -0.25525826599E+02  0.25525826599E+02  0.00000000000E+00 0. -1.
         21    1    1    2  503  502  0.85995762369E+01 -0.18256662703E+02 -0.20122299887E+02  0.28498515702E+02  0.00000000000E+00 0. -1.
         21    1    1    2  504  501 -0.85995762369E+01  0.18256662703E+02  0.82553740231E+02  0.84984577840E+02  0.00000000000E+00 0. -1.
</event>
<event>
 4    1  0.1589319E+006  0.3005518E+02  0.7546771E-02  0.1419118E+00
         21   -1    0    0  504  501  0.00000000000E+00  0.00000000000E+00  0.28202508573E+02  0.28202508573E+02  0.00000000000E+00 0. -1.
         21   -1    0    0  503  502 -0.00000000000E+00 -0.00000000000E+00 -0.49041569984E+02  0.49041569984E+02  0.00000000000E+00 0. -1.
         21    1    1    2  503  501 -0.29710657697E+02 -0.45377221610E+01 -0.33166878067E+02  0.44758863970E+02  0.00000000000E+00 0. -1.
         21    1    1    2  504  502  0.29710657697E+02  0.45377221610E+01  0.12327816657E+02  0.32485214586E+02  0.00000000000E+00 0. -1.
</event>
<event>
 4    1  0.1589319E+006  0.2472610E+02  0.7546771E-02  0.1471891E+00
         21   -1    0    0  503  501  0.00000000000E+00  0.00000000000E+00  0.92946840740E+02  0.92946840740E+02  0.00000000000E+00 0.  1.
         21   -1    0    0  504  502 -0.00000000000E+00 -0.00000000000E+00 -0.78380126755E+01  0.78380126755E+01  0.00000000000E+00 0.  1.
         21    1    1    2  503  502 -0.21070998834E+02 -0.12938045946E+02  0.62761085870E+02  0.67456162983E+02  0.00000000000E+00 0.  1.
         21    1    1    2  504  501  0.21070998834E+02  0.12938045946E+02  0.22347742194E+02  0.33328690433E+02  0.00000000000E+00 0.  1.
</event>
<event>
 4    1  0.1589319E+006  0.2684386E+02  0.7546771E-02  0.1449183E+00
         21   -1    0    0  504  501  0.00000000000E+00  0.00000000000E+00  0.12720623073E+02  0.12720623073E+02  0.00000000000E+00 0.  1.
         21   -1    0    0  501  502 -0.00000000000E+00 -0.00000000000E+00 -0.92536708060E+02  0.92536708060E+02  0.00000000000E+00 0.  1.
         21    1    1    2  503  502 -0.11961668913E+02 -0.24031462752E+02 -0.72683343448E+02  0.77482005266E+02  0.00000000000E+00 0.  1.
         21    1    1    2  504  503  0.11961668913E+02  0.24031462752E+02 -0.71327415389E+01  0.27775325868E+02  0.00000000000E+00 0.  1.
</event>
<event>
 4    1  0.1589319E+006  0.2492529E+02  0.7546771E-02  0.1469641E+00
         21   -1    0    0  502  501  0.00000000000E+00  0.00000000000E+00  0.21671865028E+03  0.21671865028E+03  0.00000000000E+00 0.  1.
         21   -1    0    0  504  502 -0.00000000000E+00 -0.00000000000E+00 -0.10430992381E+02  0.10430992381E+02  0.00000000000E+00 0.  1.
         21    1    1    2  503  501 -0.12826059434E+02 -0.21371999632E+02  0.19986087618E+03  0.20140913583E+03  0.00000000000E+00 0.  1.
         21    1    1    2  504  503  0.12826059434E+02  0.21371999632E+02  0.64267817257E+01  0.25740506837E+02  0.00000000000E+00 0.  1.
</event>
<event>
 4    1  0.1589319E+006  0.2024973E+02  0.7546771E-02  0.1530252E+00
         21   -1    0    0  504  501  0.00000000000E+00  0.00000000000E+00  0.48629168206E+03  0.48629168206E+03  0.00000000000E+00 0.  1.
         21   -1    0    0  503  502 -0.00000000000E+00 -0.00000000000E+00 -0.24376958112E+02  0.24376958112E+02  0.00000000000E+00 0. -1.
         21    1    1    2  503  501  0.18019462429E+02  0.92385252126E+01 -0.19921971001E+02  0.28406624278E+02  0.00000000000E+00 0. -1.
         21    1    1    2  504  502 -0.18019462429E+02 -0.92385252126E+01  0.48183669495E+03  0.48226201590E+03  0.00000000000E+00 0.  1.
</event>
<event>
 4    1  0.1589319E+006  0.2151098E+02  0.7546771E-02  0.1512093E+00
         21   -1    0    0  503  501  0.00000000000E+00  0.00000000000E+00  0.83047138449E+00  0.83047138449E+00  0.00000000000E+00 0.  1.
         21   -1    0    0  501  502 -0.00000000000E+00 -0.00000000000E+00 -0.86276405255E+03  0.86276405255E+03  0.00000000000E+00 0. -1.
         21    1    1    2  503  504  0.19507601922E+02 -0.90650714846E+01 -0.17398686462E+03  0.17531158294E+03  0.00000000000E+00 0.  1.
         21    1    1    2  504  502 -0.19507601922E+02  0.90650714846E+01 -0.68794671655E+03  0.68828294099E+03  0.00000000000E+00 0. -1.
</event>
<event>
 4    1  0.1589319E+006  0.3161980E+02  0.7546771E-02  0.1406024E+00
         21   -1    0    0  502  501  0.00000000000E+00  0.00000000000E+00  0.33997831432E+02  0.33997831432E+02  0.00000000000E+00 0.  1.
         21   -1    0    0  504  502 -0.00000000000E+00 -0.00000000000E+00 -0.86112565914E+02  0.86112565914E+02  0.00000000000E+00 0. -1.
         21    1    1    2  503  501 -0.19585953349E+02 -0.24823418328E+02  0.22675949566E+02  0.38910285977E+02  0.00000000000E+00 0.  1.
         21    1    1    2  504  503  0.19585953349E+02  0.24823418328E+02 -0.74790684048E+02  0.81200111370E+02  0.00000000000E+00 0. -1.
</event>
<event>
 4    1  0.1589319E+006  0.2423727E+02  0.7546771E-02  0.1477520E+00
         21   -1    0    0  502  501  0.00000000000E+00  0.00000000000E+00  0.93359187260E+02  0.93359187260E+02  0.00000000000E+00 0.  1.
         21   -1    0    0  503  502 -0.00000000000E+00 -0.00000000000E+00 -0.40949576442E+02  0.40949576442E+02  0.00000000000E+00 0. -1.
         21    1    1    2  503  504 -0.15510681877E+02  0.18624282522E+02 -0.35575035796E+02  0.43046815488E+02  0.00000000000E+00 0. -1.
         21    1    1    2  504  501  0.15510681877E+02 -0.18624282522E+02  0.87984646615E+02  0.91261948214E+02  0.00000000000E+00 0.  1.
</event>
<event>
 4    1  0.1589319E+006  0.2106747E+02  0.7546771E-02  0.1518304E+00
         21   -1    0    0  503  501  0.00000000000E+00  0.00000000000E+00  0.73979162188E+02  0.73979162188E+02  0.00000000000E+00 0. -1.
         21   -1    0    0  504  502 -0.00000000000E+00 -0.00000000000E+00 -0.76322511335E+02  0.76322511335E+02  0.00000000000E+00 0. -1.
         21    1    1    2  503  502 -0.19842715897E+02  0.70784929971E+01  0.70965014530E+02  0.74026155679E+02  0.00000000000E+00 0. -1.
         21    1    1    2  504  501  0.19842715897E+02 -0.70784929971E+01 -0.73308363677E+02  0.76275517844E+02  0.00000000000E+00 0. -1.
</event>
<event>
 4    1  0.1589319E+006  0.2643623E+02  0.7546771E-02  0.1453355E+00
         21   -1    0    0  503  501  0.00000000000E+00  0.00000000000E+00  0.38499980385E+03  0.38499980385E+03  0.00000000000E+00 0.  1.
         21   -1    0    0  501  502 -0.00000000000E+00 -0.00000000000E+00 -0.62173577224E+02  0.62173577224E+02  0.00000000000E+00 0.  1.
         21    1    1    2  503  504 -0.12836469321E+02 -0.23110586344E+02  0.38171163715E+03  0.38262598982E+03  0.00000000000E+00 0.  1.
         21    1    1    2  504  502  0.12836469321E+02  0.23110586344E+02 -0.58885410524E+02  0.64547391259E+02  0.00000000000E+00 0.  1.
</event>
<event>
 4    1  0.1589319E+006  0.7354870E+02  0.7546771E-02  0.1219672E+00
         21   -1    0    0  504  501  0.00000000000E+00  0.00000000000E+00  0.86586337194E+02  0.86586337194E+02  0.00000000000E+00 0.  1.
         21   -1    0    0  501  502 -0.00000000000E+00 -0.00000000000E+00 -0.12107557860E+03  0.12107557860E+03  0.00000000000E+00 0.  1.
         21    1    1    2  503  502  0.13366230810E+00  0.73548574783E+02 -0.89480433138E+02  0.11582814266E+03  0.00000000000E+00 0.  1.
         21    1    1    2  504  503 -0.13366230810E+00 -0.73548574783E+02  0.54991191736E+02  0.91833773127E+02  0.00000000000E+00 0.  1.
</event>
<event>
 4    1  0.1589319E+006  0.2491896E+02  0.7546771E-02  0.1469712E+00
         21   -1    0    0  504  501  0.00000000000E+00  0.00000000000E+00  0.48480503752E+01  0.48480503752E+01  0.00000000000E+00 0.  1.
         21   -1    0    0  501  502 -0.00000000000E+00 -0.00000000000E+00 -0.17734949203E+03  0.17734949203E+03  0.00000000000E+00 0.  1.
         21    1    1    2  503  502 -0.23639215681E+02  0.78830104749E+01 -0.13426517189E+03  0.13655801242E+03  0.00000000000E+00 0.  1.
         21    1    1    2  504  503  0.23639215681E+02 -0.78830104749E+01 -0.38236269763E+02  0.45639529988E+02  0.00000000000E+00 0.  1.
</event>
<event>
 4    1  0.1589319E+006  0.3657047E+02  0.7546771E-02  0.1369846E+00
         21   -1    0    0  502  501  0.00000000000E+00  0.00000000000E+00  0.12173395446E+03  0.12173395446E+03  0.00000000000E+00 0.  1.
         21   -1    0    0  504  502 -0.00000000000E+00 -0.00000000000E+00 -0.21768075028E+03  0.21768075028E+03  0.00000000000E+00 0. -1.
         21    1    1    2  503  501  0.19632571914E+02  0.30853876411E+02  0.11739598526E+03  0.12296022497E+03  0.00000000000E+00 0.  1.
         21    1    1    2  504  503 -0.19632571914E+02 -0.30853876411E+02 -0.21334278108E+03  0.21645447976E+03  0.00000000000E+00 0. -1.
</event>
<event>
 4    1  0.1589319E+006  0.2076753E+02  0.7546771E-02  0.1522610E+00
         21   -1    0    0  503  501  0.00000000000E+00  0.00000000000E+00  0.37609809696E+03  0.37609809696E+03  0.00000000000E+00 0.  1.
         21   -1    0    0  501  502 -0.00000000000E+00 -0.00000000000E+00 -0.55926250071E+01  0.55926250071E+01  0.00000000000E+00 0.  1.
         21    1    1    2  503  504 -0.12615929751E+02  0.16496327439E+02  0.35541073923E+03  0.35601697159E+03  0.00000000000E+00 0.  1.
         21    1    1    2  504  502  0.12615929751E+02 -0.16496327439E+02  0.15094732731E+02  0.25673750382E+02  0.00000000000E+00 0.  1.
</event>
<event>
 4    1  0.1589319E+006  0.2250920E+02  0.7546771E-02  0.1498755E+00
         21   -1    0    0  504  501  0.00000000000E+00  0.00000000000E+00  0.17206944819E+02  0.17206944819E+02  0.00000000000E+00 0. -1.
         21   -1    0    0  503  502 -0.00000000000E+00 -0.00000000000E+00 -0.61075223441E+02  0.61075223441E+02  0.00000000000E+00 0. -1.
         21    1    1    2  503  501  0.22494334364E+02  0.81800299839E+00 -0.50101695363E+02  0.54925805280E+02  0.00000000000E+00 0. -1.
         21    1    1    2  504  502 -0.22494334364E+02 -0.81800299839E+00  0.62334167410E+01  0.23356362980E+02  0.00000000000E+00 0. -1.
</event>
<event>
 4    1  0.1589319E+006  0.2347893E+02  0.7546771E-02  0.1486570E+00
         21   -1    0    0  503  501  0.00000000000E+00  0.00000000000E+00  0.81737368489E+02  0.81737368489E+02  0.00000000000E+00 0. -1.
         21   -1    0    0  504  502 -0.00000000000E+00 -0.00000000000E+00 -0.22263435142E+02  0.22263435142E+02  0.00000000000E+00 0. -1.
         21    1    1    2  503  502 -0.12477048570E+02 -0.19889274431E+02  0.73152446157E+02  0.76827992015E+02  0.00000000000E+00 0. -1.
         21    1    1    2  504  501  0.12477048570E+02  0.19889274431E+02 -0.13678512810E+02  0.27172811616E+02  0.00000000000E+00 0. -1.
</event>
<event>
 4    1  0.1589319E+006  0.3510062E+02  0.7546771E-02  0.1379857E+00
         21   -1    0    0  504  501  0.00000000000E+00  0.00000000000E+00  0.26544937759E+03  0.26544937759E+03  0.00000000000E+00 0.  1.
         21   -1    0    0  503  502 -0.00000000000E+00 -0.00000000000E+00 -0.49851676760E+02  0.49851676760E+02  0.00000000000E+00 0.  1.
         21    1    1    2  503  501  0.30786670064E+01  0.34965342685E+02 -0.42333466119E+02  0.54992506156E+02  0.00000000000E+00 0.  1.
         21    1    1    2  504  502 -0.30786670064E+01 -0.34965342685E+02  0.25793116695E+03  0.26030854819E+03  0.00000000000E+00 0.  1.
</event>
<event>
 4    1  0.1589319E+006  0.2447598E+02  0.7546771E-02  0.1474752E+00
         21   -1    0    0  503  501  0.00000000000E+00  0.00000000000E+00  0.34352070233E+03  0.34352070233E+03  0.00000000000E+00 0. -1.
         21   -1    0    0  501  502 -0.00000000000E+00 -0.00000000000E+00 -0.37356244465E+02  0.37356244465E+02  0.00000000000E+00 0. -1.
         21    1    1    2  503  504 -0.15516212996E+01  0.24426753897E+02  0.33902240005E+03  0.33990478309E+03  0.00000000000E+00 0. -1.
         21    1    1    2  504  502  0.15516212996E+01 -0.24426753897E+02 -0.32857942179E+02  0.40972163707E+02  0.00000000000E+00 0. -1.
</event>
<event>
 4    1  0.1589319E+006  0.3036271E+02  0.7546771E-02  0.1416470E+00
         21   -1    0    0  504  501  0.00000000000E+00  0.00000000000E+00  0.64591905088E+02  0.64591905088E+02  0.00000000000E+00 0. -1.
         21   -1    0    0  503  502 -0.00000000000E+00 -0.00000000000E+00 -0.30751891864E+02  0.30751891864E+02  0.00000000000E+00 0.  1.
         21    1    1    2  503  501  0.21376839404E+02 -0.21562112617E+02  0.51817633496E+02  0.60057981190E+02  0.00000000000E+00 0. -1.
         21    1    1    2  504  502 -0.21376839404E+02  0.21562112617E+02 -0.17977620272E+02  0.35285815763E+02  0.00000000000E+00 0.  1.
</event>
<event>
 4    1  0.1589319E+006  0.2591251E+02  0.7546771E-02  0.1458849E+00
         21   -1    0    0  502  501  0.00000000000E+00  0.00000000000E+00  0.65582490933E+01  0.65582490933E+01  0.00000000000E+00 0.  1.
         21   -1    0    0  504  502 -0.00000000000E+00 -0.00000000000E+00 -0.11212289569E+03  0.11212289569E+03  0.00000000000E+00 0.  1.
         21    1    1    2  503  501  0.94002398639E+01  0.24147333765E+02 -0.35293335957E+02  0.43784447015E+02  0.00000000000E+00 0.  1.
         21    1    1    2  504  503 -0.94002398639E+01 -0.24147333765E+02 -0.70271310636E+02  0.74896697764E+02  0.00000000000E+00 0.  1.
</event>
<event>
 4    1  0.1589319E+006  0.2106972E+02  0.7546771E-02  0.1518272E+00
         21   -1    0    0  504  501  0.00000000000E+00  0.00000000000E+00  0.19029988142E+03  0.19029988142E+03  0.00000000000E+00 0.  1.
         21   -1    0    0  501  502 -0.00000000000E+00 -0.00000000000E+00 -0.30355039858E+02  0.30355039858E+02  0.00000000000E+00 0.  1.
         21    1    1    2  503  502  0.16415936768E+02 -0.13207953327E+02 -0.26030927341E+02  0.33489433995E+02  0.00000000000E+00 0.  1.
         21    1    1    2  504  503 -0.16415936768E+02  0.13207953327E+02  0.18597576890E+03  0.18716548728E+03  0.00000000000E+00 0.  1.
</event>
<event>
 4    1  0.1589319E+006  0.3003257E+02  0.7546771E-02  0.1419314E+00
         21   -1    0    0  503  501  0.00000000000E+00  0.00000000000E+00  0.18746428678E+02  0.18746428678E+02  0.00000000000E+00 0. -1.
         21   -1    0    0  501  502 -0.00000000000E+00 -0.00000000000E+00 -0.15135130292E+03  0.15135130292E+03  0.00000000000E+00 0.  1.
         21    1    1    2  503  504  0.29363389645E+02 -0.63044719019E+01  0.39392548921E+01  0.30289812586E+02  0.00000000000E+00 0. -1.
         21    1    1    2  504  502 -0.29363389645E+02  0.63044719019E+01 -0.13654412913E+03  0.13980791901E+03  0.00000000000E+00 0.  1.
</event>
<event>
 4    1  0.1589319E+006  0.2701324E+02  0.7546771E-02  0.1447475E+00
         21   -1    0    0  502  501  0.00000000000E+00  0.00000000000E+00  0.61432155073E+01  0.61432155073E+01  0.00000000000E+00 0.  1.
         21   -1    0    0  503  502 -0.00000000000E+00 -0.00000000000E+00 -0.13613282569E+03  0.13613282569E+03  0.00000000000E+00 0. -1.
         21    1    1    2  503  504  0.26951065485E+02  0.18317846793E+01 -0.90390265564E+02  0.94340423333E+02  0.00000000000E+00 0. -1.
         21    1    1    2  504  501 -0.26951065485E+02 -0.18317846793E+01 -0.39599344622E+02  0.47935617868E+02  0.00000000000E+00 0.  1.
</event>
<event>
 4    1  0.1589319E+006  0.2145754E+02  0.7546771E-02  0.1512832E+00
         21   -1    0    0  504  501  0.00000000000E+00  0.00000000000E+00  0.13343650743E+02  0.13343650743E+02  0.00000000000E+00 0. -1.
         21   -1    0    0  501  502 -0.00000000000E+00 -0.00000000000E+00 -0.65715045605E+02  0.65715045605E+02  0.00000000000E+00 0. -1.
         21    1    1    2  503  502  0.16957392149E+02  0.13148116791E+02 -0.53427299612E+02  0.57575189687E+02  0.00000000000E+00 0. -1.
         21    1    1    2  504  503 -0.16957392149E+02 -0.13148116791E+02  0.10559047501E+01  0.21483506662E+02  0.00000000000E+00 0. -1.
</event>
<event>
 4    1  0.1589319E+006  0.2789902E+02  0.7546771E-02  0.1438780E+00
         21   -1    0    0  502  501  0.00000000000E+00  0.00000000000E+00  0.33368598778E+02  0.33368598778E+02  0.00000000000E+00 0. -1.
         21   -1    0    0  503  502 -0.00000000000E+00 -0.00000000000E+00 -0.26458999097E+03  0.26458999097E+03  0.00000000000E+00 0. -1.
         21    1    1    2  503  504  0.15764460941E+02 -0.23018188363E+02 -0.25787157308E+03  0.25937637408E+03  0.00000000000E+00 0. -1.
         21    1    1    2  504  501 -0.15764460941E+02  0.23018188363E+02  0.26650180894E+02  0.38582215669E+02  0.00000000000E+00 0. -1.
</event>
<event>
 4    1  0.1589319E+006  0.2372944E+02  0.7546771E-02  0.1483536E+00
         21   -1    0    0  503  501  0.00000000000E+00  0.00000000000E+00  0.11323285918E+02  0.11323285918E+02  0.00000000000E+00 0. -1.
         21   -1    0    0  504  502 -0.00000000000E+00 -0.00000000000E+00 -0.16610814017E+03  0.16610814017E+03  0.00000000000E+00 0.  1.
         21    1    1    2  503  502  0.23685729351E+02 -0.14395785665E+01 -0.15165059520E+03  0.15349589306E+03  0.00000000000E+00 0.  1.
         21    1    1    2  504  501 -0.23685729351E+02  0.14395785665E+01 -0.31342590469E+01  0.23935533024E+02  0.00000000000E+00 0. -1.
</event>
<event>
 4    1  0.1589319E+006  0.2007149E+02  0.7546771E-02  0.1532946E+00
         21   -1    0    0  504  501  0.00000000000E+00  0.00000000000E+00  0.14945865408E+02  0.14945865408E+02  0.00000000000E+00 0.  1.
         21   -1    0    0  503  502 -0.00000000000E+00 -0.00000000000E+00 -0.89639236812E+02  0.89639236812E+02  0.00000000000E+00 0. -1.
         21    1    1    2  503  501  0.93874085372E+01 -0.17740946340E+02 -0.81075751619E+02  0.83523302836E+02  0.00000000000E+00 0. -1.
         21    1    1    2  504  502 -0.93874085372E+01  0.17740946340E+02  0.63823802158E+01  0.21061799384E+02  0.00000000000E+00 0.  1.
</event>
<event>
 4    1  0.1589319E+006  0.2471865E+02  0.7546771E-02  0.1471976E+00
         21   -1    0    0  504  501  0.00000000000E+00  0.00000000000E+00  0.14297878312E+02  0.14297878312E+02  0.00000000000E+00 0.  1.
         21   -1    0    0  503  502 -0.00000000000E+00 -0.00000000000E+00 -0.13632482230E+03  0.13632482230E+03  0.00000000000E+00 0.  1.
         21    1    1    2  503  501 -0.24319968067E+02 -0.44216263203E+01  0.13871052044E+01  0.24757537982E+02  0.00000000000E+00 0.  1.
         21    1    1    2  504  502  0.24319968067E+02  0.44216263203E+01 -0.12341404920E+03  0.12586516263E+03  0.00000000000E+00 0.  1.
</event>
<event>
 4    1  0.1589319E+006  0.3332453E+02  0.7546771E-02  0.1392741E+00
         21   -1    0    0  504  501  0.00000000000E+00  0.00000000000E+00  0.20459159671E+02  0.20459159671E+02  0.00000000000E+00 0.  1.
         21   -1    0    0  503  502 -0.00000000000E+00 -0.00000000000E+00 -0.55847687592E+02  0.55847687592E+02  0.00000000000E+00 0.  1.
         21    1    1    2  503  501 -0.29349656269E+02  0.15783589738E+02 -0.24086532071E+02  0.41117940797E+02  0.00000000000E+00 0.  1.
         21    1    1    2  504  502  0.29349656269E+02 -0.15783589738E+02 -0.11301995849E+02  0.35188906466E+02  0.00000000000E+00 0.  1.
</event>
<event>
 4    1  0.1589319E+006  0.3997021E+02  0.7546771E-02  0.1348660E+00
         21   -1    0    0  504  501  0.00000000000E+00  0.00000000000E+00  0.13457632289E+02  0.13457632289E+02  0.00000000000E+00 0. -1.
         21   -1    0    0  503  502 -0.00000000000E+00 -0.00000000000E+00 -0.19482766483E+03  0.19482766483E+03  0.00000000000E+00 0.  1.
         21    1    1    2  503  501  0.39665262470E+02 -0.49279269317E+01 -0.15577780747E+03  0.16082394975E+03  0.00000000000E+00 0.  1.
         21    1    1    2  504  502 -0.39665262470E+02  0.49279269317E+01 -0.25592225070E+02  0.47461347375E+02  0.00000000000E+00 0. -1.
</event>
<event>
 4    1  0.1589319E+006  0.2291527E+02  0.7546771E-02  0.1493565E+00
         21   -1    0    0  503  501  0.00000000000E+00  0.00000000000E+00  0.89602694773E+01  0.89602694773E+01  0.00000000000E+00 0.  1.
         21   -1    0    0  504  502 -0.00000000000E+00 -0.00000000000E+00 -0.20199913761E+03  0.20199913761E+03  0.00000000000E+00 0. -1.
         21    1    1    2  503  502  0.22864234887E+02 -0.15285844027E+01 -0.76482456297E+01  0.24157927652E+02  0.00000000000E+00 0.  1.
         21    1    1    2  504  501 -0.22864234887E+02  0.15285844027E+01 -0.18539062250E+03  0.18680147943E+03  0.00000000000E+00 0. -1.
</event>
<event>
 4    1  0.1589319E+006  0.4299174E+02  0.7546771E-02  0.1331793E+00
         21   -1    0    0  504  501  0.00000000000E+00  0.00000000000E+00  0.20963642836E+03  0.20963642836E+03  0.00000000000E+00 0. -1.
         21   -1    0    0  503  502 -0.00000000000E+00 -0.00000000000E+00 -0.35605410336E+02  0.35605410336E+02  0.00000000000E+00 0. -1.
         21    1    1    2  503  501  0.17957680407E+02  0.39061639208E+02  0.19337663352E+03  0.19809798670E+03  0.00000000000E+00 0. -1.
         21    1    1    2  504  502 -0.17957680407E+02 -0.39061639208E+02 -0.19345615487E+02  0.47143852004E+02  0.00000000000E+00 0. -1.
</event>
<event>
 4    1  0.1589319E+006  0.6111827E+02  0.7546771E-02  0.1256080E+00
         21   -1    0    0  504  501  0.00000000000E+00  0.00000000000E+00  0.85982364325E+03  0.85982364325E+03  0.00000000000E+00 0.  1.
         21   -1    0    0  503  502 -0.00000000000E+00 -0.00000000000E+00 -0.48187109405E+01  0.48187109405E+01  0.00000000000E+00 0. -1.
         21    1    1    2  503  501  0.60140709304E+02 -0.10887502735E+02  0.56313361502E+03  0.56644056264E+03  0.00000000000E+00 0.  1.
         21    1    1    2  504  502 -0.60140709304E+02  0.10887502735E+02  0.29187131729E+03  0.29820179156E+03  0.00000000000E+00 0. -1.
</event>
<event>
 4    1  0.1589319E+006  0.2131907E+02  0.7546771E-02  0.1514758E+00
         21   -1    0    0  502  501  0.00000000000E+00  0.00000000000E+00  0.27824191738E+02  0.27824191738E+02  0.00000000000E+00 0. -1.
         21   -1    0    0  504  502 -0.00000000000E+00 -0.00000000000E+00 -0.16336944898E+02  0.16336944898E+02  0.00000000000E+00 0. -1.
         21    1    1    2  503  501 -0.18258388640E+02 -0.11006095578E+02  0.59960158228E+01  0.22146220927E+02  0.00000000000E+00 0. -1.
         21    1    1    2  504  503  0.18258388640E+02  0.11006095578E+02  0.54912310176E+01  0.22014915709E+02  0.00000000000E+00 0. -1.
</event>
<event>
 4    1  0.1589319E+006  0.3440004E+02  0.7546771E-02  0.1384831E+00
         21   -1    0    0  504  501  0.00000000000E+00  0.00000000000E+00  0.53231972418E+02  0.53231972418E+02  0.00000000000E+00 0. -1.
         21   -1    0    0  503  502 -0.00000000000E+00 -0.00000000000E+00 -0.31172383825E+03  0.31172383825E+03  0.00000000000E+00 0. -1.
         21    1    1    2  503  501  0.24894649016E+02 -0.23740660041E+02  0.46605017498E+02  0.57925729558E+02  0.00000000000E+00 0. -1.
         21    1    1    2  504  502 -0.24894649016E+02  0.23740660041E+02 -0.30509688333E+03  0.30703008111E+03  0.00000000000E+00 0. -1.
</event>
<event>
 4    1  0.1589319E+006  0.3250873E+02  0.7546771E-02  0.1398978E+00
         21   -1    0    0  504  501  0.00000000000E+00  0.00000000000E+00  0.94097828493E+02  0.94097828493E+02  0.00000000000E+00 0.  1.
         21   -1    0    0  503  502 -0.00000000000E+00 -0.00000000000E+00 -0.80500281992E+02  0.80500281992E+02  0.00000000000E+00 0.  1.
         21    1    1    2  503  501 -0.24806311566E+02 -0.21011055593E+02  0.87779379683E+02  0.93605753285E+02  0.00000000000E+00 0.  1.
         21    1    1    2  504  502  0.24806311566E+02  0.21011055593E+02 -0.74181833182E+02  0.80992357200E+02  0.00000000000E+00 0.  1.
</event>
<event>
 4    1  0.1589319E+006  0.2571191E+02  0.7546771E-02  0.1460995E+00
         21   -1    0    0  503  501  0.00000000000E+00  0.00000000000E+00  0.41959206204E+01  0.41959206204E+01  0.00000000000E+00 0. -1.
         21   -1    0    0  504  502 -0.00000000000E+00 -0.00000000000E+00 -0.21424644423E+03  0.21424644423E+03  0.00000000000E+00 0. -1.
         21    1    1    2  503  502 -0.24551039812E+02 -0.76386228552E+01 -0.48843392268E+02  0.55197636573E+02  0.00000000000E+00 0. -1.
         21    1    1    2  504  501  0.24551039812E+02  0.76386228552E+01 -0.16120713135E+03  0.16324472828E+03  0.00000000000E+00 0. -1.
</event>
<event>
 4    1  0.1589319E+006  0.2156648E+02  0.7546771E-02  0.1511328E+00
         21   -1    0    0  504  501  0.00000000000E+00  0.00000000000E+00  0.35883140865E+01  0.35883140865E+01  0.00000000000E+00 0.  1.
         21   -1    0    0  503  502 -0.00000000000E+00 -0.00000000000E+00 -0.13134841503E+03  0.13134841503E+03  0.00000000000E+00 0.  1.
         21    1    1    2  503  501  0.16355009451E+02  0.14057982565E+02 -0.71622065710E+02  0.74798619670E+02  0.00000000000E+00 0.  1.
         21    1    1    2  504  502 -0.16355009451E+02 -0.14057982565E+02 -0.56138035234E+02  0.60138109447E+02  0.00000000000E+00 0.  1.
</event>
<event>
 4    1  0.1589319E+006  0.4017488E+02  0.7546771E-02  0.1347464E+00
         21   -1    0    0  503  501  0.00000000000E+00  0.00000000000E+00  0.10567118552E+03  0.10567118552E+03  0.00000000000E+00 0.  1.
         21   -1    0    0  504  502 -0.00000000000E+00 -0.00000000000E+00 -0.33573523029E+02  0.33573523029E+02  0.00000000000E+00 0.  1.
         21    1    1    2  503  502  0.38204611612E+02  0.12426922017E+02  0.87449673840E+02  0.96236511750E+02  0.00000000000E+00 0.  1.
         21    1    1    2  504  501 -0.38204611612E+02 -0.12426922017E+02 -0.15352011351E+02  0.43008196797E+02  0.00000000000E+00 0.  1.
</event>
<event>
 4    1  0.1589319E+006  0.2018751E+02  0.7546771E-02  0.1531188E+00
         21   -1    0    0  504  501  0.00000000000E+00  0.00000000000E+00  0.24420018351E+03  0.24420018351E+03  0.00000000000E+00 0. -1.
         21   -1    0    0  503  502 -0.00000000000E+00 -0.00000000000E+00 -0.55132900969E+01  0.55132900969E+01  0.00000000000E+00 0. -1.
         21    1    1    2  503  501  0.83158403299E+01  0.18395175238E+02  0.15082275546E+02  0.25199418804E+02  0.00000000000E+00 0. -1.
         21    1    1    2  504  502 -0.83158403299E+01 -0.18395175238E+02  0.22360461786E+03  0.22451405480E+03  0.00000000000E+00 0. -1.
</event>
<event>
 4    1  0.1589319E+006  0.2610237E+02  0.7546771E-02  0.1456839E+00
         21   -1    0    0  503  501  0.00000000000E+00  0.00000000000E+00  0.10166586445E+03  0.10166586445E+03  0.00000000000E+00 0. -1.
         21   -1    0    0  504  502 -0.00000000000E+00 -0.00000000000E+00 -0.67026571288E+01  0.67026571288E+01  0.00000000000E+00 0. -1.
         21    1    1    2  503  502  0.30212648129E+01 -0.25926931941E+02  0.46833170670E+02  0.53616039726E+02  0.00000000000E+00 0. -1.
         21    1    1    2  504  501 -0.30212648129E+01  0.25926931941E+02  0.48130036646E+02  0.54752481848E+02  0.00000000000E+00 0. -1.
</event>
<event>
 4    1  0.1589319E+006  0.2296697E+02  0.7546771E-02  0.1492913E+00
         21   -1    0    0  503  501  0.00000000000E+00  0.00000000000E+00  0.14116643414E+02  0.14116643414E+02  0.00000000000E+00 0.  1.
         21   -1    0    0  504  502 -0.00000000000E+00 -0.00000000000E+00 -0.14080357025E+04  0.14080357025E+04  0.00000000000E+00 0.  1.
         21    1    1    2  503  502  0.21625046868E+02  0.77355784477E+01  0.46180584464E+01  0.23426657674E+02  0.00000000000E+00 0.  1.
         21    1    1    2  504  501 -0.21625046868E+02 -0.77355784477E+01 -0.13985371176E+04  0.13987256883E+04  0.00000000000E+00 0.  1.
</event>
<event>
 4    1  0.1589319E+006  0.2549491E+02  0.7546771E-02  0.1463342E+00
         21   -1    0    0  502  501  0.00000000000E+00  0.00000000000E+00  0.21094474545E+03  0.21094474545E+03  0.00000000000E+00 0. -1.
         21   -1    0    0  504  502 -0.00000000000E+00 -0.00000000000E+00 -0.84777691785E+02  0.84777691785E+02  0.00000000000E+00 0. -1.
         21    1    1    2  503  501 -0.21268039832E+02 -0.14059188468E+02  0.20823279360E+03  0.20978771801E+03  0.00000000000E+00 0. -1.
         21    1    1    2  504  503  0.21268039832E+02  0.14059188468E+02 -0.82065739929E+02  0.85934719228E+02  0.00000000000E+00 0. -1.
</event>
<event>
 4    1  0.1589319E+006  0.2408955E+02  0.7546771E-02  0.1479252E+00
         21   -1    0    0  503  501  0.00000000000E+00  0.00000000000E+00  0.31963365564E+02  0.31963365564E+02  0.00000000000E+00 0. -1.
         21   -1    0    0  504  502 -0.00000000000E+00 -0.00000000000E+00 -0.85592732117E+03  0.85592732117E+03  0.00000000000E+00 0.  1.
         21    1    1    2  503  502  0.19003236217E+02 -0.14804845429E+02 -0.85119374867E+03  0.85153455844E+03  0.00000000000E+00 0.  1.
         21    1    1    2  504  501 -0.19003236217E+02  0.14804845429E+02  0.27229793061E+02  0.36356128301E+02  0.00000000000E+00 0. -1.
</event>
<event>
 4    1  0.1589319E+006  0.2890822E+02  0.7546771E-02  0.1429327E+00
         21   -1    0    0  504  501  0.00000000000E+00  0.00000000000E+00  0.33500257381E+02  0.33500257381E+02  0.00000000000E+00 0.  1.
         21   -1    0    0  503  502 -0.00000000000E+00 -0.00000000000E+00 -0.42870226640E+02  0.42870226640E+02  0.00000000000E+00 0.  1.
         21    1    1    2  503  501 -0.25660187824E+02 -0.13313157063E+02  0.20006216749E+02  0.35155854403E+02  0.00000000000E+00 0.  1.
         21    1    1    2  504  502  0.25660187824E+02  0.13313157063E+02 -0.29376186008E+02  0.41214629618E+02  0.00000000000E+00 0.  1.
</event>
<event>
 4    1  0.1589319E+006  0.2553613E+02  0.7546771E-02  0.1462894E+00
         21   -1    0    0  503  501  0.00000000000E+00  0.00000000000E+00  0.44799549862E+03  0.44799549862E+03  0.00000000000E+00 0. -1.
         21   -1    0    0  504  502 -0.00000000000E+00 -0.00000000000E+00 -0.28041402870E+01  0.28041402870E+01  0.00000000000E+00 0.  1.
         21    1    1    2  503  502 -0.21544191479E+01 -0.25445082976E+02  0.66284980103E+02  0.71033740974E+02  0.00000000000E+00 0.  1.
         21    1    1    2  504  501  0.21544191479E+01  0.25445082976E+02  0.37890637823E+03  0.37976589793E+03  0.00000000000E+00 0. -1.
</event>
<event>
 4    1  0.1589319E+006  0.2218853E+02  0.7546771E-02  0.1502947E+00
         21   -1    0    0  504  501  0.00000000000E+00  0.00000000000E+00  0.33333819159E+02  0.33333819159E+02  0.00000000000E+00 0.  1.
         21   -1    0    0  503  502 -0.00000000000E+00 -0.00000000000E+00 -0.17070066496E+02  0.17070066496E+02  0.00000000000E+00 0.  1.
         21    1    1    2  503  501  0.19562444638E+02  0.10470999510E+02 -0.11196489619E+01  0.22216765848E+02  0.00000000000E+00 0.  1.
         21    1    1    2  504  502 -0.19562444638E+02 -0.10470999510E+02  0.17383401625E+02  0.28187119807E+02  0.00000000000E+00 0.  1.
</event>
<event>
 4    1  0.1589319E+006  0.2109778E+02  0.7546771E-02  0.1517873E+00
         21   -1    0    0  504  501  0.00000000000E+00  0.00000000000E+00  0.30930405355E+02  0.30930405355E+02  0.00000000000E+00 0.  1.
         21   -1    0    0  503  502 -0.00000000000E+00 -0.00000000000E+00 -0.10939515057E+03  0.10939515057E+03  0.00000000000E+00 0. -1.
         21    1    1    2  503  501  0.37031043470E+01 -0.20770247039E+02  0.26152800148E+02  0.33601861547E+02  0.00000000000E+00 0.  1.
         21    1    1    2  504  502 -0.37031043470E+01  0.20770247039E+02 -0.10461754537E+03  0.10672369438E+03  0.00000000000E+00 0. -1.
</event>
<event>
 4    1  0.1589319E+006  0.2501472E+02  0.7546771E-02  0.1468639E+00
         21   -1    0    0  504  501  0.00000000000E+00  0.00000000000E+00  0.32777567208E+02  0.32777567208E+02  0.00000000000E+00 0.  1.
         21   -1    0    0  503  502 -0.00000000000E+00 -0.00000000000E+00 -0.21813454823E+02  0.21813454823E+02  0.00000000000E+00 0.  1.
         21    1    1    2  503  501 -0.24432296938E+02 -0.53664735242E+01 -0.41619813184E+01  0.25358593420E+02  0.00000000000E+00 0.  1.
         21    1    1    2  504  502  0.24432296938E+02  0.53664735242E+01  0.15126093704E+02  0.29232428611E+02  0.00000000000E+00 0.  1.
</event>
<event>
 4    1  0.1589319E+006  0.2685788E+02  0.7546771E-02  0.1449041E+00
         21   -1    0    0  502  501  0.00000000000E+00  0.00000000000E+00  0.93602186999E+01  0.93602186999E+01  0.00000000000E+00 0.  1.
         21   -1    0    0  504  502 -0.00000000000E+00 -0.00000000000E+00 -0.15685682680E+03  0.15685682680E+03  0.00000000000E+00 0.  1.
         21    1    1    2  503  501  0.17116009529E+02 -0.20697539172E+02 -0.14473126474E+02  0.30509298581E+02  0.00000000000E+00 0.  1.
         21    1    1    2  504  503 -0.17116009529E+02  0.20697539172E+02 -0.13302348163E+03  0.13570774692E+03  0.00000000000E+00 0.  1.
</event>
<event>
 4    1  0.1589319E+006  0.3499578E+02  0.7546771E-02  0.1380593E+00
         21   -1    0    0  503  501  0.00000000000E+00  0.00000000000E+00  0.90164827793E+03  0.90164827793E+03  0.00000000000E+00 0.  1.
         21   -1    0    0  504  502 -0.00000000000E+00 -0.00000000000E+00 -0.14168482721E+01  0.14168482721E+01  0.00000000000E+00 0.  1.
         21    1    1    2  503  502  0.17290383846E+02 -0.30426096043E+02  0.35832440573E+03  0.36002928275E+03  0.00000000000E+00 0.  1.
         21    1    1    2  504  501 -0.17290383846E+02  0.30426096043E+02  0.54190702393E+03  0.54303584345E+03  0.00000000000E+00 0.  1.
</event>
<event>
 4    1  0.1589319E+006  0.2450268E+02  0.7546771E-02  0.1474444E+00
         21   -1    0    0  504  501  0.00000000000E+00  0.00000000000E+00  0.36096290130E+03  0.36096290130E+03  0.00000000000E+00 0. -1.
         21   -1    0    0  503  502 -0.00000000000E+00 -0.00000000000E+00 -0.13526195211E+02  0.13526195211E+02  0.00000000000E+00 0. -1.
         21    1    1    2  503  501  0.14675136312E+02  0.19621965910E+02  0.34907293991E+03  0.34993184844E+03  0.00000000000E+00 0. -1.
         21    1    1    2  504  502 -0.14675136312E+02 -0.19621965910E+02 -0.16362338210E+01  0.24557248076E+02  0.00000000000E+00 0. -1.
</event>
<event>
 4    1  0.1589319E+006  0.2030156E+02  0.7546771E-02  0.1529475E+00
         21   -1    0    0  503  501  0.00000000000E+00  0.00000000000E+00  0.50295178293E+03  0.50295178293E+03  0.00000000000E+00 0. -1.
         21   -1    0    0  501  502 -0.00000000000E+00 -0.00000000000E+00 -0.67258874669E+02  0.67258874669E+02  0.00000000000E+00 0.  1.
         21    1    1    2  503  504 -0.64129288200E+01 -0.19262080630E+02  0.50120962625E+03  0.50162061646E+03  0.00000000000E+00 0. -1.
         21    1    1    2  504  502  0.64129288200E+01  0.19262080630E+02 -0.65516717996E+02  0.68590041138E+02  0.00000000000E+00 0.  1.
</event>
<event>
 4    1  0.1589319E+006  0.2221052E+02  0.7546771E-02  0.1502657E+00
         21   -1    0    0  504  501  0.00000000000E+00  0.00000000000E+00  0.11044510408E+04  0.11044510408E+04  0.00000000000E+00 0.  1.
         21   -1    0    0  501  502 -0.00000000000E+00 -0.00000000000E+00 -0.14960560796E+01  0.14960560796E+01  0.00000000000E+00 0.  1.
         21    1    1    2  503  502 -0.21559932762E+02 -0.53363182077E+01  0.88349030951E+02  0.91098069479E+02  0.00000000000E+00 0.  1.
         21    1    1    2  504  503  0.21559932762E+02  0.53363182077E+01  0.10146059538E+04  0.10148490274E+04  0.00000000000E+00 0.  1.
</event>
<event>
 4    1  0.1589319E+006  0.2008401E+02  0.7546771E-02  0.1532755E+00
         21   -1    0    0  503  501  0.00000000000E+00  0.00000000000E+00  0.39229380411E+01  0.39229380411E+01  0.00000000000E+00 0. -1.
         21   -1    0    0  504  502 -0.00000000000E+00 -0.00000000000E+00 -0.16101864248E+03  0.16101864248E+03  0.00000000000E+00 0.  1.
         21    1    1    2  503  502 -0.35641993777E+00 -0.20080849615E+02 -0.12812801825E+03  0.12969254649E+03  0.00000000000E+00 0.  1.
         21    1    1    2  504  501  0.35641993777E+00  0.20080849615E+02 -0.28967686190E+02  0.35249034025E+02  0.00000000000E+00 0. -1.
</event>
<event>
 4    1  0.1589319E+006  0.2735440E+02  0.7546771E-02  0.1444080E+00
         21   -1    0    0  504  501  0.00000000000E+00  0.00000000000E+00  0.15580756082E+03  0.15580756082E+03  0.00000000000E+00 0. -1.
         21   -1    0    0  503  502 -0.00000000000E+00 -0.00000000000E+00 -0.49978394542E+01  0.49978394542E+01  0.00000000000E+00 0. -1.
         21    1    1    2  503  501 -0.12796879113E+02  0.24176494309E+02  0.59508614568E+02  0.65494566186E+02  0.00000000000E+00 0. -1.
         21    1    1    2  504  502  0.12796879113E+02 -0.24176494309E+02  0.91301106798E+02  0.95310834089E+02  0.00000000000E+00 0. -1.
</event>
<event>
 4    1  0.1589319E+006  0.2062073E+02  0.7546771E-02  0.1524749E+00
         21   -1    0    0  502  501  0.00000000000E+00  0.00000000000E+00  0.10906337412E+03  0.10906337412E+03  0.00000000000E+00 0. -1.
         21   -1    0    0  503  502 -0.00000000000E+00 -0.00000000000E+00 -0.11399114015E+03  0.11399114015E+03  0.00000000000E+00 0.  1.
         21    1    1    2  503  504 -0.64886920413E+01  0.19573226981E+02 -0.11206729132E+03  0.11394863809E+03  0.00000000000E+00 0.  1.
         21    1    1    2  504  501  0.64886920413E+01 -0.19573226981E+02  0.10713952528E+03  0.10910587618E+03  0.00000000000E+00 0. -1.
</event>
<event>
 4    1  0.1589319E+006  0.3364537E+02  0.7546771E-02  0.1390345E+00
         21   -1    0    0  504  501  0.00000000000E+00  0.00000000000E+00  0.16601280558E+02  0.16601280558E+02  0.00000000000E+00 0. -1.
         21   -1    0    0  501  502 -0.00000000000E+00 -0.00000000000E+00 -0.27421599225E+03  0.27421599225E+03  0.00000000000E+00 0.  1.
         21    1    1    2  503  502  0.33157527863E+02 -0.57087000743E+01 -0.25484687862E+03  0.25705824720E+03  0.00000000000E+00 0.  1.
         21    1    1    2  504  503 -0.33157527863E+02  0.57087000743E+01 -0.27678330772E+01  0.33759025614E+02  0.00000000000E+00 0. -1.
</event>
<event>
 4    1  0.1589319E+006  0.2009348E+02  0.7546771E-02  0.1532612E+00
         21   -1    0    0  502  501  0.00000000000E+00  0.00000000000E+00  0.34981106806E+01  0.34981106806E+01  0.00000000000E+00 0. -1.
         21   -1    0    0  504  502 -0.00000000000E+00 -0.00000000000E+00 -0.63731609234E+03  0.63731609234E+03  0.00000000000E+00 0. -1.
         21    1    1    2  503  501 -0.74077105013E+01 -0.18678158413E+02 -0.26962933201E+02  0.33626589827E+02  0.00000000000E+00 0. -1.
         21    1    1    2  504  503  0.74077105013E+01  0.18678158413E+02 -0.60685504846E+03  0.60718761319E+03  0.00000000000E+00 0. -1.
</event>
<event>
 4    1  0.1589319E+006  0.2257098E+02  0.7546771E-02  0.1497957E+00
         21   -1    0    0  503  501  0.00000000000E+00  0.00000000000E+00  0.29749611105E+02  0.29749611105E+02  0.00000000000E+00 0. -1.
         21   -1    0    0  504  502 -0.00000000000E+00 -0.00000000000E+00 -0.18485809954E+02  0.18485809954E+02  0.00000000000E+00 0. -1.
         21    1    1    2  503  502 -0.22439614830E+02 -0.24316561528E+01  0.12176519359E+02  0.25645991676E+02  0.00000000000E+00 0. -1.
         21    1    1    2  504  501  0.22439614830E+02  0.24316561528E+01 -0.91271820828E+00  0.22589429383E+02  0.00000000000E+00 0. -1.
</event>
<event>
 4    1  0.1589319E+006  0.2355701E+02  0.7546771E-02  0.1485620E+00
         21   -1    0    0  504  501  0.00000000000E+00  0.00000000000E+00  0.12240790367E+03  0.12240790367E+03  0.00000000000E+00 0. -1.
         21   -1    0    0  501  502 -0.00000000000E+00 -0.00000000000E+00 -0.11568624142E+02  0.11568624142E+02  0.00000000000E+00 0. -1.
         21    1    1    2  503  502  0.99679538901E+01  0.21344150234E+02  0.31806702547E+01  0.23770770228E+02  0.00000000000E+00 0. -1.
         21    1    1    2  504  503 -0.99679538901E+01 -0.21344150234E+02  0.10765860928E+03  0.11020575759E+03  0.00000000000E+00 0. -1.
</event>
<event>
 4    1  0.1589319E+006  0.2066291E+02  0.7546771E-02  0.1524132E+00
         21   -1    0    0  503  501  0.00000000000E+00  0.00000000000E+00  0.18069070792E+03  0.18069070792E+03  0.00000000000E+00 0.  1.
         21   -1    0    0  501  502 -0.00000000000E+00 -0.00000000000E+00 -0.55284223964E+01  0.55284223964E+01  0.00000000000E+00 0.  1.
         21    1    1    2  503  504 -0.25103745405E+01 -0.20509849632E+02  0.15803677020E+03  0.15938185796E+03  0.00000000000E+00 0.  1.
         21    1    1    2  504  502  0.25103745405E+01  0.20509849632E+02  0.17125515322E+02  0.26837272352E+02  0.00000000000E+00 0.  1.
</event>
<event>
 4    1  0.1589319E+006  0.3280885E+02  0.7546771E-02  0.1396659E+00
         21   -1    0    0  503  501  0.00000000000E+00  0.00000000000E+00  0.76265924874E+02  0.76265924874E+02  0.00000000000E+00 0. -1.
         21   -1    0    0  504  502 -0.00000000000E+00 -0.00000000000E+00 -0.14119997456E+02  0.14119997456E+02  0.00000000000E+00 0. -1.
         21    1    1    2  503  502  0.28889729950E+01  0.32681408291E+02  0.32000949196E+02  0.45831008742E+02  0.00000000000E+00 0. -1.
         21    1    1    2  504  501 -0.28889729950E+01 -0.32681408291E+02  0.30144978222E+02  0.44554913588E+02  0.00000000000E+00 0. -1.
</event>
<event>
 4    1  0.1589319E+006  0.2178255E+02  0.7546771E-02  0.1508379E+00
         21   -1    0    0  503  501  0.00000000000E+00  0.00000000000E+00  0.21407228375E+01  0.21407228375E+01  0.00000000000E+00 0.  1.
         21   -1    0    0  504  502 -0.00000000000E+00 -0.00000000000E+00 -0.40341657870E+03  0.40341657870E+03  0.00000000000E+00 0.  1.
         21    1    1    2  503  502  0.21256993150E+02  0.47560338969E+01 -0.64522031310E+02  0.68099722031E+02  0.00000000000E+00 0.  1.
         21    1    1    2  504  501 -0.21256993150E+02 -0.47560338969E+01 -0.33675382456E+03  0.33745757951E+03  0.00000000000E+00 0.  1.
</event>
<event>
 4    1  0.1589319E+006  0.2082820E+02  0.7546771E-02  0.1521732E+00
         21   -1    0    0  504  501  0.00000000000E+00  0.00000000000E+00  0.26890741010E+02  0.26890741010E+02  0.00000000000E+00 0.  1.
         21   -1    0    0  503  502 -0.00000000000E+00 -0.00000000000E+00 -0.18268918952E+02  0.18268918952E+02  0.00000000000E+00 0.  1.
         21    1    1    2  503  501  0.20140767825E+02  0.53069145899E+01  0.12032581522E+02  0.24054041015E+02  0.00000000000E+00 0.  1.
         21    1    1    2  504  502 -0.20140767825E+02 -0.53069145899E+01 -0.34107594640E+01  0.21105618948E+02  0.00000000000E+00 0.  1.
</event>
<event>
 4    1  0.1589319E+006  0.2304408E+02  0.7546771E-02  0.1491945E+00
         21   -1    0    0  504  501  0.00000000000E+00  0.00000000000E+00  0.85452908909E+03  0.85452908909E+03  0.00000000000E+00 0. -1.
         21   -1    0    0  503  502 -0.00000000000E+00 -0.00000000000E+00 -0.33759625419E+01  0.33759625419E+01  0.00000000000E+00 0. -1.
         21    1    1    2  503  501 -0.22937946707E+02  0.22091616119E+01  0.81304327193E+03  0.81336977557E+03  0.00000000000E+00 0. -1.
         21    1    1    2  504  502  0.22937946707E+02 -0.22091616119E+01  0.38109854621E+02  0.44535276056E+02  0.00000000000E+00 0. -1.
</event>
<event>
 4    1  0.1589319E+006  0.3101008E+02  0.7546771E-02  0.1411017E+00
         21   -1    0    0  503  501  0.00000000000E+00  0.00000000000E+00  0.10544817396E+03  0.10544817396E+03  0.00000000000E+00 0. -1.
         21   -1    0    0  504  502 -0.00000000000E+00 -0.00000000000E+00 -0.10745728120E+02  0.10745728120E+02  0.00000000000E+00 0.  1.
         21    1    1    2  503  502 -0.30358441688E+02  0.63237849614E+01  0.69952763009E+02  0.76518065125E+02  0.00000000000E+00 0. -1.
         21    1    1    2  504  501  0.30358441688E+02 -0.63237849614E+01  0.24749682835E+02  0.39675836959E+02  0.00000000000E+00 0.  1.
</event>
<event>
 4    1  0.1589319E+006  0.2024235E+02  0.7546771E-02  0.1530363E+00
         21   -1    0    0  503  501  0.00000000000E+00  0.00000000000E+00  0.30530508102E+01  0.30530508102E+01  0.00000000000E+00 0. -1.
         21   -1    0    0  504  502 -0.00000000000E+00 -0.00000000000E+00 -0.13574656616E+03  0.13574656616E+03  0.00000000000E+00 0.  1.
         21    1    1    2  503  502 -0.76249546204E+01  0.18751343307E+02 -0.58965385983E+02  0.62343159632E+02  0.00000000000E+00 0. -1.
         21    1    1    2  504  501  0.76249546204E+01 -0.18751343307E+02 -0.73728129370E+02  0.76456457341E+02  0.00000000000E+00 0.  1.
</event>
<event>
 4    1  0.1589319E+006  0.2570605E+02  0.7546771E-02  0.1461058E+00
         21   -1    0    0  503  501  0.00000000000E+00  0.00000000000E+00  0.43606725123E+00  0.43606725123E+00  0.00000000000E+00 0. -1.
         21   -1    0    0  504  502 -0.00000000000E+00 -0.00000000000E+00 -0.15165849245E+04  0.15165849245E+04  0.00000000000E+00 0. -1.
         21    1    1    2  503  502 -0.11765378729E+01  0.25679115809E+02 -0.73656537769E+03  0.73701381048E+03  0.00000000000E+00 0. -1.
         21    1    1    2  504  501  0.11765378729E+01 -0.25679115809E+02 -0.77958347955E+03  0.78000718126E+03  0.00000000000E+00 0. -1.
</event>
<event>
 4    1  0.1589319E+006  0.2904185E+02  0.7546771E-02  0.1428109E+00
         21   -1    0    0  504  501  0.00000000000E+00  0.00000000000E+00  0.15383844414E+01  0.15383844414E+01  0.00000000000E+00 0. -1.
         21   -1    0    0  501  502 -0.00000000000E+00 -0.00000000000E+00 -0.12227824081E+04  0.12227824081E+04  0.00000000000E+00 0. -1.
         21    1    1    2  503  502 -0.12901700728E+02 -0.26018742520E+02 -0.10652854641E+04  0.10656812604E+04  0.00000000000E+00 0. -1.
         21    1    1    2  504  503  0.12901700728E+02  0.26018742520E+02 -0.15595855961E+03  0.15863953215E+03  0.00000000000E+00 0. -1.
</event>
<event>
 4    1  0.1589319E+006  0.2294808E+02  0.7546771E-02  0.1493151E+00
         21   -1    0    0  503  501  0.00000000000E+00  0.00000000000E+00  0.69339115597E+01  0.69339115597E+01  0.00000000000E+00 0. -1.
         21   -1    0    0  501  502 -0.00000000000E+00 -0.00000000000E+00 -0.13426683247E+03  0.13426683247E+03  0.00000000000E+00 0. -1.
         21    1    1    2  503  504  0.16544744595E+02  0.15902382919E+02 -0.17136970178E+02  0.28640707098E+02  0.00000000000E+00 0. -1.
         21    1    1    2  504  502 -0.16544744595E+02 -0.15902382919E+02 -0.11019595074E+03  0.11256003694E+03  0.00000000000E+00 0. -1.
</event>
<event>
 4    1  0.1589319E+006  0.2342828E+02  0.7546771E-02  0.1487189E+00
         21   -1    0    0  503  501  0.00000000000E+00  0.00000000000E+00  0.10909642444E+03  0.10909642444E+03  0.00000000000E+00 0. -1.
         21   -1    0    0  504  502 -0.00000000000E+00 -0.00000000000E+00 -0.19956596760E+03  0.19956596760E+03  0.00000000000E+00 0. -1.
         21    1    1    2  503  502 -0.18019132068E+02  0.14973147332E+02 -0.19760815571E+03  0.19899212915E+03  0.00000000000E+00 0. -1.
         21    1    1    2  504  501  0.18019132068E+02 -0.14973147332E+02  0.10713861255E+03  0.10967026288E+03  0.00000000000E+00 0. -1.
</event>
<event>
 4    1  0.1589319E+006  0.2280922E+02  0.7546771E-02  0.1494908E+00
         21   -1    0    0  504  501  0.00000000000E+00  0.00000000000E+00  0.27404388129E+01  0.27404388129E+01  0.00000000000E+00 0. -1.
         21   -1    0    0  503  502 -0.00000000000E+00 -0.00000000000E+00 -0.34251355740E+03  0.34251355740E+03  0.00000000000E+00 0.  1.
         21    1    1    2  503  501  0.22077336296E+02 -0.57316270463E+01 -0.54635813773E+02  0.59205848303E+02  0.00000000000E+00 0. -1.
         21    1    1    2  504  502 -0.22077336296E+02  0.57316270463E+01 -0.28513730481E+03  0.28604814791E+03  0.00000000000E+00 0.  1.
</event>
<event>
 4    1  0.1589319E+006  0.2039754E+02  0.7546771E-02  0.1528043E+00
         21   -1    0    0  504  501  0.00000000000E+00  0.00000000000E+00  0.41256701615E+02  0.41256701615E+02  0.00000000000E+00 0. -1.
         21   -1    0    0  501  502 -0.00000000000E+00 -0.00000000000E+00 -0.49596517128E+02  0.49596517128E+02  0.00000000000E+00 0.  1.
         21    1    1    2  503  502  0.20380869258E+02  0.82456626682E+00 -0.44715949481E+02  0.49148508413E+02  0.00000000000E+00 0.  1.
         21    1    1    2  504  503 -0.20380869258E+02 -0.82456626682E+00  0.36376133968E+02  0.41704710330E+02  0.00000000000E+00 0. -1.
</event>
<event>
 4    1  0.1589319E+006  0.2369302E+02  0.7546771E-02  0.1483974E+00
         21   -1    0    0  502  501  0.00000000000E+00  0.00000000000E+00  0.13391594953E+02  0.13391594953E+02  0.00000000000E+00 0.  1.
         21   -1    0    0  504  502 -0.00000000000E+00 -0.00000000000E+00 -0.81843601598E+02  0.81843601598E+02  0.00000000000E+00 0.  1.
         21    1    1    2  503  501  0.18739999733E+02 -0.14497299536E+02 -0.96796508007E+00  0.23712786429E+02  0.00000000000E+00 0.  1.
         21    1    1    2  504  503 -0.18739999733E+02  0.14497299536E+02 -0.67484041565E+02  0.71522410123E+02  0.00000000000E+00 0.  1.
</event>
<event>
 4    1  0.1589319E+006  0.2905099E+02  0.7546771E-02  0.1428026E+00
         21   -1    0    0  503  501  0.00000000000E+00  0.00000000000E+00  0.29159833113E+02  0.29159833113E+02  0.00000000000E+00 0. -1.
         21   -1    0    0  504  502 -0.00000000000E+00 -0.00000000000E+00 -0.64759699932E+02  0.64759699932E+02  0.00000000000E+00 0.  1.
         21    1    1    2  503  502 -0.94537452318E+01 -0.27469736692E+02  0.17123671636E+02  0.33722097550E+02  0.00000000000E+00 0. -1.
         21    1    1    2  504  501  0.94537452318E+01  0.27469736692E+02 -0.52723538456E+02  0.60197435495E+02  0.00000000000E+00 0.  1.
</event>
<event>
 4    1  0.1589319E+006  0.2553293E+02  0.7546771E-02  0.1462929E+00
         21   -1    0    0  503  501  0.00000000000E+00  0.00000000000E+00  0.82734000317E+00  0.82734000317E+00  0.00000000000E+00 0.  1.
         21   -1    0    0  504  502 -0.00000000000E+00 -0.00000000000E+00 -0.93199909673E+03  0.93199909673E+03  0.00000000000E+00 0. -1.
         21    1    1    2  503  502  0.23615654035E+02 -0.97072919692E+01 -0.64893009261E+03  0.64943221027E+03  0.00000000000E+00 0. -1.
         21    1    1    2  504  501 -0.23615654035E+02  0.97072919692E+01 -0.28224166411E+03  0.28339422646E+03  0.00000000000E+00 0.  1.
</event>
<event>
 4    1  0.1589319E+006  0.2869493E+02  0.7546771E-02  0.1431287E+00
         21   -1    0    0  503  501  0.00000000000E+00  0.00000000000E+00  0.66739162183E+03  0.66739162183E+03  0.00000000000E+00 0. -1.
         21   -1    0    0  501  502 -0.00000000000E+00 -0.00000000000E+00 -0.42764428246E+02  0.42764428246E+02  0.00000000000E+00 0.  1.
         21    1    1    2  503  504  0.18788292432E+02 -0.21688686639E+02  0.66223212267E+03  0.66285351576E+03  0.00000000000E+00 0. -1.
         21    1    1    2  504  502 -0.18788292432E+02  0.21688686639E+02 -0.37604929089E+02  0.47302534313E+02  0.00000000000E+00 0.  1.
</event>
<event>
 4    1  0.1589319E+006  0.2188515E+02  0.7546771E-02  0.1506993E+00
         21   -1    0    0  504  501  0.00000000000E+00  0.00000000000E+00  0.37630935304E+02  0.37630935304E+02  0.00000000000E+00 0. -1.
         21   -1    0    0  501  502 -0.00000000000E+00 -0.00000000000E+00 -0.28533858851E+02  0.28533858851E+02  0.00000000000E+00 0. -1.
         21    1    1    2  503  502  0.18264306845E+02 -0.12057156671E+02 -0.20073736896E+02  0.29697051107E+02  0.00000000000E+00 0. -1.
         21    1    1    2  504  503 -0.18264306845E+02  0.12057156671E+02  0.29170813349E+02  0.36467743047E+02  0.00000000000E+00 0. -1.
</event>
<event>
 4    1  0.1589319E+006  0.2220214E+02  0.7546771E-02  0.1502768E+00
         21   -1    0    0  502  501  0.00000000000E+00  0.00000000000E+00  0.35922411579E+02  0.35922411579E+02  0.00000000000E+00 0.  1.
         21   -1    0    0  504  502 -0.00000000000E+00 -0.00000000000E+00 -0.27427663996E+02  0.27427663996E+02  0.00000000000E+00 0.  1.
         21    1    1    2  503  501  0.21529488092E+02  0.54236569014E+01  0.26638164395E+02  0.34677466950E+02  0.00000000000E+00 0.  1.
         21    1    1    2  504  503 -0.21529488092E+02 -0.54236569014E+01 -0.18143416813E+02  0.28672608625E+02  0.00000000000E+00 0.  1.
</event>
<event>
 4    1  0.1589319E+006  0.2006632E+02  0.7546771E-02  0.1533024E+00
         21   -1    0    0  504  501  0.00000000000E+00  0.00000000000E+00  0.41142799221E+03  0.41142799221E+03  0.00000000000E+00 0. -1.
         21   -1    0    0  503  502 -0.00000000000E+00 -0.00000000000E+00 -0.39915580674E+02  0.39915580674E+02  0.00000000000E+00 0. -1.
         21    1    1    2  503  501  0.11572328294E+02 -0.16393239252E+02  0.40864422300E+03  0.40913660074E+03  0.00000000000E+00 0. -1.
         21    1    1    2  504  502 -0.11572328294E+02  0.16393239252E+02 -0.37131811461E+02  0.42206972145E+02  0.00000000000E+00 0. -1.
</event>
<event>
 4    1  0.1589319E+006  0.3909496E+02  0.7546771E-02  0.1353872E+00
         21   -1    0    0  504  501  0.00000000000E+00  0.00000000000E+00  0.40886672882E+02  0.40886672882E+02  0.00000000000E+00 0.  1.
         21   -1    0    0  503  502 -0.00000000000E+00 -0.00000000000E+00 -0.33983388493E+03  0.33983388493E+03  0.00000000000E+00 0. -1.
         21    1    1    2  503  501 -0.11780924249E+02 -0.37277688118E+02  0.30111909218E+02  0.49347170987E+02  0.00000000000E+00 0.  1.
         21    1    1    2  504  502  0.11780924249E+02  0.37277688118E+02 -0.32905912126E+03  0.33137338682E+03  0.00000000000E+00 0. -1.
</event>
<event>
 4    1  0.1589319E+006  0.2582724E+02  0.7546771E-02  0.1459758E+00
         21   -1    0    0  504  501  0.00000000000E+00  0.00000000000E+00  0.44773279338E+02  0.44773279338E+02  0.00000000000E+00 0. -1.
         21   -1    0    0  501  502 -0.00000000000E+00 -0.00000000000E+00 -0.15595241172E+02  0.15595241172E+02  0.00000000000E+00 0. -1.
         21    1    1    2  503  502  0.15195800213E+02 -0.20883821472E+02  0.20969867146E+02  0.33268328354E+02  0.00000000000E+00 0. -1.
         21    1    1    2  504  503 -0.15195800213E+02  0.20883821472E+02  0.82081710193E+01  0.27100192156E+02  0.00000000000E+00 0. -1.
</event>
<event>
 4    1  0.1589319E+006  0.2856293E+02  0.7546771E-02  0.1432510E+00
         21   -1    0    0  503  501  0.00000000000E+00  0.00000000000E+00  0.18532210760E+03  0.18532210760E+03  0.00000000000E+00 0.  1.
         21   -1    0    0  501  502 -0.00000000000E+00 -0.00000000000E+00 -0.52106463110E+02  0.52106463110E+02  0.00000000000E+00 0.  1.
         21    1    1    2  503  504  0.11226802620E+02 -0.26264039545E+02  0.18019659060E+03  0.18244629931E+03  0.00000000000E+00 0.  1.
         21    1    1    2  504  502 -0.11226802620E+02  0.26264039545E+02 -0.46980946110E+02  0.54982271394E+02  0.00000000000E+00 0.  1.
</event>
<event>
 4    1  0.1589319E+006  0.2008285E+02  0.7546771E-02  0.1532773E+00
         21   -1    0    0  504  501  0.00000000000E+00  0.00000000000E+00  0.70106792678E+01  0.70106792678E+01  0.00000000000E+00 0. -1.
         21   -1    0    0  503  502 -0.00000000000E+00 -0.00000000000E+00 -0.12839755075E+03  0.12839755075E+03  0.00000000000E+00 0. -1.
         21    1    1    2  503  501  0.89940458167E+00  0.20062703637E+02 -0.11099272884E+03  0.11279497711E+03  0.00000000000E+00 0. -1.
         21    1    1    2  504  502 -0.89940458167E+00 -0.20062703637E+02 -0.10394142642E+02  0.22613252908E+02  0.00000000000E+00 0. -1.
</event>
<event>
 4    1  0.1589319E+006  0.2130739E+02  0.7546771E-02  0.1514921E+00
         21   -1    0    0  504  501  0.00000000000E+00  0.00000000000E+00  0.81183923299E+01  0.81183923299E+01  0.00000000000E+00 0. -1.
         21   -1    0    0  503  502 -0.00000000000E+00 -0.00000000000E+00 -0.55961569034E+02  0.55961569034E+02  0.00000000000E+00 0. -1.
         21    1    1    2  503  501 -0.11962971203E+02  0.17632141061E+02 -0.24762424134E+02  0.32667762816E+02  0.00000000000E+00 0. -1.
         21    1    1    2  504  502  0.11962971203E+02 -0.17632141061E+02 -0.23080752570E+02  0.31412198547E+02  0.00000000000E+00 0. -1.
</event>
<event>
 4    1  0.1589319E+006  0.2613140E+02  0.7546771E-02  0.1456534E+00
         21   -1    0    0  504  501  0.00000000000E+00  0.00000000000E+00  0.16812473719E+01  0.16812473719E+01  0.00000000000E+00 0.  1.
         21   -1    0    0  503  502 -0.00000000000E+00 -0.00000000000E+00 -0.62109123400E+03  0.62109123400E+03  0.00000000000E+00 0.  1.
         21    1    1    2  503  501  0.23482983098E+02 -0.11462972922E+02 -0.49288353739E+03  0.49357576083E+03  0.00000000000E+00 0.  1.
         21    1    1    2  504  502 -0.23482983098E+02  0.11462972922E+02 -0.12652644924E+03  0.12919672055E+03  0.00000000000E+00 0.  1.
</event>
<event>
 4    1  0.1589319E+006  0.2077982E+02  0.7546771E-02  0.1522432E+00
         21   -1    0    0  503  501  0.00000000000E+00  0.00000000000E+00  0.61578271343E+01  0.61578271343E+01  0.00000000000E+00 0.  1.
         21   -1    0    0  504  502 -0.00000000000E+00 -0.00000000000E+00 -0.16641773733E+03  0.16641773733E+03  0.00000000000E+00 0.  1.
         21    1    1    2  503  502 -0.19172133363E+02 -0.80143684427E+01 -0.14492394912E+02  0.25334370123E+02  0.00000000000E+00 0.  1.
         21    1    1    2  504  501  0.19172133363E+02  0.80143684427E+01 -0.14576751528E+03  0.14724119434E+03  0.00000000000E+00 0.  1.
</event>
<event>
 4    1  0.1589319E+006  0.4663055E+02  0.7546771E-02  0.1313482E+00
         21   -1    0    0  503  501  0.00000000000E+00  0.00000000000E+00  0.25610905379E+04  0.25610905379E+04  0.00000000000E+00 0.  1.
         21   -1    0    0  504  502 -0.00000000000E+00 -0.00000000000E+00 -0.89772184997E+00  0.89772184997E+00  0.00000000000E+00 0.  1.
         21    1    1    2  503  502  0.19908209329E+02  0.42167187149E+02  0.15784724671E+04  0.15791610867E+04  0.00000000000E+00 0.  1.
         21    1    1    2  504  501 -0.19908209329E+02 -0.42167187149E+02  0.98172034903E+03  0.98282717309E+03  0.00000000000E+00 0.  1.
</event>
<event>
 4    1  0.1589319E+006  0.2481055E+02  0.7546771E-02  0.1470934E+00
         21   -1    0    0  504  501  0.00000000000E+00  0.00000000000E+00  0.17164524470E+03  0.17164524470E+03  0.00000000000E+00 0. -1.
         21   -1    0    0  503  502 -0.00000000000E+00 -0.00000000000E+00 -0.22162639458E+02  0.22162639458E+02  0.00000000000E+00 0.  1.
         21    1    1    2  503  501 -0.19761357507E+02 -0.15001729749E+02  0.16345921857E+03  0.16533142255E+03  0.00000000000E+00 0. -1.
         21    1    1    2  504  502  0.19761357507E+02  0.15001729749E+02 -0.13976613325E+02  0.28476461613E+02  0.00000000000E+00 0.  1.
</event>
<event>
 4    1  0.1589319E+006  0.2593676E+02  0.7546771E-02  0.1458591E+00
         21   -1    0    0  503  501  0.00000000000E+00  0.00000000000E+00  0.26961100656E+02  0.26961100656E+02  0.00000000000E+00 0.  1.
         21   -1    0    0  504  502 -0.00000000000E+00 -0.00000000000E+00 -0.12066386004E+03  0.12066386004E+03  0.00000000000E+00 0.  1.
         21    1    1    2  503  502  0.24937691182E+02 -0.71293151501E+01  0.18887995004E+02  0.32085385011E+02  0.00000000000E+00 0.  1.
         21    1    1    2  504  501 -0.24937691182E+02  0.71293151501E+01 -0.11259075439E+03  0.11553957569E+03  0.00000000000E+00 0.  1.
</event>
<event>
 4    1  0.1589319E+006  0.2154805E+02  0.7546771E-02  0.1511582E+00
         21   -1    0    0  503  501  0.00000000000E+00  0.00000000000E+00  0.14223726771E+01  0.14223726771E+01  0.00000000000E+00 0.  1.
         21   -1    0    0  504  502 -0.00000000000E+00 -0.00000000000E+00 -0.38523239807E+03  0.38523239807E+03  0.00000000000E+00 0.  1.
         21    1    1    2  503  502  0.16847701984E+02 -0.13434040193E+02 -0.26743070947E+03  0.26829741494E+03  0.00000000000E+00 0.  1.
         21    1    1    2  504  501 -0.16847701984E+02  0.13434040193E+02 -0.11637931593E+03  0.11835735581E+03  0.00000000000E+00 0.  1.
</event>
<event>
 4    1  0.1589319E+006  0.2914271E+02  0.7546771E-02  0.1427195E+00
         21   -1    0    0  504  501  0.00000000000E+00  0.00000000000E+00  0.15673534748E+02  0.15673534748E+02  0.00000000000E+00 0. -1.
         21   -1    0    0  503  502 -0.00000000000E+00 -0.00000000000E+00 -0.14106464298E+03  0.14106464298E+03  0.00000000000E+00 0.  1.
         21    1    1    2  503  501 -0.25105342084E+02 -0.14799293548E+02 -0.12419772547E+03  0.12757104806E+03  0.00000000000E+00 0.  1.
         21    1    1    2  504  502  0.25105342084E+02  0.14799293548E+02 -0.11933827603E+01  0.29167129669E+02  0.00000000000E+00 0. -1.
</event>
<event>
 4    1  0.1589319E+006  0.3913571E+02  0.7546771E-02  0.1353626E+00
         21   -1    0    0  502  501  0.00000000000E+00  0.00000000000E+00  0.31465877623E+02  0.31465877623E+02  0.00000000000E+00 0. -1.
         21   -1    0    0  503  502 -0.00000000000E+00 -0.00000000000E+00 -0.68533265721E+02  0.68533265721E+02  0.00000000000E+00 0. -1.
         21    1    1    2  503  504  0.30393954988E+02  0.24653831990E+02 -0.45448138297E+02  0.59976138641E+02  0.00000000000E+00 0. -1.
         21    1    1    2  504  501 -0.30393954988E+02 -0.24653831990E+02  0.83807501988E+01  0.40023004703E+02  0.00000000000E+00 0. -1.
</event>
<event>
 4    1  0.1589319E+006  0.2635804E+02  0.7546771E-02  0.1454165E+00
         21   -1    0    0  504  501  0.00000000000E+00  0.00000000000E+00  0.47163114018E+02  0.47163114018E+02  0.00000000000E+00 0.  1.
         21   -1    0    0  501  502 -0.00000000000E+00 -0.00000000000E+00 -0.27185110002E+02  0.27185110002E+02  0.00000000000E+00 0. -1.
         21    1    1    2  503  502  0.15852166179E+02 -0.21058375804E+02 -0.15172489632E+02  0.30413003891E+02  0.00000000000E+00 0. -1.
         21    1    1    2  504  503 -0.15852166179E+02  0.21058375804E+02  0.35150493648E+02  0.43935220128E+02  0.00000000000E+00 0.  1.
</event>
<event>
 4    1  0.1589319E+006  0.2024505E+02  0.7546771E-02  0.1530322E+00
         21   -1    0    0  503  501  0.00000000000E+00  0.00000000000E+00  0.10470516698E+02  0.10470516698E+02  0.00000000000E+00 0.  1.
         21   -1    0    0  504  502 -0.00000000000E+00 -0.00000000000E+00 -0.41471594529E+02  0.41471594529E+02  0.00000000000E+00 0.  1.
         21    1    1    2  503  502 -0.11002057257E+02 -0.16994615303E+02 -0.21652725743E+02  0.29642920661E+02  0.00000000000E+00 0.  1.
         21    1    1    2  504  501  0.11002057257E+02  0.16994615303E+02 -0.93483520873E+01  0.22299190567E+02  0.00000000000E+00 0.  1.
</event>
<event>
 4    1  0.1589319E+006  0.2797820E+02  0.7546771E-02  0.1438022E+00
         21   -1    0    0  502  501  0.00000000000E+00  0.00000000000E+00  0.61312165427E+03  0.61312165427E+03  0.00000000000E+00 0.  1.
         21   -1    0    0  503  502 -0.00000000000E+00 -0.00000000000E+00 -0.46875155812E+01  0.46875155812E+01  0.00000000000E+00 0. -1.
         21    1    1    2  503  504 -0.13456505659E+02 -0.24529617472E+02  0.40716621733E+02  0.49402661500E+02  0.00000000000E+00 0. -1.
         21    1    1    2  504  501  0.13456505659E+02  0.24529617472E+02  0.56771751695E+03  0.56840650835E+03  0.00000000000E+00 0.  1.
</event>
<event>
 4    1  0.1589319E+006  0.2042190E+02  0.7546771E-02  0.1527681E+00
         21   -1    0    0  503  501  0.00000000000E+00  0.00000000000E+00  0.78320486106E+01  0.78320486106E+01  0.00000000000E+00 0. -1.
         21   -1    0    0  504  502 -0.00000000000E+00 -0.00000000000E+00 -0.29553701904E+03  0.29553701904E+03  0.00000000000E+00 0.  1.
         21    1    1    2  503  502 -0.16701422954E+02  0.11752290280E+02 -0.28119365528E+03  0.28193425763E+03  0.00000000000E+00 0.  1.
         21    1    1    2  504  501  0.16701422954E+02 -0.11752290280E+02 -0.65113151441E+01  0.21434810016E+02  0.00000000000E+00 0. -1.
</event>
<event>
 4    1  0.1589319E+006  0.2673329E+02  0.7546771E-02  0.1450306E+00
         21   -1    0    0  504  501  0.00000000000E+00  0.00000000000E+00  0.70324682123E+02  0.70324682123E+02  0.00000000000E+00 0.  1.
         21   -1    0    0  501  502 -0.00000000000E+00 -0.00000000000E+00 -0.90159813951E+02  0.90159813951E+02  0.00000000000E+00 0.  1.
         21    1    1    2  503  502  0.10445016573E+02  0.24608339692E+02 -0.85502373402E+02  0.89584176120E+02  0.00000000000E+00 0.  1.
         21    1    1    2  504  503 -0.10445016573E+02 -0.24608339692E+02  0.65667241574E+02  0.70900319954E+02  0.00000000000E+00 0.  1.
</event>
<event>
 4    1  0.1589319E+006  0.2735472E+02  0.7546771E-02  0.1444077E+00
         21   -1    0    0  504  501  0.00000000000E+00  0.00000000000E+00  0.16793422571E+02  0.16793422571E+02  0.00000000000E+00 0. -1.
         21   -1    0    0  503  502 -0.00000000000E+00 -0.00000000000E+00 -0.53256065284E+02  0.53256065284E+02  0.00000000000E+00 0.  1.
         21    1    1    2  503  501 -0.23613007339E+02  0.13809646424E+02 -0.40765434388E+01  0.27656801268E+02  0.00000000000E+00 0. -1.
         21    1    1    2  504  502  0.23613007339E+02 -0.13809646424E+02 -0.32386099274E+02  0.42392686588E+02  0.00000000000E+00 0.  1.
</event>
<event>
 4    1  0.1589319E+006  0.2447880E+02  0.7546771E-02  0.1474719E+00
         21   -1    0    0  502  501  0.00000000000E+00  0.00000000000E+00  0.41622269485E+02  0.41622269485E+02  0.00000000000E+00 0.  1.
         21   -1    0    0  504  502 -0.00000000000E+00 -0.00000000000E+00 -0.84121716127E+02  0.84121716127E+02  0.00000000000E+00 0.  1.
         21    1    1    2  503  501  0.24286226468E+02  0.30644447479E+01  0.35990108878E+02  0.43525849270E+02  0.00000000000E+00 0.  1.
         21    1    1    2  504  503 -0.24286226468E+02 -0.30644447479E+01 -0.78489555520E+02  0.82218136341E+02  0.00000000000E+00 0.  1.
</event>
<event>
 4    1  0.1589319E+006  0.2605210E+02  0.7546771E-02  0.1457370E+00
         21   -1    0    0  502  501  0.00000000000E+00  0.00000000000E+00  0.17118175375E+03  0.17118175375E+03  0.00000000000E+00 0. -1.
         21   -1    0    0  504  502 -0.00000000000E+00 -0.00000000000E+00 -0.44055444390E+01  0.44055444390E+01  0.00000000000E+00 0.  1.
         21    1    1    2  503  501  0.10380461435E+02  0.23894723590E+02  0.11115497021E+03  0.11416715464E+03  0.00000000000E+00 0. -1.
         21    1    1    2  504  503 -0.10380461435E+02 -0.23894723590E+02  0.55621239098E+02  0.61420143551E+02  0.00000000000E+00 0.  1.
</event>
<event>
 4    1  0.1589319E+006  0.2021970E+02  0.7546771E-02  0.1530703E+00
         21   -1    0    0  503  501  0.00000000000E+00  0.00000000000E+00  0.28813311392E+02  0.28813311392E+02  0.00000000000E+00 0. -1.
         21   -1    0    0  504  502 -0.00000000000E+00 -0.00000000000E+00 -0.40107345856E+02  0.40107345856E+02  0.00000000000E+00 0. -1.
         21    1    1    2  503  502 -0.17701742526E+02  0.97716291351E+01 -0.33348934568E+02  0.38999844374E+02  0.00000000000E+00 0. -1.
         21    1    1    2  504  501  0.17701742526E+02 -0.97716291351E+01  0.22054900104E+02  0.29920812873E+02  0.00000000000E+00 0. -1.
</event>
<event>
 4    1  0.1589319E+006  0.3376875E+02  0.7546771E-02  0.1389432E+00
         21   -1    0    0  502  501  0.00000000000E+00  0.00000000000E+00  0.15327845916E+03  0.15327845916E+03  0.00000000000E+00 0.  1.
         21   -1    0    0  503  502 -0.00000000000E+00 -0.00000000000E+00 -0.44705108163E+02  0.44705108163E+02  0.00000000000E+00 0. -1.
         21    1    1    2  503  504  0.25629575031E+02  0.21987578442E+02 -0.36093704547E+02  0.49427565486E+02  0.00000000000E+00 0. -1.
         21    1    1    2  504  501 -0.25629575031E+02 -0.21987578442E+02  0.14466705554E+03  0.14855600183E+03  0.00000000000E+00 0.  1.
</event>
<event>
 4    1  0.1589319E+006  0.4893004E+02  0.7546771E-02  0.1302879E+00
         21   -1    0    0  503  501  0.00000000000E+00  0.00000000000E+00  0.33963464569E+02  0.33963464569E+02  0.00000000000E+00 0. -1.
         21   -1    0    0  504  502 -0.00000000000E+00 -0.00000000000E+00 -0.81534462629E+02  0.81534462629E+02  0.00000000000E+00 0. -1.
         21    1    1    2  503  502 -0.33685076414E+01  0.48813956446E+02 -0.25330736259E+01  0.48995567653E+02  0.00000000000E+00 0. -1.
         21    1    1    2  504  501  0.33685076414E+01 -0.48813956446E+02 -0.45037924434E+02  0.66502359544E+02  0.00000000000E+00 0. -1.
</event>
<event>
 4    1  0.1589319E+006  0.2003092E+02  0.7546771E-02  0.1533563E+00
         21   -1    0    0  502  501  0.00000000000E+00  0.00000000000E+00  0.14270032364E+03  0.14270032364E+03  0.00000000000E+00 0.  1.
         21   -1    0    0  503  502 -0.00000000000E+00 -0.00000000000E+00 -0.28120081331E+01  0.28120081331E+01  0.00000000000E+00 0.  1.
         21    1    1    2  503  504 -0.10200830275E+02 -0.17238936122E+02  0.70639135820E+02  0.73424283220E+02  0.00000000000E+00 0.  1.
         21    1    1    2  504  501  0.10200830275E+02  0.17238936122E+02  0.69249179686E+02  0.72088048553E+02  0.00000000000E+00 0.  1.
</event>
<event>
 4    1  0.1589319E+006  0.2440119E+02  0.7546771E-02  0.1475615E+00
         21   -1    0    0  504  501  0.00000000000E+00  0.00000000000E+00  0.57456628978E+03  0.57456628978E+03  0.00000000000E+00 0. -1.
         21   -1    0    0  503  502 -0.00000000000E+00 -0.00000000000E+00 -0.14228705260E+01  0.14228705260E+01  0.00000000000E+00 0. -1.
         21    1    1    2  503  501 -0.63006749358E+01  0.23573703382E+02  0.13645780222E+03  0.13862232787E+03  0.00000000000E+00 0. -1.
         21    1    1    2  504  502  0.63006749358E+01 -0.23573703382E+02  0.43668561703E+03  0.43736683244E+03  0.00000000000E+00 0. -1.
</event>
<event>
 4    1  0.1589319E+006  0.3216361E+02  0.7546771E-02  0.1401681E+00
         21   -1    0    0  502  501  0.00000000000E+00  0.00000000000E+00  0.32303125208E+01  0.32303125208E+01  0.00000000000E+00 0.  1.
         21   -1    0    0  504  502 -0.00000000000E+00 -0.00000000000E+00 -0.39107117516E+03  0.39107117516E+03  0.00000000000E+00 0. -1.
         21    1    1    2  503  501 -0.30963781513E+02 -0.87029855180E+01 -0.11002053154E+03  0.11462554289E+03  0.00000000000E+00 0.  1.
         21    1    1    2  504  503  0.30963781513E+02  0.87029855180E+01 -0.27782033110E+03  0.27967594479E+03  0.00000000000E+00 0. -1.
</event>
<event>
 4    1  0.1589319E+006  0.3185179E+02  0.7546771E-02  0.1404159E+00
         21   -1    0    0  504  501  0.00000000000E+00  0.00000000000E+00  0.75180982667E+02  0.75180982667E+02  0.00000000000E+00 0.  1.
         21   -1    0    0  503  502 -0.00000000000E+00 -0.00000000000E+00 -0.17285913053E+02  0.17285913053E+02  0.00000000000E+00 0.  1.
         21    1    1    2  503  501  0.24320377217E+02 -0.20568324260E+02  0.72951676229E+01  0.32676538702E+02  0.00000000000E+00 0.  1.
         21    1    1    2  504  502 -0.24320377217E+02  0.20568324260E+02  0.50599901991E+02  0.59790357018E+02  0.00000000000E+00 0.  1.
</event>
<event>
 4    1  0.1589319E+006  0.2444236E+02  0.7546771E-02  0.1475139E+00
         21   -1    0    0  504  501  0.00000000000E+00  0.00000000000E+00  0.29017083210E+03  0.29017083210E+03  0.00000000000E+00 0. -1.
         21   -1    0    0  501  502 -0.00000000000E+00 -0.00000000000E+00 -0.21676355417E+01  0.21676355417E+01  0.00000000000E+00 0. -1.
         21    1    1    2  503  502  0.18566744742E+02 -0.15896696757E+02  0.11126192102E+03  0.11391507383E+03  0.00000000000E+00 0. -1.
         21    1    1    2  504  503 -0.18566744742E+02  0.15896696757E+02  0.17674127555E+03  0.17842339381E+03  0.00000000000E+00 0. -1.
</event>
<event>
 4    1  0.1589319E+006  0.3708243E+02  0.7546771E-02  0.1366486E+00
         21   -1    0    0  502  501  0.00000000000E+00  0.00000000000E+00  0.11848777472E+03  0.11848777472E+03  0.00000000000E+00 0.  1.
         21   -1    0    0  504  502 -0.00000000000E+00 -0.00000000000E+00 -0.11733640666E+02  0.11733640666E+02  0.00000000000E+00 0.  1.
         21    1    1    2  503  501 -0.20021764838E+02  0.31212750963E+02  0.60181972917E+02  0.70689297309E+02  0.00000000000E+00 0.  1.
         21    1    1    2  504  503  0.20021764838E+02 -0.31212750963E+02  0.46572161141E+02  0.59532118081E+02  0.00000000000E+00 0.  1.
</event>
<event>
 4    1  0.1589319E+006  0.3391823E+02  0.7546771E-02  0.1388332E+00
         21   -1    0    0  504  501  0.00000000000E+00  0.00000000000E+00  0.12240176763E+02  0.12240176763E+02  0.00000000000E+00 0. -1.
         21   -1    0    0  503  502 -0.00000000000E+00 -0.00000000000E+00 -0.10150848888E+03  0.10150848888E+03  0.00000000000E+00 0. -1.
         21    1    1    2  503  501  0.30357431810E+02  0.15128535433E+02 -0.29154931367E+02  0.44726460552E+02  0.00000000000E+00 0. -1.
         21    1    1    2  504  502 -0.30357431810E+02 -0.15128535433E+02 -0.60113380750E+02  0.69022205091E+02  0.00000000000E+00 0. -1.
</event>
<event>
 4    1  0.1589319E+006  0.2198645E+02  0.7546771E-02  0.1505633E+00
         21   -1    0    0  504  501  0.00000000000E+00  0.00000000000E+00  0.86658232492E+02  0.86658232492E+02  0.00000000000E+00 0.  1.
         21   -1    0    0  503  502 -0.00000000000E+00 -0.00000000000E+00 -0.63476092341E+01  0.63476092341E+01  0.00000000000E+00 0. -1.
         21    1    1    2  503  501 -0.65284520158E+01  0.20994843609E+02  0.23965924235E+02  0.32523371110E+02  0.00000000000E+00 0. -1.
         21    1    1    2  504  502  0.65284520158E+01 -0.20994843609E+02  0.56344699023E+02  0.60482470616E+02  0.00000000000E+00 0.  1.
</event>
<event>
 4    1  0.1589319E+006  0.2142692E+02  0.7546771E-02  0.1513256E+00
         21   -1    0    0  503  501  0.00000000000E+00  0.00000000000E+00  0.65552105261E+03  0.65552105261E+03  0.00000000000E+00 0.  1.
         21   -1    0    0  504  502 -0.00000000000E+00 -0.00000000000E+00 -0.49771103065E+01  0.49771103065E+01  0.00000000000E+00 0.  1.
         21    1    1    2  503  502 -0.18351827011E+02 -0.11059993832E+02  0.19139793583E+02  0.28730553712E+02  0.00000000000E+00 0.  1.
         21    1    1    2  504  501  0.18351827011E+02  0.11059993832E+02  0.63140414872E+03  0.63176760921E+03  0.00000000000E+00 0.  1.
</event>
<event>
 4    1  0.1589319E+006  0.2498272E+02  0.7546771E-02  0.1468997E+00
         21   -1    0    0  503  501  0.00000000000E+00  0.00000000000E+00  0.79731058195E+02  0.79731058195E+02  0.00000000000E+00 0.  1.
         21   -1    0    0  504  502 -0.00000000000E+00 -0.00000000000E+00 -0.23734736735E+02  0.23734736735E+02  0.00000000000E+00 0. -1.
         21    1    1    2  503  502  0.19777869641E+02  0.15263431787E+02 -0.14352953424E+02  0.28812215282E+02  0.00000000000E+00 0. -1.
         21    1    1    2  504  501 -0.19777869641E+02 -0.15263431787E+02  0.70349274885E+02  0.74653579648E+02  0.00000000000E+00 0.  1.
</event>
<event>
 4    1  0.1589319E+006  0.2937772E+02  0.7546771E-02  0.1425082E+00
         21   -1    0    0  503  501  0.00000000000E+00  0.00000000000E+00  0.43654452019E+02  0.43654452019E+02  0.00000000000E+00 0. -1.
         21   -1    0    0  504  502 -0.00000000000E+00 -0.00000000000E+00 -0.19773040412E+02  0.19773040412E+02  0.00000000000E+00 0. -1.
         21    1    1    2  503  502 -0.15949298853E+02 -0.24671247434E+02  0.11550523048E+02  0.31566836498E+02  0.00000000000E+00 0. -1.
         21    1    1    2  504  501  0.15949298853E+02  0.24671247434E+02  0.12330888559E+02  0.31860655933E+02  0.00000000000E+00 0. -1.
</event>
<event>
 4    1  0.1589319E+006  0.2594099E+02  0.7546771E-02  0.1458546E+00
         21   -1    0    0  504  501  0.00000000000E+00  0.00000000000E+00  0.44293032360E+02  0.44293032360E+02  0.00000000000E+00 0. -1.
         21   -1    0    0  503  502 -0.00000000000E+00 -0.00000000000E+00 -0.16759729677E+02  0.16759729677E+02  0.00000000000E+00 0.  1.
         21    1    1    2  503  501  0.25817773277E+02  0.25254306301E+01  0.44326800687E+01  0.26316988229E+02  0.00000000000E+00 0.  1.
         21    1    1    2  504  502 -0.25817773277E+02 -0.25254306301E+01  0.23100622614E+02  0.34735773808E+02  0.00000000000E+00 0. -1.
</event>
<event>
 4    1  0.1589319E+006  0.2088090E+02  0.7546771E-02  0.1520972E+00
         21   -1    0    0  504  501  0.00000000000E+00  0.00000000000E+00  0.19023379286E+01  0.19023379286E+01  0.00000000000E+00 0. -1.
         21   -1    0    0  503  502 -0.00000000000E+00 -0.00000000000E+00 -0.81150075622E+03  0.81150075622E+03  0.00000000000E+00 0. -1.
         21    1    1    2  503  501 -0.14676524326E+01 -0.20829261813E+02 -0.74931232682E+03  0.74960321189E+03  0.00000000000E+00 0. -1.
         21    1    1    2  504  502  0.14676524326E+01  0.20829261813E+02 -0.60286091475E+02  0.63799882262E+02  0.00000000000E+00 0. -1.
</event>
<event>
 4    1  0.1589319E+006  0.2592642E+02  0.7546771E-02  0.1458701E+00
         21   -1    0    0  502  501  0.00000000000E+00  0.00000000000E+00  0.17188967374E+03  0.17188967374E+03  0.00000000000E+00 0.  1.
         21   -1    0    0  504  502 -0.00000000000E+00 -0.00000000000E+00 -0.20883921068E+02  0.20883921068E+02  0.00000000000E+00 0.  1.
         21    1    1    2  503  501 -0.14738147795E+02  0.21329934419E+02  0.16239809572E+03  0.16445461561E+03  0.00000000000E+00 0.  1.
         21    1    1    2  504  503  0.14738147795E+02 -0.21329934419E+02 -0.11392343045E+02  0.28318979198E+02  0.00000000000E+00 0.  1.
</event>
<event>
 4    1  0.1589319E+006  0.2833498E+02  0.7546771E-02  0.1434640E+00
         21   -1    0    0  503  501  0.00000000000E+00  0.00000000000E+00  0.86126635008E+02  0.86126635008E+02  0.00000000000E+00 0.  1.
         21   -1    0    0  504  502 -0.00000000000E+00 -0.00000000000E+00 -0.47325079255E+02  0.47325079255E+02  0.00000000000E+00 0.  1.
         21    1    1    2  503  502 -0.26303527871E+02 -0.10535437141E+02 -0.40393273186E+02  0.49340526274E+02  0.00000000000E+00 0.  1.
         21    1    1    2  504  501  0.26303527871E+02  0.10535437141E+02  0.79194828940E+02  0.84111187990E+02  0.00000000000E+00 0.  1.
</event>
<event>
 4    1  0.1589319E+006  0.2686294E+02  0.7546771E-02  0.1448990E+00
         21   -1    0    0  502  501  0.00000000000E+00  0.00000000000E+00  0.23531457912E+02  0.23531457912E+02  0.00000000000E+00 0.  1.
         21   -1    0    0  503  502 -0.00000000000E+00 -0.00000000000E+00 -0.21469282433E+03  0.21469282433E+03  0.00000000000E+00 0.  1.
         21    1    1    2  503  504 -0.24684523680E+02 -0.10596781585E+02 -0.20585839405E+03  0.20760369912E+03  0.00000000000E+00 0.  1.
         21    1    1    2  504  501  0.24684523680E+02  0.10596781585E+02  0.14697027632E+02  0.30620583118E+02  0.00000000000E+00 0.  1.
</event>
<event>
 4    1  0.1589319E+006  0.2898474E+02  0.7546771E-02  0.1428629E+00
         21   -1    0    0  503  501  0.00000000000E+00  0.00000000000E+00  0.64420910323E+03  0.64420910323E+03  0.00000000000E+00 0.  1.
         21   -1    0    0  504  502 -0.00000000000E+00 -0.00000000000E+00 -0.32069330014E+01  0.32069330014E+01  0.00000000000E+00 0.  1.
         21    1    1    2  503  502  0.18587038210E+02 -0.22240435554E+02  0.71151574985E+02  0.76828780974E+02  0.00000000000E+00 0.  1.
         21    1    1    2  504  501 -0.18587038210E+02  0.22240435554E+02  0.56985059524E+03  0.57058725526E+03  0.00000000000E+00 0.  1.
</event>
<event>
 4    1  0.1589319E+006  0.2040711E+02  0.7546771E-02  0.1527901E+00
         21   -1    0    0  503  501  0.00000000000E+00  0.00000000000E+00  0.99992691568E+02  0.99992691568E+02  0.00000000000E+00 0.  1.
         21   -1    0    0  501  502 -0.00000000000E+00 -0.00000000000E+00 -0.60135818519E+02  0.60135818519E+02  0.00000000000E+00 0. -1.
         21    1    1    2  503  504  0.20282111781E+02 -0.22552187048E+01  0.97170459431E+02  0.99290222358E+02  0.00000000000E+00 0.  1.
         21    1    1    2  504  502 -0.20282111781E+02  0.22552187048E+01 -0.57313586382E+02  0.60838287729E+02  0.00000000000E+00 0. -1.
</event>
<event>
 4    1  0.1589319E+006  0.2232023E+02  0.7546771E-02  0.1501215E+00
         21   -1    0    0  504  501  0.00000000000E+00  0.00000000000E+00  0.49223396996E+02  0.49223396996E+02  0.00000000000E+00 0. -1.
         21   -1    0    0  503  502 -0.00000000000E+00 -0.00000000000E+00 -0.20323143913E+02  0.20323143913E+02  0.00000000000E+00 0.  1.
         21    1    1    2  503  501 -0.21986916890E+02 -0.38429499008E+01  0.39087511756E+02  0.45011402484E+02  0.00000000000E+00 0. -1.
         21    1    1    2  504  502  0.21986916890E+02  0.38429499008E+01 -0.10187258674E+02  0.24535138425E+02  0.00000000000E+00 0.  1.
</event>
<event>
 4    1  0.1589319E+006  0.2886442E+02  0.7546771E-02  0.1429728E+00
         21   -1    0    0  504  501  0.00000000000E+00  0.00000000000E+00  0.23383626475E+02  0.23383626475E+02  0.00000000000E+00 0.  1.
         21   -1    0    0  503  502 -0.00000000000E+00 -0.00000000000E+00 -0.41271111551E+02  0.41271111551E+02  0.00000000000E+00 0.  1.
         21    1    1    2  503  501 -0.81196230585E+00  0.28853000690E+02 -0.20895607539E+02  0.35633991441E+02  0.00000000000E+00 0.  1.
         21    1    1    2  504  502  0.81196230585E+00 -0.28853000690E+02  0.30081224635E+01  0.29020746585E+02  0.00000000000E+00 0.  1.
</event>
<event>
 4    1  0.1589319E+006  0.2347807E+02  0.7546771E-02  0.1486581E+00
         21   -1    0    0  503  501  0.00000000000E+00  0.00000000000E+00  0.28633902061E+01  0.28633902061E+01  0.00000000000E+00 0. -1.
         21   -1    0    0  504  502 -0.00000000000E+00 -0.00000000000E+00 -0.19333880801E+03  0.19333880801E+03  0.00000000000E+00 0. -1.
         21    1    1    2  503  502 -0.45737570589E+01 -0.23028253133E+02 -0.10167637375E+03  0.10435183120E+03  0.00000000000E+00 0. -1.
         21    1    1    2  504  501  0.45737570589E+01  0.23028253133E+02 -0.88799044053E+02  0.91850367015E+02  0.00000000000E+00 0. -1.
</event>
<event>
 4    1  0.1589319E+006  0.4126087E+02  0.7546771E-02  0.1341251E+00
         21   -1    0    0  503  501  0.00000000000E+00  0.00000000000E+00  0.64402010302E+01  0.64402010302E+01  0.00000000000E+00 0. -1.
         21   -1    0    0  504  502 -0.00000000000E+00 -0.00000000000E+00 -0.52252759967E+03  0.52252759967E+03  0.00000000000E+00 0. -1.
         21    1    1    2  503  502 -0.40758718501E+02  0.64176468403E+01 -0.72132769124E+02  0.83099913997E+02  0.00000000000E+00 0. -1.
         21    1    1    2  504  501  0.40758718501E+02 -0.64176468403E+01 -0.44395462952E+03  0.44586788671E+03  0.00000000000E+00 0. -1.
</event>
<event>
 4    1  0.1589319E+006  0.3128186E+02  0.7546771E-02  0.1408775E+00
         21   -1    0    0  503  501  0.00000000000E+00  0.00000000000E+00  0.25497414630E+03  0.25497414630E+03  0.00000000000E+00 0. -1.
         21   -1    0    0  504  502 -0.00000000000E+00 -0.00000000000E+00 -0.44761778956E+01  0.44761778956E+01  0.00000000000E+00 0. -1.
         21    1    1    2  503  502  0.25751491211E+02  0.17759931899E+02  0.17423700109E+03  0.17702284324E+03  0.00000000000E+00 0. -1.
         21    1    1    2  504  501 -0.25751491211E+02 -0.17759931899E+02  0.76260967316E+02  0.82427480955E+02  0.00000000000E+00 0. -1.
</event>
<event>
 4    1  0.1589319E+006  0.3171500E+02  0.7546771E-02  0.1405256E+00
         21   -1    0    0  504  501  0.00000000000E+00  0.00000000000E+00  0.12573947867E+01  0.12573947867E+01  0.00000000000E+00 0. -1.
         21   -1    0    0  503  502 -0.00000000000E+00 -0.00000000000E+00 -0.82021331757E+03  0.82021331757E+03  0.00000000000E+00 0. -1.
         21    1    1    2  503  501  0.19864610679E+02  0.24723239801E+02 -0.34490466884E+03  0.34635974352E+03  0.00000000000E+00 0. -1.
         21    1    1    2  504  502 -0.19864610679E+02 -0.24723239801E+02 -0.47405125394E+03  0.47511096883E+03  0.00000000000E+00 0. -1.
</event>
<event>
 4    1  0.1589319E+006  0.4682997E+02  0.7546771E-02  0.1312534E+00
         21   -1    0    0  504  501  0.00000000000E+00  0.00000000000E+00  0.11594637650E+03  0.11594637650E+03  0.00000000000E+00 0. -1.
         21   -1    0    0  503  502 -0.00000000000E+00 -0.00000000000E+00 -0.20058471382E+02  0.20058471382E+02  0.00000000000E+00 0. -1.
         21    1    1    2  503  501  0.23001082689E+02 -0.40792110314E+02  0.31702737024E+02  0.56551831125E+02  0.00000000000E+00 0. -1.
         21    1    1    2  504  502 -0.23001082689E+02  0.40792110314E+02  0.64185168097E+02  0.79453016761E+02  0.00000000000E+00 0. -1.
</event>
<event>
 4    1  0.1589319E+006  0.2220098E+02  0.7546771E-02  0.1502783E+00
         21   -1    0    0  503  501  0.00000000000E+00  0.00000000000E+00  0.27995731855E+03  0.27995731855E+03  0.00000000000E+00 0.  1.
         21   -1    0    0  501  502 -0.00000000000E+00 -0.00000000000E+00 -0.20571793289E+02  0.20571793289E+02  0.00000000000E+00 0. -1.
         21    1    1    2  503  504  0.14864742913E+02  0.16490083434E+02  0.27338358747E+03  0.27428355643E+03  0.00000000000E+00 0.  1.
         21    1    1    2  504  502 -0.14864742913E+02 -0.16490083434E+02 -0.13998062199E+02  0.26245555412E+02  0.00000000000E+00 0. -1.
</event>
<event>
 4    1  0.1589319E+006  0.5208336E+02  0.7546771E-02  0.1289384E+00
         21   -1    0    0  503  501  0.00000000000E+00  0.00000000000E+00  0.10311176551E+03  0.10311176551E+03  0.00000000000E+00 0. -1.
         21   -1    0    0  504  502 -0.00000000000E+00 -0.00000000000E+00 -0.37588596227E+02  0.37588596227E+02  0.00000000000E+00 0. -1.
         21    1    1    2  503  502  0.13779789342E+02 -0.50227420292E+02  0.71300629653E+02  0.88297543185E+02  0.00000000000E+00 0. -1.
         21    1    1    2  504  501 -0.13779789342E+02  0.50227420292E+02 -0.57774603731E+01  0.52402818549E+02  0.00000000000E+00 0. -1.
</event>
<event>
 4    1  0.1589319E+006  0.2438268E+02  0.7546771E-02  0.1475829E+00
         21   -1    0    0  503  501  0.00000000000E+00  0.00000000000E+00  0.15649292985E+01  0.15649292985E+01  0.00000000000E+00 0.  1.
         21   -1    0    0  501  502 -0.00000000000E+00 -0.00000000000E+00 -0.76847035714E+03  0.76847035714E+03  0.00000000000E+00 0. -1.
         21    1    1    2  503  504 -0.21494767699E+02  0.11510431637E+02 -0.10967224455E+03  0.11234997240E+03  0.00000000000E+00 0.  1.
         21    1    1    2  504  502  0.21494767699E+02 -0.11510431637E+02 -0.65723318329E+03  0.65768531403E+03  0.00000000000E+00 0. -1.
</event>
<event>
 4    1  0.1589319E+006  0.2091419E+02  0.7546771E-02  0.1520494E+00
         21   -1    0    0  504  501  0.00000000000E+00  0.00000000000E+00  0.98976170407E+02  0.98976170407E+02  0.00000000000E+00 0. -1.
         21   -1    0    0  501  502 -0.00000000000E+00 -0.00000000000E+00 -0.14231470310E+02  0.14231470310E+02  0.00000000000E+00 0. -1.
         21    1    1    2  503  502 -0.65735757252E+01  0.19854254274E+02 -0.46282997443E+01  0.21420188354E+02  0.00000000000E+00 0. -1.
         21    1    1    2  504  503  0.65735757252E+01 -0.19854254274E+02  0.89372999841E+02  0.91787452363E+02  0.00000000000E+00 0. -1.
</event>
<event>
 4    1  0.1589319E+006  0.2031548E+02  0.7546771E-02  0.1529266E+00
         21   -1    0    0  504  501  0.00000000000E+00  0.00000000000E+00  0.27071903204E+03  0.27071903204E+03  0.00000000000E+00 0. -1.
         21   -1    0    0  501  502 -0.00000000000E+00 -0.00000000000E+00 -0.17015285665E+02  0.17015285665E+02  0.00000000000E+00 0. -1.
         21    1    1    2  503  502 -0.20189483124E+02 -0.22590692476E+01 -0.10418995169E+02  0.22831427529E+02  0.00000000000E+00 0. -1.
         21    1    1    2  504  503  0.20189483124E+02  0.22590692476E+01  0.26412274155E+03  0.26490289018E+03  0.00000000000E+00 0. -1.
</event>
<event>
 4    1  0.1589319E+006  0.3928509E+02  0.7546771E-02  0.1352727E+00
         21   -1    0    0  504  501  0.00000000000E+00  0.00000000000E+00  0.47832911416E+02  0.47832911416E+02  0.00000000000E+00 0. -1.
         21   -1    0    0  503  502 -0.00000000000E+00 -0.00000000000E+00 -0.40600445747E+02  0.40600445747E+02  0.00000000000E+00 0.  1.
         21    1    1    2  503  501 -0.12519568811E+02  0.37236794800E+02 -0.16418833864E+02  0.42578123439E+02  0.00000000000E+00 0.  1.
         21    1    1    2  504  502  0.12519568811E+02 -0.37236794800E+02  0.23651299533E+02  0.45855233723E+02  0.00000000000E+00 0. -1.
</event>
<event>
 4    1  0.1589319E+006  0.2152519E+02  0.7546771E-02  0.1511897E+00
         21   -1    0    0  502  501  0.00000000000E+00  0.00000000000E+00  0.63112728694E+01  0.63112728694E+01  0.00000000000E+00 0. -1.
         21   -1    0    0  504  502 -0.00000000000E+00 -0.00000000000E+00 -0.83168443240E+02  0.83168443240E+02  0.00000000000E+00 0. -1.
         21    1    1    2  503  501  0.18036126818E+02  0.11748690786E+02 -0.23106274989E+02  0.31579004887E+02  0.00000000000E+00 0. -1.
         21    1    1    2  504  503 -0.18036126818E+02 -0.11748690786E+02 -0.53750895382E+02  0.57900711223E+02  0.00000000000E+00 0. -1.
</event>
<event>
 4    1  0.1589319E+006  0.3602210E+02  0.7546771E-02  0.1373517E+00
         21   -1    0    0  503  501  0.00000000000E+00  0.00000000000E+00  0.15202822465E+02  0.15202822465E+02  0.00000000000E+00 0.  1.
         21   -1    0    0  504  502 -0.00000000000E+00 -0.00000000000E+00 -0.10650648741E+03  0.10650648741E+03  0.00000000000E+00 0.  1.
         21    1    1    2  503  502 -0.59802562163E+00 -0.36017133068E+02 -0.18530758242E+02  0.40509017639E+02  0.00000000000E+00 0.  1.
         21    1    1    2  504  501  0.59802562163E+00  0.36017133068E+02 -0.72772906705E+02  0.81200292237E+02  0.00000000000E+00 0.  1.
</event>
<event>
 4    1  0.1589319E+006  0.4442974E+02  0.7546771E-02  0.1324316E+00
         21   -1    0    0  503  501  0.00000000000E+00  0.00000000000E+00  0.62790835016E+01  0.62790835016E+01  0.00000000000E+00 0. -1.
         21   -1    0    0  504  502 -0.00000000000E+00 -0.00000000000E+00 -0.91810320547E+03  0.91810320547E+03  0.00000000000E+00 0.  1.
         21    1    1    2  503  502  0.36395868700E+02  0.25482198428E+02 -0.83070875592E+03  0.83189605051E+03  0.00000000000E+00 0.  1.
         21    1    1    2  504  501 -0.36395868700E+02 -0.25482198428E+02 -0.81115366045E+02  0.92486238457E+02  0.00000000000E+00 0. -1.
</event>
<event>
 4    1  0.1589319E+006  0.2098189E+02  0.7546771E-02  0.1519523E+00
         21   -1    0    0  502  501  0.00000000000E+00  0.00000000000E+00  0.28465279657E+03  0.28465279657E+03  0.00000000000E+00 0. -1.
         21   -1    0    0  504  502 -0.00000000000E+00 -0.00000000000E+00 -0.15706228421E+02  0.15706228421E+02  0.00000000000E+00 0.  1.
         21    1    1    2  503  501 -0.16517258322E+02  0.12939091240E+02  0.27706716375E+03  0.27786049221E+03  0.00000000000E+00 0. -1.
         21    1    1    2  504  503  0.16517258322E+02 -0.12939091240E+02 -0.81205955954E+01  0.22498532784E+02  0.00000000000E+00 0.  1.
</event>
<event>
 4    1  0.1589319E+006  0.2175546E+02  0.7546771E-02  0.1508746E+00
         21   -1    0    0  504  501  0.00000000000E+00  0.00000000000E+00  0.27472887994E+01  0.27472887994E+01  0.00000000000E+00 0.  1.
         21   -1    0    0  503  502 -0.00000000000E+00 -0.00000000000E+00 -0.73857610942E+03  0.73857610942E+03  0.00000000000E+00 0.  1.
         21    1    1    2  503  501  0.83222984766E+01  0.20100734595E+02 -0.43348984721E+02  0.48501903669E+02  0.00000000000E+00 0.  1.
         21    1    1    2  504  502 -0.83222984766E+01 -0.20100734595E+02 -0.69247983590E+03  0.69282149455E+03  0.00000000000E+00 0.  1.
</event>
<event>
 4    1  0.1589319E+006  0.2467112E+02  0.7546771E-02  0.1472516E+00
         21   -1    0    0  503  501  0.00000000000E+00  0.00000000000E+00  0.42905620270E+01  0.42905620270E+01  0.00000000000E+00 0.  1.
         21   -1    0    0  504  502 -0.00000000000E+00 -0.00000000000E+00 -0.20036202754E+03  0.20036202754E+03  0.00000000000E+00 0.  1.
         21    1    1    2  503  502 -0.16696994252E+02 -0.18162446439E+02 -0.42743934127E+02  0.49352892340E+02  0.00000000000E+00 0.  1.
         21    1    1    2  504  501  0.16696994252E+02  0.18162446439E+02 -0.15332753139E+03  0.15529969723E+03  0.00000000000E+00 0.  1.
</event>
<event>
 4    1  0.1589319E+006  0.2747522E+02  0.7546771E-02  0.1442892E+00
         21   -1    0    0  503  501  0.00000000000E+00  0.00000000000E+00  0.26611635085E+01  0.26611635085E+01  0.00000000000E+00 0. -1.
         21   -1    0    0  504  502 -0.00000000000E+00 -0.00000000000E+00 -0.29412984931E+03  0.29412984931E+03  0.00000000000E+00 0. -1.
         21    1    1    2  503  502 -0.27171167231E+02 -0.40761888323E+01 -0.17372092491E+03  0.17588020751E+03  0.00000000000E+00 0. -1.
         21    1    1    2  504  501  0.27171167231E+02  0.40761888323E+01 -0.11774776089E+03  0.12091080531E+03  0.00000000000E+00 0. -1.
</event>
<event>
 4    1  0.1589319E+006  0.2238992E+02  0.7546771E-02  0.1500304E+00
         21   -1    0    0  503  501  0.00000000000E+00  0.00000000000E+00  0.20387787888E+01  0.20387787888E+01  0.00000000000E+00 0. -1.
         21   -1    0    0  504  502 -0.00000000000E+00 -0.00000000000E+00 -0.27173206214E+03  0.27173206214E+03  0.00000000000E+00 0. -1.
         21    1    1    2  503  502  0.23858525804E+00  0.22388643869E+02 -0.17706285374E+03  0.17847286201E+03  0.00000000000E+00 0. -1.
         21    1    1    2  504  501 -0.23858525804E+00 -0.22388643869E+02 -0.92630429606E+02  0.95297978920E+02  0.00000000000E+00 0. -1.
</event>
<event>
 4    1  0.1589319E+006  0.2139224E+02  0.7546771E-02  0.1513738E+00
         21   -1    0    0  504  501  0.00000000000E+00  0.00000000000E+00  0.58882931022E+01  0.58882931022E+01  0.00000000000E+00 0.  1.
         21   -1    0    0  501  502 -0.00000000000E+00 -0.00000000000E+00 -0.80236304753E+02  0.80236304753E+02  0.00000000000E+00 0.  1.
         21    1    1    2  503  502  0.16438755110E+02  0.13689233730E+02 -0.44802608678E+02  0.49647774714E+02  0.00000000000E+00 0.  1.
         21    1    1    2  504  503 -0.16438755110E+02 -0.13689233730E+02 -0.29545402973E+02  0.36476823142E+02  0.00000000000E+00 0.  1.
</event>
<event>
 4    1  0.1589319E+006  0.3637490E+02  0.7546771E-02  0.1371147E+00
         21   -1    0    0  502  501  0.00000000000E+00  0.00000000000E+00  0.34484130137E+01  0.34484130137E+01  0.00000000000E+00 0. -1.
         21   -1    0    0  504  502 -0.00000000000E+00 -0.00000000000E+00 -0.51804686041E+03  0.51804686041E+03  0.00000000000E+00 0. -1.
         21    1    1    2  503  501 -0.36208045198E+02  0.34800949436E+01 -0.12451081911E+03  0.12971537177E+03  0.00000000000E+00 0. -1.
         21    1    1    2  504  503  0.36208045198E+02 -0.34800949436E+01 -0.39008762829E+03  0.39177990166E+03  0.00000000000E+00 0. -1.
</event>
<event>
 4    1  0.1589319E+006  0.2551853E+02  0.7546771E-02  0.1463085E+00
         21   -1    0    0  503  501  0.00000000000E+00  0.00000000000E+00  0.20552514323E+03  0.20552514323E+03  0.00000000000E+00 0. -1.
         21   -1    0    0  504  502 -0.00000000000E+00 -0.00000000000E+00 -0.75707793792E+01  0.75707793792E+01  0.00000000000E+00 0.  1.
         21    1    1    2  503  502 -0.10847558393E+02 -0.23098176395E+02  0.18022586360E+03  0.18202350724E+03  0.00000000000E+00 0. -1.
         21    1    1    2  504  501  0.10847558393E+02  0.23098176395E+02  0.17728500245E+02  0.31072415368E+02  0.00000000000E+00 0.  1.
</event>
<event>
 4    1  0.1589319E+006  0.2875904E+02  0.7546771E-02  0.1430696E+00
         21   -1    0    0  504  501  0.00000000000E+00  0.00000000000E+00  0.25542787452E+03  0.25542787452E+03  0.00000000000E+00 0. -1.
         21   -1    0    0  503  502 -0.00000000000E+00 -0.00000000000E+00 -0.14961483307E+02  0.14961483307E+02  0.00000000000E+00 0. -1.
         21    1    1    2  503  501 -0.21678673826E+02  0.18897559564E+02  0.23990727221E+03  0.24162487851E+03  0.00000000000E+00 0. -1.
         21    1    1    2  504  502  0.21678673826E+02 -0.18897559564E+02  0.55911900392E+00  0.28764479317E+02  0.00000000000E+00 0. -1.
</event>
<event>
 4    1  0.1589319E+006  0.3036655E+02  0.7546771E-02  0.1416437E+00
         21   -1    0    0  504  501  0.00000000000E+00  0.00000000000E+00  0.32809781163E+03  0.32809781163E+03  0.00000000000E+00 0.  1.
         21   -1    0    0  503  502 -0.00000000000E+00 -0.00000000000E+00 -0.85850951345E+01  0.85850951345E+01  0.00000000000E+00 0. -1.
         21    1    1    2  503  501  0.30229923317E+02 -0.28773202245E+01  0.21693032339E+02  0.37319095480E+02  0.00000000000E+00 0. -1.
         21    1    1    2  504  502 -0.30229923317E+02  0.28773202245E+01  0.29781968416E+03  0.29936381128E+03  0.00000000000E+00 0.  1.
</event>
<event>
 4    1  0.1589319E+006  0.2292237E+02  0.7546771E-02  0.1493475E+00
         21   -1    0    0  504  501  0.00000000000E+00  0.00000000000E+00  0.67769370326E+01  0.67769370326E+01  0.00000000000E+00 0. -1.
         21   -1    0    0  501  502 -0.00000000000E+00 -0.00000000000E+00 -0.10739178584E+03  0.10739178584E+03  0.00000000000E+00 0.  1.
         21    1    1    2  503  502 -0.35039429419E+01  0.22652983100E+02 -0.80407581318E+02  0.83611090131E+02  0.00000000000E+00 0.  1.
         21    1    1    2  504  503  0.35039429419E+01 -0.22652983100E+02 -0.20207267494E+02  0.30557632746E+02  0.00000000000E+00 0. -1.
</event>
<event>
 4    1  0.1589319E+006  0.5167187E+02  0.7546771E-02  0.1291082E+00
         21   -1    0    0  503  501  0.00000000000E+00  0.00000000000E+00  0.30601384879E+03  0.30601384879E+03  0.00000000000E+00 0. -1.
         21   -1    0    0  504  502 -0.00000000000E+00 -0.00000000000E+00 -0.87685587658E+01  0.87685587658E+01  0.00000000000E+00 0. -1.
         21    1    1    2  503  502 -0.51313339008E+02 -0.60764849597E+01  0.13753434176E+03  0.14692065067E+03  0.00000000000E+00 0. -1.
         21    1    1    2  504  501  0.51313339008E+02  0.60764849597E+01  0.15971094827E+03  0.16786175689E+03  0.00000000000E+00 0. -1.
</event>
<event>
 4    1  0.1589319E+006  0.2145553E+02  0.7546771E-02  0.1512859E+00
         21   -1    0    0  504  501  0.00000000000E+00  0.00000000000E+00  0.69105904376E+01  0.69105904376E+01  0.00000000000E+00 0. -1.
         21   -1    0    0  501  502 -0.00000000000E+00 -0.00000000000E+00 -0.78168545390E+03  0.78168545390E+03  0.00000000000E+00 0.  1.
         21    1    1    2  503  502 -0.20459350121E+02  0.64617782662E+01 -0.76451077316E+03  0.76481178199E+03  0.00000000000E+00 0.  1.
         21    1    1    2  504  503  0.20459350121E+02 -0.64617782662E+01 -0.10264090297E+02  0.23784262347E+02  0.00000000000E+00 0. -1.
</event>
<event>
 4    1  0.1589319E+006  0.2859741E+02  0.7546771E-02  0.1432190E+00
         21   -1    0    0  504  501  0.00000000000E+00  0.00000000000E+00  0.26609827648E+02  0.26609827648E+02  0.00000000000E+00 0.  1.
         21   -1    0    0  503  502 -0.00000000000E+00 -0.00000000000E+00 -0.11820431649E+03  0.11820431649E+03  0.00000000000E+00 0.  1.
         21    1    1    2  503  501 -0.27685907454E+02 -0.71625538638E+01  0.16489559572E+02  0.33010865246E+02  0.00000000000E+00 0.  1.
         21    1    1    2  504  502  0.27685907454E+02  0.71625538638E+01 -0.10808404841E+03  0.11180327889E+03  0.00000000000E+00 0.  1.
</event>
<event>
 4    1  0.1589319E+006  0.2883694E+02  0.7546771E-02  0.1429980E+00
         21   -1    0    0  504  501  0.00000000000E+00  0.00000000000E+00  0.33252222408E+03  0.33252222408E+03  0.00000000000E+00 0. -1.
         21   -1    0    0  503  502 -0.00000000000E+00 -0.00000000000E+00 -0.87124829076E+02  0.87124829076E+02  0.00000000000E+00 0.  1.
         21    1    1    2  503  501 -0.27451579153E+02 -0.88306213979E+01 -0.84091563484E+02  0.88898594598E+02  0.00000000000E+00 0.  1.
         21    1    1    2  504  502  0.27451579153E+02  0.88306213979E+01  0.32948895849E+03  0.33074845856E+03  0.00000000000E+00 0. -1.
</event>
<event>
 4    1  0.1589319E+006  0.2485418E+02  0.7546771E-02  0.1470441E+00
         21   -1    0    0  503  501  0.00000000000E+00  0.00000000000E+00  0.20483612873E+01  0.20483612873E+01  0.00000000000E+00 0. -1.
         21   -1    0    0  504  502 -0.00000000000E+00 -0.00000000000E+00 -0.69426594414E+03  0.69426594414E+03  0.00000000000E+00 0. -1.
         21    1    1    2  503  502 -0.19363211663E+02  0.15581925527E+02 -0.84266999785E+02  0.87855891218E+02  0.00000000000E+00 0. -1.
         21    1    1    2  504  501  0.19363211663E+02 -0.15581925527E+02 -0.60795058306E+03  0.60845841421E+03  0.00000000000E+00 0. -1.
</event>
<event>
 4    1  0.1589319E+006  0.2380316E+02  0.7546771E-02  0.1482652E+00
         21   -1    0    0  503  501  0.00000000000E+00  0.00000000000E+00  0.67058951337E+03  0.67058951337E+03  0.00000000000E+00 0.  1.
         21   -1    0    0  501  502 -0.00000000000E+00 -0.00000000000E+00 -0.63218005956E+03  0.63218005956E+03  0.00000000000E+00 0. -1.
         21    1    1    2  503  504  0.11525097362E+02 -0.20826962137E+02  0.67015407738E+03  0.67057667545E+03  0.00000000000E+00 0.  1.
         21    1    1    2  504  502 -0.11525097362E+02  0.20826962137E+02 -0.63174462357E+03  0.63219289748E+03  0.00000000000E+00 0. -1.
</event>
<event>
 4    1  0.1589319E+006  0.2409255E+02  0.7546771E-02  0.1479216E+00
         21   -1    0    0  502  501  0.00000000000E+00  0.00000000000E+00  0.22572932530E+02  0.22572932530E+02  0.00000000000E+00 0.  1.
         21   -1    0    0  503  502 -0.00000000000E+00 -0.00000000000E+00 -0.10726470235E+04  0.10726470235E+04  0.00000000000E+00 0.  1.
         21    1    1    2  503  504 -0.19782161063E+02 -0.13751978865E+02 -0.10660433057E+04  0.10663155163E+04  0.00000000000E+00 0.  1.
         21    1    1    2  504  501  0.19782161063E+02  0.13751978865E+02  0.15969214665E+02  0.28904439728E+02  0.00000000000E+00 0.  1.
</event>
<event>
 4    1  0.1589319E+006  0.2701885E+02  0.7546771E-02  0.1447419E+00
         21   -1    0    0  503  501  0.00000000000E+00  0.00000000000E+00  0.23949800055E+04  0.23949800055E+04  0.00000000000E+00 0.  1.
         21   -1    0    0  504  502 -0.00000000000E+00 -0.00000000000E+00 -0.43736673881E+00  0.43736673881E+00  0.00000000000E+00 0. -1.
         21    1    1    2  503  502 -0.10022307855E+02  0.25091265815E+02  0.53790584101E+03  0.53858398794E+03  0.00000000000E+00 0. -1.
         21    1    1    2  504  501  0.10022307855E+02 -0.25091265815E+02  0.18566367978E+04  0.18568333843E+04  0.00000000000E+00 0.  1.
</event>
<event>
 4    1  0.1589319E+006  0.4388391E+02  0.7546771E-02  0.1327115E+00
         21   -1    0    0  502  501  0.00000000000E+00  0.00000000000E+00  0.63054557252E+02  0.63054557252E+02  0.00000000000E+00 0. -1.
         21   -1    0    0  504  502 -0.00000000000E+00 -0.00000000000E+00 -0.89414746092E+02  0.89414746092E+02  0.00000000000E+00 0. -1.
         21    1    1    2  503  501  0.28187101862E+02 -0.33634579403E+02  0.48679326475E+02  0.65539869309E+02  0.00000000000E+00 0. -1.
         21    1    1    2  504  503 -0.28187101862E+02  0.33634579403E+02 -0.75039515315E+02  0.86929434035E+02  0.00000000000E+00 0. -1.
</event>
<event>
 4    1  0.1589319E+006  0.2180783E+02  0.7546771E-02  0.1508036E+00
         21   -1    0    0  504  501  0.00000000000E+00  0.00000000000E+00  0.75376118163E+02  0.75376118163E+02  0.00000000000E+00 0. -1.
         21   -1    0    0  503  502 -0.00000000000E+00 -0.00000000000E+00 -0.21060697390E+02  0.21060697390E+02  0.00000000000E+00 0. -1.
         21    1    1    2  503  501 -0.19013767814E+02 -0.10679804523E+02 -0.13196691518E+02  0.25489885408E+02  0.00000000000E+00 0. -1.
         21    1    1    2  504  502  0.19013767814E+02  0.10679804523E+02  0.67512112291E+02  0.70946930146E+02  0.00000000000E+00 0. -1.
</event>
<event>
 4    1  0.1589319E+006  0.2157699E+02  0.7546771E-02  0.1511184E+00
         21   -1    0    0  504  501  0.00000000000E+00  0.00000000000E+00  0.15160278864E+01  0.15160278864E+01  0.00000000000E+00 0. -1.
         21   -1    0    0  503  502 -0.00000000000E+00 -0.00000000000E+00 -0.33718304122E+03  0.33718304122E+03  0.00000000000E+00 0.  1.
         21    1    1    2  503  501 -0.18842619374E+02 -0.10512960797E+02 -0.21842043024E+03  0.21948360074E+03  0.00000000000E+00 0.  1.
         21    1    1    2  504  502  0.18842619374E+02  0.10512960797E+02 -0.11724658309E+03  0.11921546836E+03  0.00000000000E+00 0. -1.
</event>
<event>
 4    1  0.1589319E+006  0.2181371E+02  0.7546771E-02  0.1507957E+00
         21   -1    0    0  503  501  0.00000000000E+00  0.00000000000E+00  0.12135429500E+03  0.12135429500E+03  0.00000000000E+00 0. -1.
         21   -1    0    0  504  502 -0.00000000000E+00 -0.00000000000E+00 -0.39216566674E+01  0.39216566674E+01  0.00000000000E+00 0.  1.
         21    1    1    2  503  502 -0.20727476837E+02 -0.67977817191E+01  0.59485413502E+02  0.63358918487E+02  0.00000000000E+00 0. -1.
         21    1    1    2  504  501  0.20727476837E+02  0.67977817191E+01  0.57947224828E+02  0.61917033178E+02  0.00000000000E+00 0.  1.
</event>
<event>
 4    1  0.1589319E+006  0.2687426E+02  0.7546771E-02  0.1448875E+00
         21   -1    0    0  503  501  0.00000000000E+00  0.00000000000E+00  0.32411545068E+02  0.32411545068E+02  0.00000000000E+00 0.  1.
         21   -1    0    0  504  502 -0.00000000000E+00 -0.00000000000E+00 -0.12646879723E+03  0.12646879723E+03  0.00000000000E+00 0.  1.
         21    1    1    2  503  502  0.99507896952E+01 -0.24964125720E+02  0.25074281763E+02  0.36755209079E+02  0.00000000000E+00 0.  1.
         21    1    1    2  504  501 -0.99507896952E+01  0.24964125720E+02 -0.11913153392E+03  0.12212513322E+03  0.00000000000E+00 0.  1.
</event>
<event>
 4    1  0.1589319E+006  0.1961252E+03  0.7546771E-02  0.1057918E+00
         21   -1    0    0  503  501  0.00000000000E+00  0.00000000000E+00  0.37268136630E+03  0.37268136630E+03  0.00000000000E+00 0.  1.
         21   -1    0    0  501  502 -0.00000000000E+00 -0.00000000000E+00 -0.50826928023E+03  0.50826928023E+03  0.00000000000E+00 0. -1.
         21    1    1    2  503  504 -0.19446559897E+03 -0.25460222472E+02  0.32542370162E+03  0.37995483638E+03  0.00000000000E+00 0.  1.
         21    1    1    2  504  502  0.19446559897E+03  0.25460222472E+02 -0.46101161555E+03  0.50099581015E+03  0.00000000000E+00 0. -1.
</event>
<event>
 4    1  0.1589319E+006  0.5076218E+02  0.7546771E-02  0.1294901E+00
         21   -1    0    0  504  501  0.00000000000E+00  0.00000000000E+00  0.56474249578E+03  0.56474249578E+03  0.00000000000E+00 0. -1.
         21   -1    0    0  501  502 -0.00000000000E+00 -0.00000000000E+00 -0.71911766887E+01  0.71911766887E+01  0.00000000000E+00 0. -1.
         21    1    1    2  503  502  0.21832912843E+02 -0.45827095363E+02  0.10588930798E+03  0.11742803880E+03  0.00000000000E+00 0. -1.
         21    1    1    2  504  503 -0.21832912843E+02  0.45827095363E+02  0.45166201111E+03  0.45450563367E+03  0.00000000000E+00 0. -1.
</event>
<event>
 4    1  0.1589319E+006  0.2164287E+02  0.7546771E-02  0.1510281E+00
         21   -1    0    0  502  501  0.00000000000E+00  0.00000000000E+00  0.30487145357E+03  0.30487145357E+03  0.00000000000E+00 0.  1.
         21   -1    0    0  504  502 -0.00000000000E+00 -0.00000000000E+00 -0.18801830819E+02  0.18801830819E+02  0.00000000000E+00 0.  1.
         21    1    1    2  503  501 -0.44445065074E+01 -0.21181596712E+02  0.29811814220E+03  0.29890272730E+03  0.00000000000E+00 0.  1.
         21    1    1    2  504  503  0.44445065074E+01  0.21181596712E+02 -0.12048519453E+02  0.24770557087E+02  0.00000000000E+00 0.  1.
</event>
<event>
 4    1  0.1589319E+006  0.2120938E+02  0.7546771E-02  0.1516296E+00
         21   -1    0    0  503  501  0.00000000000E+00  0.00000000000E+00  0.26480507862E+02  0.26480507862E+02  0.00000000000E+00 0. -1.
         21   -1    0    0  504  502 -0.00000000000E+00 -0.00000000000E+00 -0.21936066300E+02  0.21936066300E+02  0.00000000000E+00 0. -1.
         21    1    1    2  503  502 -0.11382031772E+02  0.17896568551E+02  0.13770267649E+02  0.25287508463E+02  0.00000000000E+00 0. -1.
         21    1    1    2  504  501  0.11382031772E+02 -0.17896568551E+02 -0.92258260860E+01  0.23129065699E+02  0.00000000000E+00 0. -1.
</event>
<event>
 4    1  0.1589319E+006  0.2485402E+02  0.7546771E-02  0.1470443E+00
         21   -1    0    0  503  501  0.00000000000E+00  0.00000000000E+00  0.14827390969E+02  0.14827390969E+02  0.00000000000E+00 0.  1.
         21   -1    0    0  504  502 -0.00000000000E+00 -0.00000000000E+00 -0.66454306302E+02  0.66454306302E+02  0.00000000000E+00 0.  1.
         21    1    1    2  503  502  0.28827017323E+01 -0.24686280470E+02 -0.98959695134E+00  0.24873715340E+02  0.00000000000E+00 0.  1.
         21    1    1    2  504  501 -0.28827017323E+01  0.24686280470E+02 -0.50637318382E+02  0.56407981932E+02  0.00000000000E+00 0.  1.
</event>
<event>
 4    1  0.1589319E+006  0.5346185E+02  0.7546771E-02  0.1283823E+00
         21   -1    0    0  504  501  0.00000000000E+00  0.00000000000E+00  0.22203266704E+03  0.22203266704E+03  0.00000000000E+00 0.  1.
         21   -1    0    0  503  502 -0.00000000000E+00 -0.00000000000E+00 -0.10921499030E+03  0.10921499030E+03  0.00000000000E+00 0.  1.
         21    1    1    2  503  501 -0.38718547382E+02  0.36865208604E+02  0.21196602492E+03  0.21860412905E+03  0.00000000000E+00 0.  1.
         21    1    1    2  504  502  0.38718547382E+02 -0.36865208604E+02 -0.99148348190E+02  0.11264352829E+03  0.00000000000E+00 0.  1.
</event>
<event>
 4    1  0.1589319E+006  0.3914071E+02  0.7546771E-02  0.1353596E+00
         21   -1    0    0  502  501  0.00000000000E+00  0.00000000000E+00  0.20558152980E+03  0.20558152980E+03  0.00000000000E+00 0. -1.
         21   -1    0    0  504  502 -0.00000000000E+00 -0.00000000000E+00 -0.26030212844E+03  0.26030212844E+03  0.00000000000E+00 0.  1.
         21    1    1    2  503  501  0.15099526105E+02  0.36110927739E+02  0.20222295404E+03  0.20597601300E+03  0.00000000000E+00 0. -1.
         21    1    1    2  504  503 -0.15099526105E+02 -0.36110927739E+02 -0.25694355268E+03  0.25990764524E+03  0.00000000000E+00 0.  1.
</event>
<event>
 4    1  0.1589319E+006  0.2419361E+02  0.7546771E-02  0.1478030E+00
         21   -1    0    0  502  501  0.00000000000E+00  0.00000000000E+00  0.50102584232E+02  0.50102584232E+02  0.00000000000E+00 0.  1.
         21   -1    0    0  504  502 -0.00000000000E+00 -0.00000000000E+00 -0.28610972131E+02  0.28610972131E+02  0.00000000000E+00 0.  1.
         21    1    1    2  503  501  0.24175277538E+02  0.94170713281E+00  0.41019137420E+02  0.47622478842E+02  0.00000000000E+00 0.  1.
         21    1    1    2  504  503 -0.24175277538E+02 -0.94170713281E+00 -0.19527525319E+02  0.31091077522E+02  0.00000000000E+00 0.  1.
</event>
<event>
 4    1  0.1589319E+006  0.2077649E+02  0.7546771E-02  0.1522480E+00
         21   -1    0    0  503  501  0.00000000000E+00  0.00000000000E+00  0.64509495189E+02  0.64509495189E+02  0.00000000000E+00 0. -1.
         21   -1    0    0  504  502 -0.00000000000E+00 -0.00000000000E+00 -0.66915664089E+01  0.66915664089E+01  0.00000000000E+00 0. -1.
         21    1    1    2  503  502  0.20538456038E+02  0.31359904666E+01  0.29051898891E+02  0.35716598967E+02  0.00000000000E+00 0. -1.
         21    1    1    2  504  501 -0.20538456038E+02 -0.31359904666E+01  0.28766029890E+02  0.35484462631E+02  0.00000000000E+00 0. -1.
</event>
<event>
 4    1  0.1589319E+006  0.2178174E+02  0.7546771E-02  0.1508390E+00
         21   -1    0    0  504  501  0.00000000000E+00  0.00000000000E+00  0.54440052604E+01  0.54440052604E+01  0.00000000000E+00 0.  1.
         21   -1    0    0  503  502 -0.00000000000E+00 -0.00000000000E+00 -0.22115051529E+03  0.22115051529E+03  0.00000000000E+00 0.  1.
         21    1    1    2  503  501 -0.17321835377E+02  0.13205983851E+02 -0.19604521253E+03  0.19725153826E+03  0.00000000000E+00 0.  1.
         21    1    1    2  504  502  0.17321835377E+02 -0.13205983851E+02 -0.19661297499E+02  0.29342982290E+02  0.00000000000E+00 0.  1.
</event>
<event>
 4    1  0.1589319E+006  0.2101895E+02  0.7546771E-02  0.1518994E+00
         21   -1    0    0  504  501  0.00000000000E+00  0.00000000000E+00  0.59016867517E+01  0.59016867517E+01  0.00000000000E+00 0.  1.
         21   -1    0    0  503  502 -0.00000000000E+00 -0.00000000000E+00 -0.76186706573E+02  0.76186706573E+02  0.00000000000E+00 0.  1.
         21    1    1    2  503  501 -0.12743510339E+02 -0.16715237800E+02 -0.40560168180E+02  0.45682857542E+02  0.00000000000E+00 0.  1.
         21    1    1    2  504  502  0.12743510339E+02  0.16715237800E+02 -0.29724851641E+02  0.36405535782E+02  0.00000000000E+00 0.  1.
</event>
<event>
 4    1  0.1589319E+006  0.2565625E+02  0.7546771E-02  0.1461594E+00
         21   -1    0    0  504  501  0.00000000000E+00  0.00000000000E+00  0.20912116654E+02  0.20912116654E+02  0.00000000000E+00 0.  1.
         21   -1    0    0  503  502 -0.00000000000E+00 -0.00000000000E+00 -0.59012541391E+02  0.59012541391E+02  0.00000000000E+00 0.  1.
         21    1    1    2  503  501  0.21173456730E+02  0.14488895200E+02 -0.46348047766E+02  0.52975323366E+02  0.00000000000E+00 0.  1.
         21    1    1    2  504  502 -0.21173456730E+02 -0.14488895200E+02  0.82476230292E+01  0.26949334679E+02  0.00000000000E+00 0.  1.
</event>
<event>
 4    1  0.1589319E+006  0.2537726E+02  0.7546771E-02  0.1464627E+00
         21   -1    0    0  504  501  0.00000000000E+00  0.00000000000E+00  0.29731284247E+03  0.29731284247E+03  0.00000000000E+00 0.  1.
         21   -1    0    0  503  502 -0.00000000000E+00 -0.00000000000E+00 -0.30737365016E+01  0.30737365016E+01  0.00000000000E+00 0.  1.
         21    1    1    2  503  501  0.10017775719E+01  0.25357481028E+02  0.65503354279E+02  0.70247383041E+02  0.00000000000E+00 0.  1.
         21    1    1    2  504  502 -0.10017775719E+01 -0.25357481028E+02  0.22873575169E+03  0.23013919593E+03  0.00000000000E+00 0.  1.
</event>
<event>
 4    1  0.1589319E+006  0.2479487E+02  0.7546771E-02  0.1471111E+00
         21   -1    0    0  503  501  0.00000000000E+00  0.00000000000E+00  0.25524659045E+03  0.25524659045E+03  0.00000000000E+00 0.  1.
         21   -1    0    0  501  502 -0.00000000000E+00 -0.00000000000E+00 -0.36419543219E+02  0.36419543219E+02  0.00000000000E+00 0.  1.
         21    1    1    2  503  504 -0.17888484117E+02 -0.17169381482E+02  0.25034179835E+03  0.25156669399E+03  0.00000000000E+00 0.  1.
         21    1    1    2  504  502  0.17888484117E+02  0.17169381482E+02 -0.31514751118E+02  0.40099439678E+02  0.00000000000E+00 0.  1.
</event>
<event>
 4    1  0.1589319E+006  0.2646266E+02  0.7546771E-02  0.1453082E+00
         21   -1    0    0  502  501  0.00000000000E+00  0.00000000000E+00  0.42225200937E+02  0.42225200937E+02  0.00000000000E+00 0.  1.
         21   -1    0    0  503  502 -0.00000000000E+00 -0.00000000000E+00 -0.44046639287E+02  0.44046639287E+02  0.00000000000E+00 0.  1.
         21    1    1    2  503  504  0.26069107967E+02 -0.45468894453E+01 -0.34971293520E+02  0.43855033512E+02  0.00000000000E+00 0.  1.
         21    1    1    2  504  501 -0.26069107967E+02  0.45468894453E+01  0.33149855171E+02  0.42416806712E+02  0.00000000000E+00 0.  1.
</event>
<event>
 4    1  0.1589319E+006  0.2559550E+02  0.7546771E-02  0.1462251E+00
         21   -1    0    0  504  501  0.00000000000E+00  0.00000000000E+00  0.12797826501E+03  0.12797826501E+03  0.00000000000E+00 0. -1.
         21   -1    0    0  503  502 -0.00000000000E+00 -0.00000000000E+00 -0.12763807389E+03  0.12763807389E+03  0.00000000000E+00 0.  1.
         21    1    1    2  503  501  0.20285034321E+02  0.15609198727E+02 -0.12504890186E+03  0.12764151973E+03  0.00000000000E+00 0.  1.
         21    1    1    2  504  502 -0.20285034321E+02 -0.15609198727E+02  0.12538909298E+03  0.12797481917E+03  0.00000000000E+00 0. -1.
</event>
<event>
 4    1  0.1589319E+006  0.2657592E+02  0.7546771E-02  0.1451915E+00
         21   -1    0    0  504  501  0.00000000000E+00  0.00000000000E+00  0.81889382131E+01  0.81889382131E+01  0.00000000000E+00 0.  1.
         21   -1    0    0  503  502 -0.00000000000E+00 -0.00000000000E+00 -0.68405950282E+03  0.68405950282E+03  0.00000000000E+00 0. -1.
         21    1    1    2  503  501  0.23468597255E+02  0.12470151033E+02 -0.14366081584E+02  0.30210329756E+02  0.00000000000E+00 0.  1.
         21    1    1    2  504  502 -0.23468597255E+02 -0.12470151033E+02 -0.66150448303E+03  0.66203811128E+03  0.00000000000E+00 0. -1.
</event>
<event>
 4    1  0.1589319E+006  0.2294588E+02  0.7546771E-02  0.1493179E+00
         21   -1    0    0  503  501  0.00000000000E+00  0.00000000000E+00  0.23976443302E+03  0.23976443302E+03  0.00000000000E+00 0. -1.
         21   -1    0    0  504  502 -0.00000000000E+00 -0.00000000000E+00 -0.27983377047E+01  0.27983377047E+01  0.00000000000E+00 0. -1.
         21    1    1    2  503  502  0.12708088313E+02 -0.19105447630E+02  0.62212942111E+02  0.66309605668E+02  0.00000000000E+00 0. -1.
         21    1    1    2  504  501 -0.12708088313E+02  0.19105447630E+02  0.17475315321E+03  0.17625316506E+03  0.00000000000E+00 0. -1.
</event>
<event>
 4    1  0.1589319E+006  0.2950880E+02  0.7546771E-02  0.1423914E+00
         21   -1    0    0  502  501  0.00000000000E+00  0.00000000000E+00  0.36796737713E+01  0.36796737713E+01  0.00000000000E+00 0. -1.
         21   -1    0    0  504  502 -0.00000000000E+00 -0.00000000000E+00 -0.37469676564E+03  0.37469676564E+03  0.00000000000E+00 0. -1.
         21    1    1    2  503  501  0.15222750448E+02  0.25279183380E+02 -0.70672518600E+02  0.76585730582E+02  0.00000000000E+00 0. -1.
         21    1    1    2  504  503 -0.15222750448E+02 -0.25279183380E+02 -0.30034457327E+03  0.30179070883E+03  0.00000000000E+00 0. -1.
</event>
<event>
 4    1  0.1589319E+006  0.3572620E+02  0.7546771E-02  0.1375529E+00
         21   -1    0    0  503  501  0.00000000000E+00  0.00000000000E+00  0.16949548479E+02  0.16949548479E+02  0.00000000000E+00 0.  1.
         21   -1    0    0  504  502 -0.00000000000E+00 -0.00000000000E+00 -0.78399149705E+02  0.78399149705E+02  0.00000000000E+00 0.  1.
         21    1    1    2  503  502  0.25038202856E+02 -0.25484297388E+02 -0.21251482113E+02  0.41569057093E+02  0.00000000000E+00 0.  1.
         21    1    1    2  504  501 -0.25038202856E+02  0.25484297388E+02 -0.40198119114E+02  0.53779641091E+02  0.00000000000E+00 0.  1.
</event>
<event>
 4    1  0.1589319E+006  0.2712378E+02  0.7546771E-02  0.1446369E+00
         21   -1    0    0  502  501  0.00000000000E+00  0.00000000000E+00  0.13690129421E+02  0.13690129421E+02  0.00000000000E+00 0. -1.
         21   -1    0    0  503  502 -0.00000000000E+00 -0.00000000000E+00 -0.94706351570E+02  0.94706351570E+02  0.00000000000E+00 0. -1.
         21    1    1    2  503  504  0.86044169194E+01 -0.25722821063E+02 -0.76154241503E+02  0.80840386026E+02  0.00000000000E+00 0. -1.
         21    1    1    2  504  501 -0.86044169194E+01  0.25722821063E+02 -0.48619806463E+01  0.27556094965E+02  0.00000000000E+00 0. -1.
</event>
<event>
 4    1  0.1589319E+006  0.6613583E+02  0.7546771E-02  0.1240299E+00
         21   -1    0    0  502  501  0.00000000000E+00  0.00000000000E+00  0.25382520674E+02  0.25382520674E+02  0.00000000000E+00 0. -1.
         21   -1    0    0  504  502 -0.00000000000E+00 -0.00000000000E+00 -0.27497697715E+03  0.27497697715E+03  0.00000000000E+00 0. -1.
         21    1    1    2  503  501  0.15799607562E+02 -0.64220870204E+02 -0.33036935063E+02  0.73928254729E+02  0.00000000000E+00 0. -1.
         21    1    1    2  504  503 -0.15799607562E+02  0.64220870204E+02 -0.21655752141E+03  0.22643124310E+03  0.00000000000E+00 0. -1.
</event>
<event>
 4    1  0.1589319E+006  0.2914987E+02  0.7546771E-02  0.1427131E+00
         21   -1    0    0  504  501  0.00000000000E+00  0.00000000000E+00  0.63703700374E+03  0.63703700374E+03  0.00000000000E+00 0.  1.
         21   -1    0    0  501  502 -0.00000000000E+00 -0.00000000000E+00 -0.28536840576E+01  0.28536840576E+01  0.00000000000E+00 0.  1.
         21    1    1    2  503  502  0.12998360964E+02  0.26091326401E+02  0.83600583600E+02  0.88536841367E+02  0.00000000000E+00 0.  1.
         21    1    1    2  504  503 -0.12998360964E+02 -0.26091326401E+02  0.55058273608E+03  0.55135384643E+03  0.00000000000E+00 0.  1.
</event>
<event>
 4    1  0.1589319E+006  0.2085555E+02  0.7546771E-02  0.1521337E+00
         21   -1    0    0  503  501  0.00000000000E+00  0.00000000000E+00  0.56067801363E+01  0.56067801363E+01  0.00000000000E+00 0. -1.
         21   -1    0    0  504  502 -0.00000000000E+00 -0.00000000000E+00 -0.23422513734E+03  0.23422513734E+03  0.00000000000E+00 0. -1.
         21    1    1    2  503  502 -0.41909425375E+01 -0.20430124555E+02 -0.16242009184E+02  0.26434009363E+02  0.00000000000E+00 0. -1.
         21    1    1    2  504  501  0.41909425375E+01  0.20430124555E+02 -0.21237634802E+03  0.21339790811E+03  0.00000000000E+00 0. -1.
</event>
<event>
 4    1  0.1589319E+006  0.2779234E+02  0.7546771E-02  0.1439807E+00
         21   -1    0    0  504  501  0.00000000000E+00  0.00000000000E+00  0.96676588956E+02  0.96676588956E+02  0.00000000000E+00 0.  1.
         21   -1    0    0  503  502 -0.00000000000E+00 -0.00000000000E+00 -0.41706023252E+02  0.41706023252E+02  0.00000000000E+00 0. -1.
         21    1    1    2  503  501 -0.27748296418E+02  0.15639855020E+01  0.89697035762E+02  0.93904058641E+02  0.00000000000E+00 0.  1.
         21    1    1    2  504  502  0.27748296418E+02 -0.15639855020E+01 -0.34726470057E+02  0.44478553567E+02  0.00000000000E+00 0. -1.
</event>
<event>
 4    1  0.1589319E+006  0.3379535E+02  0.7546771E-02  0.1389236E+00
         21   -1    0    0  504  501  0.00000000000E+00  0.00000000000E+00  0.19918452084E+03  0.19918452084E+03  0.00000000000E+00 0. -1.
         21   -1    0    0  501  502 -0.00000000000E+00 -0.00000000000E+00 -0.57773837644E+01  0.57773837644E+01  0.00000000000E+00 0. -1.
         21    1    1    2  503  502 -0.29454405570E+02 -0.16569972898E+02  0.87824002709E+02  0.94101973737E+02  0.00000000000E+00 0. -1.
         21    1    1    2  504  503  0.29454405570E+02  0.16569972898E+02  0.10558313436E+03  0.11085993086E+03  0.00000000000E+00 0. -1.
</event>
<event>
 4    1  0.1589319E+006  0.3596490E+02  0.7546771E-02  0.1373904E+00
         21   -1    0    0  504  501  0.00000000000E+00  0.00000000000E+00  0.17882603254E+03  0.17882603254E+03  0.00000000000E+00 0. -1.
         21   -1    0    0  501  502 -0.00000000000E+00 -0.00000000000E+00 -0.78068072398E+02  0.78068072398E+02  0.00000000000E+00 0. -1.
         21    1    1    2  503  502 -0.11051328763E+02 -0.34224873687E+02 -0.71973042945E+02  0.80458640040E+02  0.00000000000E+00 0. -1.
         21    1    1    2  504  503  0.11051328763E+02  0.34224873687E+02  0.17273100308E+03  0.17643546489E+03  0.00000000000E+00 0. -1.
</event>
<event>
 4    1  0.1589319E+006  0.2591675E+02  0.7546771E-02  0.1458804E+00
         21   -1    0    0  504  501  0.00000000000E+00  0.00000000000E+00  0.51867208600E+03  0.51867208600E+03  0.00000000000E+00 0.  1.
         21   -1    0    0  503  502 -0.00000000000E+00 -0.00000000000E+00 -0.61007799904E+02  0.61007799904E+02  0.00000000000E+00 0.  1.
         21    1    1    2  503  501 -0.22410065576E+02 -0.13017940436E+02  0.51557941139E+03  0.51623038196E+03  0.00000000000E+00 0.  1.
         21    1    1    2  504  502  0.22410065576E+02  0.13017940436E+02 -0.57915125295E+02  0.63449503940E+02  0.00000000000E+00 0.  1.
</event>
<event>
 4    1  0.1589319E+006  0.2417021E+02  0.7546771E-02  0.1478304E+00
         21   -1    0    0  503  501  0.00000000000E+00  0.00000000000E+00  0.15606925215E+02  0.15606925215E+02  0.00000000000E+00 0.  1.
         21   -1    0    0  504  502 -0.00000000000E+00 -0.00000000000E+00 -0.63216043525E+02  0.63216043525E+02  0.00000000000E+00 0. -1.
         21    1    1    2  503  502  0.22073618230E+02 -0.98465421631E+01  0.13655054972E+01  0.24208750889E+02  0.00000000000E+00 0.  1.
         21    1    1    2  504  501 -0.22073618230E+02  0.98465421631E+01 -0.48974623808E+02  0.54614217851E+02  0.00000000000E+00 0. -1.
</event>
<event>
 4    1  0.1589319E+006  0.2832091E+02  0.7546771E-02  0.1434772E+00
         21   -1    0    0  504  501  0.00000000000E+00  0.00000000000E+00  0.89483231814E+01  0.89483231814E+01  0.00000000000E+00 0.  1.
         21   -1    0    0  503  502 -0.00000000000E+00 -0.00000000000E+00 -0.13817789383E+03  0.13817789383E+03  0.00000000000E+00 0. -1.
         21    1    1    2  503  501 -0.16789462668E+02  0.22807629842E+02 -0.10821695244E+03  0.11186144480E+03  0.00000000000E+00 0. -1.
         21    1    1    2  504  502  0.16789462668E+02 -0.22807629842E+02 -0.21012618211E+02  0.35264772221E+02  0.00000000000E+00 0.  1.
</event>
<event>
 4    1  0.1589319E+006  0.2191497E+02  0.7546771E-02  0.1506592E+00
         21   -1    0    0  504  501  0.00000000000E+00  0.00000000000E+00  0.50717198113E+03  0.50717198113E+03  0.00000000000E+00 0. -1.
         21   -1    0    0  503  502 -0.00000000000E+00 -0.00000000000E+00 -0.18361076324E+01  0.18361076324E+01  0.00000000000E+00 0.  1.
         21    1    1    2  503  501 -0.20932864343E+02  0.64870066014E+01  0.75561145768E+02  0.78674982135E+02  0.00000000000E+00 0.  1.
         21    1    1    2  504  502  0.20932864343E+02 -0.64870066014E+01  0.42977472773E+03  0.43033310663E+03  0.00000000000E+00 0. -1.
</event>
<event>
 4    1  0.1589319E+006  0.3085302E+02  0.7546771E-02  0.1412325E+00
         21   -1    0    0  504  501  0.00000000000E+00  0.00000000000E+00  0.61648905676E+01  0.61648905676E+01  0.00000000000E+00 0.  1.
         21   -1    0    0  503  502 -0.00000000000E+00 -0.00000000000E+00 -0.16027235937E+03  0.16027235937E+03  0.00000000000E+00 0.  1.
         21    1    1    2  503  501  0.47478985175E+01  0.30485510281E+02 -0.61135357697E+02  0.68479492099E+02  0.00000000000E+00 0.  1.
         21    1    1    2  504  502 -0.47478985175E+01 -0.30485510281E+02 -0.92972111108E+02  0.97957757841E+02  0.00000000000E+00 0.  1.
</event>
<event>
 4    1  0.1589319E+006  0.2096533E+02  0.7546771E-02  0.1519760E+00
         21   -1    0    0  502  501  0.00000000000E+00  0.00000000000E+00  0.22744152123E+02  0.22744152123E+02  0.00000000000E+00 0. -1.
         21   -1    0    0  503  502 -0.00000000000E+00 -0.00000000000E+00 -0.86084339164E+02  0.86084339164E+02  0.00000000000E+00 0.  1.
         21    1    1    2  503  504 -0.16302201890E+02 -0.13182690339E+02 -0.79588735007E+02  0.82303777866E+02  0.00000000000E+00 0.  1.
         21    1    1    2  504  501  0.16302201890E+02  0.13182690339E+02  0.16248547967E+02  0.26524713421E+02  0.00000000000E+00 0. -1.
</event>
<event>
 4    1  0.1589319E+006  0.2827728E+02  0.7546771E-02  0.1435183E+00
         21   -1    0    0  503  501  0.00000000000E+00  0.00000000000E+00  0.62660614336E+02  0.62660614336E+02  0.00000000000E+00 0. -1.
         21   -1    0    0  504  502 -0.00000000000E+00 -0.00000000000E+00 -0.12778832544E+02  0.12778832544E+02  0.00000000000E+00 0. -1.
         21    1    1    2  503  502  0.16283391251E+02  0.23118303301E+02  0.26354559826E+02  0.38654464189E+02  0.00000000000E+00 0. -1.
         21    1    1    2  504  501 -0.16283391251E+02 -0.23118303301E+02  0.23527221966E+02  0.36784982691E+02  0.00000000000E+00 0. -1.
</event>
<event>
 4    1  0.1589319E+006  0.2276420E+02  0.7546771E-02  0.1495481E+00
         21   -1    0    0  502  501  0.00000000000E+00  0.00000000000E+00  0.40329303224E+03  0.40329303224E+03  0.00000000000E+00 0.  1.
         21   -1    0    0  503  502 -0.00000000000E+00 -0.00000000000E+00 -0.83351206286E+01  0.83351206286E+01  0.00000000000E+00 0. -1.
         21    1    1    2  503  504 -0.12502050565E+02  0.19023865450E+02  0.81926712430E+01  0.24193564993E+02  0.00000000000E+00 0. -1.
         21    1    1    2  504  501  0.12502050565E+02 -0.19023865450E+02  0.38676524037E+03  0.38743458788E+03  0.00000000000E+00 0.  1.
</event>
<event>
 4    1  0.1589319E+006  0.2063280E+02  0.7546771E-02  0.1524573E+00
         21   -1    0    0  503  501  0.00000000000E+00  0.00000000000E+00  0.27193300089E+03  0.27193300089E+03  0.00000000000E+00 0.  1.
         21   -1    0    0  504  502 -0.00000000000E+00 -0.00000000000E+00 -0.14049008914E+02  0.14049008914E+02  0.00000000000E+00 0. -1.
         21    1    1    2  503  502  0.98397619459E+01  0.18135361731E+02  0.26373089897E+03  0.26453676367E+03  0.00000000000E+00 0.  1.
         21    1    1    2  504  501 -0.98397619459E+01 -0.18135361731E+02 -0.58469069977E+01  0.21445246133E+02  0.00000000000E+00 0. -1.
</event>
<event>
 4    1  0.1589319E+006  0.3054300E+02  0.7546771E-02  0.1414935E+00
         21   -1    0    0  502  501  0.00000000000E+00  0.00000000000E+00  0.15611568377E+03  0.15611568377E+03  0.00000000000E+00 0. -1.
         21   -1    0    0  503  502 -0.00000000000E+00 -0.00000000000E+00 -0.41769868045E+02  0.41769868045E+02  0.00000000000E+00 0. -1.
         21    1    1    2  503  504  0.16651200316E+02  0.25604931308E+02 -0.34419540159E+02  0.46017167710E+02  0.00000000000E+00 0. -1.
         21    1    1    2  504  501 -0.16651200316E+02 -0.25604931308E+02  0.14876535588E+03  0.15186838410E+03  0.00000000000E+00 0. -1.
</event>
<event>
 4    1  0.1589319E+006  0.2848674E+02  0.7546771E-02  0.1433219E+00
         21   -1    0    0  503  501  0.00000000000E+00  0.00000000000E+00  0.34941460245E+02  0.34941460245E+02  0.00000000000E+00 0. -1.
         21   -1    0    0  504  502 -0.00000000000E+00 -0.00000000000E+00 -0.26186192312E+03  0.26186192312E+03  0.00000000000E+00 0.  1.
         21    1    1    2  503  502 -0.16622649186E+01  0.28438197043E+02  0.28207861801E+02  0.40089620142E+02  0.00000000000E+00 0. -1.
         21    1    1    2  504  501  0.16622649186E+01 -0.28438197043E+02 -0.25512832468E+03  0.25671376323E+03  0.00000000000E+00 0.  1.
</event>
<event>
 4    1  0.1589319E+006  0.3704229E+02  0.7546771E-02  0.1366747E+00
         21   -1    0    0  503  501  0.00000000000E+00  0.00000000000E+00  0.56957407686E+02  0.56957407686E+02  0.00000000000E+00 0.  1.
         21   -1    0    0  504  502 -0.00000000000E+00 -0.00000000000E+00 -0.29885848978E+02  0.29885848978E+02  0.00000000000E+00 0.  1.
         21    1    1    2  503  502 -0.36516309117E+02 -0.62201689980E+01 -0.55853625430E+01  0.37461014517E+02  0.00000000000E+00 0.  1.
         21    1    1    2  504  501  0.36516309117E+02  0.62201689980E+01  0.32656921251E+02  0.49382242147E+02  0.00000000000E+00 0.  1.
</event>
<event>
 4    1  0.1589319E+006  0.2976213E+02  0.7546771E-02  0.1421675E+00
         21   -1    0    0  504  501  0.00000000000E+00  0.00000000000E+00  0.21884595938E+03  0.21884595938E+03  0.00000000000E+00 0.  1.
         21   -1    0    0  503  502 -0.00000000000E+00 -0.00000000000E+00 -0.31116325237E+02  0.31116325237E+02  0.00000000000E+00 0. -1.
         21    1    1    2  503  501 -0.20668208168E+02  0.21415170675E+02 -0.22704659628E+02  0.37433753923E+02  0.00000000000E+00 0. -1.
         21    1    1    2  504  502  0.20668208168E+02 -0.21415170675E+02  0.21043429377E+03  0.21252853069E+03  0.00000000000E+00 0.  1.
</event>
<event>
 4    1  0.1589319E+006  0.2652472E+02  0.7546771E-02  0.1452442E+00
         21   -1    0    0  502  501  0.00000000000E+00  0.00000000000E+00  0.65778824511E+02  0.65778824511E+02  0.00000000000E+00 0. -1.
         21   -1    0    0  503  502 -0.00000000000E+00 -0.00000000000E+00 -0.13675132607E+02  0.13675132607E+02  0.00000000000E+00 0. -1.
         21    1    1    2  503  504  0.16948323761E+02 -0.20403802323E+02  0.75090514985E+01  0.27567130463E+02  0.00000000000E+00 0. -1.
         21    1    1    2  504  501 -0.16948323761E+02  0.20403802323E+02  0.44594640405E+02  0.51886826656E+02  0.00000000000E+00 0. -1.
</event>
<event>
 4    1  0.1589319E+006  0.2109868E+02  0.7546771E-02  0.1517861E+00
         21   -1    0    0  502  501  0.00000000000E+00  0.00000000000E+00  0.51945434062E+01  0.51945434062E+01  0.00000000000E+00 0.  1.
         21   -1    0    0  504  502 -0.00000000000E+00 -0.00000000000E+00 -0.11595478633E+03  0.11595478633E+03  0.00000000000E+00 0.  1.
         21    1    1    2  503  501  0.14343133095E+02 -0.15473485472E+02 -0.24436666568E+02  0.32284747058E+02  0.00000000000E+00 0.  1.
         21    1    1    2  504  503 -0.14343133095E+02  0.15473485472E+02 -0.86323576356E+02  0.88864582678E+02  0.00000000000E+00 0.  1.
</event>
<event>
 4    1  0.1589319E+006  0.2001369E+02  0.7546771E-02  0.1533826E+00
         21   -1    0    0  503  501  0.00000000000E+00  0.00000000000E+00  0.77899386477E+00  0.77899386477E+00  0.00000000000E+00 0. -1.
         21   -1    0    0  504  502 -0.00000000000E+00 -0.00000000000E+00 -0.10275181764E+04  0.10275181764E+04  0.00000000000E+00 0. -1.
         21    1    1    2  503  502  0.15304896816E+02 -0.12896037028E+02 -0.14996267587E+03  0.15129227274E+03  0.00000000000E+00 0. -1.
         21    1    1    2  504  501 -0.15304896816E+02  0.12896037028E+02 -0.87677650670E+03  0.87700489756E+03  0.00000000000E+00 0. -1.
</event>
<event>
 4    1  0.1589319E+006  0.3669525E+02  0.7546771E-02  0.1369021E+00
         21   -1    0    0  504  501  0.00000000000E+00  0.00000000000E+00  0.13625017596E+02  0.13625017596E+02  0.00000000000E+00 0.  1.
         21   -1    0    0  503  502 -0.00000000000E+00 -0.00000000000E+00 -0.64584207451E+03  0.64584207451E+03  0.00000000000E+00 0.  1.
         21    1    1    2  503  501 -0.18936622737E+02  0.31431600170E+02 -0.12650253144E+02  0.38814560084E+02  0.00000000000E+00 0.  1.
         21    1    1    2  504  502  0.18936622737E+02 -0.31431600170E+02 -0.61956680377E+03  0.62065253202E+03  0.00000000000E+00 0.  1.
</event>
<event>
 4    1  0.1589319E+006  0.2660661E+02  0.7546771E-02  0.1451600E+00
         21   -1    0    0  502  501  0.00000000000E+00  0.00000000000E+00  0.44670874147E+02  0.44670874147E+02  0.00000000000E+00 0.  1.
         21   -1    0    0  504  502 -0.00000000000E+00 -0.00000000000E+00 -0.16302318742E+02  0.16302318742E+02  0.00000000000E+00 0.  1.
         21    1    1    2  503  501 -0.21195107085E+02 -0.16083508307E+02  0.19277691229E+02  0.32856372029E+02  0.00000000000E+00 0.  1.
         21    1    1    2  504  503  0.21195107085E+02  0.16083508307E+02  0.90908641761E+01  0.28116820860E+02  0.00000000000E+00 0.  1.
</event>
<event>
 4    1  0.1589319E+006  0.2991545E+02  0.7546771E-02  0.1420333E+00
         21   -1    0    0  504  501  0.00000000000E+00  0.00000000000E+00  0.13913724609E+02  0.13913724609E+02  0.00000000000E+00 0. -1.
         21   -1    0    0  503  502 -0.00000000000E+00 -0.00000000000E+00 -0.79142927178E+03  0.79142927178E+03  0.00000000000E+00 0. -1.
         21    1    1    2  503  501  0.57730653362E+01  0.29353118874E+02 -0.77471982916E+03  0.77529719950E+03  0.00000000000E+00 0. -1.
         21    1    1    2  504  502 -0.57730653362E+01 -0.29353118874E+02 -0.27957180118E+01  0.30045796881E+02  0.00000000000E+00 0. -1.
</event>
<event>
 4    1  0.1589319E+006  0.2041497E+02  0.7546771E-02  0.1527784E+00
         21   -1    0    0  504  501  0.00000000000E+00  0.00000000000E+00  0.78375437214E+01  0.78375437214E+01  0.00000000000E+00 0.  1.
         21   -1    0    0  503  502 -0.00000000000E+00 -0.00000000000E+00 -0.53380998371E+02  0.53380998371E+02  0.00000000000E+00 0.  1.
         21    1    1    2  503  501 -0.18668466358E+02 -0.82619332151E+01 -0.24667433013E+02  0.32019578824E+02  0.00000000000E+00 0.  1.
         21    1    1    2  504  502  0.18668466358E+02  0.82619332151E+01 -0.20876021637E+02  0.29198963269E+02  0.00000000000E+00 0.  1.
</event>
<event>
 4    1  0.1589319E+006  0.3444864E+02  0.7546771E-02  0.1384481E+00
         21   -1    0    0  503  501  0.00000000000E+00  0.00000000000E+00  0.22181538699E+02  0.22181538699E+02  0.00000000000E+00 0.  1.
         21   -1    0    0  504  502 -0.00000000000E+00 -0.00000000000E+00 -0.59096510189E+02  0.59096510189E+02  0.00000000000E+00 0.  1.
         21    1    1    2  503  502  0.50087326830E+01 -0.34082569456E+02 -0.30963730161E+02  0.46319127035E+02  0.00000000000E+00 0.  1.
         21    1    1    2  504  501 -0.50087326830E+01  0.34082569456E+02 -0.59512413279E+01  0.34958921853E+02  0.00000000000E+00 0.  1.
</event>
<event>
 4    1  0.1589319E+006  0.2475807E+02  0.7546771E-02  0.1471528E+00
         21   -1    0    0  502  501  0.00000000000E+00  0.00000000000E+00  0.88133627026E+02  0.88133627026E+02  0.00000000000E+00 0. -1.
         21   -1    0    0  503  502 -0.00000000000E+00 -0.00000000000E+00 -0.20067037314E+02  0.20067037314E+02  0.00000000000E+00 0. -1.
         21    1    1    2  503  504  0.19365090154E+02  0.15425804376E+02 -0.96982427223E+01  0.26589811380E+02  0.00000000000E+00 0. -1.
         21    1    1    2  504  501 -0.19365090154E+02 -0.15425804376E+02  0.77764832434E+02  0.81610852960E+02  0.00000000000E+00 0. -1.
</event>
<event>
 4    1  0.1589319E+006  0.2240887E+02  0.7546771E-02  0.1500057E+00
         21   -1    0    0  503  501  0.00000000000E+00  0.00000000000E+00  0.20946406284E+02  0.20946406284E+02  0.00000000000E+00 0. -1.
         21   -1    0    0  504  502 -0.00000000000E+00 -0.00000000000E+00 -0.56717259717E+02  0.56717259717E+02  0.00000000000E+00 0.  1.
         21    1    1    2  503  502 -0.11481603111E+01 -0.22379436644E+02  0.11619526353E+02  0.25242243348E+02  0.00000000000E+00 0. -1.
         21    1    1    2  504  501  0.11481603111E+01  0.22379436644E+02 -0.47390379787E+02  0.52421422652E+02  0.00000000000E+00 0.  1.
</event>
<event>
 4    1  0.1589319E+006  0.2310181E+02  0.7546771E-02  0.1491224E+00
         21   -1    0    0  503  501  0.00000000000E+00  0.00000000000E+00  0.10661301155E+03  0.10661301155E+03  0.00000000000E+00 0.  1.
         21   -1    0    0  504  502 -0.00000000000E+00 -0.00000000000E+00 -0.69549779059E+01  0.69549779059E+01  0.00000000000E+00 0. -1.
         21    1    1    2  503  502 -0.15572156642E+02 -0.17064623292E+02  0.79889318622E+02  0.83162471467E+02  0.00000000000E+00 0.  1.
         21    1    1    2  504  501  0.15572156642E+02  0.17064623292E+02  0.19768715025E+02  0.30405517992E+02  0.00000000000E+00 0. -1.
</event>
<event>
 4    1  0.1589319E+006  0.2011112E+02  0.7546771E-02  0.1532344E+00
         21   -1    0    0  503  501  0.00000000000E+00  0.00000000000E+00  0.18049108007E+03  0.18049108007E+03  0.00000000000E+00 0.  1.
         21   -1    0    0  504  502 -0.00000000000E+00 -0.00000000000E+00 -0.11474559138E+02  0.11474559138E+02  0.00000000000E+00 0. -1.
         21    1    1    2  503  502  0.49182182110E+01  0.19500470110E+02  0.17061023351E+03  0.17179146947E+03  0.00000000000E+00 0.  1.
         21    1    1    2  504  501 -0.49182182110E+01 -0.19500470110E+02 -0.15937125761E+01  0.20174169739E+02  0.00000000000E+00 0. -1.
</event>
<event>
 4    1  0.1589319E+006  0.6612116E+02  0.7546771E-02  0.1240343E+00
         21   -1    0    0  504  501  0.00000000000E+00  0.00000000000E+00  0.14704758836E+03  0.14704758836E+03  0.00000000000E+00 0.  1.
         21   -1    0    0  501  502 -0.00000000000E+00 -0.00000000000E+00 -0.63744792244E+02  0.63744792244E+02  0.00000000000E+00 0.  1.
         21    1    1    2  503  502  0.93919964240E+01  0.65450731848E+02 -0.35336804226E+02  0.74971312041E+02  0.00000000000E+00 0.  1.
         21    1    1    2  504  503 -0.93919964240E+01 -0.65450731848E+02  0.11863960035E+03  0.13582106857E+03  0.00000000000E+00 0.  1.
</event>
<event>
 4    1  0.1589319E+006  0.2562853E+02  0.7546771E-02  0.1461893E+00
         21   -1    0    0  504  501  0.00000000000E+00  0.00000000000E+00  0.73667446815E+01  0.73667446815E+01  0.00000000000E+00 0. -1.
         21   -1    0    0  503  502 -0.00000000000E+00 -0.00000000000E+00 -0.15473049108E+03  0.15473049108E+03  0.00000000000E+00 0.  1.
         21    1    1    2  503  501 -0.21910710610E+02 -0.13294446291E+02 -0.20921152778E+02  0.33083472840E+02  0.00000000000E+00 0. -1.
         21    1    1    2  504  502  0.21910710610E+02  0.13294446291E+02 -0.12644259362E+03  0.12901376292E+03  0.00000000000E+00 0.  1.
</event>
<event>
 4    1  0.1589319E+006  0.2720519E+02  0.7546771E-02  0.1445558E+00
         21   -1    0    0  504  501  0.00000000000E+00  0.00000000000E+00  0.58011231550E+01  0.58011231550E+01  0.00000000000E+00 0.  1.
         21   -1    0    0  503  502 -0.00000000000E+00 -0.00000000000E+00 -0.15170524937E+03  0.15170524937E+03  0.00000000000E+00 0. -1.
         21    1    1    2  503  501  0.20747800194E+02 -0.17596906188E+02 -0.41548392264E+02  0.49662774993E+02  0.00000000000E+00 0.  1.
         21    1    1    2  504  502 -0.20747800194E+02  0.17596906188E+02 -0.10435573395E+03  0.10784359753E+03  0.00000000000E+00 0. -1.
</event>
<event>
 4    1  0.1589319E+006  0.3258034E+02  0.7546771E-02  0.1398422E+00
         21   -1    0    0  502  501  0.00000000000E+00  0.00000000000E+00  0.90736091338E+02  0.90736091338E+02  0.00000000000E+00 0. -1.
         21   -1    0    0  504  502 -0.00000000000E+00 -0.00000000000E+00 -0.83862236281E+03  0.83862236281E+03  0.00000000000E+00 0. -1.
         21    1    1    2  503  501 -0.26416180701E+02  0.19069975927E+02  0.87483641952E+02  0.93353447681E+02  0.00000000000E+00 0. -1.
         21    1    1    2  504  503  0.26416180701E+02 -0.19069975927E+02 -0.83536991342E+03  0.83600500647E+03  0.00000000000E+00 0. -1.
</event>
<event>
 4    1  0.1589319E+006  0.3112384E+02  0.7546771E-02  0.1410075E+00
         21   -1    0    0  504  501  0.00000000000E+00  0.00000000000E+00  0.10551599880E+03  0.10551599880E+03  0.00000000000E+00 0.  1.
         21   -1    0    0  501  502 -0.00000000000E+00 -0.00000000000E+00 -0.13188058865E+02  0.13188058865E+02  0.00000000000E+00 0.  1.
         21    1    1    2  503  502  0.11192098438E+02  0.29041869773E+02  0.13446236037E+02  0.33904196362E+02  0.00000000000E+00 0.  1.
         21    1    1    2  504  503 -0.11192098438E+02 -0.29041869773E+02  0.78881703901E+02  0.84799861307E+02  0.00000000000E+00 0.  1.
</event>
<event>
 4    1  0.1589319E+006  0.2072634E+02  0.7546771E-02  0.1523208E+00
         21   -1    0    0  504  501  0.00000000000E+00  0.00000000000E+00  0.68904048730E+02  0.68904048730E+02  0.00000000000E+00 0.  1.
         21   -1    0    0  503  502 -0.00000000000E+00 -0.00000000000E+00 -0.88090432173E+02  0.88090432173E+02  0.00000000000E+00 0.  1.
         21    1    1    2  503  501  0.19667235007E+02 -0.65407297524E+01  0.66075310474E+02  0.69249750416E+02  0.00000000000E+00 0.  1.
         21    1    1    2  504  502 -0.19667235007E+02  0.65407297524E+01 -0.85261693917E+02  0.87744730487E+02  0.00000000000E+00 0.  1.
</event>
<event>
 4    1  0.1589319E+006  0.2248158E+02  0.7546771E-02  0.1499113E+00
         21   -1    0    0  503  501  0.00000000000E+00  0.00000000000E+00  0.88902457314E+01  0.88902457314E+01  0.00000000000E+00 0.  1.
         21   -1    0    0  504  502 -0.00000000000E+00 -0.00000000000E+00 -0.61562505704E+02  0.61562505704E+02  0.00000000000E+00 0.  1.
         21    1    1    2  503  502 -0.99873020062E+01 -0.20141381523E+02 -0.16591197392E+02  0.27940817488E+02  0.00000000000E+00 0.  1.
         21    1    1    2  504  501  0.99873020062E+01  0.20141381523E+02 -0.36081062581E+02  0.42511933947E+02  0.00000000000E+00 0.  1.
</event>
<event>
 4    1  0.1589319E+006  0.2164499E+02  0.7546771E-02  0.1510252E+00
         21   -1    0    0  504  501  0.00000000000E+00  0.00000000000E+00  0.10253784124E+03  0.10253784124E+03  0.00000000000E+00 0. -1.
         21   -1    0    0  503  502 -0.00000000000E+00 -0.00000000000E+00 -0.52105306652E+01  0.52105306652E+01  0.00000000000E+00 0.  1.
         21    1    1    2  503  501  0.20998815663E+02 -0.52493112063E+01  0.29761339761E+02  0.36800039018E+02  0.00000000000E+00 0.  1.
         21    1    1    2  504  502 -0.20998815663E+02  0.52493112063E+01  0.67565970810E+02  0.70948332883E+02  0.00000000000E+00 0. -1.
</event>
<event>
 4    1  0.1589319E+006  0.2140456E+02  0.7546771E-02  0.1513567E+00
         21   -1    0    0  504  501  0.00000000000E+00  0.00000000000E+00  0.72756892042E+01  0.72756892042E+01  0.00000000000E+00 0. -1.
         21   -1    0    0  503  502 -0.00000000000E+00 -0.00000000000E+00 -0.67664311418E+02  0.67664311418E+02  0.00000000000E+00 0. -1.
         21    1    1    2  503  501  0.18719783613E+02 -0.10379052419E+02 -0.40062984897E+02  0.45422437038E+02  0.00000000000E+00 0. -1.
         21    1    1    2  504  502 -0.18719783613E+02  0.10379052419E+02 -0.20325637317E+02  0.29517563584E+02  0.00000000000E+00 0. -1.
</event>
<event>
 4    1  0.1589319E+006  0.2332379E+02  0.7546771E-02  0.1488472E+00
         21   -1    0    0  503  501  0.00000000000E+00  0.00000000000E+00  0.14615332232E+03  0.14615332232E+03  0.00000000000E+00 0.  1.
         21   -1    0    0  504  502 -0.00000000000E+00 -0.00000000000E+00 -0.43985894776E+01  0.43985894776E+01  0.00000000000E+00 0.  1.
         21    1    1    2  503  502  0.23194491503E+02  0.24525438454E+01  0.10039798248E+03  0.10307159790E+03  0.00000000000E+00 0.  1.
         21    1    1    2  504  501 -0.23194491503E+02 -0.24525438454E+01  0.41356750364E+02  0.47480313901E+02  0.00000000000E+00 0.  1.
</event>
<event>
 4    1  0.1589319E+006  0.2649215E+02  0.7546771E-02  0.1452777E+00
         21   -1    0    0  504  501  0.00000000000E+00  0.00000000000E+00  0.89948450723E+02  0.89948450723E+02  0.00000000000E+00 0.  1.
         21   -1    0    0  503  502 -0.00000000000E+00 -0.00000000000E+00 -0.78094802340E+01  0.78094802340E+01  0.00000000000E+00 0.  1.
         21    1    1    2  503  501  0.59114149869E+01 -0.25824198361E+02  0.42517642789E+02  0.50095748288E+02  0.00000000000E+00 0.  1.
         21    1    1    2  504  502 -0.59114149869E+01  0.25824198361E+02  0.39621327700E+02  0.47662182670E+02  0.00000000000E+00 0.  1.
</event>
<event>
 4    1  0.1589319E+006  0.2328801E+02  0.7546771E-02  0.1488913E+00
         21   -1    0    0  504  501  0.00000000000E+00  0.00000000000E+00  0.16611475232E+01  0.16611475232E+01  0.00000000000E+00 0.  1.
         21   -1    0    0  503  502 -0.00000000000E+00 -0.00000000000E+00 -0.39134234830E+03  0.39134234830E+03  0.00000000000E+00 0.  1.
         21    1    1    2  503  501  0.72874990251E+01  0.22118401163E+02 -0.27483960681E+03  0.27582447459E+03  0.00000000000E+00 0.  1.
         21    1    1    2  504  502 -0.72874990251E+01 -0.22118401163E+02 -0.11484159397E+03  0.11717902123E+03  0.00000000000E+00 0.  1.
</event>
<event>
 4    1  0.1589319E+006  0.2833378E+02  0.7546771E-02  0.1434651E+00
         21   -1    0    0  503  501  0.00000000000E+00  0.00000000000E+00  0.20473573522E+02  0.20473573522E+02  0.00000000000E+00 0.  1.
         21   -1    0    0  501  502 -0.00000000000E+00 -0.00000000000E+00 -0.69443036269E+02  0.69443036269E+02  0.00000000000E+00 0. -1.
         21    1    1    2  503  504  0.27459371661E+02  0.69847079611E+01  0.51789047367E+01  0.28803199329E+02  0.00000000000E+00 0.  1.
         21    1    1    2  504  502 -0.27459371661E+02 -0.69847079611E+01 -0.54148367483E+02  0.61113410463E+02  0.00000000000E+00 0. -1.
</event>
<event>
 4    1  0.1589319E+006  0.2215236E+02  0.7546771E-02  0.1503425E+00
         21   -1    0    0  503  501  0.00000000000E+00  0.00000000000E+00  0.23017204924E+03  0.23017204924E+03  0.00000000000E+00 0.  1.
         21   -1    0    0  501  502 -0.00000000000E+00 -0.00000000000E+00 -0.23129556374E+01  0.23129556374E+01  0.00000000000E+00 0.  1.
         21    1    1    2  503  504 -0.18657139174E+02 -0.11943132306E+02  0.14644314624E+03  0.14810915681E+03  0.00000000000E+00 0.  1.
         21    1    1    2  504  502  0.18657139174E+02  0.11943132306E+02  0.81415947358E+02  0.84375848059E+02  0.00000000000E+00 0.  1.
</event>
<event>
 4    1  0.1589319E+006  0.2263096E+02  0.7546771E-02  0.1497185E+00
         21   -1    0    0  504  501  0.00000000000E+00  0.00000000000E+00  0.17804916024E+02  0.17804916024E+02  0.00000000000E+00 0. -1.
         21   -1    0    0  503  502 -0.00000000000E+00 -0.00000000000E+00 -0.28777058893E+02  0.28777058893E+02  0.00000000000E+00 0. -1.
         21    1    1    2  503  501  0.20591137347E+02  0.93896363707E+01 -0.59608502778E+01  0.23402819156E+02  0.00000000000E+00 0. -1.
         21    1    1    2  504  502 -0.20591137347E+02 -0.93896363707E+01 -0.50112925908E+01  0.23179155762E+02  0.00000000000E+00 0. -1.
</event>
<event>
 4    1  0.1589319E+006  0.3621054E+02  0.7546771E-02  0.1372247E+00
         21   -1    0    0  503  501  0.00000000000E+00  0.00000000000E+00  0.64823368557E+02  0.64823368557E+02  0.00000000000E+00 0.  1.
         21   -1    0    0  504  502 -0.00000000000E+00 -0.00000000000E+00 -0.80950227720E+02  0.80950227720E+02  0.00000000000E+00 0.  1.
         21    1    1    2  503  502  0.68005753184E-01 -0.36210475764E+02 -0.71190568430E+02  0.79870521554E+02  0.00000000000E+00 0.  1.
         21    1    1    2  504  501 -0.68005753184E-01  0.36210475764E+02  0.55063709267E+02  0.65903074724E+02  0.00000000000E+00 0.  1.
</event>
<event>
 4    1  0.1589319E+006  0.2122914E+02  0.7546771E-02  0.1516018E+00
         21   -1    0    0  503  501  0.00000000000E+00  0.00000000000E+00  0.39097128008E+02  0.39097128008E+02  0.00000000000E+00 0.  1.
         21   -1    0    0  501  502 -0.00000000000E+00 -0.00000000000E+00 -0.56276977061E+02  0.56276977061E+02  0.00000000000E+00 0.  1.
         21    1    1    2  503  504 -0.17781298555E+02 -0.11597499940E+02  0.33933772292E+02  0.40027209310E+02  0.00000000000E+00 0.  1.
         21    1    1    2  504  502  0.17781298555E+02  0.11597499940E+02 -0.51113621345E+02  0.55346895759E+02  0.00000000000E+00 0.  1.
</event>
<event>
 4    1  0.1589319E+006  0.2102872E+02  0.7546771E-02  0.1518855E+00
         21   -1    0    0  504  501  0.00000000000E+00  0.00000000000E+00  0.28255934578E+03  0.28255934578E+03  0.00000000000E+00 0.  1.
         21   -1    0    0  501  502 -0.00000000000E+00 -0.00000000000E+00 -0.15385450962E+02  0.15385450962E+02  0.00000000000E+00 0. -1.
         21    1    1    2  503  502  0.28573802566E+01  0.20833680832E+02 -0.76055818780E+01  0.22361837014E+02  0.00000000000E+00 0. -1.
         21    1    1    2  504  503 -0.28573802566E+01 -0.20833680832E+02  0.27477947670E+03  0.27558295973E+03  0.00000000000E+00 0.  1.
</event>
<event>
 4    1  0.1589319E+006  0.2227481E+02  0.7546771E-02  0.1501811E+00
         21   -1    0    0  502  501  0.00000000000E+00  0.00000000000E+00  0.34010873239E+02  0.34010873239E+02  0.00000000000E+00 0. -1.
         21   -1    0    0  504  502 -0.00000000000E+00 -0.00000000000E+00 -0.20630058608E+03  0.20630058608E+03  0.00000000000E+00 0.  1.
         21    1    1    2  503  501  0.22099104035E+02 -0.27922746741E+01  0.29684599108E+02  0.37112566890E+02  0.00000000000E+00 0. -1.
         21    1    1    2  504  503 -0.22099104035E+02  0.27922746741E+01 -0.20197431194E+03  0.20319889242E+03  0.00000000000E+00 0.  1.
</event>
<event>
 4    1  0.1589319E+006  0.3608984E+02  0.7546771E-02  0.1373059E+00
         21   -1    0    0  503  501  0.00000000000E+00  0.00000000000E+00  0.47335105654E+03  0.47335105654E+03  0.00000000000E+00 0. -1.
         21   -1    0    0  504  502 -0.00000000000E+00 -0.00000000000E+00 -0.48647157405E+02  0.48647157405E+02  0.00000000000E+00 0.  1.
         21    1    1    2  503  502  0.14391375580E+02 -0.33096297975E+02 -0.41158329306E+02  0.54740156211E+02  0.00000000000E+00 0.  1.
         21    1    1    2  504  501 -0.14391375580E+02  0.33096297975E+02  0.46586222844E+03  0.46725805773E+03  0.00000000000E+00 0. -1.
</event>
<event>
 4    1  0.1589319E+006  0.2157660E+02  0.7546771E-02  0.1511189E+00
         21   -1    0    0  504  501  0.00000000000E+00  0.00000000000E+00  0.43239616518E+02  0.43239616518E+02  0.00000000000E+00 0.  1.
         21   -1    0    0  501  502 -0.00000000000E+00 -0.00000000000E+00 -0.16573239197E+03  0.16573239197E+03  0.00000000000E+00 0. -1.
         21    1    1    2  503  502 -0.15698285812E+02  0.14802476053E+02 -0.16228145929E+03  0.16370956449E+03  0.00000000000E+00 0. -1.
         21    1    1    2  504  503  0.15698285812E+02 -0.14802476053E+02  0.39788683843E+02  0.45262443998E+02  0.00000000000E+00 0.  1.
</event>
<event>
 4    1  0.1589319E+006  0.2103972E+02  0.7546771E-02  0.1518698E+00
         21   -1    0    0  504  501  0.00000000000E+00  0.00000000000E+00  0.27945704410E+01  0.27945704410E+01  0.00000000000E+00 0. -1.
         21   -1    0    0  503  502 -0.00000000000E+00 -0.00000000000E+00 -0.12658810503E+04  0.12658810503E+04  0.00000000000E+00 0.  1.
         21    1    1    2  503  501  0.21029655169E+02 -0.65068630894E+00 -0.38219655770E+02  0.43628108788E+02  0.00000000000E+00 0. -1.
         21    1    1    2  504  502 -0.21029655169E+02  0.65068630894E+00 -0.12248668241E+04  0.12250475119E+04  0.00000000000E+00 0.  1.
</event>
<event>
 4    1  0.1589319E+006  0.2314141E+02  0.7546771E-02  0.1490730E+00
         21   -1    0    0  504  501  0.00000000000E+00  0.00000000000E+00  0.32303322636E+03  0.32303322636E+03  0.00000000000E+00 0.  1.
         21   -1    0    0  501  502 -0.00000000000E+00 -0.00000000000E+00 -0.29855756584E+01  0.29855756584E+01  0.00000000000E+00 0.  1.
         21    1    1    2  503  502  0.59166843394E+01  0.22372254089E+02  0.51316015100E+02  0.56292613301E+02  0.00000000000E+00 0.  1.
         21    1    1    2  504  503 -0.59166843394E+01 -0.22372254089E+02  0.26873163560E+03  0.26972618872E+03  0.00000000000E+00 0.  1.
</event>
<event>
 4    1  0.1589319E+006  0.2131450E+02  0.7546771E-02  0.1514822E+00
         21   -1    0    0  502  501  0.00000000000E+00  0.00000000000E+00  0.74730694085E+02  0.74730694085E+02  0.00000000000E+00 0.  1.
         21   -1    0    0  503  502 -0.00000000000E+00 -0.00000000000E+00 -0.12109684329E+03  0.12109684329E+03  0.00000000000E+00 0. -1.
         21    1    1    2  503  504  0.52068264092E+01 -0.20668742478E+02 -0.11860747916E+03  0.12050743574E+03  0.00000000000E+00 0. -1.
         21    1    1    2  504  501 -0.52068264092E+01  0.20668742478E+02  0.72241329953E+02  0.75320101634E+02  0.00000000000E+00 0.  1.
</event>
<event>
 4    1  0.1589319E+006  0.2018136E+02  0.7546771E-02  0.1531281E+00
         21   -1    0    0  504  501  0.00000000000E+00  0.00000000000E+00  0.31723212251E+03  0.31723212251E+03  0.00000000000E+00 0.  1.
         21   -1    0    0  503  502 -0.00000000000E+00 -0.00000000000E+00 -0.84940473636E+02  0.84940473636E+02  0.00000000000E+00 0.  1.
         21    1    1    2  503  501 -0.44845934746E+01 -0.19676783048E+02 -0.83414974151E+02  0.85821589839E+02  0.00000000000E+00 0.  1.
         21    1    1    2  504  502  0.44845934746E+01  0.19676783048E+02  0.31570662302E+03  0.31635100630E+03  0.00000000000E+00 0.  1.
</event>
<event>
 4    1  0.1589319E+006  0.2463674E+02  0.7546771E-02  0.1472908E+00
         21   -1    0    0  504  501  0.00000000000E+00  0.00000000000E+00  0.12917811476E+03  0.12917811476E+03  0.00000000000E+00 0.  1.
         21   -1    0    0  503  502 -0.00000000000E+00 -0.00000000000E+00 -0.49223902779E+01  0.49223902779E+01  0.00000000000E+00 0.  1.
         21    1    1    2  503  501 -0.24615289449E+02  0.10278406495E+01  0.76421343933E+02  0.80294400425E+02  0.00000000000E+00 0.  1.
         21    1    1    2  504  502  0.24615289449E+02 -0.10278406495E+01  0.47834380548E+02  0.53806104612E+02  0.00000000000E+00 0.  1.
</event>
<event>
 4    1  0.1589319E+006  0.2076143E+02  0.7546771E-02  0.1522698E+00
         21   -1    0    0  502  501  0.00000000000E+00  0.00000000000E+00  0.17709386281E+02  0.17709386281E+02  0.00000000000E+00 0.  1.
         21   -1    0    0  503  502 -0.00000000000E+00 -0.00000000000E+00 -0.50795716067E+02  0.50795716067E+02  0.00000000000E+00 0.  1.
         21    1    1    2  503  504  0.39925635092E+01 -0.20373913176E+02 -0.41262886301E+02  0.46191586759E+02  0.00000000000E+00 0.  1.
         21    1    1    2  504  501 -0.39925635092E+01  0.20373913176E+02  0.81765565142E+01  0.22313515588E+02  0.00000000000E+00 0.  1.
</event>
<event>
 4    1  0.1589319E+006  0.2033721E+02  0.7546771E-02  0.1528942E+00
         21   -1    0    0  503  501  0.00000000000E+00  0.00000000000E+00  0.67705759847E+01  0.67705759847E+01  0.00000000000E+00 0. -1.
         21   -1    0    0  504  502 -0.00000000000E+00 -0.00000000000E+00 -0.10721370160E+03  0.10721370160E+03  0.00000000000E+00 0.  1.
         21    1    1    2  503  502  0.17263354883E+02 -0.10750753109E+02 -0.87603386961E+02  0.89933061336E+02  0.00000000000E+00 0.  1.
         21    1    1    2  504  501 -0.17263354883E+02  0.10750753109E+02 -0.12839738650E+02  0.24051216244E+02  0.00000000000E+00 0. -1.
</event>
<event>
 4    1  0.1589319E+006  0.2801400E+02  0.7546771E-02  0.1437680E+00
         21   -1    0    0  503  501  0.00000000000E+00  0.00000000000E+00  0.26360236968E+03  0.26360236968E+03  0.00000000000E+00 0. -1.
         21   -1    0    0  504  502 -0.00000000000E+00 -0.00000000000E+00 -0.22393281756E+03  0.22393281756E+03  0.00000000000E+00 0. -1.
         21    1    1    2  503  502  0.26573945920E+02 -0.88661945200E+01 -0.22230697015E+03  0.22406510880E+03  0.00000000000E+00 0. -1.
         21    1    1    2  504  501 -0.26573945920E+02  0.88661945200E+01  0.26197652227E+03  0.26347007843E+03  0.00000000000E+00 0. -1.
</event>
<event>
 4    1  0.1589319E+006  0.2580790E+02  0.7546771E-02  0.1459965E+00
         21   -1    0    0  504  501  0.00000000000E+00  0.00000000000E+00  0.13097702681E+03  0.13097702681E+03  0.00000000000E+00 0. -1.
         21   -1    0    0  501  502 -0.00000000000E+00 -0.00000000000E+00 -0.37183613328E+02  0.37183613328E+02  0.00000000000E+00 0. -1.
         21    1    1    2  503  502 -0.19865331075E+02 -0.16474725400E+02 -0.31222919879E+02  0.40508254486E+02  0.00000000000E+00 0. -1.
         21    1    1    2  504  503  0.19865331075E+02  0.16474725400E+02  0.12501633336E+03  0.12765238565E+03  0.00000000000E+00 0. -1.
</event>
<event>
 4    1  0.1589319E+006  0.3978300E+02  0.7546771E-02  0.1349762E+00
         21   -1    0    0  503  501  0.00000000000E+00  0.00000000000E+00  0.75129542062E+03  0.75129542062E+03  0.00000000000E+00 0. -1.
         21   -1    0    0  504  502 -0.00000000000E+00 -0.00000000000E+00 -0.81516976910E+02  0.81516976910E+02  0.00000000000E+00 0. -1.
         21    1    1    2  503  502 -0.21706992361E+01  0.39723736974E+02 -0.76101248330E+02  0.85872505563E+02  0.00000000000E+00 0. -1.
         21    1    1    2  504  501  0.21706992361E+01 -0.39723736974E+02  0.74587969204E+03  0.74693989197E+03  0.00000000000E+00 0. -1.
</event>
<event>
 4    1  0.1589319E+006  0.2640797E+02  0.7546771E-02  0.1453648E+00
         21   -1    0    0  504  501  0.00000000000E+00  0.00000000000E+00  0.17508398779E+03  0.17508398779E+03  0.00000000000E+00 0.  1.
         21   -1    0    0  503  502 -0.00000000000E+00 -0.00000000000E+00 -0.40296179830E+01  0.40296179830E+01  0.00000000000E+00 0.  1.
         21    1    1    2  503  501 -0.44165703557E+01 -0.26036028948E+02  0.75907208628E+02  0.80369678479E+02  0.00000000000E+00 0.  1.
         21    1    1    2  504  502  0.44165703557E+01  0.26036028948E+02  0.95147161179E+02  0.98743927294E+02  0.00000000000E+00 0.  1.
</event>
<event>
 4    1  0.1589319E+006  0.2821518E+02  0.7546771E-02  0.1435769E+00
         21   -1    0    0  504  501  0.00000000000E+00  0.00000000000E+00  0.25519022168E+01  0.25519022168E+01  0.00000000000E+00 0. -1.
         21   -1    0    0  503  502 -0.00000000000E+00 -0.00000000000E+00 -0.34321670466E+03  0.34321670466E+03  0.00000000000E+00 0. -1.
         21    1    1    2  503  501  0.72249419811E+01  0.27274462815E+02 -0.22250352291E+03  0.22428534018E+03  0.00000000000E+00 0. -1.
         21    1    1    2  504  502 -0.72249419811E+01 -0.27274462815E+02 -0.11816127953E+03  0.12148326670E+03  0.00000000000E+00 0. -1.
</event>
<event>
 4    1  0.1589319E+006  0.2120553E+02  0.7546771E-02  0.1516350E+00
         21   -1    0    0  504  501  0.00000000000E+00  0.00000000000E+00  0.34646993250E+02  0.34646993250E+02  0.00000000000E+00 0.  1.
         21   -1    0    0  503  502 -0.00000000000E+00 -0.00000000000E+00 -0.76797119389E+02  0.76797119389E+02  0.00000000000E+00 0. -1.
         21    1    1    2  503  501  0.19053100331E+02 -0.93088139695E+01 -0.71870830119E+02  0.74933910026E+02  0.00000000000E+00 0. -1.
         21    1    1    2  504  502 -0.19053100331E+02  0.93088139695E+01  0.29720703980E+02  0.36510202613E+02  0.00000000000E+00 0.  1.
</event>
<event>
 4    1  0.1589319E+006  0.2349431E+02  0.7546771E-02  0.1486383E+00
         21   -1    0    0  504  501  0.00000000000E+00  0.00000000000E+00  0.34603778376E+01  0.34603778376E+01  0.00000000000E+00 0.  1.
         21   -1    0    0  503  502 -0.00000000000E+00 -0.00000000000E+00 -0.18411108929E+03  0.18411108929E+03  0.00000000000E+00 0.  1.
         21    1    1    2  503  501  0.17461728619E+02  0.15718484879E+02 -0.56046335421E+02  0.60771493707E+02  0.00000000000E+00 0.  1.
         21    1    1    2  504  502 -0.17461728619E+02 -0.15718484879E+02 -0.12460437603E+03  0.12679997342E+03  0.00000000000E+00 0.  1.
</event>
<event>
 4    1  0.1589319E+006  0.2980379E+02  0.7546771E-02  0.1421309E+00
         21   -1    0    0  504  501  0.00000000000E+00  0.00000000000E+00  0.10249223940E+03  0.10249223940E+03  0.00000000000E+00 0. -1.
         21   -1    0    0  503  502 -0.00000000000E+00 -0.00000000000E+00 -0.13841638487E+02  0.13841638487E+02  0.00000000000E+00 0. -1.
         21    1    1    2  503  501 -0.53852588444E+01  0.29313221050E+02  0.87591789601E+01  0.31064274612E+02  0.00000000000E+00 0. -1.
         21    1    1    2  504  502  0.53852588444E+01 -0.29313221050E+02  0.79891421954E+02  0.85269603277E+02  0.00000000000E+00 0. -1.
</event>
<event>
 4    1  0.1589319E+006  0.2786452E+02  0.7546771E-02  0.1439112E+00
         21   -1    0    0  502  501  0.00000000000E+00  0.00000000000E+00  0.51265287201E+03  0.51265287201E+03  0.00000000000E+00 0. -1.
         21   -1    0    0  504  502 -0.00000000000E+00 -0.00000000000E+00 -0.20881596061E+02  0.20881596061E+02  0.00000000000E+00 0. -1.
         21    1    1    2  503  501  0.51045398455E+01  0.27392976883E+02  0.50279651058E+03  0.50356803171E+03  0.00000000000E+00 0. -1.
         21    1    1    2  504  503 -0.51045398455E+01 -0.27392976883E+02 -0.11025234630E+02  0.29966436361E+02  0.00000000000E+00 0. -1.
</event>
<event>
 4    1  0.1589319E+006  0.2119386E+02  0.7546771E-02  0.1516515E+00
         21   -1    0    0  503  501  0.00000000000E+00  0.00000000000E+00  0.20528928244E+02  0.20528928244E+02  0.00000000000E+00 0.  1.
         21   -1    0    0  504  502 -0.00000000000E+00 -0.00000000000E+00 -0.41998213074E+02  0.41998213074E+02  0.00000000000E+00 0.  1.
         21    1    1    2  503  502 -0.26331869261E+01 -0.21029642857E+02  0.10903222349E+02  0.23834005322E+02  0.00000000000E+00 0.  1.
         21    1    1    2  504  501  0.26331869261E+01  0.21029642857E+02 -0.32372507180E+02  0.38693135996E+02  0.00000000000E+00 0.  1.
</event>
<event>
 4    1  0.1589319E+006  0.2885733E+02  0.7546771E-02  0.1429793E+00
         21   -1    0    0  504  501  0.00000000000E+00  0.00000000000E+00  0.62193858842E+00  0.62193858842E+00  0.00000000000E+00 0.  1.
         21   -1    0    0  503  502 -0.00000000000E+00 -0.00000000000E+00 -0.13890810005E+04  0.13890810005E+04  0.00000000000E+00 0.  1.
         21    1    1    2  503  501  0.13133795216E+02 -0.25695304837E+02 -0.82623053688E+03  0.82673432573E+03  0.00000000000E+00 0.  1.
         21    1    1    2  504  502 -0.13133795216E+02  0.25695304837E+02 -0.56222852505E+03  0.56296861338E+03  0.00000000000E+00 0.  1.
</event>
<event>
 4    1  0.1589319E+006  0.3693907E+02  0.7546771E-02  0.1367421E+00
         21   -1    0    0  503  501  0.00000000000E+00  0.00000000000E+00  0.51780821972E+01  0.51780821972E+01  0.00000000000E+00 0.  1.
         21   -1    0    0  504  502 -0.00000000000E+00 -0.00000000000E+00 -0.77420525929E+03  0.77420525929E+03  0.00000000000E+00 0. -1.
         21    1    1    2  503  502  0.80460320290E+01  0.36052128965E+02 -0.68014485317E+02  0.77398093305E+02  0.00000000000E+00 0.  1.
         21    1    1    2  504  501 -0.80460320290E+01 -0.36052128965E+02 -0.70101269178E+03  0.70198524818E+03  0.00000000000E+00 0. -1.
</event>
<event>
 4    1  0.1589319E+006  0.2496164E+02  0.7546771E-02  0.1469233E+00
         21   -1    0    0  504  501  0.00000000000E+00  0.00000000000E+00  0.12045893229E+03  0.12045893229E+03  0.00000000000E+00 0.  1.
         21   -1    0    0  503  502 -0.00000000000E+00 -0.00000000000E+00 -0.62277437158E+02  0.62277437158E+02  0.00000000000E+00 0.  1.
         21    1    1    2  503  501 -0.24573941628E+02 -0.43823548577E+01 -0.58400810308E+02  0.63511717705E+02  0.00000000000E+00 0.  1.
         21    1    1    2  504  502  0.24573941628E+02  0.43823548577E+01  0.11658230544E+03  0.11922465175E+03  0.00000000000E+00 0.  1.
</event>
<event>
 4    1  0.1589319E+006  0.2733739E+02  0.7546771E-02  0.1444248E+00
         21   -1    0    0  502  501  0.00000000000E+00  0.00000000000E+00  0.14821785359E+02  0.14821785359E+02  0.00000000000E+00 0.  1.
         21   -1    0    0  503  502 -0.00000000000E+00 -0.00000000000E+00 -0.70455428929E+02  0.70455428929E+02  0.00000000000E+00 0. -1.
         21    1    1    2  503  504 -0.27195244270E+02  0.27842101550E+01 -0.50553730146E+02  0.57471843269E+02  0.00000000000E+00 0. -1.
         21    1    1    2  504  501  0.27195244270E+02 -0.27842101550E+01 -0.50799134249E+01  0.27805371019E+02  0.00000000000E+00 0.  1.
</event>
<event>
 4    1  0.1589319E+006  0.2267306E+02  0.7546771E-02  0.1496645E+00
         21   -1    0    0  503  501  0.00000000000E+00  0.00000000000E+00  0.45804798670E+03  0.45804798670E+03  0.00000000000E+00 0. -1.
         21   -1    0    0  504  502 -0.00000000000E+00 -0.00000000000E+00 -0.10598532087E+02  0.10598532087E+02  0.00000000000E+00 0. -1.
         21    1    1    2  503  502  0.60337744901E+01 -0.21855461192E+02  0.21550289915E+01  0.22775244642E+02  0.00000000000E+00 0. -1.
         21    1    1    2  504  501 -0.60337744901E+01  0.21855461192E+02  0.44529442562E+03  0.44587127415E+03  0.00000000000E+00 0. -1.
</event>
<event>
 4    1  0.1589319E+006  0.3192623E+02  0.7546771E-02  0.1403564E+00
         21   -1    0    0  504  501  0.00000000000E+00  0.00000000000E+00  0.16465164822E+04  0.16465164822E+04  0.00000000000E+00 0. -1.
         21   -1    0    0  501  502 -0.00000000000E+00 -0.00000000000E+00 -0.23890289282E+02  0.23890289282E+02  0.00000000000E+00 0.  1.
         21    1    1    2  503  502  0.22026460158E+02  0.23111025615E+02 -0.12998197241E+02  0.34470822206E+02  0.00000000000E+00 0.  1.
         21    1    1    2  504  503 -0.22026460158E+02 -0.23111025615E+02  0.16356243902E+04  0.16359359493E+04  0.00000000000E+00 0. -1.
</event>
<event>
 4    1  0.1589319E+006  0.2907785E+02  0.7546771E-02  0.1427783E+00
         21   -1    0    0  504  501  0.00000000000E+00  0.00000000000E+00  0.29769577149E+03  0.29769577149E+03  0.00000000000E+00 0. -1.
         21   -1    0    0  503  502 -0.00000000000E+00 -0.00000000000E+00 -0.80589051776E+01  0.80589051776E+01  0.00000000000E+00 0.  1.
         21    1    1    2  503  501 -0.28901825418E+02 -0.31946709255E+01  0.26784124411E+03  0.26941502089E+03  0.00000000000E+00 0. -1.
         21    1    1    2  504  502  0.28901825418E+02  0.31946709255E+01  0.21795622201E+02  0.36339655777E+02  0.00000000000E+00 0.  1.
</event>
<event>
 4    1  0.1589319E+006  0.2652398E+02  0.7546771E-02  0.1452449E+00
         21   -1    0    0  503  501  0.00000000000E+00  0.00000000000E+00  0.17459036937E+02  0.17459036937E+02  0.00000000000E+00 0. -1.
         21   -1    0    0  504  502 -0.00000000000E+00 -0.00000000000E+00 -0.49044636691E+02  0.49044636691E+02  0.00000000000E+00 0. -1.
         21    1    1    2  503  502 -0.13339638465E+02  0.22925429575E+02 -0.17484528313E+01  0.26581541770E+02  0.00000000000E+00 0. -1.
         21    1    1    2  504  501  0.13339638465E+02 -0.22925429575E+02 -0.29837146922E+02  0.39922131858E+02  0.00000000000E+00 0. -1.
</event>
<event>
 4    1  0.1589319E+006  0.2203867E+02  0.7546771E-02  0.1504936E+00
         21   -1    0    0  503  501  0.00000000000E+00  0.00000000000E+00  0.18045735577E+03  0.18045735577E+03  0.00000000000E+00 0.  1.
         21   -1    0    0  501  502 -0.00000000000E+00 -0.00000000000E+00 -0.58647494764E+01  0.58647494764E+01  0.00000000000E+00 0.  1.
         21    1    1    2  503  504 -0.20606569879E+02  0.78148801967E+01  0.15582318425E+03  0.15737397442E+03  0.00000000000E+00 0.  1.
         21    1    1    2  504  502  0.20606569879E+02 -0.78148801967E+01  0.18769422050E+02  0.28948130833E+02  0.00000000000E+00 0.  1.
</event>
<event>
 4    1  0.1589319E+006  0.2094673E+02  0.7546771E-02  0.1520027E+00
         21   -1    0    0  504  501  0.00000000000E+00  0.00000000000E+00  0.74191017846E+03  0.74191017846E+03  0.00000000000E+00 0. -1.
         21   -1    0    0  503  502 -0.00000000000E+00 -0.00000000000E+00 -0.59513996805E+00  0.59513996805E+00  0.00000000000E+00 0. -1.
         21    1    1    2  503  501  0.20237078079E+02  0.54061362103E+01  0.40008799078E+03  0.40063595196E+03  0.00000000000E+00 0. -1.
         21    1    1    2  504  502 -0.20237078079E+02 -0.54061362103E+01  0.34122704771E+03  0.34186936647E+03  0.00000000000E+00 0. -1.
</event>
<event>
 4    1  0.1589319E+006  0.2495962E+02  0.7546771E-02  0.1469256E+00
         21   -1    0    0  503  501  0.00000000000E+00  0.00000000000E+00  0.13382553504E+02  0.13382553504E+02  0.00000000000E+00 0.  1.
         21   -1    0    0  504  502 -0.00000000000E+00 -0.00000000000E+00 -0.94093161738E+02  0.94093161738E+02  0.00000000000E+00 0.  1.
         21    1    1    2  503  502  0.16455235185E+02 -0.18767200698E+02 -0.78552977415E+02  0.82423011640E+02  0.00000000000E+00 0.  1.
         21    1    1    2  504  501 -0.16455235185E+02  0.18767200698E+02 -0.21576308189E+01  0.25052703603E+02  0.00000000000E+00 0.  1.
</event>
<event>
 4    1  0.1589319E+006  0.3339184E+02  0.7546771E-02  0.1392236E+00
         21   -1    0    0  502  501  0.00000000000E+00  0.00000000000E+00  0.31246677169E+02  0.31246677169E+02  0.00000000000E+00 0. -1.
         21   -1    0    0  503  502 -0.00000000000E+00 -0.00000000000E+00 -0.47402434748E+02  0.47402434748E+02  0.00000000000E+00 0. -1.
         21    1    1    2  503  504 -0.29062086252E+01  0.33265130580E+02 -0.27629971393E+02  0.43340861554E+02  0.00000000000E+00 0. -1.
         21    1    1    2  504  501  0.29062086252E+01 -0.33265130580E+02  0.11474213814E+02  0.35308250363E+02  0.00000000000E+00 0. -1.
</event>
<event>
 4    1  0.1589319E+006  0.2358279E+02  0.7546771E-02  0.1485307E+00
         21   -1    0    0  504  501  0.00000000000E+00  0.00000000000E+00  0.50948808281E+02  0.50948808281E+02  0.00000000000E+00 0.  1.
         21   -1    0    0  503  502 -0.00000000000E+00 -0.00000000000E+00 -0.26092071561E+03  0.26092071561E+03  0.00000000000E+00 0.  1.
         21    1    1    2  503  501  0.23427285365E+02 -0.27037399032E+01  0.47652135152E+02  0.53168354249E+02  0.00000000000E+00 0.  1.
         21    1    1    2  504  502 -0.23427285365E+02  0.27037399032E+01 -0.25762404249E+03  0.25870116964E+03  0.00000000000E+00 0.  1.
</event>
<event>
 4    1  0.1589319E+006  0.4173274E+02  0.7546771E-02  0.1338621E+00
         21   -1    0    0  503  501  0.00000000000E+00  0.00000000000E+00  0.65081081067E+02  0.65081081067E+02  0.00000000000E+00 0.  1.
         21   -1    0    0  504  502 -0.00000000000E+00 -0.00000000000E+00 -0.76819615802E+02  0.76819615802E+02  0.00000000000E+00 0.  1.
         21    1    1    2  503  502  0.24312376622E+02 -0.33919465158E+02  0.51404896060E+02  0.66212424156E+02  0.00000000000E+00 0.  1.
         21    1    1    2  504  501 -0.24312376622E+02  0.33919465158E+02 -0.63143430795E+02  0.75688272712E+02  0.00000000000E+00 0.  1.
</event>
<event>
 4    1  0.1589319E+006  0.2135871E+02  0.7546771E-02  0.1514205E+00
         21   -1    0    0  503  501  0.00000000000E+00  0.00000000000E+00  0.31997082215E+03  0.31997082215E+03  0.00000000000E+00 0.  1.
         21   -1    0    0  504  502 -0.00000000000E+00 -0.00000000000E+00 -0.14289876885E+01  0.14289876885E+01  0.00000000000E+00 0. -1.
         21    1    1    2  503  502  0.39195064489E+01 -0.20995994134E+02  0.15160654762E+03  0.15310368899E+03  0.00000000000E+00 0. -1.
         21    1    1    2  504  501 -0.39195064489E+01  0.20995994134E+02  0.16693528684E+03  0.16829612085E+03  0.00000000000E+00 0.  1.
</event>
<event>
 4    1  0.1589319E+006  0.2403811E+02  0.7546771E-02  0.1479858E+00
         21   -1    0    0  503  501  0.00000000000E+00  0.00000000000E+00  0.78931164173E+01  0.78931164173E+01  0.00000000000E+00 0. -1.
         21   -1    0    0  504  502 -0.00000000000E+00 -0.00000000000E+00 -0.20131761678E+03  0.20131761678E+03  0.00000000000E+00 0. -1.
         21    1    1    2  503  502 -0.23275965872E+02  0.60050211151E+01 -0.18015829285E+03  0.18175489361E+03  0.00000000000E+00 0. -1.
         21    1    1    2  504  501  0.23275965872E+02 -0.60050211151E+01 -0.13266207505E+02  0.27455839587E+02  0.00000000000E+00 0. -1.
</event>
<event>
 4    1  0.1589319E+006  0.3852929E+02  0.7546771E-02  0.1357326E+00
         21   -1    0    0  504  501  0.00000000000E+00  0.00000000000E+00  0.37302583960E+03  0.37302583960E+03  0.00000000000E+00 0. -1.
         21   -1    0    0  501  502 -0.00000000000E+00 -0.00000000000E+00 -0.41437700686E+02  0.41437700686E+02  0.00000000000E+00 0.  1.
         21    1    1    2  503  502 -0.15385100474E+02  0.35324285700E+02 -0.31235400432E+02  0.49599966905E+02  0.00000000000E+00 0.  1.
         21    1    1    2  504  503  0.15385100474E+02 -0.35324285700E+02  0.36282353935E+03  0.36486357339E+03  0.00000000000E+00 0. -1.
</event>
<event>
 4    1  0.1589319E+006  0.2124986E+02  0.7546771E-02  0.1515727E+00
         21   -1    0    0  504  501  0.00000000000E+00  0.00000000000E+00  0.71792495101E+02  0.71792495101E+02  0.00000000000E+00 0. -1.
         21   -1    0    0  503  502 -0.00000000000E+00 -0.00000000000E+00 -0.63668608153E+01  0.63668608153E+01  0.00000000000E+00 0.  1.
         21    1    1    2  503  501 -0.21242258055E+02  0.56820860353E+00  0.37013762258E+02  0.42679913130E+02  0.00000000000E+00 0. -1.
         21    1    1    2  504  502  0.21242258055E+02 -0.56820860353E+00  0.28411872028E+02  0.35479442786E+02  0.00000000000E+00 0.  1.
</event>
<event>
 4    1  0.1589319E+006  0.2133881E+02  0.7546771E-02  0.1514482E+00
         21   -1    0    0  504  501  0.00000000000E+00  0.00000000000E+00  0.15895203300E+03  0.15895203300E+03  0.00000000000E+00 0. -1.
         21   -1    0    0  501  502 -0.00000000000E+00 -0.00000000000E+00 -0.53852723150E+01  0.53852723150E+01  0.00000000000E+00 0. -1.
         21    1    1    2  503  502 -0.16486458851E+02 -0.13547747551E+02  0.20568061764E+02  0.29637644203E+02  0.00000000000E+00 0. -1.
         21    1    1    2  504  503  0.16486458851E+02  0.13547747551E+02  0.13299869892E+03  0.13469966111E+03  0.00000000000E+00 0. -1.
</event>
<event>
 4    1  0.1589319E+006  0.3652961E+02  0.7546771E-02  0.1370117E+00
         21   -1    0    0  503  501  0.00000000000E+00  0.00000000000E+00  0.52517481701E+01  0.52517481701E+01  0.00000000000E+00 0.  1.
         21   -1    0    0  504  502 -0.00000000000E+00 -0.00000000000E+00 -0.25710011769E+03  0.25710011769E+03  0.00000000000E+00 0.  1.
         21    1    1    2  503  502  0.65739032106E+00 -0.36523694457E+02 -0.11172859439E+03  0.11754867598E+03  0.00000000000E+00 0.  1.
         21    1    1    2  504  501 -0.65739032106E+00  0.36523694457E+02 -0.14011977513E+03  0.14480318988E+03  0.00000000000E+00 0.  1.
</event>
<event>
 4    1  0.1589319E+006  0.3360583E+02  0.7546771E-02  0.1390639E+00
         21   -1    0    0  503  501  0.00000000000E+00  0.00000000000E+00  0.62140843561E+03  0.62140843561E+03  0.00000000000E+00 0. -1.
         21   -1    0    0  504  502 -0.00000000000E+00 -0.00000000000E+00 -0.17565671106E+02  0.17565671106E+02  0.00000000000E+00 0.  1.
         21    1    1    2  503  502  0.33503731949E+02  0.26175954460E+01 -0.58687884025E+00  0.33610954869E+02  0.00000000000E+00 0.  1.
         21    1    1    2  504  501 -0.33503731949E+02 -0.26175954460E+01  0.60442964334E+03  0.60536315185E+03  0.00000000000E+00 0. -1.
</event>
<event>
 4    1  0.1589319E+006  0.2401086E+02  0.7546771E-02  0.1480180E+00
         21   -1    0    0  504  501  0.00000000000E+00  0.00000000000E+00  0.53048741288E+03  0.53048741288E+03  0.00000000000E+00 0.  1.
         21   -1    0    0  501  502 -0.00000000000E+00 -0.00000000000E+00 -0.15430018656E+02  0.15430018656E+02  0.00000000000E+00 0.  1.
         21    1    1    2  503  502 -0.13794614130E+02  0.19652740983E+02 -0.56419181851E+01  0.24664809911E+02  0.00000000000E+00 0.  1.
         21    1    1    2  504  503  0.13794614130E+02 -0.19652740983E+02  0.52069931241E+03  0.52125262162E+03  0.00000000000E+00 0.  1.
</event>
<event>
 4    1  0.1589319E+006  0.2565255E+02  0.7546771E-02  0.1461634E+00
         21   -1    0    0  504  501  0.00000000000E+00  0.00000000000E+00  0.10632542374E+03  0.10632542374E+03  0.00000000000E+00 0.  1.
         21   -1    0    0  501  502 -0.00000000000E+00 -0.00000000000E+00 -0.21053095015E+02  0.21053095015E+02  0.00000000000E+00 0. -1.
         21    1    1    2  503  502 -0.13511200069E+02  0.21805983154E+02 -0.10878982355E+02  0.27864057237E+02  0.00000000000E+00 0. -1.
         21    1    1    2  504  503  0.13511200069E+02 -0.21805983154E+02  0.96151311079E+02  0.99514461516E+02  0.00000000000E+00 0.  1.
</event>
<event>
 4    1  0.1589319E+006  0.2469183E+02  0.7546771E-02  0.1472280E+00
         21   -1    0    0  503  501  0.00000000000E+00  0.00000000000E+00  0.14360743151E+03  0.14360743151E+03  0.00000000000E+00 0. -1.
         21   -1    0    0  504  502 -0.00000000000E+00 -0.00000000000E+00 -0.44886989073E+01  0.44886989073E+01  0.00000000000E+00 0. -1.
         21    1    1    2  503  502  0.40092982869E+00 -0.24688579493E+02  0.86794945548E+02  0.90238845708E+02  0.00000000000E+00 0. -1.
         21    1    1    2  504  501 -0.40092982869E+00  0.24688579493E+02  0.52323787053E+02  0.57857284707E+02  0.00000000000E+00 0. -1.
</event>
<event>
 4    1  0.1589319E+006  0.2935257E+02  0.7546771E-02  0.1425307E+00
         21   -1    0    0  503  501  0.00000000000E+00  0.00000000000E+00  0.11607562175E+03  0.11607562175E+03  0.00000000000E+00 0.  1.
         21   -1    0    0  501  502 -0.00000000000E+00 -0.00000000000E+00 -0.11413536741E+02  0.11413536741E+02  0.00000000000E+00 0. -1.
         21    1    1    2  503  504 -0.24017488590E+02 -0.16874049922E+02  0.90025288112E+02  0.94689628886E+02  0.00000000000E+00 0.  1.
         21    1    1    2  504  502  0.24017488590E+02  0.16874049922E+02  0.14636796898E+02  0.32799529606E+02  0.00000000000E+00 0. -1.
</event>
<event>
 4    1  0.1589319E+006  0.2003072E+02  0.7546771E-02  0.1533567E+00
         21   -1    0    0  502  501  0.00000000000E+00  0.00000000000E+00  0.15016484578E+03  0.15016484578E+03  0.00000000000E+00 0. -1.
         21   -1    0    0  504  502 -0.00000000000E+00 -0.00000000000E+00 -0.10051534559E+03  0.10051534559E+03  0.00000000000E+00 0. -1.
         21    1    1    2  503  501  0.13923877091E+02 -0.14399835928E+02  0.14848771197E+03  0.14983267412E+03  0.00000000000E+00 0. -1.
         21    1    1    2  504  503 -0.13923877091E+02  0.14399835928E+02 -0.98838211783E+02  0.10084751725E+03  0.00000000000E+00 0. -1.
</event>
<event>
 4    1  0.1589319E+006  0.2059270E+02  0.7546771E-02  0.1525160E+00
         21   -1    0    0  504  501  0.00000000000E+00  0.00000000000E+00  0.19545066625E+02  0.19545066625E+02  0.00000000000E+00 0.  1.
         21   -1    0    0  503  502 -0.00000000000E+00 -0.00000000000E+00 -0.21796876488E+02  0.21796876488E+02  0.00000000000E+00 0.  1.
         21    1    1    2  503  501  0.10116880920E+02  0.17936219488E+02  0.27694668930E+00  0.20594561140E+02  0.00000000000E+00 0.  1.
         21    1    1    2  504  502 -0.10116880920E+02 -0.17936219488E+02 -0.25287565524E+01  0.20747381974E+02  0.00000000000E+00 0.  1.
</event>
<event>
 4    1  0.1589319E+006  0.2970662E+02  0.7546771E-02  0.1422163E+00
         21   -1    0    0  504  501  0.00000000000E+00  0.00000000000E+00  0.34513654589E+03  0.34513654589E+03  0.00000000000E+00 0.  1.
         21   -1    0    0  503  502 -0.00000000000E+00 -0.00000000000E+00 -0.56517774236E+01  0.56517774236E+01  0.00000000000E+00 0.  1.
         21    1    1    2  503  501  0.13995737233E+02  0.26203106552E+02  0.39951689297E+02  0.49785750284E+02  0.00000000000E+00 0.  1.
         21    1    1    2  504  502 -0.13995737233E+02 -0.26203106552E+02  0.29953307917E+03  0.30100257303E+03  0.00000000000E+00 0.  1.
</event>
<event>
 4    1  0.1589319E+006  0.2288595E+02  0.7546771E-02  0.1493935E+00
         21   -1    0    0  503  501  0.00000000000E+00  0.00000000000E+00  0.35160459558E+02  0.35160459558E+02  0.00000000000E+00 0. -1.
         21   -1    0    0  501  502 -0.00000000000E+00 -0.00000000000E+00 -0.11032096612E+03  0.11032096612E+03  0.00000000000E+00 0.  1.
         21    1    1    2  503  504  0.11707126776E+02  0.19664942338E+02  0.30071407000E+02  0.37789632089E+02  0.00000000000E+00 0. -1.
         21    1    1    2  504  502 -0.11707126776E+02 -0.19664942338E+02 -0.10523191356E+03  0.10769179359E+03  0.00000000000E+00 0.  1.
</event>
<event>
 4    1  0.1589319E+006  0.3481401E+02  0.7546771E-02  0.1381876E+00
         21   -1    0    0  502  501  0.00000000000E+00  0.00000000000E+00  0.24996768062E+03  0.24996768062E+03  0.00000000000E+00 0.  1.
         21   -1    0    0  503  502 -0.00000000000E+00 -0.00000000000E+00 -0.65262096756E+01  0.65262096756E+01  0.00000000000E+00 0. -1.
         21    1    1    2  503  504 -0.29368471074E+02  0.18695130408E+02  0.56700169905E+02  0.66535135541E+02  0.00000000000E+00 0. -1.
         21    1    1    2  504  501  0.29368471074E+02 -0.18695130408E+02  0.18674130104E+03  0.18995875475E+03  0.00000000000E+00 0.  1.
</event>
<event>
 4    1  0.1589319E+006  0.2427161E+02  0.7546771E-02  0.1477119E+00
         21   -1    0    0  503  501  0.00000000000E+00  0.00000000000E+00  0.84740733951E+02  0.84740733951E+02  0.00000000000E+00 0. -1.
         21   -1    0    0  501  502 -0.00000000000E+00 -0.00000000000E+00 -0.26971833923E+02  0.26971833923E+02  0.00000000000E+00 0.  1.
         21    1    1    2  503  504  0.19699384636E+02  0.14179049508E+02  0.77006913633E+02  0.80741414078E+02  0.00000000000E+00 0. -1.
         21    1    1    2  504  502 -0.19699384636E+02 -0.14179049508E+02 -0.19238013605E+02  0.30971153796E+02  0.00000000000E+00 0.  1.
</event>
<event>
 4    1  0.1589319E+006  0.3286292E+02  0.7546771E-02  0.1396244E+00
         21   -1    0    0  503  501  0.00000000000E+00  0.00000000000E+00  0.17025247599E+02  0.17025247599E+02  0.00000000000E+00 0.  1.
         21   -1    0    0  504  502 -0.00000000000E+00 -0.00000000000E+00 -0.17698718567E+03  0.17698718567E+03  0.00000000000E+00 0.  1.
         21    1    1    2  503  502  0.21955592732E+02  0.24452475519E+02 -0.22795037330E+01  0.32941884410E+02  0.00000000000E+00 0.  1.
         21    1    1    2  504  501 -0.21955592732E+02 -0.24452475519E+02 -0.15768243434E+03  0.16107054886E+03  0.00000000000E+00 0.  1.
</event>
<event>
 4    1  0.1589319E+006  0.2330610E+02  0.7546771E-02  0.1488690E+00
         21   -1    0    0  503  501  0.00000000000E+00  0.00000000000E+00  0.23599257604E+03  0.23599257604E+03  0.00000000000E+00 0.  1.
         21   -1    0    0  501  502 -0.00000000000E+00 -0.00000000000E+00 -0.32386688432E+01  0.32386688432E+01  0.00000000000E+00 0.  1.
         21    1    1    2  503  504 -0.98201180174E+01  0.21136216969E+02  0.18071631700E+03  0.18221295677E+03  0.00000000000E+00 0.  1.
         21    1    1    2  504  502  0.98201180174E+01 -0.21136216969E+02  0.52037590201E+02  0.57018288115E+02  0.00000000000E+00 0.  1.
</event>
<event>
 4    1  0.1589319E+006  0.3408441E+02  0.7546771E-02  0.1387117E+00
         21   -1    0    0  504  501  0.00000000000E+00  0.00000000000E+00  0.86717263770E+01  0.86717263770E+01  0.00000000000E+00 0.  1.
         21   -1    0    0  503  502 -0.00000000000E+00 -0.00000000000E+00 -0.15843374454E+03  0.15843374454E+03  0.00000000000E+00 0.  1.
         21    1    1    2  503  501 -0.11486140857E+02 -0.32090739384E+02 -0.42048611985E+02  0.54127929536E+02  0.00000000000E+00 0.  1.
         21    1    1    2  504  502  0.11486140857E+02  0.32090739384E+02 -0.10771340618E+03  0.11297754139E+03  0.00000000000E+00 0.  1.
</event>
<event>
 4    1  0.1589319E+006  0.2013397E+02  0.7546771E-02  0.1531998E+00
         21   -1    0    0  502  501  0.00000000000E+00  0.00000000000E+00  0.43536292129E+01  0.43536292129E+01  0.00000000000E+00 0. -1.
         21   -1    0    0  503  502 -0.00000000000E+00 -0.00000000000E+00 -0.13735951074E+03  0.13735951074E+03  0.00000000000E+00 0.  1.
         21    1    1    2  503  504 -0.90243378613E+01 -0.17998277546E+02 -0.10671843751E+03  0.10860111220E+03  0.00000000000E+00 0.  1.
         21    1    1    2  504  501  0.90243378613E+01  0.17998277546E+02 -0.26287444023E+02  0.33112027750E+02  0.00000000000E+00 0. -1.
</event>
<event>
 4    1  0.1589319E+006  0.3028302E+02  0.7546771E-02  0.1417153E+00
         21   -1    0    0  503  501  0.00000000000E+00  0.00000000000E+00  0.24500413867E+03  0.24500413867E+03  0.00000000000E+00 0.  1.
         21   -1    0    0  504  502 -0.00000000000E+00 -0.00000000000E+00 -0.44583415135E+01  0.44583415135E+01  0.00000000000E+00 0.  1.
         21    1    1    2  503  502 -0.22099587872E+02  0.20704340871E+02  0.17023395689E+03  0.17290651114E+03  0.00000000000E+00 0.  1.
         21    1    1    2  504  501  0.22099587872E+02 -0.20704340871E+02  0.70311840261E+02  0.76555969041E+02  0.00000000000E+00 0.  1.
</event>
<event>
 4    1  0.1589319E+006  0.3097064E+02  0.7546771E-02  0.1411345E+00
         21   -1    0    0  502  501  0.00000000000E+00  0.00000000000E+00  0.10665701721E+04  0.10665701721E+04  0.00000000000E+00 0.  1.
         21   -1    0    0  504  502 -0.00000000000E+00 -0.00000000000E+00 -0.56451336548E+01  0.56451336548E+01  0.00000000000E+00 0. -1.
         21    1    1    2  503  501  0.97400818743E+01 -0.29399171450E+02  0.10220157457E+04  0.10224848972E+04  0.00000000000E+00 0.  1.
         21    1    1    2  504  503 -0.97400818743E+01  0.29399171450E+02  0.38909292769E+02  0.49730408611E+02  0.00000000000E+00 0. -1.
</event>
<event>
 4    1  0.1589319E+006  0.2024034E+02  0.7546771E-02  0.1530393E+00
         21   -1    0    0  502  501  0.00000000000E+00  0.00000000000E+00  0.65896554562E+01  0.65896554562E+01  0.00000000000E+00 0. -1.
         21   -1    0    0  503  502 -0.00000000000E+00 -0.00000000000E+00 -0.16025691999E+03  0.16025691999E+03  0.00000000000E+00 0. -1.
         21    1    1    2  503  504 -0.16140726384E+02 -0.12212626350E+02 -0.14209963337E+03  0.14353388832E+03  0.00000000000E+00 0. -1.
         21    1    1    2  504  501  0.16140726384E+02  0.12212626350E+02 -0.11567631163E+02  0.23312687132E+02  0.00000000000E+00 0. -1.
</event>
<event>
 4    1  0.1589319E+006  0.2295089E+02  0.7546771E-02  0.1493116E+00
         21   -1    0    0  504  501  0.00000000000E+00  0.00000000000E+00  0.27430490641E+00  0.27430490641E+00  0.00000000000E+00 0.  1.
         21   -1    0    0  503  502 -0.00000000000E+00 -0.00000000000E+00 -0.19260946342E+04  0.19260946342E+04  0.00000000000E+00 0.  1.
         21    1    1    2  503  501  0.10511357277E+02  0.20402320042E+02 -0.91000644069E+03  0.91029581202E+03  0.00000000000E+00 0.  1.
         21    1    1    2  504  502 -0.10511357277E+02 -0.20402320042E+02 -0.10158138886E+04  0.10160731271E+04  0.00000000000E+00 0.  1.
</event>
<event>
 4    1  0.1589319E+006  0.2132993E+02  0.7546771E-02  0.1514606E+00
         21   -1    0    0  503  501  0.00000000000E+00  0.00000000000E+00  0.38654796881E+02  0.38654796881E+02  0.00000000000E+00 0.  1.
         21   -1    0    0  504  502 -0.00000000000E+00 -0.00000000000E+00 -0.27702962589E+02  0.27702962589E+02  0.00000000000E+00 0.  1.
         21    1    1    2  503  502  0.84195801608E+01 -0.19597872860E+02 -0.19686203148E+02  0.29026066649E+02  0.00000000000E+00 0.  1.
         21    1    1    2  504  501 -0.84195801608E+01  0.19597872860E+02  0.30638037440E+02  0.37331692821E+02  0.00000000000E+00 0.  1.
</event>
<event>
 4    1  0.1589319E+006  0.2497466E+02  0.7546771E-02  0.1469087E+00
         21   -1    0    0  503  501  0.00000000000E+00  0.00000000000E+00  0.20965147411E+02  0.20965147411E+02  0.00000000000E+00 0. -1.
         21   -1    0    0  504  502 -0.00000000000E+00 -0.00000000000E+00 -0.29758397179E+02  0.29758397179E+02  0.00000000000E+00 0. -1.
         21    1    1    2  503  502 -0.14542386042E+02  0.20304009105E+02 -0.47969011622E+01  0.25431162740E+02  0.00000000000E+00 0. -1.
         21    1    1    2  504  501  0.14542386042E+02 -0.20304009105E+02 -0.39963486056E+01  0.25292381851E+02  0.00000000000E+00 0. -1.
</event>
<event>
 4    1  0.1589319E+006  0.5026812E+02  0.7546771E-02  0.1297014E+00
         21   -1    0    0  504  501  0.00000000000E+00  0.00000000000E+00  0.20184099008E+03  0.20184099008E+03  0.00000000000E+00 0. -1.
         21   -1    0    0  503  502 -0.00000000000E+00 -0.00000000000E+00 -0.24162796591E+02  0.24162796591E+02  0.00000000000E+00 0. -1.
         21    1    1    2  503  501 -0.46162968165E+02  0.19896350374E+02  0.16728242364E+03  0.17467196010E+03  0.00000000000E+00 0. -1.
         21    1    1    2  504  502  0.46162968165E+02 -0.19896350374E+02  0.10395769852E+02  0.51331826568E+02  0.00000000000E+00 0. -1.
</event>
<event>
 4    1  0.1589319E+006  0.2332421E+02  0.7546771E-02  0.1488467E+00
         21   -1    0    0  503  501  0.00000000000E+00  0.00000000000E+00  0.10348013767E+03  0.10348013767E+03  0.00000000000E+00 0.  1.
         21   -1    0    0  504  502 -0.00000000000E+00 -0.00000000000E+00 -0.92697823529E+01  0.92697823529E+01  0.00000000000E+00 0.  1.
         21    1    1    2  503  502 -0.17941857319E+02  0.14903303754E+02  0.10014742660E+02  0.25383336608E+02  0.00000000000E+00 0.  1.
         21    1    1    2  504  501  0.17941857319E+02 -0.14903303754E+02  0.84195612660E+02  0.87366583418E+02  0.00000000000E+00 0.  1.
</event>
<event>
 4    1  0.1589319E+006  0.2230449E+02  0.7546771E-02  0.1501421E+00
         21   -1    0    0  503  501  0.00000000000E+00  0.00000000000E+00  0.20395560025E+01  0.20395560025E+01  0.00000000000E+00 0.  1.
         21   -1    0    0  504  502 -0.00000000000E+00 -0.00000000000E+00 -0.24402667884E+03  0.24402667884E+03  0.00000000000E+00 0.  1.
         21    1    1    2  503  502  0.16307864073E+02 -0.15216569065E+02 -0.11843242165E+03  0.12051443442E+03  0.00000000000E+00 0.  1.
         21    1    1    2  504  501 -0.16307864073E+02  0.15216569065E+02 -0.12355470118E+03  0.12555180042E+03  0.00000000000E+00 0.  1.
</event>
<event>
 4    1  0.1589319E+006  0.2529013E+02  0.7546771E-02  0.1465584E+00
         21   -1    0    0  504  501  0.00000000000E+00  0.00000000000E+00  0.38501957487E+03  0.38501957487E+03  0.00000000000E+00 0.  1.
         21   -1    0    0  503  502 -0.00000000000E+00 -0.00000000000E+00 -0.50205443932E+01  0.50205443932E+01  0.00000000000E+00 0.  1.
         21    1    1    2  503  501  0.25237672594E+02 -0.16281264870E+01  0.34952561552E+03  0.35043936254E+03  0.00000000000E+00 0.  1.
         21    1    1    2  504  502 -0.25237672594E+02  0.16281264870E+01  0.30473414958E+02  0.39600756723E+02  0.00000000000E+00 0.  1.
</event>
<event>
 4    1  0.1589319E+006  0.2304964E+02  0.7546771E-02  0.1491876E+00
         21   -1    0    0  504  501  0.00000000000E+00  0.00000000000E+00  0.20325303733E+03  0.20325303733E+03  0.00000000000E+00 0. -1.
         21   -1    0    0  501  502 -0.00000000000E+00 -0.00000000000E+00 -0.16723715155E+02  0.16723715155E+02  0.00000000000E+00 0. -1.
         21    1    1    2  503  502  0.22744186206E+02 -0.37400444836E+01 -0.77631301082E+01  0.24321844667E+02  0.00000000000E+00 0. -1.
         21    1    1    2  504  503 -0.22744186206E+02  0.37400444836E+01  0.19429245228E+03  0.19565490781E+03  0.00000000000E+00 0. -1.
</event>
<event>
 4    1  0.1589319E+006  0.2146504E+02  0.7546771E-02  0.1512728E+00
         21   -1    0    0  504  501  0.00000000000E+00  0.00000000000E+00  0.91705840057E+01  0.91705840057E+01  0.00000000000E+00 0. -1.
         21   -1    0    0  503  502 -0.00000000000E+00 -0.00000000000E+00 -0.66007811733E+02  0.66007811733E+02  0.00000000000E+00 0.  1.
         21    1    1    2  503  501  0.20463183390E+02  0.64812012312E+01 -0.10047964142E+02  0.23700409854E+02  0.00000000000E+00 0. -1.
         21    1    1    2  504  502 -0.20463183390E+02 -0.64812012312E+01 -0.46789263585E+02  0.51477985884E+02  0.00000000000E+00 0.  1.
</event>
<event>
 4    1  0.1589319E+006  0.2391456E+02  0.7546771E-02  0.1481323E+00
         21   -1    0    0  503  501  0.00000000000E+00  0.00000000000E+00  0.43584326751E+02  0.43584326751E+02  0.00000000000E+00 0. -1.
         21   -1    0    0  504  502 -0.00000000000E+00 -0.00000000000E+00 -0.17708565653E+02  0.17708565653E+02  0.00000000000E+00 0.  1.
         21    1    1    2  503  502 -0.19408110319E+02 -0.13972518826E+02 -0.26590949285E+01  0.24061937045E+02  0.00000000000E+00 0.  1.
         21    1    1    2  504  501  0.19408110319E+02  0.13972518826E+02  0.28534856026E+02  0.37230955359E+02  0.00000000000E+00 0. -1.
</event>
<event>
 4    1  0.1589319E+006  0.2093207E+02  0.7546771E-02  0.1520237E+00
         21   -1    0    0  504  501  0.00000000000E+00  0.00000000000E+00  0.21163339130E+03  0.21163339130E+03  0.00000000000E+00 0. -1.
         21   -1    0    0  501  502 -0.00000000000E+00 -0.00000000000E+00 -0.20751771155E+01  0.20751771155E+01  0.00000000000E+00 0. -1.
         21    1    1    2  503  502 -0.20927445872E+02  0.43982311122E+00  0.10994214408E+03  0.11191705178E+03  0.00000000000E+00 0. -1.
         21    1    1    2  504  503  0.20927445872E+02 -0.43982311122E+00  0.99616070106E+02  0.10179151663E+03  0.00000000000E+00 0. -1.
</event>
<event>
 4    1  0.1589319E+006  0.3787509E+02  0.7546771E-02  0.1361409E+00
         21   -1    0    0  504  501  0.00000000000E+00  0.00000000000E+00  0.24154374331E+03  0.24154374331E+03  0.00000000000E+00 0.  1.
         21   -1    0    0  503  502 -0.00000000000E+00 -0.00000000000E+00 -0.21688195890E+02  0.21688195890E+02  0.00000000000E+00 0.  1.
         21    1    1    2  503  501 -0.35287124981E+02 -0.13760144944E+02 -0.22292254813E+01  0.37940640803E+02  0.00000000000E+00 0.  1.
         21    1    1    2  504  502  0.35287124981E+02  0.13760144944E+02  0.22208477290E+03  0.22529129840E+03  0.00000000000E+00 0.  1.
</event>
<event>
 4    1  0.1589319E+006  0.4894528E+02  0.7546771E-02  0.1302811E+00
         21   -1    0    0  504  501  0.00000000000E+00  0.00000000000E+00  0.78413295890E+03  0.78413295890E+03  0.00000000000E+00 0.  1.
         21   -1    0    0  503  502 -0.00000000000E+00 -0.00000000000E+00 -0.31478048139E+01  0.31478048139E+01  0.00000000000E+00 0.  1.
         21    1    1    2  503  501  0.21456923110E+02  0.43991372248E+02  0.32295585381E+03  0.32664372624E+03  0.00000000000E+00 0.  1.
         21    1    1    2  504  502 -0.21456923110E+02 -0.43991372248E+02  0.45802930027E+03  0.46063703747E+03  0.00000000000E+00 0.  1.
</event>
<event>
 4    1  0.1589319E+006  0.5273637E+02  0.7546771E-02  0.1286725E+00
         21   -1    0    0  502  501  0.00000000000E+00  0.00000000000E+00  0.45398877577E+02  0.45398877577E+02  0.00000000000E+00 0. -1.
         21   -1    0    0  503  502 -0.00000000000E+00 -0.00000000000E+00 -0.11586364438E+03  0.11586364438E+03  0.00000000000E+00 0. -1.
         21    1    1    2  503  504 -0.27781046656E+02  0.44825640226E+02 -0.90585440099E+02  0.10481815937E+03  0.00000000000E+00 0. -1.
         21    1    1    2  504  501  0.27781046656E+02 -0.44825640226E+02  0.20120673293E+02  0.56444362594E+02  0.00000000000E+00 0. -1.
</event>
<event>
 4    1  0.1589319E+006  0.2143712E+02  0.7546771E-02  0.1513115E+00
         21   -1    0    0  503  501  0.00000000000E+00  0.00000000000E+00  0.12917251646E+03  0.12917251646E+03  0.00000000000E+00 0. -1.
         21   -1    0    0  504  502 -0.00000000000E+00 -0.00000000000E+00 -0.37290476235E+01  0.37290476235E+01  0.00000000000E+00 0. -1.
         21    1    1    2  503  502  0.11167855444E+02 -0.18298334129E+02  0.76968267118E+02  0.79897835830E+02  0.00000000000E+00 0. -1.
         21    1    1    2  504  501 -0.11167855444E+02  0.18298334129E+02  0.48475201714E+02  0.53003728249E+02  0.00000000000E+00 0. -1.
</event>
<event>
 4    1  0.1589319E+006  0.2109236E+02  0.7546771E-02  0.1517950E+00
         21   -1    0    0  502  501  0.00000000000E+00  0.00000000000E+00  0.19776858737E+03  0.19776858737E+03  0.00000000000E+00 0. -1.
         21   -1    0    0  503  502 -0.00000000000E+00 -0.00000000000E+00 -0.64568227790E+01  0.64568227790E+01  0.00000000000E+00 0. -1.
         21    1    1    2  503  504  0.77332429797E+01 -0.19623568991E+02  0.13228516885E+02  0.24897412836E+02  0.00000000000E+00 0. -1.
         21    1    1    2  504  501 -0.77332429797E+01  0.19623568991E+02  0.17808324770E+03  0.17932799731E+03  0.00000000000E+00 0. -1.
</event>
<event>
 4    1  0.1589319E+006  0.2063682E+02  0.7546771E-02  0.1524514E+00
         21   -1    0    0  504  501  0.00000000000E+00  0.00000000000E+00  0.20067502553E+02  0.20067502553E+02  0.00000000000E+00 0.  1.
         21   -1    0    0  503  502 -0.00000000000E+00 -0.00000000000E+00 -0.21864667542E+02  0.21864667542E+02  0.00000000000E+00 0.  1.
         21    1    1    2  503  501 -0.14840089906E+02 -0.14340504227E+02 -0.44922803855E+01  0.21120106841E+02  0.00000000000E+00 0.  1.
         21    1    1    2  504  502  0.14840089906E+02  0.14340504227E+02  0.26951153959E+01  0.20812063254E+02  0.00000000000E+00 0.  1.
</event>
<event>
 4    1  0.1589319E+006  0.2061225E+02  0.7546771E-02  0.1524874E+00
         21   -1    0    0  503  501  0.00000000000E+00  0.00000000000E+00  0.90740785288E+01  0.90740785288E+01  0.00000000000E+00 0. -1.
         21   -1    0    0  504  502 -0.00000000000E+00 -0.00000000000E+00 -0.73058154698E+02  0.73058154698E+02  0.00000000000E+00 0. -1.
         21    1    1    2  503  502  0.15537996529E+02 -0.13543841830E+02 -0.56601423170E+02  0.60237746410E+02  0.00000000000E+00 0. -1.
         21    1    1    2  504  501 -0.15537996529E+02  0.13543841830E+02 -0.73826529983E+01  0.21894486816E+02  0.00000000000E+00 0. -1.
</event>
<event>
 4    1  0.1589319E+006  0.2578772E+02  0.7546771E-02  0.1460181E+00
         21   -1    0    0  504  501  0.00000000000E+00  0.00000000000E+00  0.69600232997E+02  0.69600232997E+02  0.00000000000E+00 0. -1.
         21   -1    0    0  503  502 -0.00000000000E+00 -0.00000000000E+00 -0.47321715369E+02  0.47321715369E+02  0.00000000000E+00 0.  1.
         21    1    1    2  503  501  0.78827923412E+01 -0.24553370696E+02  0.63365934382E+02  0.68412338564E+02  0.00000000000E+00 0. -1.
         21    1    1    2  504  502 -0.78827923412E+01  0.24553370696E+02 -0.41087416754E+02  0.48509609802E+02  0.00000000000E+00 0.  1.
</event>
<event>
 4    1  0.1589319E+006  0.2339292E+02  0.7546771E-02  0.1487622E+00
         21   -1    0    0  503  501  0.00000000000E+00  0.00000000000E+00  0.31373131676E+01  0.31373131676E+01  0.00000000000E+00 0. -1.
         21   -1    0    0  504  502 -0.00000000000E+00 -0.00000000000E+00 -0.29604188492E+03  0.29604188492E+03  0.00000000000E+00 0. -1.
         21    1    1    2  503  502  0.32837448687E+01 -0.23161301511E+02 -0.50574049394E+02  0.55722197912E+02  0.00000000000E+00 0. -1.
         21    1    1    2  504  501 -0.32837448687E+01  0.23161301511E+02 -0.24233052236E+03  0.24345700018E+03  0.00000000000E+00 0. -1.
</event>
<event>
 4    1  0.1589319E+006  0.2124610E+02  0.7546771E-02  0.1515780E+00
         21   -1    0    0  502  501  0.00000000000E+00  0.00000000000E+00  0.61164682184E+03  0.61164682184E+03  0.00000000000E+00 0. -1.
         21   -1    0    0  503  502 -0.00000000000E+00 -0.00000000000E+00 -0.66104670718E+01  0.66104670718E+01  0.00000000000E+00 0.  1.
         21    1    1    2  503  504  0.15315654452E+02 -0.14725058528E+02  0.11155851733E+02  0.23996867459E+02  0.00000000000E+00 0.  1.
         21    1    1    2  504  501 -0.15315654452E+02  0.14725058528E+02  0.59388050304E+03  0.59426042146E+03  0.00000000000E+00 0. -1.
</event>
<event>
 4    1  0.1589319E+006  0.2104186E+02  0.7546771E-02  0.1518668E+00
         21   -1    0    0  502  501  0.00000000000E+00  0.00000000000E+00  0.51436358584E+01  0.51436358584E+01  0.00000000000E+00 0. -1.
         21   -1    0    0  503  502 -0.00000000000E+00 -0.00000000000E+00 -0.75013140542E+03  0.75013140542E+03  0.00000000000E+00 0. -1.
         21    1    1    2  503  504 -0.19727694124E+02 -0.73197046823E+01 -0.72780400657E+03  0.72810811833E+03  0.00000000000E+00 0. -1.
         21    1    1    2  504  501  0.19727694124E+02  0.73197046823E+01 -0.17183762987E+02  0.27166922949E+02  0.00000000000E+00 0. -1.
</event>
<event>
 4    1  0.1589319E+006  0.2550988E+02  0.7546771E-02  0.1463179E+00
         21   -1    0    0  503  501  0.00000000000E+00  0.00000000000E+00  0.86223172141E+02  0.86223172141E+02  0.00000000000E+00 0. -1.
         21   -1    0    0  504  502 -0.00000000000E+00 -0.00000000000E+00 -0.15114118617E+02  0.15114118617E+02  0.00000000000E+00 0. -1.
         21    1    1    2  503  502 -0.15473229648E+02 -0.20281354726E+02 -0.29668703714E+00  0.25511609288E+02  0.00000000000E+00 0. -1.
         21    1    1    2  504  501  0.15473229648E+02  0.20281354726E+02  0.71405740561E+02  0.75825681470E+02  0.00000000000E+00 0. -1.
</event>
<event>
 4    1  0.1589319E+006  0.2288172E+02  0.7546771E-02  0.1493989E+00
         21   -1    0    0  503  501  0.00000000000E+00  0.00000000000E+00  0.30829611854E+01  0.30829611854E+01  0.00000000000E+00 0.  1.
         21   -1    0    0  504  502 -0.00000000000E+00 -0.00000000000E+00 -0.27630056661E+03  0.27630056661E+03  0.00000000000E+00 0.  1.
         21    1    1    2  503  502  0.37976801819E+01 -0.22564372794E+02 -0.22332468913E+03  0.22449385308E+03  0.00000000000E+00 0.  1.
         21    1    1    2  504  501 -0.37976801819E+01  0.22564372794E+02 -0.49892916298E+02  0.54889674722E+02  0.00000000000E+00 0.  1.
</event>
<event>
 4    1  0.1589319E+006  0.2145125E+02  0.7546771E-02  0.1512919E+00
         21   -1    0    0  504  501  0.00000000000E+00  0.00000000000E+00  0.52956852113E+02  0.52956852113E+02  0.00000000000E+00 0. -1.
         21   -1    0    0  503  502 -0.00000000000E+00 -0.00000000000E+00 -0.54617977586E+02  0.54617977586E+02  0.00000000000E+00 0.  1.
         21    1    1    2  503  501 -0.18972245878E+02  0.10010498540E+02 -0.50154188460E+02  0.54549049623E+02  0.00000000000E+00 0.  1.
         21    1    1    2  504  502  0.18972245878E+02 -0.10010498540E+02  0.48493062987E+02  0.53025780075E+02  0.00000000000E+00 0. -1.
</event>
<event>
 4    1  0.1589319E+006  0.2781615E+02  0.7546771E-02  0.1439578E+00
         21   -1    0    0  503  501  0.00000000000E+00  0.00000000000E+00  0.91966816617E+02  0.91966816617E+02  0.00000000000E+00 0.  1.
         21   -1    0    0  504  502 -0.00000000000E+00 -0.00000000000E+00 -0.20478702133E+02  0.20478702133E+02  0.00000000000E+00 0.  1.
         21    1    1    2  503  502  0.27565462376E+02  0.37260512316E+01 -0.74111359114E+01  0.28786509154E+02  0.00000000000E+00 0.  1.
         21    1    1    2  504  501 -0.27565462376E+02 -0.37260512316E+01  0.78899250395E+02  0.83659009597E+02  0.00000000000E+00 0.  1.
</event>
<event>
 4    1  0.1589319E+006  0.4282905E+02  0.7546771E-02  0.1332660E+00
         21   -1    0    0  502  501  0.00000000000E+00  0.00000000000E+00  0.43289667348E+02  0.43289667348E+02  0.00000000000E+00 0.  1.
         21   -1    0    0  504  502 -0.00000000000E+00 -0.00000000000E+00 -0.50820723655E+03  0.50820723655E+03  0.00000000000E+00 0.  1.
         21    1    1    2  503  501 -0.42737407450E+02  0.28002629722E+01  0.31543817551E+02  0.53191539684E+02  0.00000000000E+00 0.  1.
         21    1    1    2  504  503  0.42737407450E+02 -0.28002629722E+01 -0.49646138675E+03  0.49830536422E+03  0.00000000000E+00 0.  1.
</event>
<event>
 4    1  0.1589319E+006  0.2204449E+02  0.7546771E-02  0.1504858E+00
         21   -1    0    0  504  501  0.00000000000E+00  0.00000000000E+00  0.28342211322E+03  0.28342211322E+03  0.00000000000E+00 0. -1.
         21   -1    0    0  503  502 -0.00000000000E+00 -0.00000000000E+00 -0.20910514656E+02  0.20910514656E+02  0.00000000000E+00 0. -1.
         21    1    1    2  503  501 -0.28743501289E+01  0.21856296153E+02 -0.14538453509E+02  0.26406934707E+02  0.00000000000E+00 0. -1.
         21    1    1    2  504  502  0.28743501289E+01 -0.21856296153E+02  0.27705005207E+03  0.27792569317E+03  0.00000000000E+00 0. -1.
</event>
<event>
 4    1  0.1589319E+006  0.5000604E+02  0.7546771E-02  0.1298146E+00
         21   -1    0    0  503  501  0.00000000000E+00  0.00000000000E+00  0.26316441515E+03  0.26316441515E+03  0.00000000000E+00 0.  1.
         21   -1    0    0  501  502 -0.00000000000E+00 -0.00000000000E+00 -0.48175982848E+02  0.48175982848E+02  0.00000000000E+00 0. -1.
         21    1    1    2  503  504  0.45186932585E+02  0.21418342165E+02  0.24697015643E+03  0.25198186924E+03  0.00000000000E+00 0.  1.
         21    1    1    2  504  502 -0.45186932585E+02 -0.21418342165E+02 -0.31981724133E+02  0.59358528756E+02  0.00000000000E+00 0. -1.
</event>
<event>
 4    1  0.1589319E+006  0.2056315E+02  0.7546771E-02  0.1525594E+00
         21   -1    0    0  503  501  0.00000000000E+00  0.00000000000E+00  0.18343828680E+03  0.18343828680E+03  0.00000000000E+00 0.  1.
         21   -1    0    0  504  502 -0.00000000000E+00 -0.00000000000E+00 -0.33380598722E+01  0.33380598722E+01  0.00000000000E+00 0. -1.
         21    1    1    2  503  502 -0.45444920220E+01  0.20054695759E+02  0.38099944605E+02  0.43294907422E+02  0.00000000000E+00 0. -1.
         21    1    1    2  504  501  0.45444920220E+01 -0.20054695759E+02  0.14200028232E+03  0.14348143925E+03  0.00000000000E+00 0.  1.
</event>
<event>
 4    1  0.1589319E+006  0.3782922E+02  0.7546771E-02  0.1361698E+00
         21   -1    0    0  504  501  0.00000000000E+00  0.00000000000E+00  0.40237402816E+02  0.40237402816E+02  0.00000000000E+00 0. -1.
         21   -1    0    0  503  502 -0.00000000000E+00 -0.00000000000E+00 -0.52280131041E+02  0.52280131041E+02  0.00000000000E+00 0.  1.
         21    1    1    2  503  501 -0.11862833230E+02  0.35921067991E+02  0.20135064530E+02  0.42854063535E+02  0.00000000000E+00 0. -1.
         21    1    1    2  504  502  0.11862833230E+02 -0.35921067991E+02 -0.32177792754E+02  0.49663470322E+02  0.00000000000E+00 0.  1.
</event>
<event>
 4    1  0.1589319E+006  0.2867507E+02  0.7546771E-02  0.1431470E+00
         21   -1    0    0  503  501  0.00000000000E+00  0.00000000000E+00  0.54245892738E+01  0.54245892738E+01  0.00000000000E+00 0.  1.
         21   -1    0    0  504  502 -0.00000000000E+00 -0.00000000000E+00 -0.19652282409E+03  0.19652282409E+03  0.00000000000E+00 0.  1.
         21    1    1    2  503  502 -0.24290574317E+02 -0.15239019701E+02 -0.47261969668E+02  0.55280679256E+02  0.00000000000E+00 0.  1.
         21    1    1    2  504  501  0.24290574317E+02  0.15239019701E+02 -0.14383626515E+03  0.14666673411E+03  0.00000000000E+00 0.  1.
</event>
<event>
 4    1  0.1589319E+006  0.3149670E+02  0.7546771E-02  0.1407021E+00
         21   -1    0    0  502  501  0.00000000000E+00  0.00000000000E+00  0.42797943376E+02  0.42797943376E+02  0.00000000000E+00 0.  1.
         21   -1    0    0  504  502 -0.00000000000E+00 -0.00000000000E+00 -0.43886881839E+02  0.43886881839E+02  0.00000000000E+00 0.  1.
         21    1    1    2  503  501  0.25008591200E+02 -0.19147132874E+02  0.29227427344E+02  0.42968416776E+02  0.00000000000E+00 0.  1.
         21    1    1    2  504  503 -0.25008591200E+02  0.19147132874E+02 -0.30316365807E+02  0.43716408439E+02  0.00000000000E+00 0.  1.
</event>
<event>
 4    1  0.1589319E+006  0.2885498E+02  0.7546771E-02  0.1429814E+00
         21   -1    0    0  504  501  0.00000000000E+00  0.00000000000E+00  0.87295837746E+02  0.87295837746E+02  0.00000000000E+00 0.  1.
         21   -1    0    0  503  502 -0.00000000000E+00 -0.00000000000E+00 -0.13431833378E+02  0.13431833378E+02  0.00000000000E+00 0.  1.
         21    1    1    2  503  501 -0.28819530152E+02  0.14298871318E+01  0.64049599368E+02  0.70249278107E+02  0.00000000000E+00 0.  1.
         21    1    1    2  504  502  0.28819530152E+02 -0.14298871318E+01  0.98144049999E+01  0.30478393017E+02  0.00000000000E+00 0.  1.
</event>
<event>
 4    1  0.1589319E+006  0.2601299E+02  0.7546771E-02  0.1457783E+00
         21   -1    0    0  504  501  0.00000000000E+00  0.00000000000E+00  0.44701442592E+01  0.44701442592E+01  0.00000000000E+00 0.  1.
         21   -1    0    0  503  502 -0.00000000000E+00 -0.00000000000E+00 -0.23178184453E+03  0.23178184453E+03  0.00000000000E+00 0.  1.
         21    1    1    2  503  501 -0.20674969392E+02 -0.15786741582E+02 -0.18322997615E+03  0.18506728433E+03  0.00000000000E+00 0.  1.
         21    1    1    2  504  502  0.20674969392E+02  0.15786741582E+02 -0.44081724115E+02  0.51184704454E+02  0.00000000000E+00 0.  1.
</event>
<event>
 4    1  0.1589319E+006  0.3551698E+02  0.7546771E-02  0.1376965E+00
         21   -1    0    0  504  501  0.00000000000E+00  0.00000000000E+00  0.52668953855E+02  0.52668953855E+02  0.00000000000E+00 0.  1.
         21   -1    0    0  503  502 -0.00000000000E+00 -0.00000000000E+00 -0.84026320250E+02  0.84026320250E+02  0.00000000000E+00 0.  1.
         21    1    1    2  503  501  0.35330187845E+02 -0.36378513949E+01 -0.73470335728E+02  0.81604818289E+02  0.00000000000E+00 0.  1.
         21    1    1    2  504  502 -0.35330187845E+02  0.36378513949E+01  0.42112969333E+02  0.55090455816E+02  0.00000000000E+00 0.  1.
</event>
<event>
 4    1  0.1589319E+006  0.2832707E+02  0.7546771E-02  0.1434714E+00
         21   -1    0    0  503  501  0.00000000000E+00  0.00000000000E+00  0.43387171107E+03  0.43387171107E+03  0.00000000000E+00 0. -1.
         21   -1    0    0  504  502 -0.00000000000E+00 -0.00000000000E+00 -0.32713873535E+02  0.32713873535E+02  0.00000000000E+00 0. -1.
         21    1    1    2  503  502 -0.12189345437E+02  0.25570349053E+02  0.42718128447E+03  0.42811946077E+03  0.00000000000E+00 0. -1.
         21    1    1    2  504  501  0.12189345437E+02 -0.25570349053E+02 -0.26023446930E+02  0.38466123836E+02  0.00000000000E+00 0. -1.
</event>
<event>
 4    1  0.1589319E+006  0.3357373E+02  0.7546771E-02  0.1390877E+00
         21   -1    0    0  503  501  0.00000000000E+00  0.00000000000E+00  0.13169165507E+03  0.13169165507E+03  0.00000000000E+00 0.  1.
         21   -1    0    0  504  502 -0.00000000000E+00 -0.00000000000E+00 -0.86207338290E+01  0.86207338290E+01  0.00000000000E+00 0.  1.
         21    1    1    2  503  502 -0.33550431506E+02  0.12504880164E+01  0.55615547393E+02  0.64963715152E+02  0.00000000000E+00 0.  1.
         21    1    1    2  504  501  0.33550431506E+02 -0.12504880164E+01  0.67455373849E+02  0.75348673748E+02  0.00000000000E+00 0.  1.
</event>
<event>
 4    1  0.1589319E+006  0.2199196E+02  0.7546771E-02  0.1505559E+00
         21   -1    0    0  503  501  0.00000000000E+00  0.00000000000E+00  0.29465384772E+02  0.29465384772E+02  0.00000000000E+00 0.  1.
         21   -1    0    0  504  502 -0.00000000000E+00 -0.00000000000E+00 -0.92078569186E+03  0.92078569186E+03  0.00000000000E+00 0. -1.
         21    1    1    2  503  502  0.13272000828E+02  0.17535690117E+02  0.25211514843E+02  0.33455446709E+02  0.00000000000E+00 0.  1.
         21    1    1    2  504  501 -0.13272000828E+02 -0.17535690117E+02 -0.91653182193E+03  0.91679562992E+03  0.00000000000E+00 0. -1.
</event>
<event>
 4    1  0.1589319E+006  0.2119108E+02  0.7546771E-02  0.1516554E+00
         21   -1    0    0  503  501  0.00000000000E+00  0.00000000000E+00  0.44735253127E+02  0.44735253127E+02  0.00000000000E+00 0.  1.
         21   -1    0    0  504  502 -0.00000000000E+00 -0.00000000000E+00 -0.10147335877E+02  0.10147335877E+02  0.00000000000E+00 0.  1.
         21    1    1    2  503  502 -0.41108579947E+01 -0.20788524030E+02  0.14448242450E+02  0.25647877002E+02  0.00000000000E+00 0.  1.
         21    1    1    2  504  501  0.41108579947E+01  0.20788524030E+02  0.20139674800E+02  0.29234712002E+02  0.00000000000E+00 0.  1.
</event>
<event>
 4    1  0.1589319E+006  0.2695644E+02  0.7546771E-02  0.1448046E+00
         21   -1    0    0  504  501  0.00000000000E+00  0.00000000000E+00  0.47940143707E+02  0.47940143707E+02  0.00000000000E+00 0.  1.
         21   -1    0    0  503  502 -0.00000000000E+00 -0.00000000000E+00 -0.28825962139E+03  0.28825962139E+03  0.00000000000E+00 0. -1.
         21    1    1    2  503  501 -0.12891456962E+02 -0.23674037880E+02  0.43460902479E+02  0.51141957104E+02  0.00000000000E+00 0.  1.
         21    1    1    2  504  502  0.12891456962E+02  0.23674037880E+02 -0.28378038017E+03  0.28505780799E+03  0.00000000000E+00 0. -1.
</event>
<event>
 4    1  0.1589319E+006  0.2083960E+02  0.7546771E-02  0.1521567E+00
         21   -1    0    0  503  501  0.00000000000E+00  0.00000000000E+00  0.99785826760E+01  0.99785826760E+01  0.00000000000E+00 0.  1.
         21   -1    0    0  501  502 -0.00000000000E+00 -0.00000000000E+00 -0.11154487290E+03  0.11154487290E+03  0.00000000000E+00 0.  1.
         21    1    1    2  503  504  0.97402468577E+01  0.18423258925E+02 -0.33335542081E+01  0.21104536525E+02  0.00000000000E+00 0.  1.
         21    1    1    2  504  502 -0.97402468577E+01 -0.18423258925E+02 -0.98232736011E+02  0.10041891905E+03  0.00000000000E+00 0.  1.
</event>
<event>
 4    1  0.1589319E+006  0.2192463E+02  0.7546771E-02  0.1506462E+00
         21   -1    0    0  503  501  0.00000000000E+00  0.00000000000E+00  0.36250975707E+02  0.36250975707E+02  0.00000000000E+00 0.  1.
         21   -1    0    0  504  502 -0.00000000000E+00 -0.00000000000E+00 -0.46629056954E+02  0.46629056954E+02  0.00000000000E+00 0.  1.
         21    1    1    2  503  502  0.11542296857E+02 -0.18640402437E+02 -0.40245119572E+02  0.45829672365E+02  0.00000000000E+00 0.  1.
         21    1    1    2  504  501 -0.11542296857E+02  0.18640402437E+02  0.29867038325E+02  0.37050360296E+02  0.00000000000E+00 0.  1.
</event>
<event>
 4    1  0.1589319E+006  0.2299550E+02  0.7546771E-02  0.1492555E+00
         21   -1    0    0  504  501  0.00000000000E+00  0.00000000000E+00  0.18059513684E+02  0.18059513684E+02  0.00000000000E+00 0. -1.
         21   -1    0    0  503  502 -0.00000000000E+00 -0.00000000000E+00 -0.40844846228E+02  0.40844846228E+02  0.00000000000E+00 0. -1.
         21    1    1    2  503  501 -0.22995430620E+02 -0.55329886091E-01 -0.27064073767E+02  0.35514179980E+02  0.00000000000E+00 0. -1.
         21    1    1    2  504  502  0.22995430620E+02  0.55329886091E-01  0.42787412235E+01  0.23390179932E+02  0.00000000000E+00 0. -1.
</event>
<event>
 4    1  0.1589319E+006  0.2004841E+02  0.7546771E-02  0.1533297E+00
         21   -1    0    0  502  501  0.00000000000E+00  0.00000000000E+00  0.29550244847E+02  0.29550244847E+02  0.00000000000E+00 0. -1.
         21   -1    0    0  503  502 -0.00000000000E+00 -0.00000000000E+00 -0.17967075365E+02  0.17967075365E+02  0.00000000000E+00 0. -1.
         21    1    1    2  503  504 -0.35006424587E+01 -0.19740426162E+02 -0.59191738382E+01  0.20903959951E+02  0.00000000000E+00 0. -1.
         21    1    1    2  504  501  0.35006424587E+01  0.19740426162E+02  0.17502343321E+02  0.26613360261E+02  0.00000000000E+00 0. -1.
</event>
<event>
 4    1  0.1589319E+006  0.2826553E+02  0.7546771E-02  0.1435294E+00
         21   -1    0    0  504  501  0.00000000000E+00  0.00000000000E+00  0.81848008462E+01  0.81848008462E+01  0.00000000000E+00 0. -1.
         21   -1    0    0  503  502 -0.00000000000E+00 -0.00000000000E+00 -0.21257912253E+03  0.21257912253E+03  0.00000000000E+00 0. -1.
         21    1    1    2  503  501 -0.25965441045E+02 -0.11168539193E+02 -0.18337235532E+03  0.18553803139E+03  0.00000000000E+00 0. -1.
         21    1    1    2  504  502  0.25965441045E+02  0.11168539193E+02 -0.21021966360E+02  0.35225891983E+02  0.00000000000E+00 0. -1.
</event>
<event>
 4    1  0.1589319E+006  0.2467183E+02  0.7546771E-02  0.1472508E+00
         21   -1    0    0  502  501  0.00000000000E+00  0.00000000000E+00  0.27319072561E+02  0.27319072561E+02  0.00000000000E+00 0.  1.
         21   -1    0    0  504  502 -0.00000000000E+00 -0.00000000000E+00 -0.31042154917E+02  0.31042154917E+02  0.00000000000E+00 0.  1.
         21    1    1    2  503  501  0.24232029640E+02  0.46376904163E+01  0.13640764220E+02  0.28191663331E+02  0.00000000000E+00 0.  1.
         21    1    1    2  504  503 -0.24232029640E+02 -0.46376904163E+01 -0.17363846576E+02  0.30169564147E+02  0.00000000000E+00 0.  1.
</event>
<event>
 4    1  0.1589319E+006  0.4224212E+02  0.7546771E-02  0.1335825E+00
         21   -1    0    0  503  501  0.00000000000E+00  0.00000000000E+00  0.69274664229E+03  0.69274664229E+03  0.00000000000E+00 0.  1.
         21   -1    0    0  501  502 -0.00000000000E+00 -0.00000000000E+00 -0.25892284892E+01  0.25892284892E+01  0.00000000000E+00 0.  1.
         21    1    1    2  503  504  0.20296301715E+02  0.37046683374E+02  0.37008965105E+03  0.37249261258E+03  0.00000000000E+00 0.  1.
         21    1    1    2  504  502 -0.20296301715E+02 -0.37046683374E+02  0.32006776275E+03  0.32284325820E+03  0.00000000000E+00 0.  1.
</event>
<event>
 4    1  0.1589319E+006  0.2075762E+02  0.7546771E-02  0.1522754E+00
         21   -1    0    0  504  501  0.00000000000E+00  0.00000000000E+00  0.69470270666E+00  0.69470270666E+00  0.00000000000E+00 0. -1.
         21   -1    0    0  503  502 -0.00000000000E+00 -0.00000000000E+00 -0.65102339644E+03  0.65102339644E+03  0.00000000000E+00 0. -1.
         21    1    1    2  503  501  0.11788082462E+02  0.17085659271E+02 -0.39602872688E+03  0.39657235299E+03  0.00000000000E+00 0. -1.
         21    1    1    2  504  502 -0.11788082462E+02 -0.17085659271E+02 -0.25429996684E+03  0.25514574615E+03  0.00000000000E+00 0. -1.
</event>
<event>
 4    1  0.1589319E+006  0.2449719E+02  0.7546771E-02  0.1474508E+00
         21   -1    0    0  503  501  0.00000000000E+00  0.00000000000E+00  0.45486210138E+03  0.45486210138E+03  0.00000000000E+00 0.  1.
         21   -1    0    0  501  502 -0.00000000000E+00 -0.00000000000E+00 -0.35962804684E+01  0.35962804684E+01  0.00000000000E+00 0.  1.
         21    1    1    2  503  504  0.22615655446E+02 -0.94151140093E+01  0.40803093905E+03  0.40876565348E+03  0.00000000000E+00 0.  1.
         21    1    1    2  504  502 -0.22615655446E+02  0.94151140093E+01  0.43234881859E+02  0.49692728366E+02  0.00000000000E+00 0.  1.
</event>
<event>
 4    1  0.1589319E+006  0.2202980E+02  0.7546771E-02  0.1505054E+00
         21   -1    0    0  503  501  0.00000000000E+00  0.00000000000E+00  0.10271412507E+02  0.10271412507E+02  0.00000000000E+00 0. -1.
         21   -1    0    0  501  502 -0.00000000000E+00 -0.00000000000E+00 -0.53184640542E+02  0.53184640542E+02  0.00000000000E+00 0. -1.
         21    1    1    2  503  504 -0.21382107977E+02 -0.53025866590E+01 -0.10856979885E+02  0.24559844850E+02  0.00000000000E+00 0. -1.
         21    1    1    2  504  502  0.21382107977E+02  0.53025866590E+01 -0.32056248150E+02  0.38896208199E+02  0.00000000000E+00 0. -1.
</event>
<event>
 4    1  0.1589319E+006  0.2077486E+02  0.7546771E-02  0.1522504E+00
         21   -1    0    0  503  501  0.00000000000E+00  0.00000000000E+00  0.27008679337E+02  0.27008679337E+02  0.00000000000E+00 0. -1.
         21   -1    0    0  504  502 -0.00000000000E+00 -0.00000000000E+00 -0.23225063512E+02  0.23225063512E+02  0.00000000000E+00 0.  1.
         21    1    1    2  503  502  0.16235711440E+02 -0.12961352925E+02  0.15920342002E+02  0.26173503492E+02  0.00000000000E+00 0. -1.
         21    1    1    2  504  501 -0.16235711440E+02  0.12961352925E+02 -0.12136726177E+02  0.24060239357E+02  0.00000000000E+00 0.  1.
</event>
<event>
 4    1  0.1589319E+006  0.3027536E+02  0.7546771E-02  0.1417218E+00
         21   -1    0    0  504  501  0.00000000000E+00  0.00000000000E+00  0.10580760363E+04  0.10580760363E+04  0.00000000000E+00 0.  1.
         21   -1    0    0  503  502 -0.00000000000E+00 -0.00000000000E+00 -0.17230492744E+01  0.17230492744E+01  0.00000000000E+00 0.  1.
         21    1    1    2  503  501 -0.25834037684E+02  0.15786069216E+02  0.15451798916E+03  0.15745604611E+03  0.00000000000E+00 0.  1.
         21    1    1    2  504  502  0.25834037684E+02 -0.15786069216E+02  0.90183499791E+03  0.90234303951E+03  0.00000000000E+00 0.  1.
</event>
<event>
 4    1  0.1589319E+006  0.2199057E+02  0.7546771E-02  0.1505578E+00
         21   -1    0    0  502  501  0.00000000000E+00  0.00000000000E+00  0.60100457649E+02  0.60100457649E+02  0.00000000000E+00 0.  1.
         21   -1    0    0  504  502 -0.00000000000E+00 -0.00000000000E+00 -0.17134670274E+03  0.17134670274E+03  0.00000000000E+00 0. -1.
         21    1    1    2  503  501 -0.12498330372E+02  0.18093558656E+02  0.57350652090E+02  0.61422165560E+02  0.00000000000E+00 0.  1.
         21    1    1    2  504  503  0.12498330372E+02 -0.18093558656E+02 -0.16859689718E+03  0.17002499482E+03  0.00000000000E+00 0. -1.
</event>
<event>
 4    1  0.1589319E+006  0.2295912E+02  0.7546771E-02  0.1493012E+00
         21   -1    0    0  502  501  0.00000000000E+00  0.00000000000E+00  0.48382616364E+03  0.48382616364E+03  0.00000000000E+00 0.  1.
         21   -1    0    0  504  502 -0.00000000000E+00 -0.00000000000E+00 -0.27248602377E+02  0.27248602377E+02  0.00000000000E+00 0. -1.
         21    1    1    2  503  501  0.21297383295E+02 -0.85757059205E+01  0.47866545794E+03  0.47921575714E+03  0.00000000000E+00 0.  1.
         21    1    1    2  504  503 -0.21297383295E+02  0.85757059205E+01 -0.22087896674E+02  0.31859008879E+02  0.00000000000E+00 0. -1.
</event>
<event>
 4    1  0.1589319E+006  0.2521096E+02  0.7546771E-02  0.1466457E+00
         21   -1    0    0  502  501  0.00000000000E+00  0.00000000000E+00  0.41489960289E+02  0.41489960289E+02  0.00000000000E+00 0. -1.
         21   -1    0    0  504  502 -0.00000000000E+00 -0.00000000000E+00 -0.25320918830E+02  0.25320918830E+02  0.00000000000E+00 0. -1.
         21    1    1    2  503  501  0.25115367162E+02  0.21933605508E+01  0.29079480331E+02  0.38486473916E+02  0.00000000000E+00 0. -1.
         21    1    1    2  504  503 -0.25115367162E+02 -0.21933605508E+01 -0.12910438872E+02  0.28324405202E+02  0.00000000000E+00 0. -1.
</event>
<event>
 4    1  0.1589319E+006  0.2164428E+02  0.7546771E-02  0.1510262E+00
         21   -1    0    0  503  501  0.00000000000E+00  0.00000000000E+00  0.28284128078E+01  0.28284128078E+01  0.00000000000E+00 0.  1.
         21   -1    0    0  504  502 -0.00000000000E+00 -0.00000000000E+00 -0.16563309867E+03  0.16563309867E+03  0.00000000000E+00 0.  1.
         21    1    1    2  503  502 -0.21235525655E+02 -0.41865625904E+01 -0.81646040419E+02  0.84466270027E+02  0.00000000000E+00 0.  1.
         21    1    1    2  504  501  0.21235525655E+02  0.41865625904E+01 -0.81158645440E+02  0.83995241448E+02  0.00000000000E+00 0.  1.
</event>
<event>
 4    1  0.1589319E+006  0.3036401E+02  0.7546771E-02  0.1416459E+00
         21   -1    0    0  504  501  0.00000000000E+00  0.00000000000E+00  0.34366935753E+02  0.34366935753E+02  0.00000000000E+00 0.  1.
         21   -1    0    0  503  502 -0.00000000000E+00 -0.00000000000E+00 -0.97400692578E+02  0.97400692578E+02  0.00000000000E+00 0.  1.
         21    1    1    2  503  501 -0.15609061694E+02 -0.26044778500E+02 -0.87598182161E+02  0.92711459982E+02  0.00000000000E+00 0.  1.
         21    1    1    2  504  502  0.15609061694E+02  0.26044778500E+02  0.24564425336E+02  0.39056168349E+02  0.00000000000E+00 0.  1.
</event>
<event>
 4    1  0.1589319E+006  0.3627204E+02  0.7546771E-02  0.1371834E+00
         21   -1    0    0  504  501  0.00000000000E+00  0.00000000000E+00  0.86750626557E+02  0.86750626557E+02  0.00000000000E+00 0.  1.
         21   -1    0    0  503  502 -0.00000000000E+00 -0.00000000000E+00 -0.27099997459E+02  0.27099997459E+02  0.00000000000E+00 0. -1.
         21    1    1    2  503  501  0.18451920564E+02 -0.31227997732E+02 -0.79504715672E+01  0.37133155171E+02  0.00000000000E+00 0. -1.
         21    1    1    2  504  502 -0.18451920564E+02  0.31227997732E+02  0.67601100666E+02  0.76717468845E+02  0.00000000000E+00 0.  1.
</event>
<event>
 4    1  0.1589319E+006  0.2085330E+02  0.7546771E-02  0.1521370E+00
         21   -1    0    0  502  501  0.00000000000E+00  0.00000000000E+00  0.11916784027E+02  0.11916784027E+02  0.00000000000E+00 0.  1.
         21   -1    0    0  504  502 -0.00000000000E+00 -0.00000000000E+00 -0.39695456099E+02  0.39695456099E+02  0.00000000000E+00 0.  1.
         21    1    1    2  503  501 -0.20852792349E+02 -0.14553429519E+00 -0.65576747669E+01  0.21860082967E+02  0.00000000000E+00 0.  1.
         21    1    1    2  504  503  0.20852792349E+02  0.14553429519E+00 -0.21220997305E+02  0.29752157159E+02  0.00000000000E+00 0.  1.
</event>
<event>
 4    1  0.1589319E+006  0.2112171E+02  0.7546771E-02  0.1517534E+00
         21   -1    0    0  504  501  0.00000000000E+00  0.00000000000E+00  0.12983782574E+02  0.12983782574E+02  0.00000000000E+00 0.  1.
         21   -1    0    0  503  502 -0.00000000000E+00 -0.00000000000E+00 -0.76144814623E+02  0.76144814623E+02  0.00000000000E+00 0. -1.
         21    1    1    2  503  501 -0.10411826709E+02  0.18377173960E+02  0.14316934331E+01  0.21170177237E+02  0.00000000000E+00 0.  1.
         21    1    1    2  504  502  0.10411826709E+02 -0.18377173960E+02 -0.64592725482E+02  0.67958419959E+02  0.00000000000E+00 0. -1.
</event>
<event>
 4    1  0.1589319E+006  0.2054946E+02  0.7546771E-02  0.1525796E+00
         21   -1    0    0  504  501  0.00000000000E+00  0.00000000000E+00  0.99429651465E+02  0.99429651465E+02  0.00000000000E+00 0. -1.
         21   -1    0    0  503  502 -0.00000000000E+00 -0.00000000000E+00 -0.23627608384E+02  0.23627608384E+02  0.00000000000E+00 0. -1.
         21    1    1    2  503  501 -0.50598964421E+01 -0.19916770415E+02 -0.17824068192E+02  0.27202531182E+02  0.00000000000E+00 0. -1.
         21    1    1    2  504  502  0.50598964421E+01  0.19916770415E+02  0.93626111273E+02  0.95854728667E+02  0.00000000000E+00 0. -1.
</event>
<event>
 4    1  0.1589319E+006  0.2131059E+02  0.7546771E-02  0.1514876E+00
         21   -1    0    0  502  501  0.00000000000E+00  0.00000000000E+00  0.33952497577E+03  0.33952497577E+03  0.00000000000E+00 0.  1.
         21   -1    0    0  504  502 -0.00000000000E+00 -0.00000000000E+00 -0.63730564517E+01  0.63730564517E+01  0.00000000000E+00 0.  1.
         21    1    1    2  503  501  0.13640395160E+02 -0.16373177537E+02  0.32030805991E+03  0.32101619051E+03  0.00000000000E+00 0.  1.
         21    1    1    2  504  503 -0.13640395160E+02  0.16373177537E+02  0.12843859409E+02  0.24881841718E+02  0.00000000000E+00 0.  1.
</event>
<event>
 4    1  0.1589319E+006  0.2042729E+02  0.7546771E-02  0.1527601E+00
         21   -1    0    0  504  501  0.00000000000E+00  0.00000000000E+00  0.66252191430E+02  0.66252191430E+02  0.00000000000E+00 0. -1.
         21   -1    0    0  503  502 -0.00000000000E+00 -0.00000000000E+00 -0.39671810185E+02  0.39671810185E+02  0.00000000000E+00 0.  1.
         21    1    1    2  503  501 -0.24114015367E+01 -0.20284459762E+02  0.61866500053E+02  0.65151653809E+02  0.00000000000E+00 0. -1.
         21    1    1    2  504  502  0.24114015367E+01  0.20284459762E+02 -0.35286118807E+02  0.40772347807E+02  0.00000000000E+00 0.  1.
</event>
<event>
 4    1  0.1589319E+006  0.2045626E+02  0.7546771E-02  0.1527171E+00
         21   -1    0    0  503  501  0.00000000000E+00  0.00000000000E+00  0.15759276933E+03  0.15759276933E+03  0.00000000000E+00 0.  1.
         21   -1    0    0  504  502 -0.00000000000E+00 -0.00000000000E+00 -0.30958291317E+01  0.30958291317E+01  0.00000000000E+00 0. -1.
         21    1    1    2  503  502 -0.49604210717E+01 -0.19845724839E+02  0.46941250187E+02  0.51204878095E+02  0.00000000000E+00 0. -1.
         21    1    1    2  504  501  0.49604210717E+01  0.19845724839E+02  0.10755569001E+03  0.10948372037E+03  0.00000000000E+00 0.  1.
</event>
<event>
 4    1  0.1589319E+006  0.3473915E+02  0.7546771E-02  0.1382406E+00
         21   -1    0    0  503  501  0.00000000000E+00  0.00000000000E+00  0.96936337301E+02  0.96936337301E+02  0.00000000000E+00 0.  1.
         21   -1    0    0  504  502 -0.00000000000E+00 -0.00000000000E+00 -0.20013909586E+02  0.20013909586E+02  0.00000000000E+00 0.  1.
         21    1    1    2  503  502 -0.34696190998E+02  0.17271786665E+01  0.25117239216E+01  0.34829837395E+02  0.00000000000E+00 0.  1.
         21    1    1    2  504  501  0.34696190998E+02 -0.17271786665E+01  0.74410703793E+02  0.82120409491E+02  0.00000000000E+00 0.  1.
</event>
<event>
 4    1  0.1589319E+006  0.7197507E+02  0.7546771E-02  0.1223813E+00
         21   -1    0    0  504  501  0.00000000000E+00  0.00000000000E+00  0.40752140323E+03  0.40752140323E+03  0.00000000000E+00 0.  1.
         21   -1    0    0  503  502 -0.00000000000E+00 -0.00000000000E+00 -0.36371706292E+02  0.36371706292E+02  0.00000000000E+00 0. -1.
         21    1    1    2  503  501  0.43454766092E+02 -0.57376777518E+02  0.36458236294E+03  0.37161903969E+03  0.00000000000E+00 0.  1.
         21    1    1    2  504  502 -0.43454766092E+02  0.57376777518E+02  0.65673340010E+01  0.72274069834E+02  0.00000000000E+00 0. -1.
</event>
<event>
 4    1  0.1589319E+006  0.2308733E+02  0.7546771E-02  0.1491404E+00
         21   -1    0    0  502  501  0.00000000000E+00  0.00000000000E+00  0.42586175392E+03  0.42586175392E+03  0.00000000000E+00 0.  1.
         21   -1    0    0  503  502 -0.00000000000E+00 -0.00000000000E+00 -0.15537068436E+01  0.15537068436E+01  0.00000000000E+00 0.  1.
         21    1    1    2  503  504 -0.22178769841E+02  0.64130198554E+01  0.11792410282E+03  0.12016288396E+03  0.00000000000E+00 0.  1.
         21    1    1    2  504  501  0.22178769841E+02 -0.64130198554E+01  0.30638394425E+03  0.30725257680E+03  0.00000000000E+00 0.  1.
</event>
<event>
 4    1  0.1589319E+006  0.2401415E+02  0.7546771E-02  0.1480141E+00
         21   -1    0    0  503  501  0.00000000000E+00  0.00000000000E+00  0.61723474812E+01  0.61723474812E+01  0.00000000000E+00 0. -1.
         21   -1    0    0  501  502 -0.00000000000E+00 -0.00000000000E+00 -0.22295297986E+03  0.22295297986E+03  0.00000000000E+00 0.  1.
         21    1    1    2  503  504 -0.31350477718E+01 -0.23808630899E+02 -0.21070926933E+02  0.31947822956E+02  0.00000000000E+00 0. -1.
         21    1    1    2  504  502  0.31350477718E+01  0.23808630899E+02 -0.19570970544E+03  0.19717750438E+03  0.00000000000E+00 0.  1.
</event>
<event>
 4    1  0.1589319E+006  0.2438260E+02  0.7546771E-02  0.1475830E+00
         21   -1    0    0  502  501  0.00000000000E+00  0.00000000000E+00  0.15226771481E+02  0.15226771481E+02  0.00000000000E+00 0.  1.
         21   -1    0    0  504  502 -0.00000000000E+00 -0.00000000000E+00 -0.49843419717E+02  0.49843419717E+02  0.00000000000E+00 0.  1.
         21    1    1    2  503  501 -0.33871253734E+01  0.24146188971E+02 -0.21639143996E+01  0.24478431029E+02  0.00000000000E+00 0.  1.
         21    1    1    2  504  503  0.33871253734E+01 -0.24146188971E+02 -0.32452733836E+02  0.40591760169E+02  0.00000000000E+00 0.  1.
</event>
<event>
 4    1  0.1589319E+006  0.2330566E+02  0.7546771E-02  0.1488695E+00
         21   -1    0    0  503  501  0.00000000000E+00  0.00000000000E+00  0.87372671177E+02  0.87372671177E+02  0.00000000000E+00 0. -1.
         21   -1    0    0  501  502 -0.00000000000E+00 -0.00000000000E+00 -0.67033822898E+01  0.67033822898E+01  0.00000000000E+00 0. -1.
         21    1    1    2  503  504 -0.21731429237E+02 -0.84201422856E+01  0.53011335603E+02  0.57908164495E+02  0.00000000000E+00 0. -1.
         21    1    1    2  504  502  0.21731429237E+02  0.84201422856E+01  0.27657953284E+02  0.36167888971E+02  0.00000000000E+00 0. -1.
</event>
<event>
 4    1  0.1589319E+006  0.2213576E+02  0.7546771E-02  0.1503645E+00
         21   -1    0    0  503  501  0.00000000000E+00  0.00000000000E+00  0.34356983851E+02  0.34356983851E+02  0.00000000000E+00 0. -1.
         21   -1    0    0  501  502 -0.00000000000E+00 -0.00000000000E+00 -0.17642061990E+02  0.17642061990E+02  0.00000000000E+00 0. -1.
         21    1    1    2  503  504 -0.20716422948E+02 -0.77988270165E+01  0.19738106961E+02  0.29657794069E+02  0.00000000000E+00 0. -1.
         21    1    1    2  504  502  0.20716422948E+02  0.77988270165E+01 -0.30231851002E+01  0.22341251772E+02  0.00000000000E+00 0. -1.
</event>
<event>
 4    1  0.1589319E+006  0.2250073E+02  0.7546771E-02  0.1498865E+00
         21   -1    0    0  502  501  0.00000000000E+00  0.00000000000E+00  0.23245133391E+03  0.23245133391E+03  0.00000000000E+00 0. -1.
         21   -1    0    0  503  502 -0.00000000000E+00 -0.00000000000E+00 -0.83453026462E+02  0.83453026462E+02  0.00000000000E+00 0.  1.
         21    1    1    2  503  504  0.13344602412E+02  0.18116412414E+02 -0.81378225444E+02  0.84431619602E+02  0.00000000000E+00 0.  1.
         21    1    1    2  504  501 -0.13344602412E+02 -0.18116412414E+02  0.23037653289E+03  0.23147274077E+03  0.00000000000E+00 0. -1.
</event>
<event>
 4    1  0.1589319E+006  0.2488402E+02  0.7546771E-02  0.1470105E+00
         21   -1    0    0  504  501  0.00000000000E+00  0.00000000000E+00  0.37966832931E+02  0.37966832931E+02  0.00000000000E+00 0. -1.
         21   -1    0    0  503  502 -0.00000000000E+00 -0.00000000000E+00 -0.73047118573E+02  0.73047118573E+02  0.00000000000E+00 0. -1.
         21    1    1    2  503  501 -0.48391677526E+01  0.24408948721E+02  0.31379373159E+02  0.40048462918E+02  0.00000000000E+00 0. -1.
         21    1    1    2  504  502  0.48391677526E+01 -0.24408948721E+02 -0.66459658801E+02  0.70965488586E+02  0.00000000000E+00 0. -1.
</event>
<event>
 4    1  0.1589319E+006  0.2431362E+02  0.7546771E-02  0.1476630E+00
         21   -1    0    0  503  501  0.00000000000E+00  0.00000000000E+00  0.24462121404E+02  0.24462121404E+02  0.00000000000E+00 0.  1.
         21   -1    0    0  501  502 -0.00000000000E+00 -0.00000000000E+00 -0.25716547975E+02  0.25716547975E+02  0.00000000000E+00 0. -1.
         21    1    1    2  503  504 -0.30013652381E+01 -0.24127660804E+02  0.55333734136E+01  0.24935324953E+02  0.00000000000E+00 0. -1.
         21    1    1    2  504  502  0.30013652381E+01  0.24127660804E+02 -0.67877999848E+01  0.25243344426E+02  0.00000000000E+00 0.  1.
</event>
<event>
 4    1  0.1589319E+006  0.3280795E+02  0.7546771E-02  0.1396665E+00
         21   -1    0    0  503  501  0.00000000000E+00  0.00000000000E+00  0.22995323942E+02  0.22995323942E+02  0.00000000000E+00 0. -1.
         21   -1    0    0  504  502 -0.00000000000E+00 -0.00000000000E+00 -0.18038719870E+03  0.18038719870E+03  0.00000000000E+00 0.  1.
         21    1    1    2  503  502  0.12557693028E+02  0.30309503718E+02  0.88126026130E+01  0.33970923370E+02  0.00000000000E+00 0. -1.
         21    1    1    2  504  501 -0.12557693028E+02 -0.30309503718E+02 -0.16620447737E+03  0.16941159927E+03  0.00000000000E+00 0.  1.
</event>
<event>
 4    1  0.1589319E+006  0.3198532E+02  0.7546771E-02  0.1403094E+00
         21   -1    0    0  503  501  0.00000000000E+00  0.00000000000E+00  0.24014814118E+02  0.24014814118E+02  0.00000000000E+00 0.  1.
         21   -1    0    0  504  502 -0.00000000000E+00 -0.00000000000E+00 -0.99550810558E+02  0.99550810558E+02  0.00000000000E+00 0.  1.
         21    1    1    2  503  502  0.18177546999E+02  0.26318007209E+02 -0.84497432393E+02  0.90348640275E+02  0.00000000000E+00 0.  1.
         21    1    1    2  504  501 -0.18177546999E+02 -0.26318007209E+02  0.89614359533E+01  0.33216984401E+02  0.00000000000E+00 0.  1.
</event>
<event>
 4    1  0.1589319E+006  0.2651588E+02  0.7546771E-02  0.1452533E+00
         21   -1    0    0  503  501  0.00000000000E+00  0.00000000000E+00  0.66911490178E+01  0.66911490178E+01  0.00000000000E+00 0.  1.
         21   -1    0    0  501  502 -0.00000000000E+00 -0.00000000000E+00 -0.74162773436E+03  0.74162773436E+03  0.00000000000E+00 0.  1.
         21    1    1    2  503  504  0.12798480300E+02 -0.23222640388E+02 -0.20827299604E+02  0.33717481124E+02  0.00000000000E+00 0.  1.
         21    1    1    2  504  502 -0.12798480300E+02  0.23222640388E+02 -0.71410928574E+03  0.71460140225E+03  0.00000000000E+00 0.  1.
</event>
<event>
 4    1  0.1589319E+006  0.2578802E+02  0.7546771E-02  0.1460178E+00
         21   -1    0    0  504  501  0.00000000000E+00  0.00000000000E+00  0.11079633024E+03  0.11079633024E+03  0.00000000000E+00 0. -1.
         21   -1    0    0  503  502 -0.00000000000E+00 -0.00000000000E+00 -0.88126868465E+01  0.88126868465E+01  0.00000000000E+00 0. -1.
         21    1    1    2  503  501 -0.25767632685E+02  0.10251658836E+01  0.17218758899E+02  0.31008184682E+02  0.00000000000E+00 0. -1.
         21    1    1    2  504  502  0.25767632685E+02 -0.10251658836E+01  0.84764884499E+02  0.88600832408E+02  0.00000000000E+00 0. -1.
</event>
<event>
 4    1  0.1589319E+006  0.2001645E+02  0.7546771E-02  0.1533784E+00
         21   -1    0    0  503  501  0.00000000000E+00  0.00000000000E+00  0.30512687778E+02  0.30512687778E+02  0.00000000000E+00 0.  1.
         21   -1    0    0  504  502 -0.00000000000E+00 -0.00000000000E+00 -0.14444065920E+02  0.14444065920E+02  0.00000000000E+00 0.  1.
         21    1    1    2  503  502 -0.13768785987E+02  0.14528550567E+02  0.12565792860E+01  0.20055853027E+02  0.00000000000E+00 0.  1.
         21    1    1    2  504  501  0.13768785987E+02 -0.14528550567E+02  0.14812042571E+02  0.24900900672E+02  0.00000000000E+00 0.  1.
</event>
<event>
 4    1  0.1589319E+006  0.2078278E+02  0.7546771E-02  0.1522389E+00
         21   -1    0    0  502  501  0.00000000000E+00  0.00000000000E+00  0.37185018028E+03  0.37185018028E+03  0.00000000000E+00 0.  1.
         21   -1    0    0  503  502 -0.00000000000E+00 -0.00000000000E+00 -0.35728178747E+03  0.35728178747E+03  0.00000000000E+00 0.  1.
         21    1    1    2  503  504  0.18635799147E+02  0.91995146148E+01 -0.35668868723E+03  0.35729363789E+03  0.00000000000E+00 0.  1.
         21    1    1    2  504  501 -0.18635799147E+02 -0.91995146148E+01  0.37125708004E+03  0.37183832987E+03  0.00000000000E+00 0.  1.
</event>
<event>
 4    1  0.1589319E+006  0.2659722E+02  0.7546771E-02  0.1451697E+00
         21   -1    0    0  504  501  0.00000000000E+00  0.00000000000E+00  0.10336423592E+04  0.10336423592E+04  0.00000000000E+00 0. -1.
         21   -1    0    0  503  502 -0.00000000000E+00 -0.00000000000E+00 -0.59498799573E+02  0.59498799573E+02  0.00000000000E+00 0.  1.
         21    1    1    2  503  501  0.26586163397E+02 -0.76696070910E+00 -0.56346230123E+02  0.62308185353E+02  0.00000000000E+00 0.  1.
         21    1    1    2  504  502 -0.26586163397E+02  0.76696070910E+00  0.10304897897E+04  0.10308329734E+04  0.00000000000E+00 0. -1.
</event>
<event>
 4    1  0.1589319E+006  0.5356845E+02  0.7546771E-02  0.1283400E+00
         21   -1    0    0  503  501  0.00000000000E+00  0.00000000000E+00  0.16051513339E+02  0.16051513339E+02  0.00000000000E+00 0. -1.
         21   -1    0    0  504  502 -0.00000000000E+00 -0.00000000000E+00 -0.37192497243E+03  0.37192497243E+03  0.00000000000E+00 0.  1.
         21    1    1    2  503  502  0.12064084140E+02  0.52192305163E+02 -0.38139940065E+02  0.65758907173E+02  0.00000000000E+00 0. -1.
         21    1    1    2  504  501 -0.12064084140E+02 -0.52192305163E+02 -0.31773351902E+03  0.32221757859E+03  0.00000000000E+00 0.  1.
</event>
<event>
 4    1  0.1589319E+006  0.4570990E+02  0.7546771E-02  0.1317927E+00
         21   -1    0    0  502  501  0.00000000000E+00  0.00000000000E+00  0.27603221902E+02  0.27603221902E+02  0.00000000000E+00 0.  1.
         21   -1    0    0  504  502 -0.00000000000E+00 -0.00000000000E+00 -0.21466464115E+03  0.21466464115E+03  0.00000000000E+00 0. -1.
         21    1    1    2  503  501  0.14468997172E+02 -0.43359468053E+02  0.39339682937E+01  0.45878878098E+02  0.00000000000E+00 0.  1.
         21    1    1    2  504  503 -0.14468997172E+02  0.43359468053E+02 -0.19099538754E+03  0.19638898495E+03  0.00000000000E+00 0. -1.
</event>
<event>
 4    1  0.1589319E+006  0.3116370E+02  0.7546771E-02  0.1409746E+00
         21   -1    0    0  503  501  0.00000000000E+00  0.00000000000E+00  0.13742485919E+02  0.13742485919E+02  0.00000000000E+00 0. -1.
         21   -1    0    0  501  502 -0.00000000000E+00 -0.00000000000E+00 -0.11753394516E+03  0.11753394516E+03  0.00000000000E+00 0. -1.
         21    1    1    2  503  504 -0.30404690810E+02  0.68360266390E+01 -0.10448432312E+02  0.32868620617E+02  0.00000000000E+00 0. -1.
         21    1    1    2  504  502  0.30404690810E+02 -0.68360266390E+01 -0.93343026929E+02  0.98407810462E+02  0.00000000000E+00 0. -1.
</event>
<event>
 4    1  0.1589319E+006  0.3832765E+02  0.7546771E-02  0.1358574E+00
         21   -1    0    0  502  501  0.00000000000E+00  0.00000000000E+00  0.25783407987E+01  0.25783407987E+01  0.00000000000E+00 0.  1.
         21   -1    0    0  504  502 -0.00000000000E+00 -0.00000000000E+00 -0.58210889146E+03  0.58210889146E+03  0.00000000000E+00 0.  1.
         21    1    1    2  503  501 -0.81686528300E+01 -0.37447055438E+02 -0.24716750721E+03  0.25012154139E+03  0.00000000000E+00 0.  1.
         21    1    1    2  504  503  0.81686528300E+01  0.37447055438E+02 -0.33236304345E+03  0.33456569086E+03  0.00000000000E+00 0.  1.
</event>
<event>
 4    1  0.1589319E+006  0.3840402E+02  0.7546771E-02  0.1358101E+00
         21   -1    0    0  503  501  0.00000000000E+00  0.00000000000E+00  0.13691089534E+03  0.13691089534E+03  0.00000000000E+00 0. -1.
         21   -1    0    0  504  502 -0.00000000000E+00 -0.00000000000E+00 -0.12314414782E+02  0.12314414782E+02  0.00000000000E+00 0. -1.
         21    1    1    2  503  502 -0.19891218656E+02 -0.32851305849E+02  0.35896069055E+02  0.52568019263E+02  0.00000000000E+00 0. -1.
         21    1    1    2  504  501  0.19891218656E+02  0.32851305849E+02  0.88700411503E+02  0.96657290860E+02  0.00000000000E+00 0. -1.
</event>
<event>
 4    1  0.1589319E+006  0.2040246E+02  0.7546771E-02  0.1527970E+00
         21   -1    0    0  503  501  0.00000000000E+00  0.00000000000E+00  0.16945022670E+03  0.16945022670E+03  0.00000000000E+00 0. -1.
         21   -1    0    0  504  502 -0.00000000000E+00 -0.00000000000E+00 -0.32745589553E+02  0.32745589553E+02  0.00000000000E+00 0. -1.
         21    1    1    2  503  502 -0.12085611393E+02  0.16437715467E+02 -0.28879546834E+02  0.35359421911E+02  0.00000000000E+00 0. -1.
         21    1    1    2  504  501  0.12085611393E+02 -0.16437715467E+02  0.16558418398E+03  0.16683639434E+03  0.00000000000E+00 0. -1.
</event>
<event>
 4    1  0.1589319E+006  0.2801081E+02  0.7546771E-02  0.1437710E+00
         21   -1    0    0  504  501  0.00000000000E+00  0.00000000000E+00  0.28693746334E+01  0.28693746334E+01  0.00000000000E+00 0.  1.
         21   -1    0    0  503  502 -0.00000000000E+00 -0.00000000000E+00 -0.30188081179E+03  0.30188081179E+03  0.00000000000E+00 0.  1.
         21    1    1    2  503  501 -0.27687651277E+02 -0.42425483190E+01 -0.19627471430E+03  0.19826338221E+03  0.00000000000E+00 0.  1.
         21    1    1    2  504  502  0.27687651277E+02  0.42425483190E+01 -0.10273672285E+03  0.10648680421E+03  0.00000000000E+00 0.  1.
</event>
<event>
 4    1  0.1589319E+006  0.2008763E+02  0.7546771E-02  0.1532700E+00
         21   -1    0    0  503  501  0.00000000000E+00  0.00000000000E+00  0.34768993460E+02  0.34768993460E+02  0.00000000000E+00 0. -1.
         21   -1    0    0  504  502 -0.00000000000E+00 -0.00000000000E+00 -0.14905232101E+03  0.14905232101E+03  0.00000000000E+00 0.  1.
         21    1    1    2  503  502 -0.10052280448E+02  0.17391502928E+02  0.31118310603E+02  0.37038655092E+02  0.00000000000E+00 0. -1.
         21    1    1    2  504  501  0.10052280448E+02 -0.17391502928E+02 -0.14540163816E+03  0.14678265938E+03  0.00000000000E+00 0.  1.
</event>
<event>
 4    1  0.1589319E+006  0.5105573E+02  0.7546771E-02  0.1293659E+00
         21   -1    0    0  502  501  0.00000000000E+00  0.00000000000E+00  0.16639170830E+02  0.16639170830E+02  0.00000000000E+00 0.  1.
         21   -1    0    0  504  502 -0.00000000000E+00 -0.00000000000E+00 -0.21931538940E+03  0.21931538940E+03  0.00000000000E+00 0.  1.
         21    1    1    2  503  501 -0.11101917078E+02 -0.49834076331E+02 -0.38279550975E+02  0.63812316597E+02  0.00000000000E+00 0.  1.
         21    1    1    2  504  503  0.11101917078E+02  0.49834076331E+02 -0.16439666759E+03  0.17214224363E+03  0.00000000000E+00 0.  1.
</event>
<event>
 4    1  0.1589319E+006  0.2046269E+02  0.7546771E-02  0.1527076E+00
         21   -1    0    0  504  501  0.00000000000E+00  0.00000000000E+00  0.77726521130E+02  0.77726521130E+02  0.00000000000E+00 0. -1.
         21   -1    0    0  503  502 -0.00000000000E+00 -0.00000000000E+00 -0.14753588526E+02  0.14753588526E+02  0.00000000000E+00 0.  1.
         21    1    1    2  503  501  0.20456949806E+02  0.48478146518E+00 -0.53567496683E+01  0.21152223889E+02  0.00000000000E+00 0.  1.
         21    1    1    2  504  502 -0.20456949806E+02 -0.48478146518E+00  0.68329682272E+02  0.71327885766E+02  0.00000000000E+00 0. -1.
</event>
<event>
 4    1  0.1589319E+006  0.2158950E+02  0.7546771E-02  0.1511012E+00
         21   -1    0    0  504  501  0.00000000000E+00  0.00000000000E+00  0.17900479381E+03  0.17900479381E+03  0.00000000000E+00 0. -1.
         21   -1    0    0  503  502 -0.00000000000E+00 -0.00000000000E+00 -0.17928756415E+02  0.17928756415E+02  0.00000000000E+00 0. -1.
         21    1    1    2  503  501  0.22785422899E+01  0.21468921856E+02  0.17157401980E+03  0.17292700955E+03  0.00000000000E+00 0. -1.
         21    1    1    2  504  502 -0.22785422899E+01 -0.21468921856E+02 -0.10497982406E+02  0.24006540676E+02  0.00000000000E+00 0. -1.
</event>
<event>
 4    1  0.1589319E+006  0.2287659E+02  0.7546771E-02  0.1494054E+00
         21   -1    0    0  503  501  0.00000000000E+00  0.00000000000E+00  0.14933061371E+03  0.14933061371E+03  0.00000000000E+00 0.  1.
         21   -1    0    0  501  502 -0.00000000000E+00 -0.00000000000E+00 -0.41432278586E+02  0.41432278586E+02  0.00000000000E+00 0. -1.
         21    1    1    2  503  504  0.12518578902E+02  0.19147418974E+02  0.14520756528E+03  0.14699855607E+03  0.00000000000E+00 0.  1.
         21    1    1    2  504  502 -0.12518578902E+02 -0.19147418974E+02 -0.37309230154E+02  0.43764336231E+02  0.00000000000E+00 0. -1.
</event>
<event>
 4    1  0.1589319E+006  0.2716268E+02  0.7546771E-02  0.1445981E+00
         21   -1    0    0  502  501  0.00000000000E+00  0.00000000000E+00  0.19108492489E+02  0.19108492489E+02  0.00000000000E+00 0.  1.
         21   -1    0    0  503  502 -0.00000000000E+00 -0.00000000000E+00 -0.57329698438E+02  0.57329698438E+02  0.00000000000E+00 0.  1.
         21    1    1    2  503  504 -0.26619219535E+02 -0.54063243017E+01 -0.40948981700E+02  0.49138887792E+02  0.00000000000E+00 0.  1.
         21    1    1    2  504  501  0.26619219535E+02  0.54063243017E+01  0.27277757509E+01  0.27299303135E+02  0.00000000000E+00 0.  1.
</event>
<event>
 4    1  0.1589319E+006  0.2942939E+02  0.7546771E-02  0.1424621E+00
         21   -1    0    0  504  501  0.00000000000E+00  0.00000000000E+00  0.44684773763E+02  0.44684773763E+02  0.00000000000E+00 0. -1.
         21   -1    0    0  503  502 -0.00000000000E+00 -0.00000000000E+00 -0.27289680263E+02  0.27289680263E+02  0.00000000000E+00 0. -1.
         21    1    1    2  503  501 -0.22388546160E+02 -0.19100833668E+02 -0.10674185122E+02  0.31305384105E+02  0.00000000000E+00 0. -1.
         21    1    1    2  504  502  0.22388546160E+02  0.19100833668E+02  0.28069278621E+02  0.40669069921E+02  0.00000000000E+00 0. -1.
</event>
<event>
 4    1  0.1589319E+006  0.2204964E+02  0.7546771E-02  0.1504789E+00
         21   -1    0    0  504  501  0.00000000000E+00  0.00000000000E+00  0.18226231370E+03  0.18226231370E+03  0.00000000000E+00 0.  1.
         21   -1    0    0  503  502 -0.00000000000E+00 -0.00000000000E+00 -0.38444298232E+01  0.38444298232E+01  0.00000000000E+00 0.  1.
         21    1    1    2  503  501 -0.15254669389E+02  0.15921110600E+02  0.37722909500E+02  0.43694445895E+02  0.00000000000E+00 0.  1.
         21    1    1    2  504  502  0.15254669389E+02 -0.15921110600E+02  0.14069497437E+03  0.14241229763E+03  0.00000000000E+00 0.  1.
</event>
<event>
 4    1  0.1589319E+006  0.2709684E+02  0.7546771E-02  0.1446638E+00
         21   -1    0    0  503  501  0.00000000000E+00  0.00000000000E+00  0.50002051645E+01  0.50002051645E+01  0.00000000000E+00 0. -1.
         21   -1    0    0  501  502 -0.00000000000E+00 -0.00000000000E+00 -0.17682723621E+03  0.17682723621E+03  0.00000000000E+00 0. -1.
         21    1    1    2  503  504  0.22304790072E+02  0.15386190622E+02 -0.48475664334E+02  0.55534930941E+02  0.00000000000E+00 0. -1.
         21    1    1    2  504  502 -0.22304790072E+02 -0.15386190622E+02 -0.12335136671E+03  0.12629251044E+03  0.00000000000E+00 0. -1.
</event>
<event>
 4    1  0.1589319E+006  0.2053571E+02  0.7546771E-02  0.1525998E+00
         21   -1    0    0  504  501  0.00000000000E+00  0.00000000000E+00  0.64257526763E+02  0.64257526763E+02  0.00000000000E+00 0.  1.
         21   -1    0    0  503  502 -0.00000000000E+00 -0.00000000000E+00 -0.10281330666E+03  0.10281330666E+03  0.00000000000E+00 0. -1.
         21    1    1    2  503  501 -0.78184524381E+01 -0.18989130455E+02 -0.10010318192E+03  0.10218787749E+03  0.00000000000E+00 0. -1.
         21    1    1    2  504  502  0.78184524381E+01  0.18989130455E+02  0.61547402030E+02  0.64882955933E+02  0.00000000000E+00 0.  1.
</event>
<event>
 4    1  0.1589319E+006  0.2119061E+02  0.7546771E-02  0.1516561E+00
         21   -1    0    0  504  501  0.00000000000E+00  0.00000000000E+00  0.18527131354E+03  0.18527131354E+03  0.00000000000E+00 0. -1.
         21   -1    0    0  501  502 -0.00000000000E+00 -0.00000000000E+00 -0.12246848304E+02  0.12246848304E+02  0.00000000000E+00 0. -1.
         21    1    1    2  503  502 -0.10883707471E+02 -0.18182042387E+02 -0.19362241933E+01  0.21278879618E+02  0.00000000000E+00 0. -1.
         21    1    1    2  504  503  0.10883707471E+02  0.18182042387E+02  0.17496068943E+03  0.17623928222E+03  0.00000000000E+00 0. -1.
</event>
<event>
 4    1  0.1589319E+006  0.2029648E+02  0.7546771E-02  0.1529551E+00
         21   -1    0    0  503  501  0.00000000000E+00  0.00000000000E+00  0.13662556040E+02  0.13662556040E+02  0.00000000000E+00 0. -1.
         21   -1    0    0  504  502 -0.00000000000E+00 -0.00000000000E+00 -0.40121972801E+02  0.40121972801E+02  0.00000000000E+00 0. -1.
         21    1    1    2  503  502 -0.18598096693E+02 -0.81276039452E+01 -0.26635521854E+02  0.33487283720E+02  0.00000000000E+00 0. -1.
         21    1    1    2  504  501  0.18598096693E+02  0.81276039452E+01  0.17610509352E+00  0.20297245121E+02  0.00000000000E+00 0. -1.
</event>
<event>
 4    1  0.1589319E+006  0.2013553E+02  0.7546771E-02  0.1531974E+00
         21   -1    0    0  502  501  0.00000000000E+00  0.00000000000E+00  0.24902280436E+01  0.24902280436E+01  0.00000000000E+00 0.  1.
         21   -1    0    0  504  502 -0.00000000000E+00 -0.00000000000E+00 -0.29054253487E+03  0.29054253487E+03  0.00000000000E+00 0.  1.
         21    1    1    2  503  501 -0.17327177324E+02  0.10257120805E+02 -0.46879401588E+02  0.51020759446E+02  0.00000000000E+00 0.  1.
         21    1    1    2  504  503  0.17327177324E+02 -0.10257120805E+02 -0.24117290524E+03  0.24201200347E+03  0.00000000000E+00 0.  1.
</event>
<event>
 4    1  0.1589319E+006  0.3340803E+02  0.7546771E-02  0.1392114E+00
         21   -1    0    0  503  501  0.00000000000E+00  0.00000000000E+00  0.35580165363E+03  0.35580165363E+03  0.00000000000E+00 0. -1.
         21   -1    0    0  504  502 -0.00000000000E+00 -0.00000000000E+00 -0.41999251303E+01  0.41999251303E+01  0.00000000000E+00 0.  1.
         21    1    1    2  503  502  0.22076152260E+02  0.25074681678E+02  0.26636072840E+03  0.26844763696E+03  0.00000000000E+00 0. -1.
         21    1    1    2  504  501 -0.22076152260E+02 -0.25074681678E+02  0.85241000109E+02  0.91553941801E+02  0.00000000000E+00 0.  1.
</event>
<event>
 4    1  0.1589319E+006  0.2373440E+02  0.7546771E-02  0.1483477E+00
         21   -1    0    0  503  501  0.00000000000E+00  0.00000000000E+00  0.18634408060E+02  0.18634408060E+02  0.00000000000E+00 0.  1.
         21   -1    0    0  504  502 -0.00000000000E+00 -0.00000000000E+00 -0.32507239011E+02  0.32507239011E+02  0.00000000000E+00 0.  1.
         21    1    1    2  503  502  0.88132233388E+01 -0.22037441473E+02 -0.16872204410E+00  0.23734999461E+02  0.00000000000E+00 0.  1.
         21    1    1    2  504  501 -0.88132233388E+01  0.22037441473E+02 -0.13704108907E+02  0.27406647610E+02  0.00000000000E+00 0.  1.
</event>
<event>
 4    1  0.1589319E+006  0.2790001E+02  0.7546771E-02  0.1438771E+00
         21   -1    0    0  504  501  0.00000000000E+00  0.00000000000E+00  0.50882978021E+02  0.50882978021E+02  0.00000000000E+00 0.  1.
         21   -1    0    0  503  502 -0.00000000000E+00 -0.00000000000E+00 -0.29830402776E+02  0.29830402776E+02  0.00000000000E+00 0. -1.
         21    1    1    2  503  501  0.21315097609E+01  0.27818465067E+02 -0.17641578837E+02  0.33009629450E+02  0.00000000000E+00 0. -1.
         21    1    1    2  504  502 -0.21315097609E+01 -0.27818465067E+02  0.38694154082E+02  0.47703751348E+02  0.00000000000E+00 0.  1.
</event>
<event>
 4    1  0.1589319E+006  0.3361192E+02  0.7546771E-02  0.1390593E+00
         21   -1    0    0  504  501  0.00000000000E+00  0.00000000000E+00  0.32598345556E+02  0.32598345556E+02  0.00000000000E+00 0.  1.
         21   -1    0    0  503  502 -0.00000000000E+00 -0.00000000000E+00 -0.40485844315E+02  0.40485844315E+02  0.00000000000E+00 0.  1.
         21    1    1    2  503  501  0.21271965596E+02 -0.26024311480E+02 -0.17809154359E+02  0.38038497437E+02  0.00000000000E+00 0.  1.
         21    1    1    2  504  502 -0.21271965596E+02  0.26024311480E+02  0.99216555996E+01  0.35045692434E+02  0.00000000000E+00 0.  1.
</event>
<event>
 4    1  0.1589319E+006  0.2296422E+02  0.7546771E-02  0.1492948E+00
         21   -1    0    0  504  501  0.00000000000E+00  0.00000000000E+00  0.15328539610E+02  0.15328539610E+02  0.00000000000E+00 0.  1.
         21   -1    0    0  503  502 -0.00000000000E+00 -0.00000000000E+00 -0.13557883533E+03  0.13557883533E+03  0.00000000000E+00 0. -1.
         21    1    1    2  503  501  0.20774206276E+02 -0.97871310770E+01  0.50559726582E+01  0.23514217840E+02  0.00000000000E+00 0.  1.
         21    1    1    2  504  502 -0.20774206276E+02  0.97871310770E+01 -0.12530626838E+03  0.12739315710E+03  0.00000000000E+00 0. -1.
</event>
<event>
 4    1  0.1589319E+006  0.2563921E+02  0.7546771E-02  0.1461778E+00
         21   -1    0    0  504  501  0.00000000000E+00  0.00000000000E+00  0.95031203557E+01  0.95031203557E+01  0.00000000000E+00 0. -1.
         21   -1    0    0  503  502 -0.00000000000E+00 -0.00000000000E+00 -0.19232121494E+03  0.19232121494E+03  0.00000000000E+00 0.  1.
         21    1    1    2  503  501  0.25205484745E+02  0.46960081651E+01 -0.17215898866E+03  0.17405770977E+03  0.00000000000E+00 0.  1.
         21    1    1    2  504  502 -0.25205484745E+02 -0.46960081651E+01 -0.10659105922E+02  0.27766625523E+02  0.00000000000E+00 0. -1.
</event>
<event>
 4    1  0.1589319E+006  0.2342953E+02  0.7546771E-02  0.1487174E+00
         21   -1    0    0  504  501  0.00000000000E+00  0.00000000000E+00  0.10314665728E+02  0.10314665728E+02  0.00000000000E+00 0. -1.
         21   -1    0    0  503  502 -0.00000000000E+00 -0.00000000000E+00 -0.54714533151E+02  0.54714533151E+02  0.00000000000E+00 0. -1.
         21    1    1    2  503  501  0.17258111344E+02 -0.15846152228E+02 -0.27574334019E+02  0.36184068928E+02  0.00000000000E+00 0. -1.
         21    1    1    2  504  502 -0.17258111344E+02  0.15846152228E+02 -0.16825533404E+02  0.28845129951E+02  0.00000000000E+00 0. -1.
</event>
<event>
 4    1  0.1589319E+006  0.2229582E+02  0.7546771E-02  0.1501535E+00
         21   -1    0    0  504  501  0.00000000000E+00  0.00000000000E+00  0.36746280889E+03  0.36746280889E+03  0.00000000000E+00 0. -1.
         21   -1    0    0  501  502 -0.00000000000E+00 -0.00000000000E+00 -0.59653971025E+01  0.59653971025E+01  0.00000000000E+00 0. -1.
         21    1    1    2  503  502  0.21908514782E+02 -0.41377175869E+01  0.16564945234E+02  0.27775909299E+02  0.00000000000E+00 0. -1.
         21    1    1    2  504  503 -0.21908514782E+02  0.41377175869E+01  0.34493246655E+03  0.34565229669E+03  0.00000000000E+00 0. -1.
</event>
<event>
 4    1  0.1589319E+006  0.2777309E+02  0.7546771E-02  0.1439993E+00
         21   -1    0    0  503  501  0.00000000000E+00  0.00000000000E+00  0.56179853129E+01  0.56179853129E+01  0.00000000000E+00 0. -1.
         21   -1    0    0  501  502 -0.00000000000E+00 -0.00000000000E+00 -0.23378112519E+03  0.23378112519E+03  0.00000000000E+00 0. -1.
         21    1    1    2  503  504 -0.26892564493E+02 -0.69378925205E+01 -0.37184286136E+02  0.46411372670E+02  0.00000000000E+00 0. -1.
         21    1    1    2  504  502  0.26892564493E+02  0.69378925205E+01 -0.19097885374E+03  0.19298773783E+03  0.00000000000E+00 0. -1.
</event>
<event>
 4    1  0.1589319E+006  0.2927517E+02  0.7546771E-02  0.1426001E+00
         21   -1    0    0  503  501  0.00000000000E+00  0.00000000000E+00  0.23583428453E+03  0.23583428453E+03  0.00000000000E+00 0.  1.
         21   -1    0    0  504  502 -0.00000000000E+00 -0.00000000000E+00 -0.80502849157E+01  0.80502849157E+01  0.00000000000E+00 0.  1.
         21    1    1    2  503  502 -0.21888859915E+02  0.19439990180E+02  0.23573980429E+02  0.37586805662E+02  0.00000000000E+00 0.  1.
         21    1    1    2  504  501  0.21888859915E+02 -0.19439990180E+02  0.20421001919E+03  0.20629776379E+03  0.00000000000E+00 0.  1.
</event>
<event>
 4    1  0.1589319E+006  0.2452113E+02  0.7546771E-02  0.1474232E+00
         21   -1    0    0  503  501  0.00000000000E+00  0.00000000000E+00  0.31611818384E+02  0.31611818384E+02  0.00000000000E+00 0. -1.
         21   -1    0    0  501  502 -0.00000000000E+00 -0.00000000000E+00 -0.58265864027E+02  0.58265864027E+02  0.00000000000E+00 0. -1.
         21    1    1    2  503  504 -0.14920076341E+02 -0.19459633411E+02  0.23554309907E+02  0.34001345940E+02  0.00000000000E+00 0. -1.
         21    1    1    2  504  502  0.14920076341E+02  0.19459633411E+02 -0.50208355550E+02  0.55876336472E+02  0.00000000000E+00 0. -1.
</event>
<event>
 4    1  0.1589319E+006  0.2759908E+02  0.7546771E-02  0.1441681E+00
         21   -1    0    0  504  501  0.00000000000E+00  0.00000000000E+00  0.86227089150E+01  0.86227089150E+01  0.00000000000E+00 0. -1.
         21   -1    0    0  501  502 -0.00000000000E+00 -0.00000000000E+00 -0.60100776915E+03  0.60100776915E+03  0.00000000000E+00 0. -1.
         21    1    1    2  503  502 -0.16961573326E+02  0.21771873448E+02 -0.57771667937E+03  0.57837554501E+03  0.00000000000E+00 0. -1.
         21    1    1    2  504  503  0.16961573326E+02 -0.21771873448E+02 -0.14668380867E+02  0.31254933057E+02  0.00000000000E+00 0. -1.
</event>
<event>
 4    1  0.1589319E+006  0.2024886E+02  0.7546771E-02  0.1530265E+00
         21   -1    0    0  503  501  0.00000000000E+00  0.00000000000E+00  0.61600709200E+01  0.61600709200E+01  0.00000000000E+00 0.  1.
         21   -1    0    0  501  502 -0.00000000000E+00 -0.00000000000E+00 -0.12960488229E+03  0.12960488229E+03  0.00000000000E+00 0.  1.
         21    1    1    2  503  504 -0.19677792688E+02  0.47750075362E+01 -0.14377761884E+02  0.24834175220E+02  0.00000000000E+00 0.  1.
         21    1    1    2  504  502  0.19677792688E+02 -0.47750075362E+01 -0.10906704949E+03  0.11093077799E+03  0.00000000000E+00 0.  1.
</event>
<event>
 4    1  0.1589319E+006  0.4058807E+02  0.7546771E-02  0.1345074E+00
         21   -1    0    0  504  501  0.00000000000E+00  0.00000000000E+00  0.37634954956E+02  0.37634954956E+02  0.00000000000E+00 0.  1.
         21   -1    0    0  503  502 -0.00000000000E+00 -0.00000000000E+00 -0.44483862595E+02  0.44483862595E+02  0.00000000000E+00 0.  1.
         21    1    1    2  503  501 -0.40248748976E+02 -0.52373179541E+01 -0.86152432628E+01  0.41492333147E+02  0.00000000000E+00 0.  1.
         21    1    1    2  504  502  0.40248748976E+02  0.52373179541E+01  0.17663356234E+01  0.40626484404E+02  0.00000000000E+00 0.  1.
</event>
<event>
 4    1  0.1589319E+006  0.3049326E+02  0.7546771E-02  0.1415357E+00
         21   -1    0    0  503  501  0.00000000000E+00  0.00000000000E+00  0.29187182864E+02  0.29187182864E+02  0.00000000000E+00 0.  1.
         21   -1    0    0  504  502 -0.00000000000E+00 -0.00000000000E+00 -0.39080896888E+02  0.39080896888E+02  0.00000000000E+00 0.  1.
         21    1    1    2  503  502 -0.60580699086E+00  0.30487246433E+02  0.97277809249E+01  0.32007326019E+02  0.00000000000E+00 0.  1.
         21    1    1    2  504  501  0.60580699086E+00 -0.30487246433E+02 -0.19621494949E+02  0.36260753732E+02  0.00000000000E+00 0.  1.
</event>
<event>
 4    1  0.1589319E+006  0.2723933E+02  0.7546771E-02  0.1445219E+00
         21   -1    0    0  504  501  0.00000000000E+00  0.00000000000E+00  0.12049245907E+02  0.12049245907E+02  0.00000000000E+00 0.  1.
         21   -1    0    0  503  502 -0.00000000000E+00 -0.00000000000E+00 -0.21797702498E+03  0.21797702498E+03  0.00000000000E+00 0.  1.
         21    1    1    2  503  501  0.78868665312E+01 -0.26072560188E+02 -0.20038602662E+03  0.20222893147E+03  0.00000000000E+00 0.  1.
         21    1    1    2  504  502 -0.78868665312E+01  0.26072560188E+02 -0.55417524514E+01  0.27797339418E+02  0.00000000000E+00 0.  1.
</event>
<event>
 4    1  0.1589319E+006  0.2027351E+02  0.7546771E-02  0.1529895E+00
         21   -1    0    0  503  501  0.00000000000E+00  0.00000000000E+00  0.97561109233E+02  0.97561109233E+02  0.00000000000E+00 0. -1.
         21   -1    0    0  504  502 -0.00000000000E+00 -0.00000000000E+00 -0.16942401062E+02  0.16942401062E+02  0.00000000000E+00 0. -1.
         21    1    1    2  503  502 -0.11837798800E+02 -0.16458488404E+02 -0.93163858518E+01  0.22311664356E+02  0.00000000000E+00 0. -1.
         21    1    1    2  504  501  0.11837798800E+02  0.16458488404E+02  0.89935094023E+02  0.92191845940E+02  0.00000000000E+00 0. -1.
</event>
<event>
 4    1  0.1589319E+006  0.4528387E+02  0.7546771E-02  0.1320026E+00
         21   -1    0    0  504  501  0.00000000000E+00  0.00000000000E+00  0.11703926547E+03  0.11703926547E+03  0.00000000000E+00 0.  1.
         21   -1    0    0  503  502 -0.00000000000E+00 -0.00000000000E+00 -0.53751155328E+02  0.53751155328E+02  0.00000000000E+00 0.  1.
         21    1    1    2  503  501  0.91614865540E+01 -0.44347450734E+02 -0.38465226309E+02  0.59415510243E+02  0.00000000000E+00 0.  1.
         21    1    1    2  504  502 -0.91614865540E+01  0.44347450734E+02  0.10175333645E+03  0.11137491056E+03  0.00000000000E+00 0.  1.
</event>
<event>
 4    1  0.1589319E+006  0.2352931E+02  0.7546771E-02  0.1485956E+00
         21   -1    0    0  504  501  0.00000000000E+00  0.00000000000E+00  0.13321479569E+02  0.13321479569E+02  0.00000000000E+00 0. -1.
         21   -1    0    0  503  502 -0.00000000000E+00 -0.00000000000E+00 -0.71978486104E+03  0.71978486104E+03  0.00000000000E+00 0.  1.
         21    1    1    2  503  501  0.23406496165E+02  0.24009167997E+01 -0.70904547813E+03  0.70943577477E+03  0.00000000000E+00 0.  1.
         21    1    1    2  504  502 -0.23406496165E+02 -0.24009167997E+01  0.25820966558E+01  0.23670565844E+02  0.00000000000E+00 0. -1.
</event>
<event>
 4    1  0.1589319E+006  0.2598353E+02  0.7546771E-02  0.1458095E+00
         21   -1    0    0  504  501  0.00000000000E+00  0.00000000000E+00  0.22558454579E+01  0.22558454579E+01  0.00000000000E+00 0. -1.
         21   -1    0    0  503  502 -0.00000000000E+00 -0.00000000000E+00 -0.98664629865E+03  0.98664629865E+03  0.00000000000E+00 0. -1.
         21    1    1    2  503  501 -0.25565012929E+02 -0.46447690456E+01 -0.90489543396E+03  0.90526840780E+03  0.00000000000E+00 0. -1.
         21    1    1    2  504  502  0.25565012929E+02  0.46447690456E+01 -0.79495019237E+02  0.83633736309E+02  0.00000000000E+00 0. -1.
</event>
<event>
 4    1  0.1589319E+006  0.2011143E+02  0.7546771E-02  0.1532339E+00
         21   -1    0    0  504  501  0.00000000000E+00  0.00000000000E+00  0.17654054258E+02  0.17654054258E+02  0.00000000000E+00 0.  1.
         21   -1    0    0  503  502 -0.00000000000E+00 -0.00000000000E+00 -0.22988535992E+02  0.22988535992E+02  0.00000000000E+00 0.  1.
         21    1    1    2  503  501  0.14475809992E+02  0.13961400742E+02 -0.14860929862E+01  0.20166265346E+02  0.00000000000E+00 0.  1.
         21    1    1    2  504  502 -0.14475809992E+02 -0.13961400742E+02 -0.38483887472E+01  0.20476324904E+02  0.00000000000E+00 0.  1.
</event>
<event>
 4    1  0.1589319E+006  0.2082446E+02  0.7546771E-02  0.1521786E+00
         21   -1    0    0  503  501  0.00000000000E+00  0.00000000000E+00  0.53383925992E+02  0.53383925992E+02  0.00000000000E+00 0.  1.
         21   -1    0    0  504  502 -0.00000000000E+00 -0.00000000000E+00 -0.97863097836E+02  0.97863097836E+02  0.00000000000E+00 0.  1.
         21    1    1    2  503  502 -0.15593737018E+02 -0.13801941051E+02 -0.94656447417E+02  0.96920076602E+02  0.00000000000E+00 0.  1.
         21    1    1    2  504  501  0.15593737018E+02  0.13801941051E+02  0.50177275573E+02  0.54326947226E+02  0.00000000000E+00 0.  1.
</event>
<event>
 4    1  0.1589319E+006  0.2062389E+02  0.7546771E-02  0.1524703E+00
         21   -1    0    0  502  501  0.00000000000E+00  0.00000000000E+00  0.12392103416E+03  0.12392103416E+03  0.00000000000E+00 0. -1.
         21   -1    0    0  503  502 -0.00000000000E+00 -0.00000000000E+00 -0.38734438412E+01  0.38734438412E+01  0.00000000000E+00 0. -1.
         21    1    1    2  503  504  0.18700291583E+02 -0.86973438980E+01  0.38462157796E+02  0.43642665804E+02  0.00000000000E+00 0. -1.
         21    1    1    2  504  501 -0.18700291583E+02  0.86973438980E+01  0.81585432527E+02  0.84151812201E+02  0.00000000000E+00 0. -1.
</event>
<event>
 4    1  0.1589319E+006  0.2289184E+02  0.7546771E-02  0.1493861E+00
         21   -1    0    0  503  501  0.00000000000E+00  0.00000000000E+00  0.96411164650E+00  0.96411164650E+00  0.00000000000E+00 0. -1.
         21   -1    0    0  504  502 -0.00000000000E+00 -0.00000000000E+00 -0.69615615058E+03  0.69615615058E+03  0.00000000000E+00 0.  1.
         21    1    1    2  503  502 -0.21013397292E+02 -0.90814850129E+01 -0.18439599827E+03  0.18581151852E+03  0.00000000000E+00 0. -1.
         21    1    1    2  504  501  0.21013397292E+02  0.90814850129E+01 -0.51079604066E+03  0.51130874371E+03  0.00000000000E+00 0.  1.
</event>
<event>
 4    1  0.1589319E+006  0.3556772E+02  0.7546771E-02  0.1376615E+00
         21   -1    0    0  504  501  0.00000000000E+00  0.00000000000E+00  0.31634206180E+03  0.31634206180E+03  0.00000000000E+00 0. -1.
         21   -1    0    0  503  502 -0.00000000000E+00 -0.00000000000E+00 -0.10718618770E+02  0.10718618770E+02  0.00000000000E+00 0. -1.
         21    1    1    2  503  501 -0.29604312067E+01 -0.35444299800E+02  0.23332476349E+02  0.42537830150E+02  0.00000000000E+00 0. -1.
         21    1    1    2  504  502  0.29604312067E+01  0.35444299800E+02  0.28229096668E+03  0.28452285042E+03  0.00000000000E+00 0. -1.
</event>
<event>
 4    1  0.1589319E+006  0.2655996E+02  0.7546771E-02  0.1452079E+00
         21   -1    0    0  502  501  0.00000000000E+00  0.00000000000E+00  0.27502533922E+03  0.27502533922E+03  0.00000000000E+00 0. -1.
         21   -1    0    0  503  502 -0.00000000000E+00 -0.00000000000E+00 -0.48869378617E+01  0.48869378617E+01  0.00000000000E+00 0. -1.
         21    1    1    2  503  504 -0.26454688711E+02  0.23624517946E+01  0.38597119175E+02  0.46852634311E+02  0.00000000000E+00 0. -1.
         21    1    1    2  504  501  0.26454688711E+02 -0.23624517946E+01  0.23154128218E+03  0.23305964277E+03  0.00000000000E+00 0. -1.
</event>
<event>
 4    1  0.1589319E+006  0.2467351E+02  0.7546771E-02  0.1472489E+00
         21   -1    0    0  504  501  0.00000000000E+00  0.00000000000E+00  0.24955326845E+03  0.24955326845E+03  0.00000000000E+00 0. -1.
         21   -1    0    0  503  502 -0.00000000000E+00 -0.00000000000E+00 -0.35717903511E+01  0.35717903511E+01  0.00000000000E+00 0. -1.
         21    1    1    2  503  501  0.48952448680E+01  0.24183026569E+02  0.19425033838E+03  0.19581107261E+03  0.00000000000E+00 0. -1.
         21    1    1    2  504  502 -0.48952448680E+01 -0.24183026569E+02  0.51731139717E+02  0.57313986188E+02  0.00000000000E+00 0. -1.
</event>
<event>
 4    1  0.1589319E+006  0.2368615E+02  0.7546771E-02  0.1484057E+00
         21   -1    0    0  504  501  0.00000000000E+00  0.00000000000E+00  0.19276460829E+01  0.19276460829E+01  0.00000000000E+00 0. -1.
         21   -1    0    0  501  502 -0.00000000000E+00 -0.00000000000E+00 -0.46297495655E+03  0.46297495655E+03  0.00000000000E+00 0.  1.
         21    1    1    2  503  502  0.15601429557E+02 -0.17822158513E+02 -0.37217724268E+03  0.37293019978E+03  0.00000000000E+00 0.  1.
         21    1    1    2  504  503 -0.15601429557E+02  0.17822158513E+02 -0.88870067791E+02  0.91972402858E+02  0.00000000000E+00 0. -1.
</event>
<event>
 4    1  0.1589319E+006  0.2728654E+02  0.7546771E-02  0.1444751E+00
         21   -1    0    0  504  501  0.00000000000E+00  0.00000000000E+00  0.35292546833E+02  0.35292546833E+02  0.00000000000E+00 0.  1.
         21   -1    0    0  501  502 -0.00000000000E+00 -0.00000000000E+00 -0.55086818347E+02  0.55086818347E+02  0.00000000000E+00 0.  1.
         21    1    1    2  503  502 -0.90847787459E+01 -0.25729786420E+02 -0.45394163845E+02  0.52963999333E+02  0.00000000000E+00 0.  1.
         21    1    1    2  504  503  0.90847787459E+01  0.25729786420E+02  0.25599892332E+02  0.37415365848E+02  0.00000000000E+00 0.  1.
</event>
<event>
 4    1  0.1589319E+006  0.3149666E+02  0.7546771E-02  0.1407021E+00
         21   -1    0    0  502  501  0.00000000000E+00  0.00000000000E+00  0.64410782670E+02  0.64410782670E+02  0.00000000000E+00 0.  1.
         21   -1    0    0  503  502 -0.00000000000E+00 -0.00000000000E+00 -0.32125072796E+02  0.32125072796E+02  0.00000000000E+00 0.  1.
         21    1    1    2  503  504  0.29569039123E+02 -0.10849497890E+02 -0.18682672057E+02  0.36620785277E+02  0.00000000000E+00 0.  1.
         21    1    1    2  504  501 -0.29569039123E+02  0.10849497890E+02  0.50968381931E+02  0.59915070189E+02  0.00000000000E+00 0.  1.
</event>
<event>
 4    1  0.1589319E+006  0.2455850E+02  0.7546771E-02  0.1473803E+00
         21   -1    0    0  503  501  0.00000000000E+00  0.00000000000E+00  0.58603326758E+02  0.58603326758E+02  0.00000000000E+00 0. -1.
         21   -1    0    0  504  502 -0.00000000000E+00 -0.00000000000E+00 -0.17264352027E+04  0.17264352027E+04  0.00000000000E+00 0.  1.
         21    1    1    2  503  502 -0.10510815836E+02  0.22195555316E+02 -0.17237709991E+04  0.17239459323E+04  0.00000000000E+00 0.  1.
         21    1    1    2  504  501  0.10510815836E+02 -0.22195555316E+02  0.55939123203E+02  0.61092597179E+02  0.00000000000E+00 0. -1.
</event>
<event>
 4    1  0.1589319E+006  0.2454672E+02  0.7546771E-02  0.1473939E+00
         21   -1    0    0  502  501  0.00000000000E+00  0.00000000000E+00  0.18076675171E+02  0.18076675171E+02  0.00000000000E+00 0. -1.
         21   -1    0    0  504  502 -0.00000000000E+00 -0.00000000000E+00 -0.50424826175E+02  0.50424826175E+02  0.00000000000E+00 0. -1.
         21    1    1    2  503  501 -0.13367613364E+01  0.24510296849E+02  0.37669692445E+01  0.24834082222E+02  0.00000000000E+00 0. -1.
         21    1    1    2  504  503  0.13367613364E+01 -0.24510296849E+02 -0.36115120248E+02  0.43667419125E+02  0.00000000000E+00 0. -1.
</event>
<event>
 4    1  0.1589319E+006  0.2277312E+02  0.7546771E-02  0.1495367E+00
         21   -1    0    0  503  501  0.00000000000E+00  0.00000000000E+00  0.26296578965E+02  0.26296578965E+02  0.00000000000E+00 0.  1.
         21   -1    0    0  504  502 -0.00000000000E+00 -0.00000000000E+00 -0.29408879654E+02  0.29408879654E+02  0.00000000000E+00 0.  1.
         21    1    1    2  503  502  0.19019271831E+02 -0.12525271543E+02  0.14429326178E+02  0.26959610200E+02  0.00000000000E+00 0.  1.
         21    1    1    2  504  501 -0.19019271831E+02  0.12525271543E+02 -0.17541626867E+02  0.28745848419E+02  0.00000000000E+00 0.  1.
</event>
<event>
 4    1  0.1589319E+006  0.2459929E+02  0.7546771E-02  0.1473336E+00
         21   -1    0    0  503  501  0.00000000000E+00  0.00000000000E+00  0.98199871931E+01  0.98199871931E+01  0.00000000000E+00 0. -1.
         21   -1    0    0  501  502 -0.00000000000E+00 -0.00000000000E+00 -0.16053244854E+03  0.16053244854E+03  0.00000000000E+00 0. -1.
         21    1    1    2  503  504 -0.63800710978E+01  0.23757516558E+02 -0.84974351918E+01  0.26025589428E+02  0.00000000000E+00 0. -1.
         21    1    1    2  504  502  0.63800710978E+01 -0.23757516558E+02 -0.14221502615E+03  0.14432684630E+03  0.00000000000E+00 0. -1.
</event>
<event>
 4    1  0.1589319E+006  0.2167938E+02  0.7546771E-02  0.1509782E+00
         21   -1    0    0  503  501  0.00000000000E+00  0.00000000000E+00  0.32812162639E+01  0.32812162639E+01  0.00000000000E+00 0. -1.
         21   -1    0    0  501  502 -0.00000000000E+00 -0.00000000000E+00 -0.20356551253E+03  0.20356551253E+03  0.00000000000E+00 0. -1.
         21    1    1    2  503  504 -0.21074445255E+02  0.50855947020E+01 -0.43840184233E+02  0.48907640200E+02  0.00000000000E+00 0. -1.
         21    1    1    2  504  502  0.21074445255E+02 -0.50855947020E+01 -0.15644411203E+03  0.15793908859E+03  0.00000000000E+00 0. -1.
</event>
<event>
 4    1  0.1589319E+006  0.3104927E+02  0.7546771E-02  0.1410692E+00
         21   -1    0    0  503  501  0.00000000000E+00  0.00000000000E+00  0.39613909712E+03  0.39613909712E+03  0.00000000000E+00 0. -1.
         21   -1    0    0  504  502 -0.00000000000E+00 -0.00000000000E+00 -0.53761904466E+01  0.53761904466E+01  0.00000000000E+00 0.  1.
         21    1    1    2  503  502  0.20639359138E+02 -0.23196428207E+02  0.34390564466E+03  0.34530443069E+03  0.00000000000E+00 0. -1.
         21    1    1    2  504  501 -0.20639359138E+02  0.23196428207E+02  0.46857262020E+02  0.56210856881E+02  0.00000000000E+00 0.  1.
</event>
<event>
 4    1  0.1589319E+006  0.4766901E+02  0.7546771E-02  0.1308608E+00
         21   -1    0    0  504  501  0.00000000000E+00  0.00000000000E+00  0.49524338323E+01  0.49524338323E+01  0.00000000000E+00 0.  1.
         21   -1    0    0  503  502 -0.00000000000E+00 -0.00000000000E+00 -0.10083709675E+04  0.10083709675E+04  0.00000000000E+00 0.  1.
         21    1    1    2  503  501 -0.46777778387E+02 -0.91746577710E+01 -0.87573990184E+03  0.87703632227E+03  0.00000000000E+00 0.  1.
         21    1    1    2  504  502  0.46777778387E+02  0.91746577710E+01 -0.12767863186E+03  0.13628707910E+03  0.00000000000E+00 0.  1.
</event>
<event>
 4    1  0.1589319E+006  0.3074550E+02  0.7546771E-02  0.1413227E+00
         21   -1    0    0  503  501  0.00000000000E+00  0.00000000000E+00  0.13047536442E+03  0.13047536442E+03  0.00000000000E+00 0.  1.
         21   -1    0    0  501  502 -0.00000000000E+00 -0.00000000000E+00 -0.15736780943E+02  0.15736780943E+02  0.00000000000E+00 0. -1.
         21    1    1    2  503  504  0.26334637512E+02 -0.15867338242E+02  0.11107204517E+03  0.11524879511E+03  0.00000000000E+00 0.  1.
         21    1    1    2  504  502 -0.26334637512E+02  0.15867338242E+02  0.36665383064E+01  0.30963350254E+02  0.00000000000E+00 0. -1.
</event>
<event>
 4    1  0.1589319E+006  0.2194184E+02  0.7546771E-02  0.1506231E+00
         21   -1    0    0  502  501  0.00000000000E+00  0.00000000000E+00  0.15719618985E+03  0.15719618985E+03  0.00000000000E+00 0.  1.
         21   -1    0    0  503  502 -0.00000000000E+00 -0.00000000000E+00 -0.34743197781E+01  0.34743197781E+01  0.00000000000E+00 0.  1.
         21    1    1    2  503  504  0.11004217130E+02  0.18982925463E+02  0.49209279828E+02  0.53879471739E+02  0.00000000000E+00 0.  1.
         21    1    1    2  504  501 -0.11004217130E+02 -0.18982925463E+02  0.10451259025E+03  0.10679103789E+03  0.00000000000E+00 0.  1.
</event>
<event>
 4    1  0.1589319E+006  0.2334116E+02  0.7546771E-02  0.1488258E+00
         21   -1    0    0  504  501  0.00000000000E+00  0.00000000000E+00  0.13923095660E+03  0.13923095660E+03  0.00000000000E+00 0. -1.
         21   -1    0    0  503  502 -0.00000000000E+00 -0.00000000000E+00 -0.65516064946E+01  0.65516064946E+01  0.00000000000E+00 0.  1.
         21    1    1    2  503  501 -0.22884276256E+02 -0.45956058984E+01  0.20081381086E+02  0.30790770689E+02  0.00000000000E+00 0.  1.
         21    1    1    2  504  502  0.22884276256E+02  0.45956058984E+01  0.11259796902E+03  0.11499179241E+03  0.00000000000E+00 0. -1.
</event>
<event>
 4    1  0.1589319E+006  0.2226282E+02  0.7546771E-02  0.1501968E+00
         21   -1    0    0  503  501  0.00000000000E+00  0.00000000000E+00  0.36933764202E+00  0.36933764202E+00  0.00000000000E+00 0. -1.
         21   -1    0    0  501  502 -0.00000000000E+00 -0.00000000000E+00 -0.14085749249E+04  0.14085749249E+04  0.00000000000E+00 0. -1.
         21    1    1    2  503  504  0.16992322901E+02 -0.14383820580E+02 -0.55089312377E+03  0.55134278552E+03  0.00000000000E+00 0. -1.
         21    1    1    2  504  502 -0.16992322901E+02  0.14383820580E+02 -0.85731246346E+03  0.85760147699E+03  0.00000000000E+00 0. -1.
</event>
<event>
 4    1  0.1589319E+006  0.2294590E+02  0.7546771E-02  0.1493179E+00
         21   -1    0    0  504  501  0.00000000000E+00  0.00000000000E+00  0.20710645356E+03  0.20710645356E+03  0.00000000000E+00 0. -1.
         21   -1    0    0  503  502 -0.00000000000E+00 -0.00000000000E+00 -0.11169993594E+02  0.11169993594E+02  0.00000000000E+00 0.  1.
         21    1    1    2  503  501  0.22003780186E+02  0.65075232425E+01  0.20504102432E+01  0.23037325873E+02  0.00000000000E+00 0.  1.
         21    1    1    2  504  502 -0.22003780186E+02 -0.65075232425E+01  0.19388604973E+03  0.19523912128E+03  0.00000000000E+00 0. -1.
</event>
<event>
 4    1  0.1589319E+006  0.3809236E+02  0.7546771E-02  0.1360042E+00
         21   -1    0    0  504  501  0.00000000000E+00  0.00000000000E+00  0.27081290824E+03  0.27081290824E+03  0.00000000000E+00 0.  1.
         21   -1    0    0  503  502 -0.00000000000E+00 -0.00000000000E+00 -0.58193464875E+01  0.58193464875E+01  0.00000000000E+00 0.  1.
         21    1    1    2  503  501  0.35730627141E+02 -0.13204159544E+02  0.17143969927E+03  0.17562060822E+03  0.00000000000E+00 0.  1.
         21    1    1    2  504  502 -0.35730627141E+02  0.13204159544E+02  0.93553862483E+02  0.10101164651E+03  0.00000000000E+00 0.  1.
</event>
<event>
 4    1  0.1589319E+006  0.2297607E+02  0.7546771E-02  0.1492799E+00
         21   -1    0    0  502  501  0.00000000000E+00  0.00000000000E+00  0.98036928043E+02  0.98036928043E+02  0.00000000000E+00 0.  1.
         21   -1    0    0  504  502 -0.00000000000E+00 -0.00000000000E+00 -0.15955751790E+03  0.15955751790E+03  0.00000000000E+00 0. -1.
         21    1    1    2  503  501 -0.22961663699E+02  0.81338758442E+00  0.95844969979E+02  0.98560427502E+02  0.00000000000E+00 0.  1.
         21    1    1    2  504  503  0.22961663699E+02 -0.81338758442E+00 -0.15736555984E+03  0.15903401844E+03  0.00000000000E+00 0. -1.
</event>
<event>
 4    1  0.1589319E+006  0.5000246E+02  0.7546771E-02  0.1298162E+00
         21   -1    0    0  504  501  0.00000000000E+00  0.00000000000E+00  0.62997769340E+03  0.62997769340E+03  0.00000000000E+00 0.  1.
         21   -1    0    0  503  502 -0.00000000000E+00 -0.00000000000E+00 -0.23967241469E+03  0.23967241469E+03  0.00000000000E+00 0.  1.
         21    1    1    2  503  501  0.35968149392E+02  0.34735252989E+02 -0.23605720770E+03  0.24129494582E+03  0.00000000000E+00 0.  1.
         21    1    1    2  504  502 -0.35968149392E+02 -0.34735252989E+02  0.62636248641E+03  0.62835516227E+03  0.00000000000E+00 0.  1.
</event>
<event>
 4    1  0.1589319E+006  0.2146592E+02  0.7546771E-02  0.1512716E+00
         21   -1    0    0  503  501  0.00000000000E+00  0.00000000000E+00  0.60180698325E+02  0.60180698325E+02  0.00000000000E+00 0. -1.
         21   -1    0    0  501  502 -0.00000000000E+00 -0.00000000000E+00 -0.13329648552E+03  0.13329648552E+03  0.00000000000E+00 0. -1.
         21    1    1    2  503  504  0.16812553049E+02  0.13346297301E+02  0.57361224153E+02  0.61246188682E+02  0.00000000000E+00 0. -1.
         21    1    1    2  504  502 -0.16812553049E+02 -0.13346297301E+02 -0.13047701135E+03  0.13223099516E+03  0.00000000000E+00 0. -1.
</event>
<event>
 4    1  0.1589319E+006  0.4524947E+02  0.7546771E-02  0.1320197E+00
         21   -1    0    0  504  501  0.00000000000E+00  0.00000000000E+00  0.20369032412E+03  0.20369032412E+03  0.00000000000E+00 0.  1.
         21   -1    0    0  503  502 -0.00000000000E+00 -0.00000000000E+00 -0.10352868230E+02  0.10352868230E+02  0.00000000000E+00 0.  1.
         21    1    1    2  503  501 -0.13497949603E+02  0.43189345337E+02  0.11491027697E+03  0.12349852610E+03  0.00000000000E+00 0.  1.
         21    1    1    2  504  502  0.13497949603E+02 -0.43189345337E+02  0.78427178920E+02  0.90544666256E+02  0.00000000000E+00 0.  1.
</event>
<event>
 4    1  0.1589319E+006  0.2131523E+02  0.7546771E-02  0.1514812E+00
         21   -1    0    0  503  501  0.00000000000E+00  0.00000000000E+00  0.40882345321E+02  0.40882345321E+02  0.00000000000E+00 0.  1.
         21   -1    0    0  501  502 -0.00000000000E+00 -0.00000000000E+00 -0.29360478457E+02  0.29360478457E+02  0.00000000000E+00 0. -1.
         21    1    1    2  503  504  0.16889320801E+02 -0.13003451395E+02  0.33448700381E+02  0.39663011264E+02  0.00000000000E+00 0.  1.
         21    1    1    2  504  502 -0.16889320801E+02  0.13003451395E+02 -0.21926833517E+02  0.30579812514E+02  0.00000000000E+00 0. -1.
</event>
<event>
 4    1  0.1589319E+006  0.2351859E+02  0.7546771E-02  0.1486087E+00
         21   -1    0    0  503  501  0.00000000000E+00  0.00000000000E+00  0.24573958222E+03  0.24573958222E+03  0.00000000000E+00 0.  1.
         21   -1    0    0  504  502 -0.00000000000E+00 -0.00000000000E+00 -0.30056727136E+01  0.30056727136E+01  0.00000000000E+00 0.  1.
         21    1    1    2  503  502 -0.23504446914E+02 -0.81545755179E+00  0.59040100555E+02  0.63552006021E+02  0.00000000000E+00 0.  1.
         21    1    1    2  504  501  0.23504446914E+02  0.81545755179E+00  0.18369380896E+03  0.18519324892E+03  0.00000000000E+00 0.  1.
</event>
<event>
 4    1  0.1589319E+006  0.2435804E+02  0.7546771E-02  0.1476115E+00
         21   -1    0    0  503  501  0.00000000000E+00  0.00000000000E+00  0.96597595035E+02  0.96597595035E+02  0.00000000000E+00 0.  1.
         21   -1    0    0  501  502 -0.00000000000E+00 -0.00000000000E+00 -0.38358623559E+02  0.38358623559E+02  0.00000000000E+00 0. -1.
         21    1    1    2  503  504 -0.24301386660E+02  0.16603005133E+01  0.90959645435E+02  0.94164595731E+02  0.00000000000E+00 0.  1.
         21    1    1    2  504  502  0.24301386660E+02 -0.16603005133E+01 -0.32720673959E+02  0.40791622863E+02  0.00000000000E+00 0. -1.
</event>
<event>
 4    1  0.1589319E+006  0.3486269E+02  0.7546771E-02  0.1381531E+00
         21   -1    0    0  504  501  0.00000000000E+00  0.00000000000E+00  0.45964944908E+02  0.45964944908E+02  0.00000000000E+00 0. -1.
         21   -1    0    0  501  502 -0.00000000000E+00 -0.00000000000E+00 -0.10911205435E+03  0.10911205435E+03  0.00000000000E+00 0.  1.
         21    1    1    2  503  502 -0.22608478808E+02 -0.26537968666E+02 -0.99065978203E+02  0.10502130799E+03  0.00000000000E+00 0.  1.
         21    1    1    2  504  503  0.22608478808E+02  0.26537968666E+02  0.35918868762E+02  0.50055691266E+02  0.00000000000E+00 0. -1.
</event>
<event>
 4    1  0.1589319E+006  0.2866437E+02  0.7546771E-02  0.1431569E+00
         21   -1    0    0  504  501  0.00000000000E+00  0.00000000000E+00  0.58924171147E+03  0.58924171147E+03  0.00000000000E+00 0. -1.
         21   -1    0    0  503  502 -0.00000000000E+00 -0.00000000000E+00 -0.18427597968E+02  0.18427597968E+02  0.00000000000E+00 0.  1.
         21    1    1    2  503  501  0.15940693946E+02 -0.23823102710E+02 -0.67059410306E+01  0.29438335403E+02  0.00000000000E+00 0.  1.
         21    1    1    2  504  502 -0.15940693946E+02  0.23823102710E+02  0.57752005453E+03  0.57823097403E+03  0.00000000000E+00 0. -1.
</event>
<event>
 4    1  0.1589319E+006  0.4335757E+02  0.7546771E-02  0.1329859E+00
         21   -1    0    0  502  501  0.00000000000E+00  0.00000000000E+00  0.17921590231E+03  0.17921590231E+03  0.00000000000E+00 0.  1.
         21   -1    0    0  503  502 -0.00000000000E+00 -0.00000000000E+00 -0.41074283143E+02  0.41074283143E+02  0.00000000000E+00 0.  1.
         21    1    1    2  503  504 -0.16886006171E+02  0.39934211513E+02 -0.25975033406E+02  0.50542861158E+02  0.00000000000E+00 0.  1.
         21    1    1    2  504  501  0.16886006171E+02 -0.39934211513E+02  0.16411665257E+03  0.16974732430E+03  0.00000000000E+00 0.  1.
</event>
<event>
 4    1  0.1589319E+006  0.2121190E+02  0.7546771E-02  0.1516261E+00
         21   -1    0    0  503  501  0.00000000000E+00  0.00000000000E+00  0.35928357866E+01  0.35928357866E+01  0.00000000000E+00 0.  1.
         21   -1    0    0  501  502 -0.00000000000E+00 -0.00000000000E+00 -0.12327004976E+04  0.12327004976E+04  0.00000000000E+00 0.  1.
         21    1    1    2  503  504  0.19016011115E+02  0.93987201948E+01 -0.28647654686E+02  0.35645935799E+02  0.00000000000E+00 0.  1.
         21    1    1    2  504  502 -0.19016011115E+02 -0.93987201948E+01 -0.12004600072E+04  0.12006473976E+04  0.00000000000E+00 0.  1.
</event>
<event>
 4    1  0.1589319E+006  0.2072764E+02  0.7546771E-02  0.1523189E+00
         21   -1    0    0  503  501  0.00000000000E+00  0.00000000000E+00  0.32928055395E+01  0.32928055395E+01  0.00000000000E+00 0. -1.
         21   -1    0    0  504  502 -0.00000000000E+00 -0.00000000000E+00 -0.13312985533E+03  0.13312985533E+03  0.00000000000E+00 0. -1.
         21    1    1    2  503  502  0.82723576138E+01 -0.19005340645E+02 -0.55289365583E+02  0.59047005174E+02  0.00000000000E+00 0. -1.
         21    1    1    2  504  501 -0.82723576138E+01  0.19005340645E+02 -0.74547684211E+02  0.77375655698E+02  0.00000000000E+00 0. -1.
</event>
<event>
 4    1  0.1589319E+006  0.2586245E+02  0.7546771E-02  0.1459382E+00
         21   -1    0    0  504  501  0.00000000000E+00  0.00000000000E+00  0.77894585441E+02  0.77894585441E+02  0.00000000000E+00 0.  1.
         21   -1    0    0  503  502 -0.00000000000E+00 -0.00000000000E+00 -0.17578537836E+02  0.17578537836E+02  0.00000000000E+00 0.  1.
         21    1    1    2  503  501  0.15147520306E+02  0.20962321375E+02 -0.39833701643E+01  0.26167413451E+02  0.00000000000E+00 0.  1.
         21    1    1    2  504  502 -0.15147520306E+02 -0.20962321375E+02  0.64299417769E+02  0.69305709825E+02  0.00000000000E+00 0.  1.
</event>
<event>
 4    1  0.1589319E+006  0.2257172E+02  0.7546771E-02  0.1497947E+00
         21   -1    0    0  502  501  0.00000000000E+00  0.00000000000E+00  0.38861334405E+03  0.38861334405E+03  0.00000000000E+00 0. -1.
         21   -1    0    0  504  502 -0.00000000000E+00 -0.00000000000E+00 -0.67516376994E+01  0.67516376994E+01  0.00000000000E+00 0. -1.
         21    1    1    2  503  501 -0.22037745290E+02 -0.48805928611E+01  0.36838554416E+03  0.36907640340E+03  0.00000000000E+00 0. -1.
         21    1    1    2  504  503  0.22037745290E+02  0.48805928611E+01  0.13476162196E+02  0.26288578350E+02  0.00000000000E+00 0. -1.
</event>
<event>
 4    1  0.1589319E+006  0.2814242E+02  0.7546771E-02  0.1436458E+00
         21   -1    0    0  503  501  0.00000000000E+00  0.00000000000E+00  0.21153010334E+03  0.21153010334E+03  0.00000000000E+00 0. -1.
         21   -1    0    0  504  502 -0.00000000000E+00 -0.00000000000E+00 -0.48164288672E+02  0.48164288672E+02  0.00000000000E+00 0.  1.
         21    1    1    2  503  502 -0.26075817359E+02  0.10585250301E+02  0.20638107246E+03  0.20829100519E+03  0.00000000000E+00 0. -1.
         21    1    1    2  504  501  0.26075817359E+02 -0.10585250301E+02 -0.43015257785E+02  0.51403386826E+02  0.00000000000E+00 0.  1.
</event>
<event>
 4    1  0.1589319E+006  0.2041784E+02  0.7546771E-02  0.1527741E+00
         21   -1    0    0  504  501  0.00000000000E+00  0.00000000000E+00  0.18689804335E+01  0.18689804335E+01  0.00000000000E+00 0. -1.
         21   -1    0    0  503  502 -0.00000000000E+00 -0.00000000000E+00 -0.29061634417E+03  0.29061634417E+03  0.00000000000E+00 0. -1.
         21    1    1    2  503  501  0.60207784582E+01 -0.19509956628E+02 -0.73862421422E+02  0.76632535383E+02  0.00000000000E+00 0. -1.
         21    1    1    2  504  502 -0.60207784582E+01  0.19509956628E+02 -0.21488494231E+03  0.21585278922E+03  0.00000000000E+00 0. -1.
</event>
<event>
 4    1  0.1589319E+006  0.3156095E+02  0.7546771E-02  0.1406500E+00
         21   -1    0    0  503  501  0.00000000000E+00  0.00000000000E+00  0.35966619234E+01  0.35966619234E+01  0.00000000000E+00 0.  1.
         21   -1    0    0  504  502 -0.00000000000E+00 -0.00000000000E+00 -0.29408276627E+03  0.29408276627E+03  0.00000000000E+00 0.  1.
         21    1    1    2  503  502 -0.10485008797E+02  0.29768406961E+02 -0.10931736912E+03  0.11378216317E+03  0.00000000000E+00 0.  1.
         21    1    1    2  504  501  0.10485008797E+02 -0.29768406961E+02 -0.18116873522E+03  0.18389726502E+03  0.00000000000E+00 0.  1.
</event>
<event>
 4    1  0.1589319E+006  0.2136457E+02  0.7546771E-02  0.1514123E+00
         21   -1    0    0  503  501  0.00000000000E+00  0.00000000000E+00  0.62670744340E+02  0.62670744340E+02  0.00000000000E+00 0.  1.
         21   -1    0    0  504  502 -0.00000000000E+00 -0.00000000000E+00 -0.22562792349E+02  0.22562792349E+02  0.00000000000E+00 0.  1.
         21    1    1    2  503  502  0.10183134144E+02  0.18781599013E+02  0.55124295381E+02  0.59119646682E+02  0.00000000000E+00 0.  1.
         21    1    1    2  504  501 -0.10183134144E+02 -0.18781599013E+02 -0.15016343390E+02  0.26113890007E+02  0.00000000000E+00 0.  1.
</event>
<event>
 4    1  0.1589319E+006  0.2697079E+02  0.7546771E-02  0.1447902E+00
         21   -1    0    0  503  501  0.00000000000E+00  0.00000000000E+00  0.22331202365E+01  0.22331202365E+01  0.00000000000E+00 0. -1.
         21   -1    0    0  504  502 -0.00000000000E+00 -0.00000000000E+00 -0.35762823428E+03  0.35762823428E+03  0.00000000000E+00 0.  1.
         21    1    1    2  503  502 -0.15699284877E+02 -0.21930707004E+02 -0.23142344506E+03  0.23298977312E+03  0.00000000000E+00 0.  1.
         21    1    1    2  504  501  0.15699284877E+02  0.21930707004E+02 -0.12397166899E+03  0.12687158140E+03  0.00000000000E+00 0. -1.
</event>
<event>
 4    1  0.1589319E+006  0.2359153E+02  0.7546771E-02  0.1485201E+00
         21   -1    0    0  504  501  0.00000000000E+00  0.00000000000E+00  0.63031513942E+02  0.63031513942E+02  0.00000000000E+00 0. -1.
         21   -1    0    0  503  502 -0.00000000000E+00 -0.00000000000E+00 -0.15987062326E+02  0.15987062326E+02  0.00000000000E+00 0. -1.
         21    1    1    2  503  501  0.21352548178E+02 -0.10031402752E+02 -0.29131859488E+01  0.23770717433E+02  0.00000000000E+00 0. -1.
         21    1    1    2  504  502 -0.21352548178E+02  0.10031402752E+02  0.49957637565E+02  0.55247858836E+02  0.00000000000E+00 0. -1.
</event>
<event>
 4    1  0.1589319E+006  0.2498751E+02  0.7546771E-02  0.1468943E+00
         21   -1    0    0  504  501  0.00000000000E+00  0.00000000000E+00  0.11828755705E+03  0.11828755705E+03  0.00000000000E+00 0.  1.
         21   -1    0    0  503  502 -0.00000000000E+00 -0.00000000000E+00 -0.58831256353E+01  0.58831256353E+01  0.00000000000E+00 0.  1.
         21    1    1    2  503  501 -0.21347699477E+02  0.12986593598E+02  0.76106355847E+02  0.80103391230E+02  0.00000000000E+00 0.  1.
         21    1    1    2  504  502  0.21347699477E+02 -0.12986593598E+02  0.36298075563E+02  0.44067291451E+02  0.00000000000E+00 0.  1.
</event>
<event>
 4    1  0.1589319E+006  0.4307542E+02  0.7546771E-02  0.1331349E+00
         21   -1    0    0  503  501  0.00000000000E+00  0.00000000000E+00  0.37001866481E+02  0.37001866481E+02  0.00000000000E+00 0. -1.
         21   -1    0    0  504  502 -0.00000000000E+00 -0.00000000000E+00 -0.51802580003E+02  0.51802580003E+02  0.00000000000E+00 0. -1.
         21    1    1    2  503  502 -0.26309385415E+02 -0.34107299653E+02 -0.15340881566E+02  0.45725641579E+02  0.00000000000E+00 0. -1.
         21    1    1    2  504  501  0.26309385415E+02  0.34107299653E+02  0.54016804363E+00  0.43078804905E+02  0.00000000000E+00 0. -1.
</event>
<event>
 4    1  0.1589319E+006  0.2633136E+02  0.7546771E-02  0.1454443E+00
         21   -1    0    0  503  501  0.00000000000E+00  0.00000000000E+00  0.12833802563E+03  0.12833802563E+03  0.00000000000E+00 0.  1.
         21   -1    0    0  501  502 -0.00000000000E+00 -0.00000000000E+00 -0.34972046188E+02  0.34972046188E+02  0.00000000000E+00 0. -1.
         21    1    1    2  503  504 -0.20681437301E+02 -0.16297813604E+02  0.12176659242E+03  0.12458107242E+03  0.00000000000E+00 0.  1.
         21    1    1    2  504  502  0.20681437301E+02  0.16297813604E+02 -0.28400612973E+02  0.38728999398E+02  0.00000000000E+00 0. -1.
</event>
<event>
 4    1  0.1589319E+006  0.2309483E+02  0.7546771E-02  0.1491311E+00
         21   -1    0    0  504  501  0.00000000000E+00  0.00000000000E+00  0.36283715014E+03  0.36283715014E+03  0.00000000000E+00 0. -1.
         21   -1    0    0  503  502 -0.00000000000E+00 -0.00000000000E+00 -0.12776373768E+02  0.12776373768E+02  0.00000000000E+00 0. -1.
         21    1    1    2  503  501 -0.12750244237E+02 -0.19256236878E+02 -0.16421501496E+01  0.23153143283E+02  0.00000000000E+00 0. -1.
         21    1    1    2  504  502  0.12750244237E+02  0.19256236878E+02  0.35170292652E+03  0.35246038062E+03  0.00000000000E+00 0. -1.
</event>
<event>
 4    1  0.1589319E+006  0.2005801E+02  0.7546771E-02  0.1533151E+00
         21   -1    0    0  504  501  0.00000000000E+00  0.00000000000E+00  0.29765667956E+03  0.29765667956E+03  0.00000000000E+00 0.  1.
         21   -1    0    0  503  502 -0.00000000000E+00 -0.00000000000E+00 -0.40406239170E+01  0.40406239170E+01  0.00000000000E+00 0.  1.
         21    1    1    2  503  501 -0.16261107902E+02 -0.11743090359E+02  0.26986651080E+03  0.27061089678E+03  0.00000000000E+00 0.  1.
         21    1    1    2  504  502  0.16261107902E+02  0.11743090359E+02  0.23749544837E+02  0.31086406697E+02  0.00000000000E+00 0.  1.
</event>
<event>
 4    1  0.1589319E+006  0.2262043E+02  0.7546771E-02  0.1497320E+00
         21   -1    0    0  502  501  0.00000000000E+00  0.00000000000E+00  0.45451879002E+02  0.45451879002E+02  0.00000000000E+00 0. -1.
         21   -1    0    0  504  502 -0.00000000000E+00 -0.00000000000E+00 -0.65979562677E+02  0.65979562677E+02  0.00000000000E+00 0. -1.
         21    1    1    2  503  501  0.22553459938E+02 -0.17393651446E+01  0.40476506538E+02  0.46368432450E+02  0.00000000000E+00 0. -1.
         21    1    1    2  504  503 -0.22553459938E+02  0.17393651446E+01 -0.61004190214E+02  0.65063009229E+02  0.00000000000E+00 0. -1.
</event>
<event>
 4    1  0.1589319E+006  0.2933347E+02  0.7546771E-02  0.1425478E+00
         21   -1    0    0  504  501  0.00000000000E+00  0.00000000000E+00  0.39279269940E+02  0.39279269940E+02  0.00000000000E+00 0. -1.
         21   -1    0    0  503  502 -0.00000000000E+00 -0.00000000000E+00 -0.10418932979E+04  0.10418932979E+04  0.00000000000E+00 0.  1.
         21    1    1    2  503  501  0.80964772881E+01  0.28193958427E+02 -0.10361801412E+04  0.10365952620E+04  0.00000000000E+00 0.  1.
         21    1    1    2  504  502 -0.80964772881E+01 -0.28193958427E+02  0.33566113237E+02  0.44577305819E+02  0.00000000000E+00 0. -1.
</event>
<event>
 4    1  0.1589319E+006  0.2273182E+02  0.7546771E-02  0.1495893E+00
         21   -1    0    0  502  501  0.00000000000E+00  0.00000000000E+00  0.98987832123E+02  0.98987832123E+02  0.00000000000E+00 0. -1.
         21   -1    0    0  503  502 -0.00000000000E+00 -0.00000000000E+00 -0.14838010604E+04  0.14838010604E+04  0.00000000000E+00 0.  1.
         21    1    1    2  503  504 -0.17620197635E+02 -0.14361908626E+02 -0.14824077222E+04  0.14825820013E+04  0.00000000000E+00 0.  1.
         21    1    1    2  504  501  0.17620197635E+02  0.14361908626E+02  0.97594493967E+02  0.10020689116E+03  0.00000000000E+00 0. -1.
</event>
<event>
 4    1  0.1589319E+006  0.2541705E+02  0.7546771E-02  0.1464191E+00
         21   -1    0    0  502  501  0.00000000000E+00  0.00000000000E+00  0.42568450290E+02  0.42568450290E+02  0.00000000000E+00 0.  1.
         21   -1    0    0  503  502 -0.00000000000E+00 -0.00000000000E+00 -0.36392505223E+02  0.36392505223E+02  0.00000000000E+00 0. -1.
         21    1    1    2  503  504  0.22502361728E+02 -0.11818221221E+02 -0.27056761994E+02  0.37122702027E+02  0.00000000000E+00 0. -1.
         21    1    1    2  504  501 -0.22502361728E+02  0.11818221221E+02  0.33232707061E+02  0.41838253487E+02  0.00000000000E+00 0.  1.
</event>
<event>
 4    1  0.1589319E+006  0.2121923E+02  0.7546771E-02  0.1516158E+00
         21   -1    0    0  504  501  0.00000000000E+00  0.00000000000E+00  0.46297253625E+00  0.46297253625E+00  0.00000000000E+00 0.  1.
         21   -1    0    0  503  502 -0.00000000000E+00 -0.00000000000E+00 -0.97452827100E+03  0.97452827100E+03  0.00000000000E+00 0.  1.
         21    1    1    2  503  501 -0.14153381261E+02 -0.15809406388E+02 -0.50909749559E+03  0.50953951324E+03  0.00000000000E+00 0.  1.
         21    1    1    2  504  502  0.14153381261E+02  0.15809406388E+02 -0.46496780287E+03  0.46545173030E+03  0.00000000000E+00 0.  1.
</event>
<event>
 4    1  0.1589319E+006  0.3544727E+02  0.7546771E-02  0.1377446E+00
         21   -1    0    0  503  501  0.00000000000E+00  0.00000000000E+00  0.26588966484E+02  0.26588966484E+02  0.00000000000E+00 0. -1.
         21   -1    0    0  504  502 -0.00000000000E+00 -0.00000000000E+00 -0.49995518538E+03  0.49995518538E+03  0.00000000000E+00 0. -1.
         21    1    1    2  503  502 -0.32979435066E+02  0.12994828763E+02 -0.48720388403E+03  0.48849169217E+03  0.00000000000E+00 0. -1.
         21    1    1    2  504  501  0.32979435066E+02 -0.12994828763E+02  0.13837665134E+02  0.38052459687E+02  0.00000000000E+00 0. -1.
</event>
<event>
 4    1  0.1589319E+006  0.2735860E+02  0.7546771E-02  0.1444039E+00
         21   -1    0    0  504  501  0.00000000000E+00  0.00000000000E+00  0.17135122923E+01  0.17135122923E+01  0.00000000000E+00 0.  1.
         21   -1    0    0  501  502 -0.00000000000E+00 -0.00000000000E+00 -0.59408931704E+03  0.59408931704E+03  0.00000000000E+00 0.  1.
         21    1    1    2  503  502  0.27213757317E+02  0.28114366574E+01 -0.44946301952E+03  0.45029490190E+03  0.00000000000E+00 0.  1.
         21    1    1    2  504  503 -0.27213757317E+02 -0.28114366574E+01 -0.14291278523E+03  0.14550792743E+03  0.00000000000E+00 0.  1.
</event>
<event>
 4    1  0.1589319E+006  0.2413957E+02  0.7546771E-02  0.1478664E+00
         21   -1    0    0  503  501  0.00000000000E+00  0.00000000000E+00  0.71734352949E+02  0.71734352949E+02  0.00000000000E+00 0. -1.
         21   -1    0    0  504  502 -0.00000000000E+00 -0.00000000000E+00 -0.15930512957E+02  0.15930512957E+02  0.00000000000E+00 0.  1.
         21    1    1    2  503  502  0.17921982821E+02 -0.16171619184E+02 -0.27832880490E+01  0.24299494390E+02  0.00000000000E+00 0.  1.
         21    1    1    2  504  501 -0.17921982821E+02  0.16171619184E+02  0.58587128040E+02  0.63365371515E+02  0.00000000000E+00 0. -1.
</event>
<event>
 4    1  0.1589319E+006  0.3920722E+02  0.7546771E-02  0.1353195E+00
         21   -1    0    0  503  501  0.00000000000E+00  0.00000000000E+00  0.14354667576E+03  0.14354667576E+03  0.00000000000E+00 0. -1.
         21   -1    0    0  504  502 -0.00000000000E+00 -0.00000000000E+00 -0.17863852806E+02  0.17863852806E+02  0.00000000000E+00 0. -1.
         21    1    1    2  503  502 -0.39124975553E+02 -0.25382612289E+01  0.11764806531E+02  0.40934302911E+02  0.00000000000E+00 0. -1.
         21    1    1    2  504  501  0.39124975553E+02  0.25382612289E+01  0.11391801642E+03  0.12047622565E+03  0.00000000000E+00 0. -1.
</event>
<event>
 4    1  0.1589319E+006  0.3790007E+02  0.7546771E-02  0.1361251E+00
         21   -1    0    0  504  501  0.00000000000E+00  0.00000000000E+00  0.13137328302E+03  0.13137328302E+03  0.00000000000E+00 0.  1.
         21   -1    0    0  503  502 -0.00000000000E+00 -0.00000000000E+00 -0.13868944691E+02  0.13868944691E+02  0.00000000000E+00 0. -1.
         21    1    1    2  503  501  0.36092450363E+02  0.11565043514E+02  0.25344007795E+02  0.45593134745E+02  0.00000000000E+00 0. -1.
         21    1    1    2  504  502 -0.36092450363E+02 -0.11565043514E+02  0.92160330531E+02  0.99649092963E+02  0.00000000000E+00 0.  1.
</event>
<event>
 4    1  0.1589319E+006  0.2088532E+02  0.7546771E-02  0.1520908E+00
         21   -1    0    0  502  501  0.00000000000E+00  0.00000000000E+00  0.29285664389E+03  0.29285664389E+03  0.00000000000E+00 0. -1.
         21   -1    0    0  504  502 -0.00000000000E+00 -0.00000000000E+00 -0.71198247647E+01  0.71198247647E+01  0.00000000000E+00 0. -1.
         21    1    1    2  503  501 -0.20543828817E+02 -0.37613532190E+01  0.27624850187E+03  0.27703687745E+03  0.00000000000E+00 0. -1.
         21    1    1    2  504  503  0.20543828817E+02  0.37613532190E+01  0.94883172579E+01  0.22939591210E+02  0.00000000000E+00 0. -1.
</event>
<event>
 4    1  0.1589319E+006  0.2054080E+02  0.7546771E-02  0.1525923E+00
         21   -1    0    0  504  501  0.00000000000E+00  0.00000000000E+00  0.64165731197E+03  0.64165731197E+03  0.00000000000E+00 0.  1.
         21   -1    0    0  503  502 -0.00000000000E+00 -0.00000000000E+00 -0.63358814159E+02  0.63358814159E+02  0.00000000000E+00 0. -1.
         21    1    1    2  503  501 -0.10135064905E+02 -0.17866301288E+02  0.63982333201E+03  0.64015296644E+03  0.00000000000E+00 0.  1.
         21    1    1    2  504  502  0.10135064905E+02  0.17866301288E+02 -0.61524834195E+02  0.64863159690E+02  0.00000000000E+00 0. -1.
</event>
<event>
 4    1  0.1589319E+006  0.2759155E+02  0.7546771E-02  0.1441755E+00
         21   -1    0    0  503  501  0.00000000000E+00  0.00000000000E+00  0.45205303720E+01  0.45205303720E+01  0.00000000000E+00 0. -1.
         21   -1    0    0  504  502 -0.00000000000E+00 -0.00000000000E+00 -0.34553956260E+03  0.34553956260E+03  0.00000000000E+00 0. -1.
         21    1    1    2  503  502  0.18521977130E+02 -0.20450668467E+02 -0.45192023781E+02  0.52949150049E+02  0.00000000000E+00 0. -1.
         21    1    1    2  504  501 -0.18521977130E+02  0.20450668467E+02 -0.29582700845E+03  0.29711094292E+03  0.00000000000E+00 0. -1.
</event>
<event>
 4    1  0.1589319E+006  0.2751047E+02  0.7546771E-02  0.1442547E+00
         21   -1    0    0  504  501  0.00000000000E+00  0.00000000000E+00  0.83803746149E+02  0.83803746149E+02  0.00000000000E+00 0. -1.
         21   -1    0    0  501  502 -0.00000000000E+00 -0.00000000000E+00 -0.61441790380E+02  0.61441790380E+02  0.00000000000E+00 0.  1.
         21    1    1    2  503  502  0.22508201222E+02 -0.15817933430E+02 -0.55892603244E+02  0.62296141435E+02  0.00000000000E+00 0.  1.
         21    1    1    2  504  503 -0.22508201222E+02  0.15817933430E+02  0.78254559013E+02  0.82949395095E+02  0.00000000000E+00 0. -1.
</event>
<event>
 4    1  0.1589319E+006  0.2480974E+02  0.7546771E-02  0.1470943E+00
         21   -1    0    0  503  501  0.00000000000E+00  0.00000000000E+00  0.12435168717E+02  0.12435168717E+02  0.00000000000E+00 0. -1.
         21   -1    0    0  501  502 -0.00000000000E+00 -0.00000000000E+00 -0.50861606076E+02  0.50861606076E+02  0.00000000000E+00 0. -1.
         21    1    1    2  503  504  0.88828520130E+01  0.23165021270E+02 -0.14032289570E+02  0.28503130019E+02  0.00000000000E+00 0. -1.
         21    1    1    2  504  502 -0.88828520130E+01 -0.23165021270E+02 -0.24394147789E+02  0.34793644774E+02  0.00000000000E+00 0. -1.
</event>
<event>
 4    1  0.1589319E+006  0.3538022E+02  0.7546771E-02  0.1377910E+00
         21   -1    0    0  504  501  0.00000000000E+00  0.00000000000E+00  0.77375185247E+02  0.77375185247E+02  0.00000000000E+00 0. -1.
         21   -1    0    0  503  502 -0.00000000000E+00 -0.00000000000E+00 -0.45770191688E+02  0.45770191688E+02  0.00000000000E+00 0. -1.
         21    1    1    2  503  501 -0.10674955827E+02 -0.33731368644E+02 -0.33706806931E+02  0.48866233188E+02  0.00000000000E+00 0. -1.
         21    1    1    2  504  502  0.10674955827E+02  0.33731368644E+02  0.65311800490E+02  0.74279143747E+02  0.00000000000E+00 0. -1.
</event>
<event>
 4    1  0.1589319E+006  0.5148949E+02  0.7546771E-02  0.1291841E+00
         21   -1    0    0  502  501  0.00000000000E+00  0.00000000000E+00  0.19198956142E+03  0.19198956142E+03  0.00000000000E+00 0.  1.
         21   -1    0    0  503  502 -0.00000000000E+00 -0.00000000000E+00 -0.85201774559E+02  0.85201774559E+02  0.00000000000E+00 0.  1.
         21    1    1    2  503  504  0.47216335130E+02  0.20537408810E+02 -0.73474291251E+02  0.89719780086E+02  0.00000000000E+00 0.  1.
         21    1    1    2  504  501 -0.47216335130E+02 -0.20537408810E+02  0.18026207812E+03  0.18747155590E+03  0.00000000000E+00 0.  1.
</event>
<event>
 4    1  0.1589319E+006  0.2482572E+02  0.7546771E-02  0.1470763E+00
         21   -1    0    0  504  501  0.00000000000E+00  0.00000000000E+00  0.92697265803E+01  0.92697265803E+01  0.00000000000E+00 0.  1.
         21   -1    0    0  503  502 -0.00000000000E+00 -0.00000000000E+00 -0.97850578297E+02  0.97850578297E+02  0.00000000000E+00 0.  1.
         21    1    1    2  503  501  0.16728983989E+02  0.18342779469E+02 -0.74613469771E+02  0.78635146946E+02  0.00000000000E+00 0.  1.
         21    1    1    2  504  502 -0.16728983989E+02 -0.18342779469E+02 -0.13967381946E+02  0.28485157931E+02  0.00000000000E+00 0.  1.
</event>
<event>
 4    1  0.1589319E+006  0.3881983E+02  0.7546771E-02  0.1355544E+00
         21   -1    0    0  502  501  0.00000000000E+00  0.00000000000E+00  0.49708573017E+03  0.49708573017E+03  0.00000000000E+00 0. -1.
         21   -1    0    0  503  502 -0.00000000000E+00 -0.00000000000E+00 -0.15397722759E+03  0.15397722759E+03  0.00000000000E+00 0. -1.
         21    1    1    2  503  504  0.17512412261E+02  0.34645270624E+02 -0.15075663231E+03  0.15567447301E+03  0.00000000000E+00 0. -1.
         21    1    1    2  504  501 -0.17512412261E+02 -0.34645270624E+02  0.49386513490E+03  0.49538848475E+03  0.00000000000E+00 0. -1.
</event>
<event>
 4    1  0.1589319E+006  0.2111146E+02  0.7546771E-02  0.1517679E+00
         21   -1    0    0  502  501  0.00000000000E+00  0.00000000000E+00  0.96425896585E+02  0.96425896585E+02  0.00000000000E+00 0. -1.
         21   -1    0    0  503  502 -0.00000000000E+00 -0.00000000000E+00 -0.25225094632E+02  0.25225094632E+02  0.00000000000E+00 0.  1.
         21    1    1    2  503  504 -0.20134706781E+02 -0.63472181926E+01 -0.19370651336E+02  0.28651626989E+02  0.00000000000E+00 0.  1.
         21    1    1    2  504  501  0.20134706781E+02  0.63472181926E+01  0.90571453289E+02  0.92999364228E+02  0.00000000000E+00 0. -1.
</event>
<event>
 4    1  0.1589319E+006  0.2735702E+02  0.7546771E-02  0.1444054E+00
         21   -1    0    0  502  501  0.00000000000E+00  0.00000000000E+00  0.20982422453E+03  0.20982422453E+03  0.00000000000E+00 0. -1.
         21   -1    0    0  503  502 -0.00000000000E+00 -0.00000000000E+00 -0.44894720530E+01  0.44894720530E+01  0.00000000000E+00 0. -1.
         21    1    1    2  503  504  0.17705629983E+02  0.20854663981E+02  0.54089330973E+02  0.60614041838E+02  0.00000000000E+00 0. -1.
         21    1    1    2  504  501 -0.17705629983E+02 -0.20854663981E+02  0.15124542151E+03  0.15369965475E+03  0.00000000000E+00 0. -1.
</event>
<event>
 4    1  0.1589319E+006  0.2092755E+02  0.7546771E-02  0.1520302E+00
         21   -1    0    0  504  501  0.00000000000E+00  0.00000000000E+00  0.53514684070E+01  0.53514684070E+01  0.00000000000E+00 0. -1.
         21   -1    0    0  503  502 -0.00000000000E+00 -0.00000000000E+00 -0.13709180288E+03  0.13709180288E+03  0.00000000000E+00 0. -1.
         21    1    1    2  503  501 -0.20877963737E+02  0.14398152713E+01 -0.20655358133E+02  0.29404187753E+02  0.00000000000E+00 0. -1.
         21    1    1    2  504  502  0.20877963737E+02 -0.14398152713E+01 -0.11108497634E+03  0.11303908353E+03  0.00000000000E+00 0. -1.
</event>
<event>
 4    1  0.1589319E+006  0.2488823E+02  0.7546771E-02  0.1470058E+00
         21   -1    0    0  503  501  0.00000000000E+00  0.00000000000E+00  0.83985509401E+02  0.83985509401E+02  0.00000000000E+00 0. -1.
         21   -1    0    0  504  502 -0.00000000000E+00 -0.00000000000E+00 -0.76719037216E+01  0.76719037216E+01  0.00000000000E+00 0. -1.
         21    1    1    2  503  502 -0.24694292831E+02  0.31009323990E+01  0.47166826206E+02  0.53330416973E+02  0.00000000000E+00 0. -1.
         21    1    1    2  504  501  0.24694292831E+02 -0.31009323990E+01  0.29146779474E+02  0.38326996150E+02  0.00000000000E+00 0. -1.
</event>
<event>
 4    1  0.1589319E+006  0.2072252E+02  0.7546771E-02  0.1523264E+00
         21   -1    0    0  502  501  0.00000000000E+00  0.00000000000E+00  0.50312125744E+01  0.50312125744E+01  0.00000000000E+00 0.  1.
         21   -1    0    0  504  502 -0.00000000000E+00 -0.00000000000E+00 -0.93082178910E+02  0.93082178910E+02  0.00000000000E+00 0.  1.
         21    1    1    2  503  501 -0.25896653442E+01 -0.20560065260E+02 -0.29888145135E+02  0.36369270954E+02  0.00000000000E+00 0.  1.
         21    1    1    2  504  503  0.25896653442E+01  0.20560065260E+02 -0.58162821201E+02  0.61744120531E+02  0.00000000000E+00 0.  1.
</event>
<event>
 4    1  0.1589319E+006  0.3038715E+02  0.7546771E-02  0.1416261E+00
         21   -1    0    0  503  501  0.00000000000E+00  0.00000000000E+00  0.39168469001E+03  0.39168469001E+03  0.00000000000E+00 0.  1.
         21   -1    0    0  504  502 -0.00000000000E+00 -0.00000000000E+00 -0.31065709235E+02  0.31065709235E+02  0.00000000000E+00 0.  1.
         21    1    1    2  503  502  0.11879518604E+02  0.27968837580E+02  0.38350625551E+03  0.38470823601E+03  0.00000000000E+00 0.  1.
         21    1    1    2  504  501 -0.11879518604E+02 -0.27968837580E+02 -0.22887274744E+02  0.38042163228E+02  0.00000000000E+00 0.  1.
</event>
<event>
 4    1  0.1589319E+006  0.2095464E+02  0.7546771E-02  0.1519913E+00
         21   -1    0    0  502  501  0.00000000000E+00  0.00000000000E+00  0.23109949581E+03  0.23109949581E+03  0.00000000000E+00 0. -1.
         21   -1    0    0  503  502 -0.00000000000E+00 -0.00000000000E+00 -0.16916757785E+02  0.16916757785E+02  0.00000000000E+00 0.  1.
         21    1    1    2  503  504  0.67453362933E+01  0.19839286675E+02 -0.97453037146E+01  0.23109907009E+02  0.00000000000E+00 0.  1.
         21    1    1    2  504  501 -0.67453362933E+01 -0.19839286675E+02  0.22392804174E+03  0.22490634659E+03  0.00000000000E+00 0. -1.
</event>
<event>
 4    1  0.1589319E+006  0.2461087E+02  0.7546771E-02  0.1473204E+00
         21   -1    0    0  503  501  0.00000000000E+00  0.00000000000E+00  0.13302681799E+02  0.13302681799E+02  0.00000000000E+00 0. -1.
         21   -1    0    0  504  502 -0.00000000000E+00 -0.00000000000E+00 -0.68588753202E+03  0.68588753202E+03  0.00000000000E+00 0.  1.
         21    1    1    2  503  502 -0.13122971868E+02 -0.20820242124E+02 -0.67408457017E+03  0.67453369272E+03  0.00000000000E+00 0.  1.
         21    1    1    2  504  501  0.13122971868E+02  0.20820242124E+02  0.14997199492E+01  0.24656521098E+02  0.00000000000E+00 0. -1.
</event>
<event>
 4    1  0.1589319E+006  0.2146862E+02  0.7546771E-02  0.1512678E+00
         21   -1    0    0  503  501  0.00000000000E+00  0.00000000000E+00  0.38865151190E+02  0.38865151190E+02  0.00000000000E+00 0. -1.
         21   -1    0    0  501  502 -0.00000000000E+00 -0.00000000000E+00 -0.16952994748E+02  0.16952994748E+02  0.00000000000E+00 0.  1.
         21    1    1    2  503  504 -0.13782923210E+02  0.16460030934E+02  0.26254678736E+02  0.33914742312E+02  0.00000000000E+00 0. -1.
         21    1    1    2  504  502  0.13782923210E+02 -0.16460030934E+02 -0.43425222940E+01  0.21903403626E+02  0.00000000000E+00 0.  1.
</event>
<event>
 4    1  0.1589319E+006  0.4240474E+02  0.7546771E-02  0.1334942E+00
         21   -1    0    0  503  501  0.00000000000E+00  0.00000000000E+00  0.39278041231E+03  0.39278041231E+03  0.00000000000E+00 0.  1.
         21   -1    0    0  501  502 -0.00000000000E+00 -0.00000000000E+00 -0.57150766362E+01  0.57150766362E+01  0.00000000000E+00 0.  1.
         21    1    1    2  503  504  0.16090111983E+02 -0.39233534725E+02  0.28240586899E+03  0.28557177170E+03  0.00000000000E+00 0.  1.
         21    1    1    2  504  502 -0.16090111983E+02  0.39233534725E+02  0.10465946668E+03  0.11292371725E+03  0.00000000000E+00 0.  1.
</event>
<event>
 4    1  0.1589319E+006  0.2420404E+02  0.7546771E-02  0.1477908E+00
         21   -1    0    0  503  501  0.00000000000E+00  0.00000000000E+00  0.65655345820E+02  0.65655345820E+02  0.00000000000E+00 0. -1.
         21   -1    0    0  504  502 -0.00000000000E+00 -0.00000000000E+00 -0.84750811490E+02  0.84750811490E+02  0.00000000000E+00 0.  1.
         21    1    1    2  503  502  0.22605403651E+02  0.86505095019E+01 -0.80681900840E+02  0.84234225301E+02  0.00000000000E+00 0.  1.
         21    1    1    2  504  501 -0.22605403651E+02 -0.86505095019E+01  0.61586435170E+02  0.66171932009E+02  0.00000000000E+00 0. -1.
</event>
<event>
 4    1  0.1589319E+006  0.2776799E+02  0.7546771E-02  0.1440042E+00
         21   -1    0    0  502  501  0.00000000000E+00  0.00000000000E+00  0.11196145383E+03  0.11196145383E+03  0.00000000000E+00 0.  1.
         21   -1    0    0  503  502 -0.00000000000E+00 -0.00000000000E+00 -0.73220880012E+01  0.73220880012E+01  0.00000000000E+00 0.  1.
         21    1    1    2  503  504 -0.17724274655E+02 -0.21375488378E+02  0.37778561506E+02  0.46885830747E+02  0.00000000000E+00 0.  1.
         21    1    1    2  504  501  0.17724274655E+02  0.21375488378E+02  0.66860804325E+02  0.72397711085E+02  0.00000000000E+00 0.  1.
</event>
<event>
 4    1  0.1589319E+006  0.2872555E+02  0.7546771E-02  0.1431004E+00
         21   -1    0    0  503  501  0.00000000000E+00  0.00000000000E+00  0.82613114450E+02  0.82613114450E+02  0.00000000000E+00 0. -1.
         21   -1    0    0  504  502 -0.00000000000E+00 -0.00000000000E+00 -0.66788018802E+02  0.66788018802E+02  0.00000000000E+00 0. -1.
         21    1    1    2  503  502 -0.28402970979E+02  0.42928343560E+01  0.76801257496E+02  0.81997502036E+02  0.00000000000E+00 0. -1.
         21    1    1    2  504  501  0.28402970979E+02 -0.42928343560E+01 -0.60976161848E+02  0.67403631215E+02  0.00000000000E+00 0. -1.
</event>
<event>
 4    1  0.1589319E+006  0.3263041E+02  0.7546771E-02  0.1398034E+00
         21   -1    0    0  503  501  0.00000000000E+00  0.00000000000E+00  0.16176750535E+02  0.16176750535E+02  0.00000000000E+00 0. -1.
         21   -1    0    0  504  502 -0.00000000000E+00 -0.00000000000E+00 -0.68043949524E+02  0.68043949524E+02  0.00000000000E+00 0. -1.
         21    1    1    2  503  502 -0.12122393708E+01  0.32607881641E+02 -0.18319502222E+02  0.37421218995E+02  0.00000000000E+00 0. -1.
         21    1    1    2  504  501  0.12122393708E+01 -0.32607881641E+02 -0.33547696768E+02  0.46799481064E+02  0.00000000000E+00 0. -1.
</event>
<event>
 4    1  0.1589319E+006  0.3237321E+02  0.7546771E-02  0.1400035E+00
         21   -1    0    0  502  501  0.00000000000E+00  0.00000000000E+00  0.74856439214E+02  0.74856439214E+02  0.00000000000E+00 0. -1.
         21   -1    0    0  503  502 -0.00000000000E+00 -0.00000000000E+00 -0.61307912920E+02  0.61307912920E+02  0.00000000000E+00 0.  1.
         21    1    1    2  503  504  0.13821209760E+02  0.29274547180E+02 -0.53031071207E+02  0.62131469202E+02  0.00000000000E+00 0.  1.
         21    1    1    2  504  501 -0.13821209760E+02 -0.29274547180E+02  0.66579597501E+02  0.74032882932E+02  0.00000000000E+00 0. -1.
</event>
<event>
 4    1  0.1589319E+006  0.2402436E+02  0.7546771E-02  0.1480021E+00
         21   -1    0    0  502  501  0.00000000000E+00  0.00000000000E+00  0.13397025992E+02  0.13397025992E+02  0.00000000000E+00 0.  1.
         21   -1    0    0  503  502 -0.00000000000E+00 -0.00000000000E+00 -0.43801563013E+02  0.43801563013E+02  0.00000000000E+00 0.  1.
         21    1    1    2  503  504 -0.18218649254E+02  0.15660485743E+02 -0.18867996500E+02  0.30547852400E+02  0.00000000000E+00 0.  1.
         21    1    1    2  504  501  0.18218649254E+02 -0.15660485743E+02 -0.11536540521E+02  0.26650736604E+02  0.00000000000E+00 0.  1.
</event>
<event>
 4    1  0.1589319E+006  0.3004591E+02  0.7546771E-02  0.1419198E+00
         21   -1    0    0  503  501  0.00000000000E+00  0.00000000000E+00  0.14888253424E+03  0.14888253424E+03  0.00000000000E+00 0.  1.
         21   -1    0    0  504  502 -0.00000000000E+00 -0.00000000000E+00 -0.23311975810E+02  0.23311975810E+02  0.00000000000E+00 0. -1.
         21    1    1    2  503  502  0.13444602879E+02 -0.26870047296E+02 -0.11273148525E+02  0.32091130642E+02  0.00000000000E+00 0. -1.
         21    1    1    2  504  501 -0.13444602879E+02  0.26870047296E+02  0.13684370696E+03  0.14010337941E+03  0.00000000000E+00 0.  1.
</event>
<event>
 4    1  0.1589319E+006  0.2056662E+02  0.7546771E-02  0.1525543E+00
         21   -1    0    0  504  501  0.00000000000E+00  0.00000000000E+00  0.99906825190E+01  0.99906825190E+01  0.00000000000E+00 0.  1.
         21   -1    0    0  503  502 -0.00000000000E+00 -0.00000000000E+00 -0.44493620552E+02  0.44493620552E+02  0.00000000000E+00 0.  1.
         21    1    1    2  503  501 -0.19993821901E+02  0.48200553930E+01 -0.23247658439E+02  0.31039321370E+02  0.00000000000E+00 0.  1.
         21    1    1    2  504  502  0.19993821901E+02 -0.48200553930E+01 -0.11255279594E+02  0.23444981701E+02  0.00000000000E+00 0.  1.
</event>
<event>
 4    1  0.1589319E+006  0.2871395E+02  0.7546771E-02  0.1431111E+00
         21   -1    0    0  502  501  0.00000000000E+00  0.00000000000E+00  0.73760522636E+02  0.73760522636E+02  0.00000000000E+00 0. -1.
         21   -1    0    0  504  502 -0.00000000000E+00 -0.00000000000E+00 -0.11775716678E+02  0.11775716678E+02  0.00000000000E+00 0. -1.
         21    1    1    2  503  501  0.45568215988E+01 -0.28350064502E+02  0.40628375493E+02  0.49750936429E+02  0.00000000000E+00 0. -1.
         21    1    1    2  504  503 -0.45568215988E+01  0.28350064502E+02  0.21356430465E+02  0.35785302885E+02  0.00000000000E+00 0. -1.
</event>
<event>
 4    1  0.1589319E+006  0.3249211E+02  0.7546771E-02  0.1399107E+00
         21   -1    0    0  503  501  0.00000000000E+00  0.00000000000E+00  0.16872555924E+03  0.16872555924E+03  0.00000000000E+00 0.  1.
         21   -1    0    0  504  502 -0.00000000000E+00 -0.00000000000E+00 -0.31209658053E+02  0.31209658053E+02  0.00000000000E+00 0. -1.
         21    1    1    2  503  502 -0.13871513902E+02  0.29382276048E+02 -0.20628586213E+02  0.38487343541E+02  0.00000000000E+00 0. -1.
         21    1    1    2  504  501  0.13871513902E+02 -0.29382276048E+02  0.15814448740E+03  0.16144787375E+03  0.00000000000E+00 0.  1.
</event>
<event>
 4    1  0.1589319E+006  0.6501224E+02  0.7546771E-02  0.1243692E+00
         21   -1    0    0  503  501  0.00000000000E+00  0.00000000000E+00  0.11425168966E+04  0.11425168966E+04  0.00000000000E+00 0.  1.
         21   -1    0    0  501  502 -0.00000000000E+00 -0.00000000000E+00 -0.22226659052E+02  0.22226659052E+02  0.00000000000E+00 0. -1.
         21    1    1    2  503  504  0.55376709215E+02  0.34058946142E+02  0.10918481982E+04  0.10937820074E+04  0.00000000000E+00 0.  1.
         21    1    1    2  504  502 -0.55376709215E+02 -0.34058946142E+02  0.28442039390E+02  0.70961548323E+02  0.00000000000E+00 0. -1.
</event>
<event>
 4    1  0.1589319E+006  0.2555477E+02  0.7546771E-02  0.1462692E+00
         21   -1    0    0  504  501  0.00000000000E+00  0.00000000000E+00  0.50058239871E+01  0.50058239871E+01  0.00000000000E+00 0.  1.
         21   -1    0    0  501  502 -0.00000000000E+00 -0.00000000000E+00 -0.14882489248E+03  0.14882489248E+03  0.00000000000E+00 0.  1.
         21    1    1    2  503  502  0.51605040398E+01  0.25028295834E+02 -0.98930516355E+02  0.10217775424E+03  0.00000000000E+00 0.  1.
         21    1    1    2  504  503 -0.51605040398E+01 -0.25028295834E+02 -0.44888552137E+02  0.51652962231E+02  0.00000000000E+00 0.  1.
</event>
<event>
 4    1  0.1589319E+006  0.6335773E+02  0.7546771E-02  0.1248832E+00
         21   -1    0    0  502  501  0.00000000000E+00  0.00000000000E+00  0.96735595015E+01  0.96735595015E+01  0.00000000000E+00 0. -1.
         21   -1    0    0  504  502 -0.00000000000E+00 -0.00000000000E+00 -0.51108700258E+03  0.51108700258E+03  0.00000000000E+00 0. -1.
         21    1    1    2  503  501 -0.34199567833E+02  0.53334716476E+02 -0.13778724538E+03  0.15165595079E+03  0.00000000000E+00 0. -1.
         21    1    1    2  504  503  0.34199567833E+02 -0.53334716476E+02 -0.36362619770E+03  0.36910461129E+03  0.00000000000E+00 0. -1.
</event>
<event>
 4    1  0.1589319E+006  0.2556778E+02  0.7546771E-02  0.1462551E+00
         21   -1    0    0  503  501  0.00000000000E+00  0.00000000000E+00  0.86933446668E+01  0.86933446668E+01  0.00000000000E+00 0. -1.
         21   -1    0    0  504  502 -0.00000000000E+00 -0.00000000000E+00 -0.18953074623E+03  0.18953074623E+03  0.00000000000E+00 0. -1.
         21    1    1    2  503  502  0.22496512487E+02  0.12149837492E+02 -0.13439354991E+02  0.28884734511E+02  0.00000000000E+00 0. -1.
         21    1    1    2  504  501 -0.22496512487E+02 -0.12149837492E+02 -0.16739804657E+03  0.16933935638E+03  0.00000000000E+00 0. -1.
</event>
<event>
 4    1  0.1589319E+006  0.2005083E+02  0.7546771E-02  0.1533260E+00
         21   -1    0    0  503  501  0.00000000000E+00  0.00000000000E+00  0.24394280131E+02  0.24394280131E+02  0.00000000000E+00 0. -1.
         21   -1    0    0  501  502 -0.00000000000E+00 -0.00000000000E+00 -0.10622814459E+03  0.10622814459E+03  0.00000000000E+00 0. -1.
         21    1    1    2  503  504  0.19824609568E+02  0.30034493732E+01  0.19114525617E+02  0.27702002494E+02  0.00000000000E+00 0. -1.
         21    1    1    2  504  502 -0.19824609568E+02 -0.30034493732E+01 -0.10094839008E+03  0.10292042223E+03  0.00000000000E+00 0. -1.
</event>
<event>
 4    1  0.1589319E+006  0.2888940E+02  0.7546771E-02  0.1429499E+00
         21   -1    0    0  504  501  0.00000000000E+00  0.00000000000E+00  0.28817825666E+02  0.28817825666E+02  0.00000000000E+00 0. -1.
         21   -1    0    0  501  502 -0.00000000000E+00 -0.00000000000E+00 -0.44493322519E+02  0.44493322519E+02  0.00000000000E+00 0. -1.
         21    1    1    2  503  502  0.28644772589E+02 -0.37515547592E+01 -0.29495272838E+02  0.41286417616E+02  0.00000000000E+00 0. -1.
         21    1    1    2  504  503 -0.28644772589E+02  0.37515547592E+01  0.13819775984E+02  0.32024730569E+02  0.00000000000E+00 0. -1.
</event>
<event>
 4    1  0.1589319E+006  0.2054015E+02  0.7546771E-02  0.1525933E+00
         21   -1    0    0  503  501  0.00000000000E+00  0.00000000000E+00  0.66307547356E+02  0.66307547356E+02  0.00000000000E+00 0. -1.
         21   -1    0    0  504  502 -0.00000000000E+00 -0.00000000000E+00 -0.77973029596E+01  0.77973029596E+01  0.00000000000E+00 0. -1.
         21    1    1    2  503  502  0.17269831409E+01 -0.20467423039E+02  0.45148045987E+02  0.49600846093E+02  0.00000000000E+00 0. -1.
         21    1    1    2  504  501 -0.17269831409E+01  0.20467423039E+02  0.13362198409E+02  0.24504004223E+02  0.00000000000E+00 0. -1.
</event>
<event>
 4    1  0.1589319E+006  0.2080389E+02  0.7546771E-02  0.1522083E+00
         21   -1    0    0  504  501  0.00000000000E+00  0.00000000000E+00  0.11738326550E+02  0.11738326550E+02  0.00000000000E+00 0.  1.
         21   -1    0    0  503  502 -0.00000000000E+00 -0.00000000000E+00 -0.37863127404E+02  0.37863127404E+02  0.00000000000E+00 0. -1.
         21    1    1    2  503  501  0.19975450877E+02  0.58123422315E+01 -0.17077302085E+02  0.26915352616E+02  0.00000000000E+00 0. -1.
         21    1    1    2  504  502 -0.19975450877E+02 -0.58123422315E+01 -0.90474987690E+01  0.22686101338E+02  0.00000000000E+00 0.  1.
</event>
<event>
 4    1  0.1589319E+006  0.2258691E+02  0.7546771E-02  0.1497752E+00
         21   -1    0    0  504  501  0.00000000000E+00  0.00000000000E+00  0.14100188653E+03  0.14100188653E+03  0.00000000000E+00 0.  1.
         21   -1    0    0  501  502 -0.00000000000E+00 -0.00000000000E+00 -0.59979850231E+01  0.59979850231E+01  0.00000000000E+00 0.  1.
         21    1    1    2  503  502 -0.91554984061E+01  0.20648129151E+02  0.21204600511E+02  0.30980695140E+02  0.00000000000E+00 0.  1.
         21    1    1    2  504  503  0.91554984061E+01 -0.20648129151E+02  0.11379930100E+03  0.11601917641E+03  0.00000000000E+00 0.  1.
</event>
<event>
 4    1  0.1589319E+006  0.3684548E+02  0.7546771E-02  0.1368033E+00
         21   -1    0    0  503  501  0.00000000000E+00  0.00000000000E+00  0.25042778332E+02  0.25042778332E+02  0.00000000000E+00 0.  1.
         21   -1    0    0  504  502 -0.00000000000E+00 -0.00000000000E+00 -0.44660536487E+03  0.44660536487E+03  0.00000000000E+00 0. -1.
         21    1    1    2  503  502 -0.35411568465E+02 -0.10178927572E+02 -0.43182982862E+03  0.43339888167E+03  0.00000000000E+00 0. -1.
         21    1    1    2  504  501  0.35411568465E+02  0.10178927572E+02  0.10267242082E+02  0.38249261531E+02  0.00000000000E+00 0.  1.
</event>
<event>
 4    1  0.1589319E+006  0.2398683E+02  0.7546771E-02  0.1480465E+00
         21   -1    0    0  504  501  0.00000000000E+00  0.00000000000E+00  0.32705432712E+01  0.32705432712E+01  0.00000000000E+00 0.  1.
         21   -1    0    0  503  502 -0.00000000000E+00 -0.00000000000E+00 -0.20541472883E+03  0.20541472883E+03  0.00000000000E+00 0.  1.
         21    1    1    2  503  501  0.36534475679E+00  0.23984045008E+02 -0.14060756058E+03  0.14263889366E+03  0.00000000000E+00 0.  1.
         21    1    1    2  504  502 -0.36534475679E+00 -0.23984045008E+02 -0.61536624980E+02  0.66046378445E+02  0.00000000000E+00 0.  1.
</event>
<event>
 4    1  0.1589319E+006  0.2825546E+02  0.7546771E-02  0.1435389E+00
         21   -1    0    0  504  501  0.00000000000E+00  0.00000000000E+00  0.98247586549E+01  0.98247586549E+01  0.00000000000E+00 0. -1.
         21   -1    0    0  501  502 -0.00000000000E+00 -0.00000000000E+00 -0.51032025054E+03  0.51032025054E+03  0.00000000000E+00 0. -1.
         21    1    1    2  503  502  0.22214547733E+02 -0.17460953425E+02 -0.48871656788E+03  0.48953269017E+03  0.00000000000E+00 0. -1.
         21    1    1    2  504  503 -0.22214547733E+02  0.17460953425E+02 -0.11778924009E+02  0.30612319028E+02  0.00000000000E+00 0. -1.
</event>
<event>
 4    1  0.1589319E+006  0.3327718E+02  0.7546771E-02  0.1393097E+00
         21   -1    0    0  504  501  0.00000000000E+00  0.00000000000E+00  0.26125242670E+02  0.26125242670E+02  0.00000000000E+00 0.  1.
         21   -1    0    0  501  502 -0.00000000000E+00 -0.00000000000E+00 -0.44169472078E+02  0.44169472078E+02  0.00000000000E+00 0.  1.
         21    1    1    2  503  502  0.12669238437E+02  0.30771103380E+02 -0.19614736898E+01  0.33334933401E+02  0.00000000000E+00 0.  1.
         21    1    1    2  504  503 -0.12669238437E+02 -0.30771103380E+02 -0.16082755718E+02  0.36959781348E+02  0.00000000000E+00 0.  1.
</event>
<event>
 4    1  0.1589319E+006  0.2748782E+02  0.7546771E-02  0.1442768E+00
         21   -1    0    0  504  501  0.00000000000E+00  0.00000000000E+00  0.27621737952E+02  0.27621737952E+02  0.00000000000E+00 0.  1.
         21   -1    0    0  501  502 -0.00000000000E+00 -0.00000000000E+00 -0.35426898713E+03  0.35426898713E+03  0.00000000000E+00 0. -1.
         21    1    1    2  503  502 -0.17505018726E+02 -0.21193270445E+02 -0.34674907456E+03  0.34783688864E+03  0.00000000000E+00 0. -1.
         21    1    1    2  504  503  0.17505018726E+02  0.21193270445E+02  0.20101825379E+02  0.34053836441E+02  0.00000000000E+00 0.  1.
</event>
<event>
 4    1  0.1589319E+006  0.4946521E+02  0.7546771E-02  0.1300508E+00
         21   -1    0    0  504  501  0.00000000000E+00  0.00000000000E+00  0.44921526012E+02  0.44921526012E+02  0.00000000000E+00 0. -1.
         21   -1    0    0  501  502 -0.00000000000E+00 -0.00000000000E+00 -0.55708877002E+02  0.55708877002E+02  0.00000000000E+00 0. -1.
         21    1    1    2  503  502  0.38773252059E+02 -0.30715505534E+02 -0.12901548584E+02  0.51120028475E+02  0.00000000000E+00 0. -1.
         21    1    1    2  504  503 -0.38773252059E+02  0.30715505534E+02  0.21141975930E+01  0.49510374539E+02  0.00000000000E+00 0. -1.
</event>
<event>
 4    1  0.1589319E+006  0.3232144E+02  0.7546771E-02  0.1400440E+00
         21   -1    0    0  502  501  0.00000000000E+00  0.00000000000E+00  0.24734787677E+02  0.24734787677E+02  0.00000000000E+00 0. -1.
         21   -1    0    0  503  502 -0.00000000000E+00 -0.00000000000E+00 -0.64664550685E+02  0.64664550685E+02  0.00000000000E+00 0.  1.
         21    1    1    2  503  504  0.97309219781E+01 -0.30821820269E+02 -0.46290634510E+02  0.56457933815E+02  0.00000000000E+00 0.  1.
         21    1    1    2  504  501 -0.97309219781E+01  0.30821820269E+02  0.63608715017E+01  0.32941404547E+02  0.00000000000E+00 0. -1.
</event>
<event>
 4    1  0.1589319E+006  0.2418889E+02  0.7546771E-02  0.1478085E+00
         21   -1    0    0  502  501  0.00000000000E+00  0.00000000000E+00  0.21292538650E+03  0.21292538650E+03  0.00000000000E+00 0. -1.
         21   -1    0    0  504  502 -0.00000000000E+00 -0.00000000000E+00 -0.39392102683E+02  0.39392102683E+02  0.00000000000E+00 0.  1.
         21    1    1    2  503  501  0.88329292921E+01  0.22518480909E+02  0.20844554261E+03  0.20984433959E+03  0.00000000000E+00 0. -1.
         21    1    1    2  504  503 -0.88329292921E+01 -0.22518480909E+02 -0.34912258795E+02  0.42473149595E+02  0.00000000000E+00 0.  1.
</event>
<event>
 4    1  0.1589319E+006  0.3003355E+02  0.7546771E-02  0.1419305E+00
         21   -1    0    0  504  501  0.00000000000E+00  0.00000000000E+00  0.74443001754E+02  0.74443001754E+02  0.00000000000E+00 0. -1.
         21   -1    0    0  501  502 -0.00000000000E+00 -0.00000000000E+00 -0.25129584678E+02  0.25129584678E+02  0.00000000000E+00 0. -1.
         21    1    1    2  503  502  0.54177803339E+01  0.29540852650E+02 -0.11169554213E+02  0.32043302894E+02  0.00000000000E+00 0. -1.
         21    1    1    2  504  503 -0.54177803339E+01 -0.29540852650E+02  0.60482971290E+02  0.67529283538E+02  0.00000000000E+00 0. -1.
</event>
<event>
 4    1  0.1589319E+006  0.2145048E+02  0.7546771E-02  0.1512929E+00
         21   -1    0    0  502  501  0.00000000000E+00  0.00000000000E+00  0.57593388480E+02  0.57593388480E+02  0.00000000000E+00 0.  1.
         21   -1    0    0  504  502 -0.00000000000E+00 -0.00000000000E+00 -0.80122671455E+02  0.80122671455E+02  0.00000000000E+00 0. -1.
         21    1    1    2  503  501 -0.21331032870E+02 -0.22605223125E+01  0.54070285952E+02  0.58169740823E+02  0.00000000000E+00 0.  1.
         21    1    1    2  504  503  0.21331032870E+02  0.22605223125E+01 -0.76599568927E+02  0.79546319112E+02  0.00000000000E+00 0. -1.
</event>
<event>
 4    1  0.1589319E+006  0.2174355E+02  0.7546771E-02  0.1508908E+00
         21   -1    0    0  504  501  0.00000000000E+00  0.00000000000E+00  0.40362403623E+03  0.40362403623E+03  0.00000000000E+00 0. -1.
         21   -1    0    0  503  502 -0.00000000000E+00 -0.00000000000E+00 -0.16982964009E+01  0.16982964009E+01  0.00000000000E+00 0. -1.
         21    1    1    2  503  501  0.15973172832E+02  0.14752610933E+02  0.88074210069E+02  0.90718511115E+02  0.00000000000E+00 0. -1.
         21    1    1    2  504  502 -0.15973172832E+02 -0.14752610933E+02  0.31385152976E+03  0.31460382151E+03  0.00000000000E+00 0. -1.
</event>
<event>
 4    1  0.1589319E+006  0.2093488E+02  0.7546771E-02  0.1520197E+00
         21   -1    0    0  502  501  0.00000000000E+00  0.00000000000E+00  0.19135826573E+03  0.19135826573E+03  0.00000000000E+00 0. -1.
         21   -1    0    0  504  502 -0.00000000000E+00 -0.00000000000E+00 -0.38620960220E+01  0.38620960220E+01  0.00000000000E+00 0. -1.
         21    1    1    2  503  501  0.19167608067E+02  0.84185526032E+01  0.15601834389E+03  0.15741662192E+03  0.00000000000E+00 0. -1.
         21    1    1    2  504  503 -0.19167608067E+02 -0.84185526032E+01  0.31477825816E+02  0.37803739829E+02  0.00000000000E+00 0. -1.
</event>
<event>
 4    1  0.1589319E+006  0.2139754E+02  0.7546771E-02  0.1513664E+00
         21   -1    0    0  502  501  0.00000000000E+00  0.00000000000E+00  0.24465892293E+03  0.24465892293E+03  0.00000000000E+00 0.  1.
         21   -1    0    0  504  502 -0.00000000000E+00 -0.00000000000E+00 -0.13413968659E+03  0.13413968659E+03  0.00000000000E+00 0.  1.
         21    1    1    2  503  501 -0.84447638096E+01 -0.19660636615E+02  0.24333311566E+03  0.24427210206E+03  0.00000000000E+00 0.  1.
         21    1    1    2  504  503  0.84447638096E+01  0.19660636615E+02 -0.13281387933E+03  0.13452650746E+03  0.00000000000E+00 0.  1.
</event>
<event>
 4    1  0.1589319E+006  0.2341971E+02  0.7546771E-02  0.1487294E+00
         21   -1    0    0  504  501  0.00000000000E+00  0.00000000000E+00  0.51172074102E+02  0.51172074102E+02  0.00000000000E+00 0.  1.
         21   -1    0    0  503  502 -0.00000000000E+00 -0.00000000000E+00 -0.19081343255E+02  0.19081343255E+02  0.00000000000E+00 0.  1.
         21    1    1    2  503  501  0.22183154370E+02  0.75093679228E+01 -0.72094270289E+01  0.24504260497E+02  0.00000000000E+00 0.  1.
         21    1    1    2  504  502 -0.22183154370E+02 -0.75093679228E+01  0.39300157875E+02  0.45749156860E+02  0.00000000000E+00 0.  1.
</event>
<event>
 4    1  0.1589319E+006  0.2232461E+02  0.7546771E-02  0.1501158E+00
         21   -1    0    0  503  501  0.00000000000E+00  0.00000000000E+00  0.43418568045E+01  0.43418568045E+01  0.00000000000E+00 0.  1.
         21   -1    0    0  504  502 -0.00000000000E+00 -0.00000000000E+00 -0.17607617145E+03  0.17607617145E+03  0.00000000000E+00 0.  1.
         21    1    1    2  503  502 -0.47073197831E+01  0.21822677241E+02 -0.13908925905E+03  0.14086947890E+03  0.00000000000E+00 0.  1.
         21    1    1    2  504  501  0.47073197831E+01 -0.21822677241E+02 -0.32645055597E+02  0.39548549360E+02  0.00000000000E+00 0.  1.
</event>
<event>
 4    1  0.1589319E+006  0.2261199E+02  0.7546771E-02  0.1497429E+00
         21   -1    0    0  503  501  0.00000000000E+00  0.00000000000E+00  0.35720883722E+02  0.35720883722E+02  0.00000000000E+00 0. -1.
         21   -1    0    0  504  502 -0.00000000000E+00 -0.00000000000E+00 -0.43261744783E+02  0.43261744783E+02  0.00000000000E+00 0. -1.
         21    1    1    2  503  502 -0.44602020738E+01  0.22167737902E+02  0.28533721913E+02  0.36407077505E+02  0.00000000000E+00 0. -1.
         21    1    1    2  504  501  0.44602020738E+01 -0.22167737902E+02 -0.36074582974E+02  0.42575551001E+02  0.00000000000E+00 0. -1.
</event>
<event>
 4    1  0.1589319E+006  0.3434220E+02  0.7546771E-02  0.1385248E+00
         21   -1    0    0  503  501  0.00000000000E+00  0.00000000000E+00  0.22735996393E+02  0.22735996393E+02  0.00000000000E+00 0. -1.
         21   -1    0    0  504  502 -0.00000000000E+00 -0.00000000000E+00 -0.23243591252E+03  0.23243591252E+03  0.00000000000E+00 0.  1.
         21    1    1    2  503  502  0.12756468655E+02 -0.31885089311E+02  0.76015847333E+01  0.35173434626E+02  0.00000000000E+00 0. -1.
         21    1    1    2  504  501 -0.12756468655E+02  0.31885089311E+02 -0.21730150086E+03  0.21999847429E+03  0.00000000000E+00 0.  1.
</event>
<event>
 4    1  0.1589319E+006  0.3035690E+02  0.7546771E-02  0.1416520E+00
         21   -1    0    0  504  501  0.00000000000E+00  0.00000000000E+00  0.26047956047E+01  0.26047956047E+01  0.00000000000E+00 0. -1.
         21   -1    0    0  501  502 -0.00000000000E+00 -0.00000000000E+00 -0.40311206214E+03  0.40311206214E+03  0.00000000000E+00 0. -1.
         21    1    1    2  503  502 -0.61378052406E+01  0.29729933273E+02 -0.27121403605E+03  0.27290766742E+03  0.00000000000E+00 0. -1.
         21    1    1    2  504  503  0.61378052406E+01 -0.29729933273E+02 -0.12929323048E+03  0.13280919032E+03  0.00000000000E+00 0. -1.
</event>
<event>
 4    1  0.1589319E+006  0.3018256E+02  0.7546771E-02  0.1418016E+00
         21   -1    0    0  504  501  0.00000000000E+00  0.00000000000E+00  0.59826463709E+01  0.59826463709E+01  0.00000000000E+00 0.  1.
         21   -1    0    0  503  502 -0.00000000000E+00 -0.00000000000E+00 -0.35282464110E+03  0.35282464110E+03  0.00000000000E+00 0.  1.
         21    1    1    2  503  501 -0.82267958260E+01  0.29039740845E+02 -0.30868010150E+03  0.31015220744E+03  0.00000000000E+00 0.  1.
         21    1    1    2  504  502  0.82267958260E+01 -0.29039740845E+02 -0.38161893226E+02  0.48655080028E+02  0.00000000000E+00 0.  1.
</event>
<event>
 4    1  0.1589319E+006  0.7624433E+02  0.7546771E-02  0.1212846E+00
         21   -1    0    0  504  501  0.00000000000E+00  0.00000000000E+00  0.84050050196E+02  0.84050050196E+02  0.00000000000E+00 0.  1.
         21   -1    0    0  503  502 -0.00000000000E+00 -0.00000000000E+00 -0.18718352626E+04  0.18718352626E+04  0.00000000000E+00 0. -1.
         21    1    1    2  503  501  0.76149572663E+02 -0.38000496306E+01 -0.18535979266E+04  0.18551653488E+04  0.00000000000E+00 0. -1.
         21    1    1    2  504  502 -0.76149572663E+02  0.38000496306E+01  0.65812714223E+02  0.10071996400E+03  0.00000000000E+00 0.  1.
</event>
<event>
 4    1  0.1589319E+006  0.4017881E+02  0.7546771E-02  0.1347441E+00
         21   -1    0    0  502  501  0.00000000000E+00  0.00000000000E+00  0.24863607541E+04  0.24863607541E+04  0.00000000000E+00 0. -1.
         21   -1    0    0  504  502 -0.00000000000E+00 -0.00000000000E+00 -0.10239537393E+01  0.10239537393E+01  0.00000000000E+00 0. -1.
         21    1    1    2  503  501  0.18830401700E+02  0.35492992486E+02  0.19949860208E+04  0.19953905782E+04  0.00000000000E+00 0. -1.
         21    1    1    2  504  503 -0.18830401700E+02 -0.35492992486E+02  0.49035077958E+03  0.49199412962E+03  0.00000000000E+00 0. -1.
</event>
<event>
 4    1  0.1589319E+006  0.2071284E+02  0.7546771E-02  0.1523404E+00
         21   -1    0    0  504  501  0.00000000000E+00  0.00000000000E+00  0.54193725645E+03  0.54193725645E+03  0.00000000000E+00 0. -1.
         21   -1    0    0  503  502 -0.00000000000E+00 -0.00000000000E+00 -0.10654100954E+02  0.10654100954E+02  0.00000000000E+00 0.  1.
         21    1    1    2  503  501  0.12057500270E+02 -0.16841570824E+02 -0.19101741847E+00  0.20713722703E+02  0.00000000000E+00 0.  1.
         21    1    1    2  504  502 -0.12057500270E+02  0.16841570824E+02  0.53147417292E+03  0.53187763470E+03  0.00000000000E+00 0. -1.
</event>
<event>
 4    1  0.1589319E+006  0.2103006E+02  0.7546771E-02  0.1518836E+00
         21   -1    0    0  504  501  0.00000000000E+00  0.00000000000E+00  0.82371134938E+02  0.82371134938E+02  0.00000000000E+00 0.  1.
         21   -1    0    0  501  502 -0.00000000000E+00 -0.00000000000E+00 -0.10026964709E+03  0.10026964709E+03  0.00000000000E+00 0.  1.
         21    1    1    2  503  502  0.15453336280E+02  0.14263859732E+02 -0.97791036625E+02  0.10002674713E+03  0.00000000000E+00 0.  1.
         21    1    1    2  504  503 -0.15453336280E+02 -0.14263859732E+02  0.79892524471E+02  0.82614034903E+02  0.00000000000E+00 0.  1.
</event>
<event>
 4    1  0.1589319E+006  0.2463881E+02  0.7546771E-02  0.1472885E+00
         21   -1    0    0  504  501  0.00000000000E+00  0.00000000000E+00  0.84751724487E+00  0.84751724487E+00  0.00000000000E+00 0. -1.
         21   -1    0    0  503  502 -0.00000000000E+00 -0.00000000000E+00 -0.76710909636E+03  0.76710909636E+03  0.00000000000E+00 0. -1.
         21    1    1    2  503  501  0.11727594405E+02 -0.21668739599E+02 -0.28430315801E+03  0.28536880768E+03  0.00000000000E+00 0. -1.
         21    1    1    2  504  502 -0.11727594405E+02  0.21668739599E+02 -0.48195842111E+03  0.48258780592E+03  0.00000000000E+00 0. -1.
</event>
<event>
 4    1  0.1589319E+006  0.2165837E+02  0.7546771E-02  0.1510069E+00
         21   -1    0    0  504  501  0.00000000000E+00  0.00000000000E+00  0.23345995940E+01  0.23345995940E+01  0.00000000000E+00 0. -1.
         21   -1    0    0  503  502 -0.00000000000E+00 -0.00000000000E+00 -0.28206859640E+03  0.28206859640E+03  0.00000000000E+00 0. -1.
         21    1    1    2  503  501  0.17035586621E+02 -0.13374371029E+02 -0.21613595908E+03  0.21721841040E+03  0.00000000000E+00 0. -1.
         21    1    1    2  504  502 -0.17035586621E+02  0.13374371029E+02 -0.63598037733E+02  0.67184785595E+02  0.00000000000E+00 0. -1.
</event>
<event>
 4    1  0.1589319E+006  0.3094567E+02  0.7546771E-02  0.1411553E+00
         21   -1    0    0  503  501  0.00000000000E+00  0.00000000000E+00  0.63721470072E+01  0.63721470072E+01  0.00000000000E+00 0.  1.
         21   -1    0    0  504  502 -0.00000000000E+00 -0.00000000000E+00 -0.32503095333E+03  0.32503095333E+03  0.00000000000E+00 0. -1.
         21    1    1    2  503  502  0.24228607671E+02  0.19251206384E+02 -0.37831578350E+02  0.48875993057E+02  0.00000000000E+00 0.  1.
         21    1    1    2  504  501 -0.24228607671E+02 -0.19251206384E+02 -0.28082722797E+03  0.28252710728E+03  0.00000000000E+00 0. -1.
</event>
<event>
 4    1  0.1589319E+006  0.2442210E+02  0.7546771E-02  0.1475373E+00
         21   -1    0    0  503  501  0.00000000000E+00  0.00000000000E+00  0.88750859412E+02  0.88750859412E+02  0.00000000000E+00 0. -1.
         21   -1    0    0  504  502 -0.00000000000E+00 -0.00000000000E+00 -0.22232465935E+03  0.22232465935E+03  0.00000000000E+00 0. -1.
         21    1    1    2  503  502 -0.20651527563E+02 -0.13036612142E+02 -0.21995584330E+03  0.22130750518E+03  0.00000000000E+00 0. -1.
         21    1    1    2  504  501  0.20651527563E+02  0.13036612142E+02  0.86382043363E+02  0.89768013582E+02  0.00000000000E+00 0. -1.
</event>
<event>
 4    1  0.1589319E+006  0.2025603E+02  0.7546771E-02  0.1530157E+00
         21   -1    0    0  504  501  0.00000000000E+00  0.00000000000E+00  0.90155232024E+02  0.90155232024E+02  0.00000000000E+00 0. -1.
         21   -1    0    0  503  502 -0.00000000000E+00 -0.00000000000E+00 -0.42729495631E+02  0.42729495631E+02  0.00000000000E+00 0.  1.
         21    1    1    2  503  501 -0.95170902868E+01  0.17881043880E+02  0.86517250592E+02  0.88856858980E+02  0.00000000000E+00 0. -1.
         21    1    1    2  504  502  0.95170902868E+01 -0.17881043880E+02 -0.39091514198E+02  0.44027868675E+02  0.00000000000E+00 0.  1.
</event>
<event>
 4    1  0.1589319E+006  0.2422421E+02  0.7546771E-02  0.1477672E+00
         21   -1    0    0  503  501  0.00000000000E+00  0.00000000000E+00  0.20225166881E+02  0.20225166881E+02  0.00000000000E+00 0. -1.
         21   -1    0    0  504  502 -0.00000000000E+00 -0.00000000000E+00 -0.40243865938E+02  0.40243865938E+02  0.00000000000E+00 0. -1.
         21    1    1    2  503  502 -0.15979581317E+02 -0.18206191604E+02 -0.25980676512E+02  0.35521936656E+02  0.00000000000E+00 0. -1.
         21    1    1    2  504  501  0.15979581317E+02  0.18206191604E+02  0.59619774550E+01  0.24947096163E+02  0.00000000000E+00 0. -1.
</event>
<event>
 4    1  0.1589319E+006  0.2302666E+02  0.7546771E-02  0.1492164E+00
         21   -1    0    0  504  501  0.00000000000E+00  0.00000000000E+00  0.34151586116E+02  0.34151586116E+02  0.00000000000E+00 0.  1.
         21   -1    0    0  503  502 -0.00000000000E+00 -0.00000000000E+00 -0.15648776477E+02  0.15648776477E+02  0.00000000000E+00 0.  1.
         21    1    1    2  503  501 -0.19003277092E+02  0.13003950208E+02  0.70431415862E+01  0.24079723932E+02  0.00000000000E+00 0.  1.
         21    1    1    2  504  502  0.19003277092E+02 -0.13003950208E+02  0.11459668053E+02  0.25720638661E+02  0.00000000000E+00 0.  1.
</event>
<event>
 4    1  0.1589319E+006  0.3097136E+02  0.7546771E-02  0.1411339E+00
         21   -1    0    0  502  501  0.00000000000E+00  0.00000000000E+00  0.14230977882E+03  0.14230977882E+03  0.00000000000E+00 0.  1.
         21   -1    0    0  503  502 -0.00000000000E+00 -0.00000000000E+00 -0.13607989201E+02  0.13607989201E+02  0.00000000000E+00 0.  1.
         21    1    1    2  503  504  0.13544225161E+02 -0.27852810049E+02  0.89686265364E+01  0.32243779630E+02  0.00000000000E+00 0.  1.
         21    1    1    2  504  501 -0.13544225161E+02  0.27852810049E+02  0.11973316308E+03  0.12367398839E+03  0.00000000000E+00 0.  1.
</event>
<event>
 4    1  0.1589319E+006  0.2874421E+02  0.7546771E-02  0.1430832E+00
         21   -1    0    0  504  501  0.00000000000E+00  0.00000000000E+00  0.98508037386E+02  0.98508037386E+02  0.00000000000E+00 0. -1.
         21   -1    0    0  503  502 -0.00000000000E+00 -0.00000000000E+00 -0.15897608529E+02  0.15897608529E+02  0.00000000000E+00 0. -1.
         21    1    1    2  503  501 -0.27045853576E+02  0.97340292609E+01  0.80621874590E+02  0.85592734409E+02  0.00000000000E+00 0. -1.
         21    1    1    2  504  502  0.27045853576E+02 -0.97340292609E+01  0.19885542676E+01  0.28812911505E+02  0.00000000000E+00 0. -1.
</event>
<event>
 4    1  0.1589319E+006  0.2135036E+02  0.7546771E-02  0.1514321E+00
         21   -1    0    0  504  501  0.00000000000E+00  0.00000000000E+00  0.36286336959E+01  0.36286336959E+01  0.00000000000E+00 0. -1.
         21   -1    0    0  503  502 -0.00000000000E+00 -0.00000000000E+00 -0.25243929466E+03  0.25243929466E+03  0.00000000000E+00 0.  1.
         21    1    1    2  503  501  0.19910365609E+01 -0.21257315599E+02 -0.33657706820E+02  0.39858235303E+02  0.00000000000E+00 0. -1.
         21    1    1    2  504  502 -0.19910365609E+01  0.21257315599E+02 -0.21515295414E+03  0.21620969305E+03  0.00000000000E+00 0.  1.
</event>
<event>
 4    1  0.1589319E+006  0.2164248E+02  0.7546771E-02  0.1510286E+00
         21   -1    0    0  503  501  0.00000000000E+00  0.00000000000E+00  0.12708455257E+03  0.12708455257E+03  0.00000000000E+00 0.  1.
         21   -1    0    0  504  502 -0.00000000000E+00 -0.00000000000E+00 -0.40455878508E+02  0.40455878508E+02  0.00000000000E+00 0. -1.
         21    1    1    2  503  502 -0.13378752195E+02 -0.17011935496E+02  0.12317752045E+03  0.12506437744E+03  0.00000000000E+00 0.  1.
         21    1    1    2  504  501  0.13378752195E+02  0.17011935496E+02 -0.36548846394E+02  0.42476053634E+02  0.00000000000E+00 0. -1.
</event>
<event>
 4    1  0.1589319E+006  0.2276087E+02  0.7546771E-02  0.1495523E+00
         21   -1    0    0  504  501  0.00000000000E+00  0.00000000000E+00  0.19502307125E+02  0.19502307125E+02  0.00000000000E+00 0. -1.
         21   -1    0    0  503  502 -0.00000000000E+00 -0.00000000000E+00 -0.39255193213E+02  0.39255193213E+02  0.00000000000E+00 0. -1.
         21    1    1    2  503  501 -0.21783743892E+02  0.65974004635E+01 -0.26581110060E+02  0.34994465317E+02  0.00000000000E+00 0. -1.
         21    1    1    2  504  502  0.21783743892E+02 -0.65974004635E+01  0.68282239722E+01  0.23763035021E+02  0.00000000000E+00 0. -1.
</event>
<event>
 4    1  0.1589319E+006  0.2516074E+02  0.7546771E-02  0.1467013E+00
         21   -1    0    0  503  501  0.00000000000E+00  0.00000000000E+00  0.30685756411E+01  0.30685756411E+01  0.00000000000E+00 0. -1.
         21   -1    0    0  504  502 -0.00000000000E+00 -0.00000000000E+00 -0.12812182916E+04  0.12812182916E+04  0.00000000000E+00 0.  1.
         21    1    1    2  503  502  0.37073866454E+01  0.24886099275E+02 -0.50899010253E+02  0.56778269590E+02  0.00000000000E+00 0. -1.
         21    1    1    2  504  501 -0.37073866454E+01 -0.24886099275E+02 -0.12272507057E+04  0.12275085977E+04  0.00000000000E+00 0.  1.
</event>
<event>
 4    1  0.1589319E+006  0.2044963E+02  0.7546771E-02  0.1527270E+00
         21   -1    0    0  502  501  0.00000000000E+00  0.00000000000E+00  0.28314715344E+01  0.28314715344E+01  0.00000000000E+00 0. -1.
         21   -1    0    0  503  502 -0.00000000000E+00 -0.00000000000E+00 -0.19990370255E+03  0.19990370255E+03  0.00000000000E+00 0. -1.
         21    1    1    2  503  504 -0.13552867895E+02 -0.15313626765E+02 -0.15034092985E+03  0.15172535246E+03  0.00000000000E+00 0. -1.
         21    1    1    2  504  501  0.13552867895E+02  0.15313626765E+02 -0.46731301167E+02  0.51009821619E+02  0.00000000000E+00 0. -1.
</event>
<event>
 4    1  0.1589319E+006  0.2395859E+02  0.7546771E-02  0.1480800E+00
         21   -1    0    0  504  501  0.00000000000E+00  0.00000000000E+00  0.70405006188E+02  0.70405006188E+02  0.00000000000E+00 0.  1.
         21   -1    0    0  503  502 -0.00000000000E+00 -0.00000000000E+00 -0.85886464260E+01  0.85886464260E+01  0.00000000000E+00 0.  1.
         21    1    1    2  503  501 -0.29034282237E+01 -0.23782014828E+02  0.22013056385E+02  0.32535961276E+02  0.00000000000E+00 0.  1.
         21    1    1    2  504  502  0.29034282237E+01  0.23782014828E+02  0.39803303377E+02  0.46457691338E+02  0.00000000000E+00 0.  1.
</event>
<event>
 4    1  0.1589319E+006  0.2084029E+02  0.7546771E-02  0.1521557E+00
         21   -1    0    0  503  501  0.00000000000E+00  0.00000000000E+00  0.16776597072E+03  0.16776597072E+03  0.00000000000E+00 0. -1.
         21   -1    0    0  504  502 -0.00000000000E+00 -0.00000000000E+00 -0.63300613467E+01  0.63300613467E+01  0.00000000000E+00 0.  1.
         21    1    1    2  503  502  0.12054777808E+02 -0.17000000940E+02  0.13796995387E+02  0.24993494787E+02  0.00000000000E+00 0.  1.
         21    1    1    2  504  501 -0.12054777808E+02  0.17000000940E+02  0.14763891399E+03  0.14910253728E+03  0.00000000000E+00 0. -1.
</event>
<event>
 4    1  0.1589319E+006  0.3025356E+02  0.7546771E-02  0.1417406E+00
         21   -1    0    0  504  501  0.00000000000E+00  0.00000000000E+00  0.28296474781E+03  0.28296474781E+03  0.00000000000E+00 0. -1.
         21   -1    0    0  503  502 -0.00000000000E+00 -0.00000000000E+00 -0.37723547086E+01  0.37723547086E+01  0.00000000000E+00 0.  1.
         21    1    1    2  503  501  0.22798212853E+02  0.19887663748E+02  0.85465965407E+02  0.90662610384E+02  0.00000000000E+00 0.  1.
         21    1    1    2  504  502 -0.22798212853E+02 -0.19887663748E+02  0.19372642769E+03  0.19607449213E+03  0.00000000000E+00 0. -1.
</event>
<event>
 4    1  0.1589319E+006  0.3824465E+02  0.7546771E-02  0.1359091E+00
         21   -1    0    0  503  501  0.00000000000E+00  0.00000000000E+00  0.43063912720E+02  0.43063912720E+02  0.00000000000E+00 0.  1.
         21   -1    0    0  504  502 -0.00000000000E+00 -0.00000000000E+00 -0.41018673955E+02  0.41018673955E+02  0.00000000000E+00 0.  1.
         21    1    1    2  503  502  0.15150257718E+02 -0.35115851739E+02 -0.16411573459E+02  0.41617221143E+02  0.00000000000E+00 0.  1.
         21    1    1    2  504  501 -0.15150257718E+02  0.35115851739E+02  0.18456812224E+02  0.42465365532E+02  0.00000000000E+00 0.  1.
</event>
<event>
 4    1  0.1589319E+006  0.2283410E+02  0.7546771E-02  0.1494592E+00
         21   -1    0    0  502  501  0.00000000000E+00  0.00000000000E+00  0.16314169963E+02  0.16314169963E+02  0.00000000000E+00 0.  1.
         21   -1    0    0  503  502 -0.00000000000E+00 -0.00000000000E+00 -0.16355127863E+03  0.16355127863E+03  0.00000000000E+00 0.  1.
         21    1    1    2  503  504 -0.16211828172E+02  0.16080199852E+02 -0.15428720705E+03  0.15596774813E+03  0.00000000000E+00 0.  1.
         21    1    1    2  504  501  0.16211828172E+02 -0.16080199852E+02  0.70500983807E+01  0.23897700457E+02  0.00000000000E+00 0.  1.
</event>
<event>
 4    1  0.1589319E+006  0.4188469E+02  0.7546771E-02  0.1337782E+00
         21   -1    0    0  502  501  0.00000000000E+00  0.00000000000E+00  0.39022198881E+03  0.39022198881E+03  0.00000000000E+00 0.  1.
         21   -1    0    0  504  502 -0.00000000000E+00 -0.00000000000E+00 -0.49048935529E+02  0.49048935529E+02  0.00000000000E+00 0.  1.
         21    1    1    2  503  501  0.40371069861E+02  0.11158132698E+02  0.37991447442E+03  0.38221634591E+03  0.00000000000E+00 0.  1.
         21    1    1    2  504  503 -0.40371069861E+02 -0.11158132698E+02 -0.38741421143E+02  0.57054578425E+02  0.00000000000E+00 0.  1.
</event>
<event>
 4    1  0.1589319E+006  0.2305593E+02  0.7546771E-02  0.1491797E+00
         21   -1    0    0  503  501  0.00000000000E+00  0.00000000000E+00  0.23642774676E+01  0.23642774676E+01  0.00000000000E+00 0.  1.
         21   -1    0    0  504  502 -0.00000000000E+00 -0.00000000000E+00 -0.22833471153E+03  0.22833471153E+03  0.00000000000E+00 0.  1.
         21    1    1    2  503  502  0.14873901602E+02 -0.17616554835E+02 -0.98707768626E+02  0.10136468586E+03  0.00000000000E+00 0.  1.
         21    1    1    2  504  501 -0.14873901602E+02  0.17616554835E+02 -0.12726266543E+03  0.12933430313E+03  0.00000000000E+00 0.  1.
</event>
<event>
 4    1  0.1589319E+006  0.2004159E+02  0.7546771E-02  0.1533401E+00
         21   -1    0    0  503  501  0.00000000000E+00  0.00000000000E+00  0.31130152909E+02  0.31130152909E+02  0.00000000000E+00 0. -1.
         21   -1    0    0  504  502 -0.00000000000E+00 -0.00000000000E+00 -0.14105854639E+02  0.14105854639E+02  0.00000000000E+00 0. -1.
         21    1    1    2  503  502 -0.63341833137E+01 -0.19014295116E+02  0.19067035952E+01  0.20132084234E+02  0.00000000000E+00 0. -1.
         21    1    1    2  504  501  0.63341833137E+01  0.19014295116E+02  0.15117594675E+02  0.25103923314E+02  0.00000000000E+00 0. -1.
</event>
<event>
 4    1  0.1589319E+006  0.3405813E+02  0.7546771E-02  0.1387308E+00
         21   -1    0    0  503  501  0.00000000000E+00  0.00000000000E+00  0.23566022653E+02  0.23566022653E+02  0.00000000000E+00 0. -1.
         21   -1    0    0  501  502 -0.00000000000E+00 -0.00000000000E+00 -0.23162125024E+03  0.23162125024E+03  0.00000000000E+00 0. -1.
         21    1    1    2  503  504  0.33570948402E+02  0.57400132584E+01  0.91998725511E+01  0.35278803605E+02  0.00000000000E+00 0. -1.
         21    1    1    2  504  502 -0.33570948402E+02 -0.57400132584E+01 -0.21725510014E+03  0.21990846929E+03  0.00000000000E+00 0. -1.
</event>
<event>
 4    1  0.1589319E+006  0.3202260E+02  0.7546771E-02  0.1402798E+00
         21   -1    0    0  503  501  0.00000000000E+00  0.00000000000E+00  0.18161317762E+02  0.18161317762E+02  0.00000000000E+00 0. -1.
         21   -1    0    0  504  502 -0.00000000000E+00 -0.00000000000E+00 -0.69710621713E+02  0.69710621713E+02  0.00000000000E+00 0. -1.
         21    1    1    2  503  502  0.31154020397E+02  0.74076785054E+01 -0.66216918661E+01  0.32700053378E+02  0.00000000000E+00 0. -1.
         21    1    1    2  504  501 -0.31154020397E+02 -0.74076785054E+01 -0.44927612085E+02  0.55171886097E+02  0.00000000000E+00 0. -1.
</event>
<event>
 4    1  0.1589319E+006  0.4138719E+02  0.7546771E-02  0.1340543E+00
         21   -1    0    0  504  501  0.00000000000E+00  0.00000000000E+00  0.98991467022E+02  0.98991467022E+02  0.00000000000E+00 0.  1.
         21   -1    0    0  503  502 -0.00000000000E+00 -0.00000000000E+00 -0.18639657575E+02  0.18639657575E+02  0.00000000000E+00 0.  1.
         21    1    1    2  503  501 -0.12354953255E+02 -0.39500054991E+02  0.55923038936E+02  0.69572160366E+02  0.00000000000E+00 0.  1.
         21    1    1    2  504  502  0.12354953255E+02  0.39500054991E+02  0.24428770512E+02  0.48058964231E+02  0.00000000000E+00 0.  1.
</event>
<event>
 4    1  0.1589319E+006  0.3408665E+02  0.7546771E-02  0.1387100E+00
         21   -1    0    0  504  501  0.00000000000E+00  0.00000000000E+00  0.72040660921E+02  0.72040660921E+02  0.00000000000E+00 0.  1.
         21   -1    0    0  503  502 -0.00000000000E+00 -0.00000000000E+00 -0.15215281500E+03  0.15215281500E+03  0.00000000000E+00 0. -1.
         21    1    1    2  503  501 -0.18399771767E+02  0.28694044197E+02  0.65933078140E+02  0.74223113425E+02  0.00000000000E+00 0.  1.
         21    1    1    2  504  502  0.18399771767E+02 -0.28694044197E+02 -0.14604523222E+03  0.14997036250E+03  0.00000000000E+00 0. -1.
</event>
<event>
 4    1  0.1589319E+006  0.2113680E+02  0.7546771E-02  0.1517321E+00
         21   -1    0    0  503  501  0.00000000000E+00  0.00000000000E+00  0.24618940911E+01  0.24618940911E+01  0.00000000000E+00 0. -1.
         21   -1    0    0  501  502 -0.00000000000E+00 -0.00000000000E+00 -0.82058338859E+03  0.82058338859E+03  0.00000000000E+00 0. -1.
         21    1    1    2  503  504  0.11562643840E+02  0.17693774161E+02 -0.45881757122E+02  0.50516334123E+02  0.00000000000E+00 0. -1.
         21    1    1    2  504  502 -0.11562643840E+02 -0.17693774161E+02 -0.77223973738E+03  0.77252894856E+03  0.00000000000E+00 0. -1.
</event>
<event>
 4    1  0.1589319E+006  0.2485240E+02  0.7546771E-02  0.1470461E+00
         21   -1    0    0  503  501  0.00000000000E+00  0.00000000000E+00  0.12632003743E+02  0.12632003743E+02  0.00000000000E+00 0.  1.
         21   -1    0    0  504  502 -0.00000000000E+00 -0.00000000000E+00 -0.16961320671E+03  0.16961320671E+03  0.00000000000E+00 0.  1.
         21    1    1    2  503  502  0.68879119478E+01 -0.23878825790E+02 -0.16160301013E+01  0.24904883163E+02  0.00000000000E+00 0.  1.
         21    1    1    2  504  501 -0.68879119478E+01  0.23878825790E+02 -0.15536517287E+03  0.15734032729E+03  0.00000000000E+00 0.  1.
</event>
<event>
 4    1  0.1589319E+006  0.3990301E+02  0.7546771E-02  0.1349055E+00
         21   -1    0    0  503  501  0.00000000000E+00  0.00000000000E+00  0.64929901030E+02  0.64929901030E+02  0.00000000000E+00 0.  1.
         21   -1    0    0  504  502 -0.00000000000E+00 -0.00000000000E+00 -0.27472794936E+03  0.27472794936E+03  0.00000000000E+00 0. -1.
         21    1    1    2  503  502  0.31188742476E+02  0.24890009183E+02 -0.26697122558E+03  0.26993681761E+03  0.00000000000E+00 0. -1.
         21    1    1    2  504  501 -0.31188742476E+02 -0.24890009183E+02  0.57173177252E+02  0.69721032777E+02  0.00000000000E+00 0.  1.
</event>
<event>
 4    1  0.1589319E+006  0.2010597E+02  0.7546771E-02  0.1532422E+00
         21   -1    0    0  503  501  0.00000000000E+00  0.00000000000E+00  0.26787226595E+03  0.26787226595E+03  0.00000000000E+00 0. -1.
         21   -1    0    0  504  502 -0.00000000000E+00 -0.00000000000E+00 -0.21116567740E+02  0.21116567740E+02  0.00000000000E+00 0. -1.
         21    1    1    2  503  502 -0.64168958723E+01  0.19054491945E+02  0.26261335061E+03  0.26338189409E+03  0.00000000000E+00 0. -1.
         21    1    1    2  504  501  0.64168958723E+01 -0.19054491945E+02 -0.15857652401E+02  0.25606939599E+02  0.00000000000E+00 0. -1.
</event>
<event>
 4    1  0.1589319E+006  0.2417688E+02  0.7546771E-02  0.1478226E+00
         21   -1    0    0  502  501  0.00000000000E+00  0.00000000000E+00  0.39051632847E+03  0.39051632847E+03  0.00000000000E+00 0.  1.
         21   -1    0    0  503  502 -0.00000000000E+00 -0.00000000000E+00 -0.22702829074E+01  0.22702829074E+01  0.00000000000E+00 0.  1.
         21    1    1    2  503  504 -0.13401625908E+02  0.20122574687E+02  0.79488774229E+02  0.83084215212E+02  0.00000000000E+00 0.  1.
         21    1    1    2  504  501  0.13401625908E+02 -0.20122574687E+02  0.30875727134E+03  0.30970239617E+03  0.00000000000E+00 0.  1.
</event>
<event>
 4    1  0.1589319E+006  0.3712229E+02  0.7546771E-02  0.1366227E+00
         21   -1    0    0  503  501  0.00000000000E+00  0.00000000000E+00  0.41385260754E+01  0.41385260754E+01  0.00000000000E+00 0.  1.
         21   -1    0    0  504  502 -0.00000000000E+00 -0.00000000000E+00 -0.62375140467E+03  0.62375140467E+03  0.00000000000E+00 0.  1.
         21    1    1    2  503  502  0.77636396455E+01 -0.36301381038E+02 -0.52415489653E+03  0.52546781055E+03  0.00000000000E+00 0.  1.
         21    1    1    2  504  501 -0.77636396455E+01  0.36301381038E+02 -0.95457982061E+02  0.10242212019E+03  0.00000000000E+00 0.  1.
</event>
<event>
 4    1  0.1589319E+006  0.2311623E+02  0.7546771E-02  0.1491044E+00
         21   -1    0    0  504  501  0.00000000000E+00  0.00000000000E+00  0.15388771548E+03  0.15388771548E+03  0.00000000000E+00 0.  1.
         21   -1    0    0  501  502 -0.00000000000E+00 -0.00000000000E+00 -0.69546556859E+01  0.69546556859E+01  0.00000000000E+00 0.  1.
         21    1    1    2  503  502  0.13918876880E+02 -0.18456027853E+02  0.16559905772E+02  0.28435727121E+02  0.00000000000E+00 0.  1.
         21    1    1    2  504  503 -0.13918876880E+02  0.18456027853E+02  0.13037315402E+03  0.13240664404E+03  0.00000000000E+00 0.  1.
</event>
<event>
 4    1  0.1589319E+006  0.2133431E+02  0.7546771E-02  0.1514545E+00
         21   -1    0    0  503  501  0.00000000000E+00  0.00000000000E+00  0.75980258264E+02  0.75980258264E+02  0.00000000000E+00 0.  1.
         21   -1    0    0  504  502 -0.00000000000E+00 -0.00000000000E+00 -0.75655915459E+01  0.75655915459E+01  0.00000000000E+00 0. -1.
         21    1    1    2  503  502  0.51892245578E+01  0.20693586935E+02  0.53268053497E+02  0.57381513705E+02  0.00000000000E+00 0.  1.
         21    1    1    2  504  501 -0.51892245578E+01 -0.20693586935E+02  0.15146613222E+02  0.26164336105E+02  0.00000000000E+00 0. -1.
</event>
<event>
 4    1  0.1589319E+006  0.2885808E+02  0.7546771E-02  0.1429786E+00
         21   -1    0    0  503  501  0.00000000000E+00  0.00000000000E+00  0.16551012326E+01  0.16551012326E+01  0.00000000000E+00 0.  1.
         21   -1    0    0  501  502 -0.00000000000E+00 -0.00000000000E+00 -0.62054011512E+03  0.62054011512E+03  0.00000000000E+00 0.  1.
         21    1    1    2  503  504  0.26921135695E+02  0.10394277947E+02 -0.17414173938E+03  0.17651666764E+03  0.00000000000E+00 0.  1.
         21    1    1    2  504  502 -0.26921135695E+02 -0.10394277947E+02 -0.44474327450E+03  0.44567854871E+03  0.00000000000E+00 0.  1.
</event>
<event>
 4    1  0.1589319E+006  0.3006826E+02  0.7546771E-02  0.1419004E+00
         21   -1    0    0  503  501  0.00000000000E+00  0.00000000000E+00  0.42111415689E+02  0.42111415689E+02  0.00000000000E+00 0. -1.
         21   -1    0    0  504  502 -0.00000000000E+00 -0.00000000000E+00 -0.21763400116E+02  0.21763400116E+02  0.00000000000E+00 0. -1.
         21    1    1    2  503  502 -0.28304310050E+02  0.10147228007E+02  0.64609971190E+01  0.30754588070E+02  0.00000000000E+00 0. -1.
         21    1    1    2  504  501  0.28304310050E+02 -0.10147228007E+02  0.13887018454E+02  0.33120227734E+02  0.00000000000E+00 0. -1.
</event>
<event>
 4    1  0.1589319E+006  0.2089063E+02  0.7546771E-02  0.1520832E+00
         21   -1    0    0  502  501  0.00000000000E+00  0.00000000000E+00  0.14472283641E+03  0.14472283641E+03  0.00000000000E+00 0. -1.
         21   -1    0    0  503  502 -0.00000000000E+00 -0.00000000000E+00 -0.50899080810E+01  0.50899080810E+01  0.00000000000E+00 0. -1.
         21    1    1    2  503  504 -0.15491482517E+02  0.14015439617E+02  0.21996865496E+02  0.30336128130E+02  0.00000000000E+00 0. -1.
         21    1    1    2  504  501  0.15491482517E+02 -0.14015439617E+02  0.11763606283E+03  0.11947661636E+03  0.00000000000E+00 0. -1.
</event>
<event>
 4    1  0.1589319E+006  0.3115629E+02  0.7546771E-02  0.1409807E+00
         21   -1    0    0  503  501  0.00000000000E+00  0.00000000000E+00  0.51764027112E+01  0.51764027112E+01  0.00000000000E+00 0. -1.
         21   -1    0    0  504  502 -0.00000000000E+00 -0.00000000000E+00 -0.23341732951E+03  0.23341732951E+03  0.00000000000E+00 0. -1.
         21    1    1    2  503  502  0.30467258214E+02  0.65161885212E+01 -0.61224351915E+02  0.68695966427E+02  0.00000000000E+00 0. -1.
         21    1    1    2  504  501 -0.30467258214E+02 -0.65161885212E+01 -0.16701657488E+03  0.16989776579E+03  0.00000000000E+00 0. -1.
</event>
<event>
 4    1  0.1589319E+006  0.2299268E+02  0.7546771E-02  0.1492590E+00
         21   -1    0    0  504  501  0.00000000000E+00  0.00000000000E+00  0.26694847283E+01  0.26694847283E+01  0.00000000000E+00 0. -1.
         21   -1    0    0  503  502 -0.00000000000E+00 -0.00000000000E+00 -0.53707414685E+03  0.53707414685E+03  0.00000000000E+00 0.  1.
         21    1    1    2  503  501  0.17797308811E+02  0.14557446661E+02 -0.48162092344E+03  0.48216944879E+03  0.00000000000E+00 0.  1.
         21    1    1    2  504  502 -0.17797308811E+02 -0.14557446661E+02 -0.52783738683E+02  0.57574182787E+02  0.00000000000E+00 0. -1.
</event>
<event>
 4    1  0.1589319E+006  0.5378908E+02  0.7546771E-02  0.1282530E+00
         21   -1    0    0  504  501  0.00000000000E+00  0.00000000000E+00  0.75897951415E+03  0.75897951415E+03  0.00000000000E+00 0. -1.
         21   -1    0    0  503  502 -0.00000000000E+00 -0.00000000000E+00 -0.30763281643E+02  0.30763281643E+02  0.00000000000E+00 0.  1.
         21    1    1    2  503  501 -0.14189998483E+02  0.51883609622E+02 -0.54890945339E+01  0.54068430375E+02  0.00000000000E+00 0.  1.
         21    1    1    2  504  502  0.14189998483E+02 -0.51883609622E+02  0.73370532704E+03  0.73567436542E+03  0.00000000000E+00 0. -1.
</event>
<event>
 4    1  0.1589319E+006  0.3077415E+02  0.7546771E-02  0.1412986E+00
         21   -1    0    0  502  501  0.00000000000E+00  0.00000000000E+00  0.29793205861E+02  0.29793205861E+02  0.00000000000E+00 0.  1.
         21   -1    0    0  503  502 -0.00000000000E+00 -0.00000000000E+00 -0.41745721241E+02  0.41745721241E+02  0.00000000000E+00 0.  1.
         21    1    1    2  503  504  0.19265773028E+02  0.23997465027E+02 -0.23446529623E+02  0.38688345654E+02  0.00000000000E+00 0.  1.
         21    1    1    2  504  501 -0.19265773028E+02 -0.23997465027E+02  0.11494014243E+02  0.32850581448E+02  0.00000000000E+00 0.  1.
</event>
<event>
 4    1  0.1589319E+006  0.4441879E+02  0.7546771E-02  0.1324371E+00
         21   -1    0    0  504  501  0.00000000000E+00  0.00000000000E+00  0.21387249771E+03  0.21387249771E+03  0.00000000000E+00 0.  1.
         21   -1    0    0  503  502 -0.00000000000E+00 -0.00000000000E+00 -0.50842225633E+02  0.50842225633E+02  0.00000000000E+00 0.  1.
         21    1    1    2  503  501  0.33054124158E+02  0.29672444563E+02 -0.38233627613E+02  0.58607502682E+02  0.00000000000E+00 0.  1.
         21    1    1    2  504  502 -0.33054124158E+02 -0.29672444563E+02  0.20126389969E+03  0.20610722066E+03  0.00000000000E+00 0.  1.
</event>
<event>
 4    1  0.1589319E+006  0.3434690E+02  0.7546771E-02  0.1385214E+00
         21   -1    0    0  503  501  0.00000000000E+00  0.00000000000E+00  0.46516567061E+02  0.46516567061E+02  0.00000000000E+00 0. -1.
         21   -1    0    0  504  502 -0.00000000000E+00 -0.00000000000E+00 -0.32590152654E+02  0.32590152654E+02  0.00000000000E+00 0. -1.
         21    1    1    2  503  502 -0.33454109283E+02 -0.77802579910E+01 -0.11665461716E+02  0.36273858898E+02  0.00000000000E+00 0. -1.
         21    1    1    2  504  501  0.33454109283E+02  0.77802579910E+01  0.25591876123E+02  0.42832860817E+02  0.00000000000E+00 0. -1.
</event>
<event>
 4    1  0.1589319E+006  0.2076307E+02  0.7546771E-02  0.1522675E+00
         21   -1    0    0  504  501  0.00000000000E+00  0.00000000000E+00  0.47837416994E+02  0.47837416994E+02  0.00000000000E+00 0.  1.
         21   -1    0    0  501  502 -0.00000000000E+00 -0.00000000000E+00 -0.10340813264E+02  0.10340813264E+02  0.00000000000E+00 0.  1.
         21    1    1    2  503  502  0.17935876073E+02  0.10459896476E+02  0.83202143050E+01  0.22368081073E+02  0.00000000000E+00 0.  1.
         21    1    1    2  504  503 -0.17935876073E+02 -0.10459896476E+02  0.29176389424E+02  0.35810149185E+02  0.00000000000E+00 0.  1.
</event>
<event>
 4    1  0.1589319E+006  0.2016717E+02  0.7546771E-02  0.1531496E+00
         21   -1    0    0  503  501  0.00000000000E+00  0.00000000000E+00  0.62707196969E+03  0.62707196969E+03  0.00000000000E+00 0. -1.
         21   -1    0    0  504  502 -0.00000000000E+00 -0.00000000000E+00 -0.65888511294E+00  0.65888511294E+00  0.00000000000E+00 0. -1.
         21    1    1    2  503  502  0.17640582287E+02 -0.97736594579E+01  0.35243384634E+03  0.35301038315E+03  0.00000000000E+00 0. -1.
         21    1    1    2  504  501 -0.17640582287E+02  0.97736594579E+01  0.27397923823E+03  0.27472047165E+03  0.00000000000E+00 0. -1.
</event>
<event>
 4    1  0.1589319E+006  0.2905391E+02  0.7546771E-02  0.1428000E+00
         21   -1    0    0  504  501  0.00000000000E+00  0.00000000000E+00  0.12662966103E+03  0.12662966103E+03  0.00000000000E+00 0.  1.
         21   -1    0    0  501  502 -0.00000000000E+00 -0.00000000000E+00 -0.12203017847E+03  0.12203017847E+03  0.00000000000E+00 0. -1.
         21    1    1    2  503  502  0.10715840379E+02  0.27005565357E+02 -0.11858661129E+03  0.12209387443E+03  0.00000000000E+00 0. -1.
         21    1    1    2  504  503 -0.10715840379E+02 -0.27005565357E+02  0.12318609386E+03  0.12656596507E+03  0.00000000000E+00 0.  1.
</event>
<event>
 4    1  0.1589319E+006  0.3627310E+02  0.7546771E-02  0.1371827E+00
         21   -1    0    0  502  501  0.00000000000E+00  0.00000000000E+00  0.15997669970E+03  0.15997669970E+03  0.00000000000E+00 0. -1.
         21   -1    0    0  503  502 -0.00000000000E+00 -0.00000000000E+00 -0.89484099069E+02  0.89484099069E+02  0.00000000000E+00 0.  1.
         21    1    1    2  503  504  0.27250989303E+02 -0.23939955987E+02 -0.83613926907E+02  0.91142891568E+02  0.00000000000E+00 0.  1.
         21    1    1    2  504  501 -0.27250989303E+02  0.23939955987E+02  0.15410652754E+03  0.15831790720E+03  0.00000000000E+00 0. -1.
</event>
<event>
 4    1  0.1589319E+006  0.2112172E+02  0.7546771E-02  0.1517534E+00
         21   -1    0    0  504  501  0.00000000000E+00  0.00000000000E+00  0.23332015416E+02  0.23332015416E+02  0.00000000000E+00 0. -1.
         21   -1    0    0  501  502 -0.00000000000E+00 -0.00000000000E+00 -0.24923893517E+02  0.24923893517E+02  0.00000000000E+00 0. -1.
         21    1    1    2  503  502  0.18115835092E+02  0.10860175530E+02 -0.12438330467E+02  0.24512016613E+02  0.00000000000E+00 0. -1.
         21    1    1    2  504  503 -0.18115835092E+02 -0.10860175530E+02  0.10846452365E+02  0.23743892321E+02  0.00000000000E+00 0. -1.
</event>
<event>
 4    1  0.1589319E+006  0.2085870E+02  0.7546771E-02  0.1521292E+00
         21   -1    0    0  504  501  0.00000000000E+00  0.00000000000E+00  0.71089079356E+02  0.71089079356E+02  0.00000000000E+00 0.  1.
         21   -1    0    0  503  502 -0.00000000000E+00 -0.00000000000E+00 -0.62053366766E+01  0.62053366766E+01  0.00000000000E+00 0.  1.
         21    1    1    2  503  501 -0.20831664906E+02  0.10616845220E+01  0.27917309748E+02  0.34849126536E+02  0.00000000000E+00 0.  1.
         21    1    1    2  504  502  0.20831664906E+02 -0.10616845220E+01  0.36966432932E+02  0.42445289497E+02  0.00000000000E+00 0.  1.
</event>
<event>
 4    1  0.1589319E+006  0.4687977E+02  0.7546771E-02  0.1312299E+00
         21   -1    0    0  503  501  0.00000000000E+00  0.00000000000E+00  0.14323612589E+02  0.14323612589E+02  0.00000000000E+00 0.  1.
         21   -1    0    0  504  502 -0.00000000000E+00 -0.00000000000E+00 -0.15380756144E+03  0.15380756144E+03  0.00000000000E+00 0.  1.
         21    1    1    2  503  502 -0.75606515788E+01 -0.46266074588E+02 -0.73891145705E+02  0.87507796931E+02  0.00000000000E+00 0.  1.
         21    1    1    2  504  501  0.75606515788E+01  0.46266074588E+02 -0.65592803145E+02  0.80623377096E+02  0.00000000000E+00 0.  1.
</event>
<event>
 4    1  0.1589319E+006  0.3844386E+02  0.7546771E-02  0.1357854E+00
         21   -1    0    0  503  501  0.00000000000E+00  0.00000000000E+00  0.47685538659E+02  0.47685538659E+02  0.00000000000E+00 0. -1.
         21   -1    0    0  501  502 -0.00000000000E+00 -0.00000000000E+00 -0.65687469271E+02  0.65687469271E+02  0.00000000000E+00 0. -1.
         21    1    1    2  503  504 -0.38204465675E+02 -0.42836055179E+01  0.32196157131E+02  0.50145019770E+02  0.00000000000E+00 0. -1.
         21    1    1    2  504  502  0.38204465675E+02  0.42836055179E+01 -0.50198087743E+02  0.63227988160E+02  0.00000000000E+00 0. -1.
</event>
<event>
 4    1  0.1589319E+006  0.3176127E+02  0.7546771E-02  0.1404884E+00
         21   -1    0    0  503  501  0.00000000000E+00  0.00000000000E+00  0.21376461765E+03  0.21376461765E+03  0.00000000000E+00 0. -1.
         21   -1    0    0  504  502 -0.00000000000E+00 -0.00000000000E+00 -0.11057887336E+02  0.11057887336E+02  0.00000000000E+00 0. -1.
         21    1    1    2  503  502 -0.12984606817E+02  0.28985831742E+02  0.18646256370E+03  0.18914826491E+03  0.00000000000E+00 0. -1.
         21    1    1    2  504  501  0.12984606817E+02 -0.28985831742E+02  0.16244166607E+02  0.35674240072E+02  0.00000000000E+00 0. -1.
</event>
<event>
 4    1  0.1589319E+006  0.2139421E+02  0.7546771E-02  0.1513710E+00
         21   -1    0    0  502  501  0.00000000000E+00  0.00000000000E+00  0.26649348884E+01  0.26649348884E+01  0.00000000000E+00 0.  1.
         21   -1    0    0  503  502 -0.00000000000E+00 -0.00000000000E+00 -0.21097064625E+03  0.21097064625E+03  0.00000000000E+00 0. -1.
         21    1    1    2  503  504 -0.14807844114E+02 -0.15441504158E+02 -0.15020710729E+03  0.15172306146E+03  0.00000000000E+00 0. -1.
         21    1    1    2  504  501  0.14807844114E+02  0.15441504158E+02 -0.58098604067E+02  0.61912519676E+02  0.00000000000E+00 0.  1.
</event>
<event>
 4    1  0.1589319E+006  0.2973932E+02  0.7546771E-02  0.1421876E+00
         21   -1    0    0  502  501  0.00000000000E+00  0.00000000000E+00  0.11073111585E+02  0.11073111585E+02  0.00000000000E+00 0. -1.
         21   -1    0    0  504  502 -0.00000000000E+00 -0.00000000000E+00 -0.92782209783E+02  0.92782209783E+02  0.00000000000E+00 0. -1.
         21    1    1    2  503  501 -0.10521207140E+02  0.27816026974E+02 -0.21484097137E+02  0.36687785243E+02  0.00000000000E+00 0. -1.
         21    1    1    2  504  503  0.10521207140E+02 -0.27816026974E+02 -0.60225001061E+02  0.67167536125E+02  0.00000000000E+00 0. -1.
</event>
<event>
 4    1  0.1589319E+006  0.2688947E+02  0.7546771E-02  0.1448722E+00
         21   -1    0    0  504  501  0.00000000000E+00  0.00000000000E+00  0.41583316983E+02  0.41583316983E+02  0.00000000000E+00 0. -1.
         21   -1    0    0  501  502 -0.00000000000E+00 -0.00000000000E+00 -0.49705563902E+02  0.49705563902E+02  0.00000000000E+00 0.  1.
         21    1    1    2  503  502  0.26876086558E+02 -0.84817184860E+00 -0.40866042870E+02  0.48919085069E+02  0.00000000000E+00 0.  1.
         21    1    1    2  504  503 -0.26876086558E+02  0.84817184860E+00  0.32743795952E+02  0.42369795816E+02  0.00000000000E+00 0. -1.
</event>
<event>
 4    1  0.1589319E+006  0.2172365E+02  0.7546771E-02  0.1509179E+00
         21   -1    0    0  503  501  0.00000000000E+00  0.00000000000E+00  0.43936744116E+03  0.43936744116E+03  0.00000000000E+00 0.  1.
         21   -1    0    0  504  502 -0.00000000000E+00 -0.00000000000E+00 -0.11507319207E+01  0.11507319207E+01  0.00000000000E+00 0.  1.
         21    1    1    2  503  502  0.17598345641E+02 -0.12736381301E+02  0.27595427054E+03  0.27680801398E+03  0.00000000000E+00 0.  1.
         21    1    1    2  504  501 -0.17598345641E+02  0.12736381301E+02  0.16226243870E+03  0.16371015909E+03  0.00000000000E+00 0.  1.
</event>
<event>
 4    1  0.1589319E+006  0.2560783E+02  0.7546771E-02  0.1462117E+00
         21   -1    0    0  503  501  0.00000000000E+00  0.00000000000E+00  0.47428998975E+02  0.47428998975E+02  0.00000000000E+00 0. -1.
         21   -1    0    0  504  502 -0.00000000000E+00 -0.00000000000E+00 -0.14990263418E+02  0.14990263418E+02  0.00000000000E+00 0. -1.
         21    1    1    2  503  502  0.49240910458E+01  0.25129951701E+02  0.75221782458E+01  0.26689779142E+02  0.00000000000E+00 0. -1.
         21    1    1    2  504  501 -0.49240910458E+01 -0.25129951701E+02  0.24916557311E+02  0.35729483250E+02  0.00000000000E+00 0. -1.
</event>
<event>
 4    1  0.1589319E+006  0.2254607E+02  0.7546771E-02  0.1498278E+00
         21   -1    0    0  503  501  0.00000000000E+00  0.00000000000E+00  0.11002847252E+03  0.11002847252E+03  0.00000000000E+00 0.  1.
         21   -1    0    0  504  502 -0.00000000000E+00 -0.00000000000E+00 -0.63572595763E+01  0.63572595763E+01  0.00000000000E+00 0. -1.
         21    1    1    2  503  502  0.52198160312E+01  0.21933508697E+02  0.21414553443E+02  0.31095150463E+02  0.00000000000E+00 0. -1.
         21    1    1    2  504  501 -0.52198160312E+01 -0.21933508697E+02  0.82256659505E+02  0.85290581638E+02  0.00000000000E+00 0.  1.
</event>
<event>
 4    1  0.1589319E+006  0.2127970E+02  0.7546771E-02  0.1515309E+00
         21   -1    0    0  503  501  0.00000000000E+00  0.00000000000E+00  0.58123188501E+02  0.58123188501E+02  0.00000000000E+00 0.  1.
         21   -1    0    0  504  502 -0.00000000000E+00 -0.00000000000E+00 -0.77908244927E+01  0.77908244927E+01  0.00000000000E+00 0.  1.
         21    1    1    2  503  502  0.92759441603E+01  0.19151569074E+02  0.25232299407E+02  0.33007494171E+02  0.00000000000E+00 0.  1.
         21    1    1    2  504  501 -0.92759441603E+01 -0.19151569074E+02  0.25100064601E+02  0.32906518823E+02  0.00000000000E+00 0.  1.
</event>
<event>
 4    1  0.1589319E+006  0.2055187E+02  0.7546771E-02  0.1525760E+00
         21   -1    0    0  503  501  0.00000000000E+00  0.00000000000E+00  0.13264190297E+02  0.13264190297E+02  0.00000000000E+00 0.  1.
         21   -1    0    0  501  502 -0.00000000000E+00 -0.00000000000E+00 -0.18264122391E+03  0.18264122391E+03  0.00000000000E+00 0. -1.
         21    1    1    2  503  504 -0.16453910227E+02 -0.12314557908E+02  0.43164608885E+01  0.21000269828E+02  0.00000000000E+00 0.  1.
         21    1    1    2  504  502  0.16453910227E+02  0.12314557908E+02 -0.17369349450E+03  0.17490514438E+03  0.00000000000E+00 0. -1.
</event>
<event>
 4    1  0.1589319E+006  0.2689346E+02  0.7546771E-02  0.1448681E+00
         21   -1    0    0  502  501  0.00000000000E+00  0.00000000000E+00  0.10849822462E+03  0.10849822462E+03  0.00000000000E+00 0.  1.
         21   -1    0    0  503  502 -0.00000000000E+00 -0.00000000000E+00 -0.13457237551E+02  0.13457237551E+02  0.00000000000E+00 0.  1.
         21    1    1    2  503  504 -0.24434801702E+02 -0.11233823193E+02  0.42028258699E+01  0.27219883597E+02  0.00000000000E+00 0.  1.
         21    1    1    2  504  501  0.24434801702E+02  0.11233823193E+02  0.90838161202E+02  0.94735578577E+02  0.00000000000E+00 0.  1.
</event>
<event>
 4    1  0.1589319E+006  0.2297731E+02  0.7546771E-02  0.1492783E+00
         21   -1    0    0  504  501  0.00000000000E+00  0.00000000000E+00  0.67396045098E+01  0.67396045098E+01  0.00000000000E+00 0.  1.
         21   -1    0    0  503  502 -0.00000000000E+00 -0.00000000000E+00 -0.78360311292E+02  0.78360311292E+02  0.00000000000E+00 0. -1.
         21    1    1    2  503  501  0.14765304018E+02 -0.17605180724E+02 -0.35067618470E+02  0.41924866800E+02  0.00000000000E+00 0.  1.
         21    1    1    2  504  502 -0.14765304018E+02  0.17605180724E+02 -0.36553088312E+02  0.43175049001E+02  0.00000000000E+00 0. -1.
</event>
<event>
 4    1  0.1589319E+006  0.2140758E+02  0.7546771E-02  0.1513524E+00
         21   -1    0    0  502  501  0.00000000000E+00  0.00000000000E+00  0.69509459631E+03  0.69509459631E+03  0.00000000000E+00 0.  1.
         21   -1    0    0  504  502 -0.00000000000E+00 -0.00000000000E+00 -0.11591741203E+02  0.11591741203E+02  0.00000000000E+00 0. -1.
         21    1    1    2  503  501  0.19042738972E+01  0.21322718864E+02  0.68489880717E+03  0.68523328922E+03  0.00000000000E+00 0.  1.
         21    1    1    2  504  503 -0.19042738972E+01 -0.21322718864E+02 -0.13959520609E+01  0.21453048291E+02  0.00000000000E+00 0. -1.
</event>
<event>
 4    1  0.1589319E+006  0.3098450E+02  0.7546771E-02  0.1411230E+00
         21   -1    0    0  502  501  0.00000000000E+00  0.00000000000E+00  0.14308729365E+03  0.14308729365E+03  0.00000000000E+00 0.  1.
         21   -1    0    0  503  502 -0.00000000000E+00 -0.00000000000E+00 -0.42908267356E+02  0.42908267356E+02  0.00000000000E+00 0.  1.
         21    1    1    2  503  504 -0.30072864829E+02 -0.74606945389E+01 -0.35328447198E+02  0.46990832547E+02  0.00000000000E+00 0.  1.
         21    1    1    2  504  501  0.30072864829E+02  0.74606945389E+01  0.13550747349E+03  0.13900472846E+03  0.00000000000E+00 0.  1.
</event>
<event>
 4    1  0.1589319E+006  0.3788083E+02  0.7546771E-02  0.1361372E+00
         21   -1    0    0  503  501  0.00000000000E+00  0.00000000000E+00  0.52320864083E+03  0.52320864083E+03  0.00000000000E+00 0. -1.
         21   -1    0    0  504  502 -0.00000000000E+00 -0.00000000000E+00 -0.27589765402E+01  0.27589765402E+01  0.00000000000E+00 0. -1.
         21    1    1    2  503  502  0.36110694851E+02 -0.11444426718E+02  0.28047996483E+03  0.28302644374E+03  0.00000000000E+00 0. -1.
         21    1    1    2  504  501 -0.36110694851E+02  0.11444426718E+02  0.23996969946E+03  0.24294117363E+03  0.00000000000E+00 0. -1.
</event>
<event>
 4    1  0.1589319E+006  0.2030013E+02  0.7546771E-02  0.1529496E+00
         21   -1    0    0  504  501  0.00000000000E+00  0.00000000000E+00  0.60719277042E+01  0.60719277042E+01  0.00000000000E+00 0.  1.
         21   -1    0    0  501  502 -0.00000000000E+00 -0.00000000000E+00 -0.72771114883E+02  0.72771114883E+02  0.00000000000E+00 0. -1.
         21    1    1    2  503  502  0.20204946579E+02  0.19635199622E+01 -0.43581308075E+02  0.48077288718E+02  0.00000000000E+00 0. -1.
         21    1    1    2  504  503 -0.20204946579E+02 -0.19635199622E+01 -0.23117879103E+02  0.30765753869E+02  0.00000000000E+00 0.  1.
</event>
<event>
 4    1  0.1589319E+006  0.2148530E+02  0.7546771E-02  0.1512448E+00
         21   -1    0    0  504  501  0.00000000000E+00  0.00000000000E+00  0.31400807441E+03  0.31400807441E+03  0.00000000000E+00 0.  1.
         21   -1    0    0  501  502 -0.00000000000E+00 -0.00000000000E+00 -0.64059510089E+02  0.64059510089E+02  0.00000000000E+00 0. -1.
         21    1    1    2  503  502 -0.20719693458E+02  0.56844022588E+01 -0.61877879464E+02  0.65501832745E+02  0.00000000000E+00 0. -1.
         21    1    1    2  504  503  0.20719693458E+02 -0.56844022588E+01  0.31182644379E+03  0.31256575176E+03  0.00000000000E+00 0.  1.
</event>
<event>
 4    1  0.1589319E+006  0.2294123E+02  0.7546771E-02  0.1493237E+00
         21   -1    0    0  502  501  0.00000000000E+00  0.00000000000E+00  0.88060767816E+02  0.88060767816E+02  0.00000000000E+00 0.  1.
         21   -1    0    0  504  502 -0.00000000000E+00 -0.00000000000E+00 -0.65482964332E+01  0.65482964332E+01  0.00000000000E+00 0. -1.
         21    1    1    2  503  501  0.15524484891E+02  0.16890544665E+02  0.54734007717E+02  0.59347381837E+02  0.00000000000E+00 0.  1.
         21    1    1    2  504  503 -0.15524484891E+02 -0.16890544665E+02  0.26778463666E+02  0.35261682411E+02  0.00000000000E+00 0. -1.
</event>
<event>
 4    1  0.1589319E+006  0.2141127E+02  0.7546771E-02  0.1513473E+00
         21   -1    0    0  503  501  0.00000000000E+00  0.00000000000E+00  0.14288249569E+03  0.14288249569E+03  0.00000000000E+00 0.  1.
         21   -1    0    0  501  502 -0.00000000000E+00 -0.00000000000E+00 -0.56463764211E+01  0.56463764211E+01  0.00000000000E+00 0.  1.
         21    1    1    2  503  504 -0.23658324689E+01 -0.21280162180E+02  0.11741575789E+03  0.11935201158E+03  0.00000000000E+00 0.  1.
         21    1    1    2  504  502  0.23658324689E+01  0.21280162180E+02  0.19820361379E+02  0.29176860538E+02  0.00000000000E+00 0.  1.
</event>
<event>
 4    1  0.1589319E+006  0.2027003E+02  0.7546771E-02  0.1529947E+00
         21   -1    0    0  504  501  0.00000000000E+00  0.00000000000E+00  0.38326676175E+01  0.38326676175E+01  0.00000000000E+00 0.  1.
         21   -1    0    0  501  502 -0.00000000000E+00 -0.00000000000E+00 -0.10869565145E+03  0.10869565145E+03  0.00000000000E+00 0.  1.
         21    1    1    2  503  502 -0.65366260374E+01 -0.19187143495E+02 -0.59024542349E+02  0.62408096870E+02  0.00000000000E+00 0.  1.
         21    1    1    2  504  503  0.65366260374E+01  0.19187143495E+02 -0.45838441481E+02  0.50120222195E+02  0.00000000000E+00 0.  1.
</event>
<event>
 4    1  0.1589319E+006  0.2066864E+02  0.7546771E-02  0.1524049E+00
         21   -1    0    0  502  501  0.00000000000E+00  0.00000000000E+00  0.35955674375E+01  0.35955674375E+01  0.00000000000E+00 0. -1.
         21   -1    0    0  503  502 -0.00000000000E+00 -0.00000000000E+00 -0.12093094070E+03  0.12093094070E+03  0.00000000000E+00 0.  1.
         21    1    1    2  503  504  0.12492667499E+02 -0.16465897155E+02 -0.66911684006E+02  0.70031178534E+02  0.00000000000E+00 0. -1.
         21    1    1    2  504  501 -0.12492667499E+02  0.16465897155E+02 -0.50423689260E+02  0.54495329607E+02  0.00000000000E+00 0.  1.
</event>
<event>
 4    1  0.1589319E+006  0.2493405E+02  0.7546771E-02  0.1469543E+00
         21   -1    0    0  504  501  0.00000000000E+00  0.00000000000E+00  0.39982053076E+02  0.39982053076E+02  0.00000000000E+00 0.  1.
         21   -1    0    0  501  502 -0.00000000000E+00 -0.00000000000E+00 -0.14363455931E+03  0.14363455931E+03  0.00000000000E+00 0. -1.
         21    1    1    2  503  502  0.23561561883E+02  0.81584133508E+01 -0.13852273724E+03  0.14074890990E+03  0.00000000000E+00 0. -1.
         21    1    1    2  504  503 -0.23561561883E+02 -0.81584133508E+01  0.34870230999E+02  0.42867702489E+02  0.00000000000E+00 0.  1.
</event>
<event>
 4    1  0.1589319E+006  0.2899499E+02  0.7546771E-02  0.1428536E+00
         21   -1    0    0  502  501  0.00000000000E+00  0.00000000000E+00  0.54261925887E+01  0.54261925887E+01  0.00000000000E+00 0.  1.
         21   -1    0    0  503  502 -0.00000000000E+00 -0.00000000000E+00 -0.16410649785E+03  0.16410649785E+03  0.00000000000E+00 0.  1.
         21    1    1    2  503  504 -0.28227733449E+02  0.66260390224E+01 -0.99378928670E+02  0.10352236856E+03  0.00000000000E+00 0.  1.
         21    1    1    2  504  501  0.28227733449E+02 -0.66260390224E+01 -0.59301376589E+02  0.66010321876E+02  0.00000000000E+00 0.  1.
</event>
<event>
 4    1  0.1589319E+006  0.4745997E+02  0.7546771E-02  0.1309577E+00
         21   -1    0    0  503  501  0.00000000000E+00  0.00000000000E+00  0.10268678742E+04  0.10268678742E+04  0.00000000000E+00 0. -1.
         21   -1    0    0  504  502 -0.00000000000E+00 -0.00000000000E+00 -0.38628314697E+01  0.38628314697E+01  0.00000000000E+00 0.  1.
         21    1    1    2  503  502 -0.46408737058E+02 -0.99336615951E+01  0.85029353069E+03  0.85161701301E+03  0.00000000000E+00 0. -1.
         21    1    1    2  504  501  0.46408737058E+02  0.99336615951E+01  0.17271151201E+03  0.17911369264E+03  0.00000000000E+00 0.  1.
</event>
<event>
 4    1  0.1589319E+006  0.3271643E+02  0.7546771E-02  0.1397370E+00
         21   -1    0    0  504  501  0.00000000000E+00  0.00000000000E+00  0.13275621356E+03  0.13275621356E+03  0.00000000000E+00 0. -1.
         21   -1    0    0  503  502 -0.00000000000E+00 -0.00000000000E+00 -0.98889879174E+01  0.98889879174E+01  0.00000000000E+00 0. -1.
         21    1    1    2  503  501  0.28242119690E+02 -0.16515062982E+02  0.92084555494E+02  0.97723743227E+02  0.00000000000E+00 0. -1.
         21    1    1    2  504  502 -0.28242119690E+02  0.16515062982E+02  0.30782670151E+02  0.44921458252E+02  0.00000000000E+00 0. -1.
</event>
<event>
 4    1  0.1589319E+006  0.2039297E+02  0.7546771E-02  0.1528111E+00
         21   -1    0    0  504  501  0.00000000000E+00  0.00000000000E+00  0.94987260335E+02  0.94987260335E+02  0.00000000000E+00 0.  1.
         21   -1    0    0  503  502 -0.00000000000E+00 -0.00000000000E+00 -0.57218249787E+01  0.57218249787E+01  0.00000000000E+00 0.  1.
         21    1    1    2  503  501 -0.16817805839E+02 -0.11534064054E+02  0.20231561787E+02  0.28726108668E+02  0.00000000000E+00 0.  1.
         21    1    1    2  504  502  0.16817805839E+02  0.11534064054E+02  0.69033873569E+02  0.71982976645E+02  0.00000000000E+00 0.  1.
</event>
<event>
 4    1  0.1589319E+006  0.2087577E+02  0.7546771E-02  0.1521046E+00
         21   -1    0    0  504  501  0.00000000000E+00  0.00000000000E+00  0.60608596324E+03  0.60608596324E+03  0.00000000000E+00 0. -1.
         21   -1    0    0  503  502 -0.00000000000E+00 -0.00000000000E+00 -0.40538734549E+02  0.40538734549E+02  0.00000000000E+00 0.  1.
         21    1    1    2  503  501 -0.18542144600E+02  0.95909733538E+01  0.60320583568E+03  0.60356696240E+03  0.00000000000E+00 0. -1.
         21    1    1    2  504  502  0.18542144600E+02 -0.95909733538E+01 -0.37658606993E+02  0.43057735390E+02  0.00000000000E+00 0.  1.
</event>
<event>
 4    1  0.1589319E+006  0.2496255E+02  0.7546771E-02  0.1469223E+00
         21   -1    0    0  502  501  0.00000000000E+00  0.00000000000E+00  0.20158070225E+02  0.20158070225E+02  0.00000000000E+00 0. -1.
         21   -1    0    0  503  502 -0.00000000000E+00 -0.00000000000E+00 -0.14810858054E+03  0.14810858054E+03  0.00000000000E+00 0. -1.
         21    1    1    2  503  504  0.16723680856E+02 -0.18532330219E+02 -0.13881549757E+03  0.14104208993E+03  0.00000000000E+00 0. -1.
         21    1    1    2  504  501 -0.16723680856E+02  0.18532330219E+02  0.10864987257E+02  0.27224560838E+02  0.00000000000E+00 0. -1.
</event>
<event>
 4    1  0.1589319E+006  0.2966716E+02  0.7546771E-02  0.1422511E+00
         21   -1    0    0  504  501  0.00000000000E+00  0.00000000000E+00  0.51223249157E+02  0.51223249157E+02  0.00000000000E+00 0.  1.
         21   -1    0    0  503  502 -0.00000000000E+00 -0.00000000000E+00 -0.30120268636E+03  0.30120268636E+03  0.00000000000E+00 0. -1.
         21    1    1    2  503  501  0.69854807730E+01  0.28833022809E+02 -0.29610275539E+03  0.29758525148E+03  0.00000000000E+00 0. -1.
         21    1    1    2  504  502 -0.69854807730E+01 -0.28833022809E+02  0.46123318185E+02  0.54840684043E+02  0.00000000000E+00 0.  1.
</event>
<event>
 4    1  0.1589319E+006  0.2349793E+02  0.7546771E-02  0.1486338E+00
         21   -1    0    0  504  501  0.00000000000E+00  0.00000000000E+00  0.78529357655E+02  0.78529357655E+02  0.00000000000E+00 0. -1.
         21   -1    0    0  503  502 -0.00000000000E+00 -0.00000000000E+00 -0.81093273041E+01  0.81093273041E+01  0.00000000000E+00 0. -1.
         21    1    1    2  503  501  0.22293066730E+02  0.74277897646E+01  0.51005446046E+02  0.56157888238E+02  0.00000000000E+00 0. -1.
         21    1    1    2  504  502 -0.22293066730E+02 -0.74277897646E+01  0.19414584305E+02  0.30480796721E+02  0.00000000000E+00 0. -1.
</event>
<event>
 4    1  0.1589319E+006  0.2123278E+02  0.7546771E-02  0.1515967E+00
         21   -1    0    0  503  501  0.00000000000E+00  0.00000000000E+00  0.96026615063E+02  0.96026615063E+02  0.00000000000E+00 0.  1.
         21   -1    0    0  504  502 -0.00000000000E+00 -0.00000000000E+00 -0.59806457068E+01  0.59806457068E+01  0.00000000000E+00 0.  1.
         21    1    1    2  503  502  0.12194643854E+01  0.21197734833E+02  0.21374018761E+02  0.30127723668E+02  0.00000000000E+00 0.  1.
         21    1    1    2  504  501 -0.12194643854E+01 -0.21197734833E+02  0.68671950596E+02  0.71879537102E+02  0.00000000000E+00 0.  1.
</event>
<event>
 4    1  0.1589319E+006  0.2274554E+02  0.7546771E-02  0.1495718E+00
         21   -1    0    0  504  501  0.00000000000E+00  0.00000000000E+00  0.11813783483E+03  0.11813783483E+03  0.00000000000E+00 0. -1.
         21   -1    0    0  503  502 -0.00000000000E+00 -0.00000000000E+00 -0.48646461519E+01  0.48646461519E+01  0.00000000000E+00 0. -1.
         21    1    1    2  503  501 -0.20946718225E+02  0.88653672981E+01  0.76062840348E+02  0.79390902650E+02  0.00000000000E+00 0. -1.
         21    1    1    2  504  502  0.20946718225E+02 -0.88653672981E+01  0.37210348328E+02  0.43611578330E+02  0.00000000000E+00 0. -1.
</event>
<event>
 4    1  0.1589319E+006  0.2212174E+02  0.7546771E-02  0.1503831E+00
         21   -1    0    0  503  501  0.00000000000E+00  0.00000000000E+00  0.11360211882E+02  0.11360211882E+02  0.00000000000E+00 0.  1.
         21   -1    0    0  504  502 -0.00000000000E+00 -0.00000000000E+00 -0.10688396519E+03  0.10688396519E+03  0.00000000000E+00 0.  1.
         21    1    1    2  503  502  0.51073082632E+01 -0.21524098615E+02 -0.93441789358E+02  0.96024681292E+02  0.00000000000E+00 0.  1.
         21    1    1    2  504  501 -0.51073082632E+01  0.21524098615E+02 -0.20819639532E+01  0.22219495782E+02  0.00000000000E+00 0.  1.
</event>
<event>
 4    1  0.1589319E+006  0.2096848E+02  0.7546771E-02  0.1519715E+00
         21   -1    0    0  504  501  0.00000000000E+00  0.00000000000E+00  0.56517253296E+01  0.56517253296E+01  0.00000000000E+00 0.  1.
         21   -1    0    0  503  502 -0.00000000000E+00 -0.00000000000E+00 -0.42081146053E+03  0.42081146053E+03  0.00000000000E+00 0.  1.
         21    1    1    2  503  501  0.12545717865E+02 -0.16801247760E+02 -0.15064615927E+02  0.25818977828E+02  0.00000000000E+00 0.  1.
         21    1    1    2  504  502 -0.12545717865E+02  0.16801247760E+02 -0.40009511927E+03  0.40064420803E+03  0.00000000000E+00 0.  1.
</event>
<event>
 4    1  0.1589319E+006  0.2348396E+02  0.7546771E-02  0.1486509E+00
         21   -1    0    0  504  501  0.00000000000E+00  0.00000000000E+00  0.26086426444E+02  0.26086426444E+02  0.00000000000E+00 0. -1.
         21   -1    0    0  503  502 -0.00000000000E+00 -0.00000000000E+00 -0.27480313330E+02  0.27480313330E+02  0.00000000000E+00 0. -1.
         21    1    1    2  503  501  0.17060151905E+02 -0.16138384343E+02  0.12166920245E+02  0.26448632866E+02  0.00000000000E+00 0. -1.
         21    1    1    2  504  502 -0.17060151905E+02  0.16138384343E+02 -0.13560807131E+02  0.27118106908E+02  0.00000000000E+00 0. -1.
</event>
<event>
 4    1  0.1589319E+006  0.2321880E+02  0.7546771E-02  0.1489769E+00
         21   -1    0    0  503  501  0.00000000000E+00  0.00000000000E+00  0.58359383052E+02  0.58359383052E+02  0.00000000000E+00 0.  1.
         21   -1    0    0  504  502 -0.00000000000E+00 -0.00000000000E+00 -0.20436309145E+03  0.20436309145E+03  0.00000000000E+00 0.  1.
         21    1    1    2  503  502 -0.18203579189E+01  0.23147334071E+02 -0.20135980404E+03  0.20269406370E+03  0.00000000000E+00 0.  1.
         21    1    1    2  504  501  0.18203579189E+01 -0.23147334071E+02  0.55356095645E+02  0.60028410796E+02  0.00000000000E+00 0.  1.
</event>
<event>
 4    1  0.1589319E+006  0.2882617E+02  0.7546771E-02  0.1430079E+00
         21   -1    0    0  503  501  0.00000000000E+00  0.00000000000E+00  0.40676753436E+02  0.40676753436E+02  0.00000000000E+00 0. -1.
         21   -1    0    0  504  502 -0.00000000000E+00 -0.00000000000E+00 -0.33700825095E+03  0.33700825095E+03  0.00000000000E+00 0. -1.
         21    1    1    2  503  502  0.15955773411E+02 -0.24007526372E+02 -0.33119534981E+03  0.33244745113E+03  0.00000000000E+00 0. -1.
         21    1    1    2  504  501 -0.15955773411E+02  0.24007526372E+02  0.34863852296E+02  0.45237553256E+02  0.00000000000E+00 0. -1.
</event>
<event>
 4    1  0.1589319E+006  0.3065756E+02  0.7546771E-02  0.1413967E+00
         21   -1    0    0  503  501  0.00000000000E+00  0.00000000000E+00  0.12753365644E+03  0.12753365644E+03  0.00000000000E+00 0. -1.
         21   -1    0    0  501  502 -0.00000000000E+00 -0.00000000000E+00 -0.98416472805E+02  0.98416472805E+02  0.00000000000E+00 0. -1.
         21    1    1    2  503  504 -0.27063669073E+02 -0.14402908222E+02  0.12322140816E+03  0.12697795627E+03  0.00000000000E+00 0. -1.
         21    1    1    2  504  502  0.27063669073E+02  0.14402908222E+02 -0.94104224529E+02  0.98972172974E+02  0.00000000000E+00 0. -1.
</event>
<event>
 4    1  0.1589319E+006  0.2296432E+02  0.7546771E-02  0.1492947E+00
         21   -1    0    0  504  501  0.00000000000E+00  0.00000000000E+00  0.43045530297E+01  0.43045530297E+01  0.00000000000E+00 0.  1.
         21   -1    0    0  503  502 -0.00000000000E+00 -0.00000000000E+00 -0.68351425821E+03  0.68351425821E+03  0.00000000000E+00 0. -1.
         21    1    1    2  503  501 -0.11738750222E+02 -0.19737313400E+02 -0.65117262797E+03  0.65157743302E+03  0.00000000000E+00 0. -1.
         21    1    1    2  504  502  0.11738750222E+02  0.19737313400E+02 -0.28037077204E+02  0.36241378218E+02  0.00000000000E+00 0.  1.
</event>
<event>
 4    1  0.1589319E+006  0.2468994E+02  0.7546771E-02  0.1472302E+00
         21   -1    0    0  502  501  0.00000000000E+00  0.00000000000E+00  0.13956386242E+03  0.13956386242E+03  0.00000000000E+00 0. -1.
         21   -1    0    0  504  502 -0.00000000000E+00 -0.00000000000E+00 -0.88526922356E+01  0.88526922356E+01  0.00000000000E+00 0. -1.
         21    1    1    2  503  501 -0.47267797864E+00  0.24685415237E+02  0.11817438784E+03  0.12072604976E+03  0.00000000000E+00 0. -1.
         21    1    1    2  504  503  0.47267797864E+00 -0.24685415237E+02  0.12536782351E+02  0.27690504899E+02  0.00000000000E+00 0. -1.
</event>
<event>
 4    1  0.1589319E+006  0.2460545E+02  0.7546771E-02  0.1473266E+00
         21   -1    0    0  504  501  0.00000000000E+00  0.00000000000E+00  0.20090070178E+01  0.20090070178E+01  0.00000000000E+00 0. -1.
         21   -1    0    0  503  502 -0.00000000000E+00 -0.00000000000E+00 -0.34614686704E+03  0.34614686704E+03  0.00000000000E+00 0.  1.
         21    1    1    2  503  501  0.10236057842E+02 -0.22375240283E+02 -0.10945029676E+03  0.11218197591E+03  0.00000000000E+00 0. -1.
         21    1    1    2  504  502 -0.10236057842E+02  0.22375240283E+02 -0.23468756326E+03  0.23597389814E+03  0.00000000000E+00 0.  1.
</event>
<event>
 4    1  0.1589319E+006  0.2795605E+02  0.7546771E-02  0.1438234E+00
         21   -1    0    0  503  501  0.00000000000E+00  0.00000000000E+00  0.60363662849E+03  0.60363662849E+03  0.00000000000E+00 0.  1.
         21   -1    0    0  504  502 -0.00000000000E+00 -0.00000000000E+00 -0.86838145697E+01  0.86838145697E+01  0.00000000000E+00 0.  1.
         21    1    1    2  503  502  0.61665164582E+01 -0.27267472689E+02  0.15060550227E+02  0.31754703041E+02  0.00000000000E+00 0.  1.
         21    1    1    2  504  501 -0.61665164582E+01  0.27267472689E+02  0.57989226369E+03  0.58056574002E+03  0.00000000000E+00 0.  1.
</event>
<event>
 4    1  0.1589319E+006  0.2225852E+02  0.7546771E-02  0.1502025E+00
         21   -1    0    0  504  501  0.00000000000E+00  0.00000000000E+00  0.19593847330E+03  0.19593847330E+03  0.00000000000E+00 0. -1.
         21   -1    0    0  503  502 -0.00000000000E+00 -0.00000000000E+00 -0.47176471614E+01  0.47176471614E+01  0.00000000000E+00 0. -1.
         21    1    1    2  503  501 -0.14966681926E+02  0.16475446958E+02  0.27267836367E+02  0.35199102553E+02  0.00000000000E+00 0. -1.
         21    1    1    2  504  502  0.14966681926E+02 -0.16475446958E+02  0.16395298977E+03  0.16545701791E+03  0.00000000000E+00 0. -1.
</event>
<event>
 4    1  0.1589319E+006  0.3157666E+02  0.7546771E-02  0.1406373E+00
         21   -1    0    0  502  501  0.00000000000E+00  0.00000000000E+00  0.60702799857E+01  0.60702799857E+01  0.00000000000E+00 0.  1.
         21   -1    0    0  503  502 -0.00000000000E+00 -0.00000000000E+00 -0.20000558173E+03  0.20000558173E+03  0.00000000000E+00 0. -1.
         21    1    1    2  503  504  0.28794116378E+02 -0.12960876436E+02 -0.14052946956E+03  0.14403338943E+03  0.00000000000E+00 0. -1.
         21    1    1    2  504  501 -0.28794116378E+02  0.12960876436E+02 -0.53405832187E+02  0.62042472288E+02  0.00000000000E+00 0.  1.
</event>
<event>
 4    1  0.1589319E+006  0.2556624E+02  0.7546771E-02  0.1462567E+00
         21   -1    0    0  504  501  0.00000000000E+00  0.00000000000E+00  0.11680347501E+03  0.11680347501E+03  0.00000000000E+00 0. -1.
         21   -1    0    0  501  502 -0.00000000000E+00 -0.00000000000E+00 -0.11591194211E+02  0.11591194211E+02  0.00000000000E+00 0. -1.
         21    1    1    2  503  502  0.23038212569E+02  0.11084836977E+02  0.64367280279E+01  0.26364072464E+02  0.00000000000E+00 0. -1.
         21    1    1    2  504  503 -0.23038212569E+02 -0.11084836977E+02  0.98775552775E+02  0.10203059676E+03  0.00000000000E+00 0. -1.
</event>
<event>
 4    1  0.1589319E+006  0.2215694E+02  0.7546771E-02  0.1503365E+00
         21   -1    0    0  503  501  0.00000000000E+00  0.00000000000E+00  0.28873532078E+01  0.28873532078E+01  0.00000000000E+00 0.  1.
         21   -1    0    0  504  502 -0.00000000000E+00 -0.00000000000E+00 -0.30891049685E+03  0.30891049685E+03  0.00000000000E+00 0.  1.
         21    1    1    2  503  502 -0.18438054664E+02  0.12286914585E+02 -0.25754398052E+03  0.25849532303E+03  0.00000000000E+00 0.  1.
         21    1    1    2  504  501  0.18438054664E+02 -0.12286914585E+02 -0.48479163122E+02  0.53302527021E+02  0.00000000000E+00 0.  1.
</event>
<event>
 4    1  0.1589319E+006  0.2159265E+02  0.7546771E-02  0.1510969E+00
         21   -1    0    0  504  501  0.00000000000E+00  0.00000000000E+00  0.20161630397E+03  0.20161630397E+03  0.00000000000E+00 0.  1.
         21   -1    0    0  503  502 -0.00000000000E+00 -0.00000000000E+00 -0.27008457533E+01  0.27008457533E+01  0.00000000000E+00 0.  1.
         21    1    1    2  503  501 -0.20629284614E+02  0.63777020690E+01  0.60721173539E+02  0.64446127760E+02  0.00000000000E+00 0.  1.
         21    1    1    2  504  502  0.20629284614E+02 -0.63777020690E+01  0.13819428468E+03  0.13987102197E+03  0.00000000000E+00 0.  1.
</event>
<event>
 4    1  0.1589319E+006  0.2087351E+02  0.7546771E-02  0.1521078E+00
         21   -1    0    0  502  501  0.00000000000E+00  0.00000000000E+00  0.44290457103E+02  0.44290457103E+02  0.00000000000E+00 0.  1.
         21   -1    0    0  503  502 -0.00000000000E+00 -0.00000000000E+00 -0.56969688752E+03  0.56969688752E+03  0.00000000000E+00 0.  1.
         21    1    1    2  503  504  0.20759125556E+02  0.21822354110E+01 -0.56703479284E+03  0.56741885740E+03  0.00000000000E+00 0.  1.
         21    1    1    2  504  501 -0.20759125556E+02 -0.21822354110E+01  0.41628362416E+02  0.46568487227E+02  0.00000000000E+00 0.  1.
</event>
<event>
 4    1  0.1589319E+006  0.3624149E+02  0.7546771E-02  0.1372039E+00
         21   -1    0    0  504  501  0.00000000000E+00  0.00000000000E+00  0.82193227080E+03  0.82193227080E+03  0.00000000000E+00 0. -1.
         21   -1    0    0  503  502 -0.00000000000E+00 -0.00000000000E+00 -0.58954830920E+01  0.58954830920E+01  0.00000000000E+00 0. -1.
         21    1    1    2  503  501  0.32157235238E+02  0.16713994756E+02  0.76141105133E+03  0.76227307081E+03  0.00000000000E+00 0. -1.
         21    1    1    2  504  502 -0.32157235238E+02 -0.16713994756E+02  0.54625736381E+02  0.65554683082E+02  0.00000000000E+00 0. -1.
</event>
<event>
 4    1  0.1589319E+006  0.2084310E+02  0.7546771E-02  0.1521517E+00
         21   -1    0    0  504  501  0.00000000000E+00  0.00000000000E+00  0.43691422106E+02  0.43691422106E+02  0.00000000000E+00 0.  1.
         21   -1    0    0  501  502 -0.00000000000E+00 -0.00000000000E+00 -0.62554026860E+02  0.62554026860E+02  0.00000000000E+00 0. -1.
         21    1    1    2  503  502  0.11794675408E+02  0.17184890077E+02 -0.58149369999E+02  0.61772032881E+02  0.00000000000E+00 0. -1.
         21    1    1    2  504  503 -0.11794675408E+02 -0.17184890077E+02  0.39286765245E+02  0.44473416086E+02  0.00000000000E+00 0.  1.
</event>
<event>
 4    1  0.1589319E+006  0.2638494E+02  0.7546771E-02  0.1453886E+00
         21   -1    0    0  504  501  0.00000000000E+00  0.00000000000E+00  0.76263715347E+02  0.76263715347E+02  0.00000000000E+00 0.  1.
         21   -1    0    0  501  502 -0.00000000000E+00 -0.00000000000E+00 -0.11452067802E+03  0.11452067802E+03  0.00000000000E+00 0.  1.
         21    1    1    2  503  502  0.21584662881E+02 -0.15174571499E+02 -0.11063990280E+03  0.11374248715E+03  0.00000000000E+00 0.  1.
         21    1    1    2  504  503 -0.21584662881E+02  0.15174571499E+02  0.72382940127E+02  0.77041906216E+02  0.00000000000E+00 0.  1.
</event>
<event>
 4    1  0.1589319E+006  0.2349279E+02  0.7546771E-02  0.1486401E+00
         21   -1    0    0  503  501  0.00000000000E+00  0.00000000000E+00  0.33886196899E+02  0.33886196899E+02  0.00000000000E+00 0. -1.
         21   -1    0    0  504  502 -0.00000000000E+00 -0.00000000000E+00 -0.29574676669E+02  0.29574676669E+02  0.00000000000E+00 0. -1.
         21    1    1    2  503  502 -0.21663874417E+02  0.90877892028E+01 -0.19112759222E+02  0.30285457441E+02  0.00000000000E+00 0. -1.
         21    1    1    2  504  501  0.21663874417E+02 -0.90877892028E+01  0.23424279453E+02  0.33175416127E+02  0.00000000000E+00 0. -1.
</event>
<event>
 4    1  0.1589319E+006  0.2157329E+02  0.7546771E-02  0.1511235E+00
         21   -1    0    0  503  501  0.00000000000E+00  0.00000000000E+00  0.19251290005E+03  0.19251290005E+03  0.00000000000E+00 0. -1.
         21   -1    0    0  501  502 -0.00000000000E+00 -0.00000000000E+00 -0.26344893122E+01  0.26344893122E+01  0.00000000000E+00 0. -1.
         21    1    1    2  503  504 -0.11918215306E+02  0.17982292304E+02  0.12293988518E+03  0.12481835626E+03  0.00000000000E+00 0. -1.
         21    1    1    2  504  502  0.11918215306E+02 -0.17982292304E+02  0.66938525563E+02  0.70329033102E+02  0.00000000000E+00 0. -1.
</event>
<event>
 4    1  0.1589319E+006  0.3349767E+02  0.7546771E-02  0.1391444E+00
         21   -1    0    0  504  501  0.00000000000E+00  0.00000000000E+00  0.56863179836E+02  0.56863179836E+02  0.00000000000E+00 0. -1.
         21   -1    0    0  503  502 -0.00000000000E+00 -0.00000000000E+00 -0.20329116994E+02  0.20329116994E+02  0.00000000000E+00 0.  1.
         21    1    1    2  503  501 -0.29349555918E+02 -0.16146121165E+02  0.11659029573E+02  0.35468671132E+02  0.00000000000E+00 0.  1.
         21    1    1    2  504  502  0.29349555918E+02  0.16146121165E+02  0.24875033269E+02  0.41723625698E+02  0.00000000000E+00 0. -1.
</event>
<event>
 4    1  0.1589319E+006  0.2849882E+02  0.7546771E-02  0.1433107E+00
         21   -1    0    0  504  501  0.00000000000E+00  0.00000000000E+00  0.31806841440E+02  0.31806841440E+02  0.00000000000E+00 0.  1.
         21   -1    0    0  503  502 -0.00000000000E+00 -0.00000000000E+00 -0.54929614064E+02  0.54929614064E+02  0.00000000000E+00 0.  1.
         21    1    1    2  503  501  0.52483693737E+01 -0.28011378938E+02  0.20163745530E+02  0.34910734236E+02  0.00000000000E+00 0.  1.
         21    1    1    2  504  502 -0.52483693737E+01  0.28011378938E+02 -0.43286518154E+02  0.51825721268E+02  0.00000000000E+00 0.  1.
</event>
<event>
 4    1  0.1589319E+006  0.2761313E+02  0.7546771E-02  0.1441544E+00
         21   -1    0    0  504  501  0.00000000000E+00  0.00000000000E+00  0.87689991638E+01  0.87689991638E+01  0.00000000000E+00 0.  1.
         21   -1    0    0  503  502 -0.00000000000E+00 -0.00000000000E+00 -0.68200829190E+03  0.68200829190E+03  0.00000000000E+00 0. -1.
         21    1    1    2  503  501 -0.21083304654E+01 -0.27532522531E+02 -0.13999015206E+02  0.30958961239E+02  0.00000000000E+00 0.  1.
         21    1    1    2  504  502  0.21083304654E+01  0.27532522531E+02 -0.65924027753E+03  0.65981832982E+03  0.00000000000E+00 0. -1.
</event>
<event>
 4    1  0.1589319E+006  0.2031562E+02  0.7546771E-02  0.1529264E+00
         21   -1    0    0  504  501  0.00000000000E+00  0.00000000000E+00  0.82821156369E+01  0.82821156369E+01  0.00000000000E+00 0.  1.
         21   -1    0    0  503  502 -0.00000000000E+00 -0.00000000000E+00 -0.95391566898E+02  0.95391566898E+02  0.00000000000E+00 0.  1.
         21    1    1    2  503  501  0.18677022812E+02 -0.79933150312E+01 -0.79378195207E+02  0.81936695934E+02  0.00000000000E+00 0.  1.
         21    1    1    2  504  502 -0.18677022812E+02  0.79933150312E+01 -0.77312560547E+01  0.21736986601E+02  0.00000000000E+00 0.  1.
</event>
<event>
 4    1  0.1589319E+006  0.7177634E+02  0.7546771E-02  0.1224345E+00
         21   -1    0    0  503  501  0.00000000000E+00  0.00000000000E+00  0.27558205761E+03  0.27558205761E+03  0.00000000000E+00 0.  1.
         21   -1    0    0  504  502 -0.00000000000E+00 -0.00000000000E+00 -0.35394268816E+03  0.35394268816E+03  0.00000000000E+00 0. -1.
         21    1    1    2  503  502  0.47807854583E+01 -0.71616947351E+02 -0.34551743051E+03  0.35289394702E+03  0.00000000000E+00 0. -1.
         21    1    1    2  504  501 -0.47807854583E+01  0.71616947351E+02  0.26715679995E+03  0.27663079875E+03  0.00000000000E+00 0.  1.
</event>
<event>
 4    1  0.1589319E+006  0.2154092E+02  0.7546771E-02  0.1511680E+00
         21   -1    0    0  503  501  0.00000000000E+00  0.00000000000E+00  0.23777049862E+02  0.23777049862E+02  0.00000000000E+00 0. -1.
         21   -1    0    0  504  502 -0.00000000000E+00 -0.00000000000E+00 -0.48760925749E+02  0.48760925749E+02  0.00000000000E+00 0.  1.
         21    1    1    2  503  502  0.12367629686E+02 -0.17636696354E+02  0.15596750800E+02  0.26594547521E+02  0.00000000000E+00 0. -1.
         21    1    1    2  504  501 -0.12367629686E+02  0.17636696354E+02 -0.40580626687E+02  0.45943428090E+02  0.00000000000E+00 0.  1.
</event>
<event>
 4    1  0.1589319E+006  0.3001013E+02  0.7546771E-02  0.1419509E+00
         21   -1    0    0  503  501  0.00000000000E+00  0.00000000000E+00  0.46186917447E+03  0.46186917447E+03  0.00000000000E+00 0. -1.
         21   -1    0    0  501  502 -0.00000000000E+00 -0.00000000000E+00 -0.76462218954E+01  0.76462218954E+01  0.00000000000E+00 0.  1.
         21    1    1    2  503  504  0.30000282685E+02  0.76866499857E+00  0.42973641854E+03  0.43078300480E+03  0.00000000000E+00 0. -1.
         21    1    1    2  504  502 -0.30000282685E+02 -0.76866499857E+00  0.24486534031E+02  0.38732391559E+02  0.00000000000E+00 0.  1.
</event>
<event>
 4    1  0.1589319E+006  0.2078054E+02  0.7546771E-02  0.1522421E+00
         21   -1    0    0  504  501  0.00000000000E+00  0.00000000000E+00  0.75150480291E+00  0.75150480291E+00  0.00000000000E+00 0.  1.
         21   -1    0    0  503  502 -0.00000000000E+00 -0.00000000000E+00 -0.95694324999E+03  0.95694324999E+03  0.00000000000E+00 0.  1.
         21    1    1    2  503  501  0.20531924144E+02  0.32047991431E+01 -0.17542637696E+03  0.17665289237E+03  0.00000000000E+00 0.  1.
         21    1    1    2  504  502 -0.20531924144E+02 -0.32047991431E+01 -0.78076536822E+03  0.78104186242E+03  0.00000000000E+00 0.  1.
</event>
<event>
 4    1  0.1589319E+006  0.2113171E+02  0.7546771E-02  0.1517393E+00
         21   -1    0    0  502  501  0.00000000000E+00  0.00000000000E+00  0.12983520956E+01  0.12983520956E+01  0.00000000000E+00 0. -1.
         21   -1    0    0  504  502 -0.00000000000E+00 -0.00000000000E+00 -0.55055055708E+03  0.55055055708E+03  0.00000000000E+00 0. -1.
         21    1    1    2  503  501 -0.13816660037E+01  0.21086488225E+02 -0.10559256146E+03  0.10768629449E+03  0.00000000000E+00 0. -1.
         21    1    1    2  504  503  0.13816660037E+01 -0.21086488225E+02 -0.44365964353E+03  0.44416261468E+03  0.00000000000E+00 0. -1.
</event>
<event>
 4    1  0.1589319E+006  0.3519322E+02  0.7546771E-02  0.1379210E+00
         21   -1    0    0  503  501  0.00000000000E+00  0.00000000000E+00  0.47663419551E+02  0.47663419551E+02  0.00000000000E+00 0.  1.
         21   -1    0    0  504  502 -0.00000000000E+00 -0.00000000000E+00 -0.28972461897E+03  0.28972461897E+03  0.00000000000E+00 0. -1.
         21    1    1    2  503  502 -0.24278179351E+02  0.25478085545E+02 -0.28198178301E+03  0.28416947194E+03  0.00000000000E+00 0. -1.
         21    1    1    2  504  501  0.24278179351E+02 -0.25478085545E+02  0.39920583583E+02  0.53218566584E+02  0.00000000000E+00 0.  1.
</event>
<event>
 4    1  0.1589319E+006  0.2054285E+02  0.7546771E-02  0.1525893E+00
         21   -1    0    0  504  501  0.00000000000E+00  0.00000000000E+00  0.10245316134E+02  0.10245316134E+02  0.00000000000E+00 0.  1.
         21   -1    0    0  503  502 -0.00000000000E+00 -0.00000000000E+00 -0.20610075772E+03  0.20610075772E+03  0.00000000000E+00 0. -1.
         21    1    1    2  503  501 -0.18570348903E+02 -0.87835499979E+01 -0.19468935689E+03  0.19577015681E+03  0.00000000000E+00 0. -1.
         21    1    1    2  504  502  0.18570348903E+02  0.87835499979E+01 -0.11660846959E+01  0.20575917050E+02  0.00000000000E+00 0.  1.
</event>
<event>
 4    1  0.1589319E+006  0.2475653E+02  0.7546771E-02  0.1471546E+00
         21   -1    0    0  504  501  0.00000000000E+00  0.00000000000E+00  0.24513528396E+01  0.24513528396E+01  0.00000000000E+00 0. -1.
         21   -1    0    0  501  502 -0.00000000000E+00 -0.00000000000E+00 -0.30191813350E+03  0.30191813350E+03  0.00000000000E+00 0. -1.
         21    1    1    2  503  502  0.15774150509E+02 -0.19080411053E+02 -0.21282980045E+03  0.21426481249E+03  0.00000000000E+00 0. -1.
         21    1    1    2  504  503 -0.15774150509E+02  0.19080411053E+02 -0.86636980208E+02  0.90104673851E+02  0.00000000000E+00 0. -1.
</event>
<event>
 4    1  0.1589319E+006  0.2108870E+02  0.7546771E-02  0.1518002E+00
         21   -1    0    0  503  501  0.00000000000E+00  0.00000000000E+00  0.18407377781E+03  0.18407377781E+03  0.00000000000E+00 0. -1.
         21   -1    0    0  501  502 -0.00000000000E+00 -0.00000000000E+00 -0.23768691287E+02  0.23768691287E+02  0.00000000000E+00 0.  1.
         21    1    1    2  503  504  0.15422231866E+02 -0.14383606074E+02  0.17865053119E+03  0.17989092710E+03  0.00000000000E+00 0. -1.
         21    1    1    2  504  502 -0.15422231866E+02  0.14383606074E+02 -0.18345444671E+02  0.27951541990E+02  0.00000000000E+00 0.  1.
</event>
<event>
 4    1  0.1589319E+006  0.2421784E+02  0.7546771E-02  0.1477747E+00
         21   -1    0    0  502  501  0.00000000000E+00  0.00000000000E+00  0.16997024245E+02  0.16997024245E+02  0.00000000000E+00 0. -1.
         21   -1    0    0  503  502 -0.00000000000E+00 -0.00000000000E+00 -0.20544339601E+03  0.20544339601E+03  0.00000000000E+00 0. -1.
         21    1    1    2  503  504  0.24119700421E+02 -0.21779989228E+01 -0.19567407053E+03  0.19716704974E+03  0.00000000000E+00 0. -1.
         21    1    1    2  504  501 -0.24119700421E+02  0.21779989228E+01  0.72276987610E+01  0.25273370513E+02  0.00000000000E+00 0. -1.
</event>
<event>
 4    1  0.1589319E+006  0.2388899E+02  0.7546771E-02  0.1481627E+00
         21   -1    0    0  504  501  0.00000000000E+00  0.00000000000E+00  0.44824779997E+02  0.44824779997E+02  0.00000000000E+00 0.  1.
         21   -1    0    0  503  502 -0.00000000000E+00 -0.00000000000E+00 -0.16213482288E+03  0.16213482288E+03  0.00000000000E+00 0.  1.
         21    1    1    2  503  501 -0.15723212102E+02 -0.17985116383E+02  0.40678917610E+02  0.47174761770E+02  0.00000000000E+00 0.  1.
         21    1    1    2  504  502  0.15723212102E+02  0.17985116383E+02 -0.15798896049E+03  0.15978484111E+03  0.00000000000E+00 0.  1.
</event>
<event>
 4    1  0.1589319E+006  0.2143768E+02  0.7546771E-02  0.1513107E+00
         21   -1    0    0  504  501  0.00000000000E+00  0.00000000000E+00  0.19645904996E+03  0.19645904996E+03  0.00000000000E+00 0.  1.
         21   -1    0    0  501  502 -0.00000000000E+00 -0.00000000000E+00 -0.20463179087E+02  0.20463179087E+02  0.00000000000E+00 0.  1.
         21    1    1    2  503  502 -0.11803559991E+02  0.17895529281E+02 -0.14075621904E+02  0.25645606420E+02  0.00000000000E+00 0.  1.
         21    1    1    2  504  503  0.11803559991E+02 -0.17895529281E+02  0.19007149277E+03  0.19127662262E+03  0.00000000000E+00 0.  1.
</event>
<event>
 4    1  0.1589319E+006  0.2236582E+02  0.7546771E-02  0.1500619E+00
         21   -1    0    0  502  501  0.00000000000E+00  0.00000000000E+00  0.42737375119E+03  0.42737375119E+03  0.00000000000E+00 0.  1.
         21   -1    0    0  503  502 -0.00000000000E+00 -0.00000000000E+00 -0.10448480474E+02  0.10448480474E+02  0.00000000000E+00 0.  1.
         21    1    1    2  503  504 -0.30042087361E+01 -0.22163134801E+02  0.21771908422E+01  0.22471536982E+02  0.00000000000E+00 0.  1.
         21    1    1    2  504  501  0.30042087361E+01  0.22163134801E+02  0.41474807987E+03  0.41535069468E+03  0.00000000000E+00 0.  1.
</event>
<event>
 4    1  0.1589319E+006  0.2318458E+02  0.7546771E-02  0.1490193E+00
         21   -1    0    0  504  501  0.00000000000E+00  0.00000000000E+00  0.41504119040E+02  0.41504119040E+02  0.00000000000E+00 0.  1.
         21   -1    0    0  503  502 -0.00000000000E+00 -0.00000000000E+00 -0.30459678166E+02  0.30459678166E+02  0.00000000000E+00 0. -1.
         21    1    1    2  503  501  0.16183656251E+02  0.16601620619E+02 -0.21757926069E+02  0.31795155034E+02  0.00000000000E+00 0. -1.
         21    1    1    2  504  502 -0.16183656251E+02 -0.16601620619E+02  0.32802366943E+02  0.40168642172E+02  0.00000000000E+00 0.  1.
</event>
<event>
 4    1  0.1589319E+006  0.2323129E+02  0.7546771E-02  0.1489614E+00
         21   -1    0    0  502  501  0.00000000000E+00  0.00000000000E+00  0.16108195280E+03  0.16108195280E+03  0.00000000000E+00 0.  1.
         21   -1    0    0  504  502 -0.00000000000E+00 -0.00000000000E+00 -0.27750270160E+02  0.27750270160E+02  0.00000000000E+00 0.  1.
         21    1    1    2  503  501 -0.14782420728E+02  0.17921302067E+02  0.15519901563E+03  0.15692809654E+03  0.00000000000E+00 0.  1.
         21    1    1    2  504  503  0.14782420728E+02 -0.17921302067E+02 -0.21867332993E+02  0.31904126420E+02  0.00000000000E+00 0.  1.
</event>
<event>
 4    1  0.1589319E+006  0.2279745E+02  0.7546771E-02  0.1495057E+00
         21   -1    0    0  502  501  0.00000000000E+00  0.00000000000E+00  0.11528092308E+02  0.11528092308E+02  0.00000000000E+00 0.  1.
         21   -1    0    0  503  502 -0.00000000000E+00 -0.00000000000E+00 -0.14837019612E+03  0.14837019612E+03  0.00000000000E+00 0. -1.
         21    1    1    2  503  504  0.14717169603E+02  0.17410596168E+02 -0.13512678926E+03  0.13703639340E+03  0.00000000000E+00 0. -1.
         21    1    1    2  504  501 -0.14717169603E+02 -0.17410596168E+02 -0.17153145466E+01  0.22861895023E+02  0.00000000000E+00 0.  1.
</event>
<event>
 4    1  0.1589319E+006  0.2106476E+02  0.7546771E-02  0.1518342E+00
         21   -1    0    0  504  501  0.00000000000E+00  0.00000000000E+00  0.15172104288E+01  0.15172104288E+01  0.00000000000E+00 0.  1.
         21   -1    0    0  501  502 -0.00000000000E+00 -0.00000000000E+00 -0.29883423777E+03  0.29883423777E+03  0.00000000000E+00 0.  1.
         21    1    1    2  503  502  0.19005416067E+01  0.20978849212E+02 -0.17059062715E+03  0.17188625961E+03  0.00000000000E+00 0.  1.
         21    1    1    2  504  503 -0.19005416067E+01 -0.20978849212E+02 -0.12672640019E+03  0.12846518858E+03  0.00000000000E+00 0.  1.
</event>
<event>
 4    1  0.1589319E+006  0.3279775E+02  0.7546771E-02  0.1396744E+00
         21   -1    0    0  503  501  0.00000000000E+00  0.00000000000E+00  0.63440541350E+03  0.63440541350E+03  0.00000000000E+00 0. -1.
         21   -1    0    0  504  502 -0.00000000000E+00 -0.00000000000E+00 -0.26477902815E+01  0.26477902815E+01  0.00000000000E+00 0. -1.
         21    1    1    2  503  502 -0.14318672368E+02  0.29507080015E+02  0.50689396737E+03  0.50795392144E+03  0.00000000000E+00 0. -1.
         21    1    1    2  504  501  0.14318672368E+02 -0.29507080015E+02  0.12486365585E+03  0.12909928234E+03  0.00000000000E+00 0. -1.
</event>
<event>
 4    1  0.1589319E+006  0.4480592E+02  0.7546771E-02  0.1322413E+00
         21   -1    0    0  503  501  0.00000000000E+00  0.00000000000E+00  0.13403917871E+03  0.13403917871E+03  0.00000000000E+00 0.  1.
         21   -1    0    0  504  502 -0.00000000000E+00 -0.00000000000E+00 -0.19296745497E+02  0.19296745497E+02  0.00000000000E+00 0.  1.
         21    1    1    2  503  502  0.44300929065E+02  0.67080717835E+01  0.93643617324E+02  0.10381087423E+03  0.00000000000E+00 0.  1.
         21    1    1    2  504  501 -0.44300929065E+02 -0.67080717835E+01  0.21098815885E+02  0.49525049973E+02  0.00000000000E+00 0.  1.
</event>
<event>
 4    1  0.1589319E+006  0.2109474E+02  0.7546771E-02  0.1517916E+00
         21   -1    0    0  504  501  0.00000000000E+00  0.00000000000E+00  0.49756147582E+02  0.49756147582E+02  0.00000000000E+00 0. -1.
         21   -1    0    0  503  502 -0.00000000000E+00 -0.00000000000E+00 -0.32324350123E+02  0.32324350123E+02  0.00000000000E+00 0.  1.
         21    1    1    2  503  501  0.14274144093E+02 -0.15531802203E+02 -0.26188194516E+02  0.33627512564E+02  0.00000000000E+00 0.  1.
         21    1    1    2  504  502 -0.14274144093E+02  0.15531802203E+02  0.43619991974E+02  0.48452985141E+02  0.00000000000E+00 0. -1.
</event>
<event>
 4    1  0.1589319E+006  0.2525049E+02  0.7546771E-02  0.1466021E+00
         21   -1    0    0  504  501  0.00000000000E+00  0.00000000000E+00  0.11100729650E+03  0.11100729650E+03  0.00000000000E+00 0.  1.
         21   -1    0    0  503  502 -0.00000000000E+00 -0.00000000000E+00 -0.31800476721E+02  0.31800476721E+02  0.00000000000E+00 0.  1.
         21    1    1    2  503  501 -0.11333423219E+02  0.22564144902E+02 -0.25031298604E+02  0.35554929712E+02  0.00000000000E+00 0.  1.
         21    1    1    2  504  502  0.11333423219E+02 -0.22564144902E+02  0.10423811838E+03  0.10725284351E+03  0.00000000000E+00 0.  1.
</event>
<event>
 4    1  0.1589319E+006  0.2276161E+02  0.7546771E-02  0.1495513E+00
         21   -1    0    0  503  501  0.00000000000E+00  0.00000000000E+00  0.32327064927E+02  0.32327064927E+02  0.00000000000E+00 0.  1.
         21   -1    0    0  501  502 -0.00000000000E+00 -0.00000000000E+00 -0.80536461180E+02  0.80536461180E+02  0.00000000000E+00 0. -1.
         21    1    1    2  503  504 -0.65812617742E+01  0.21789401945E+02  0.26401025574E+02  0.34858359041E+02  0.00000000000E+00 0.  1.
         21    1    1    2  504  502  0.65812617742E+01 -0.21789401945E+02 -0.74610421827E+02  0.78005167066E+02  0.00000000000E+00 0. -1.
</event>
<event>
 4    1  0.1589319E+006  0.2208795E+02  0.7546771E-02  0.1504280E+00
         21   -1    0    0  504  501  0.00000000000E+00  0.00000000000E+00  0.19959555194E+03  0.19959555194E+03  0.00000000000E+00 0. -1.
         21   -1    0    0  503  502 -0.00000000000E+00 -0.00000000000E+00 -0.77830373386E+03  0.77830373386E+03  0.00000000000E+00 0.  1.
         21    1    1    2  503  501 -0.76198874759E+01 -0.20731974356E+02 -0.77753533574E+03  0.77784900576E+03  0.00000000000E+00 0.  1.
         21    1    1    2  504  502  0.76198874759E+01  0.20731974356E+02  0.19882715382E+03  0.20005028004E+03  0.00000000000E+00 0. -1.
</event>
<event>
 4    1  0.1589319E+006  0.2072209E+02  0.7546771E-02  0.1523270E+00
         21   -1    0    0  503  501  0.00000000000E+00  0.00000000000E+00  0.39496731268E+02  0.39496731268E+02  0.00000000000E+00 0. -1.
         21   -1    0    0  504  502 -0.00000000000E+00 -0.00000000000E+00 -0.51450907977E+03  0.51450907977E+03  0.00000000000E+00 0. -1.
         21    1    1    2  503  502  0.11089733346E+02 -0.17504938913E+02  0.36554478854E+02  0.42019459733E+02  0.00000000000E+00 0. -1.
         21    1    1    2  504  501 -0.11089733346E+02  0.17504938913E+02 -0.51156682735E+03  0.51198635130E+03  0.00000000000E+00 0. -1.
</event>
<event>
 4    1  0.1589319E+006  0.3343261E+02  0.7546771E-02  0.1391930E+00
         21   -1    0    0  503  501  0.00000000000E+00  0.00000000000E+00  0.11258611685E+01  0.11258611685E+01  0.00000000000E+00 0. -1.
         21   -1    0    0  504  502 -0.00000000000E+00 -0.00000000000E+00 -0.15736564913E+04  0.15736564913E+04  0.00000000000E+00 0. -1.
         21    1    1    2  503  502  0.30642453549E+02 -0.13370831522E+02 -0.30788283172E+03  0.30969271409E+03  0.00000000000E+00 0. -1.
         21    1    1    2  504  501 -0.30642453549E+02  0.13370831522E+02 -0.12646477985E+04  0.12650896384E+04  0.00000000000E+00 0. -1.
</event>
<event>
 4    1  0.1589319E+006  0.2086677E+02  0.7546771E-02  0.1521176E+00
         21   -1    0    0  503  501  0.00000000000E+00  0.00000000000E+00  0.14371885335E+03  0.14371885335E+03  0.00000000000E+00 0.  1.
         21   -1    0    0  504  502 -0.00000000000E+00 -0.00000000000E+00 -0.50865753628E+01  0.50865753628E+01  0.00000000000E+00 0. -1.
         21    1    1    2  503  502  0.20758856854E+02  0.21193769633E+01  0.22002939989E+02  0.30324103693E+02  0.00000000000E+00 0. -1.
         21    1    1    2  504  501 -0.20758856854E+02 -0.21193769633E+01  0.11662933800E+03  0.11848132502E+03  0.00000000000E+00 0.  1.
</event>
<event>
 4    1  0.1589319E+006  0.2453813E+02  0.7546771E-02  0.1474037E+00
         21   -1    0    0  504  501  0.00000000000E+00  0.00000000000E+00  0.14723669915E+03  0.14723669915E+03  0.00000000000E+00 0. -1.
         21   -1    0    0  503  502 -0.00000000000E+00 -0.00000000000E+00 -0.30513176143E+02  0.30513176143E+02  0.00000000000E+00 0. -1.
         21    1    1    2  503  501  0.12527268993E+02  0.21099459278E+02 -0.24343376292E+02  0.34564716396E+02  0.00000000000E+00 0. -1.
         21    1    1    2  504  502 -0.12527268993E+02 -0.21099459278E+02  0.14106689930E+03  0.14318515890E+03  0.00000000000E+00 0. -1.
</event>
<event>
 4    1  0.1589319E+006  0.3071151E+02  0.7546771E-02  0.1413512E+00
         21   -1    0    0  503  501  0.00000000000E+00  0.00000000000E+00  0.12447972301E+03  0.12447972301E+03  0.00000000000E+00 0. -1.
         21   -1    0    0  504  502 -0.00000000000E+00 -0.00000000000E+00 -0.37069955509E+03  0.37069955509E+03  0.00000000000E+00 0. -1.
         21    1    1    2  503  502  0.12101380153E+02 -0.28226824988E+02 -0.36815611986E+03  0.36943487334E+03  0.00000000000E+00 0. -1.
         21    1    1    2  504  501 -0.12101380153E+02  0.28226824988E+02  0.12193628778E+03  0.12574440476E+03  0.00000000000E+00 0. -1.
</event>
<event>
 4    1  0.1589319E+006  0.2358136E+02  0.7546771E-02  0.1485324E+00
         21   -1    0    0  502  501  0.00000000000E+00  0.00000000000E+00  0.33704743160E+03  0.33704743160E+03  0.00000000000E+00 0.  1.
         21   -1    0    0  504  502 -0.00000000000E+00 -0.00000000000E+00 -0.54967030309E+01  0.54967030309E+01  0.00000000000E+00 0. -1.
         21    1    1    2  503  501 -0.21428142138E+02  0.98445581703E+01  0.30905607102E+03  0.30995440896E+03  0.00000000000E+00 0.  1.
         21    1    1    2  504  503  0.21428142138E+02 -0.98445581703E+01  0.22494657558E+02  0.32589725677E+02  0.00000000000E+00 0. -1.
</event>
<event>
 4    1  0.1589319E+006  0.2459251E+02  0.7546771E-02  0.1473414E+00
         21   -1    0    0  503  501  0.00000000000E+00  0.00000000000E+00  0.56874562992E+02  0.56874562992E+02  0.00000000000E+00 0.  1.
         21   -1    0    0  504  502 -0.00000000000E+00 -0.00000000000E+00 -0.18247660810E+02  0.18247660810E+02  0.00000000000E+00 0. -1.
         21    1    1    2  503  502 -0.54435960987E+01  0.23982469142E+02  0.43576081913E+02  0.50036651362E+02  0.00000000000E+00 0.  1.
         21    1    1    2  504  501  0.54435960987E+01 -0.23982469142E+02 -0.49491797309E+01  0.25085572440E+02  0.00000000000E+00 0. -1.
</event>
<event>
 4    1  0.1589319E+006  0.2341283E+02  0.7546771E-02  0.1487378E+00
         21   -1    0    0  504  501  0.00000000000E+00  0.00000000000E+00  0.90297810710E+01  0.90297810710E+01  0.00000000000E+00 0. -1.
         21   -1    0    0  503  502 -0.00000000000E+00 -0.00000000000E+00 -0.95363496398E+02  0.95363496398E+02  0.00000000000E+00 0.  1.
         21    1    1    2  503  501 -0.17178510080E+02 -0.15907834555E+02 -0.74633548641E+02  0.78219735307E+02  0.00000000000E+00 0.  1.
         21    1    1    2  504  502  0.17178510080E+02  0.15907834555E+02 -0.11700166686E+02  0.26173542162E+02  0.00000000000E+00 0. -1.
</event>
<event>
 4    1  0.1589319E+006  0.2053661E+02  0.7546771E-02  0.1525985E+00
         21   -1    0    0  504  501  0.00000000000E+00  0.00000000000E+00  0.34333284985E+01  0.34333284985E+01  0.00000000000E+00 0.  1.
         21   -1    0    0  501  502 -0.00000000000E+00 -0.00000000000E+00 -0.25557922710E+03  0.25557922710E+03  0.00000000000E+00 0.  1.
         21    1    1    2  503  502 -0.13399209297E+02 -0.15563206698E+02 -0.21940411019E+03  0.22036314524E+03  0.00000000000E+00 0.  1.
         21    1    1    2  504  503  0.13399209297E+02  0.15563206698E+02 -0.32741788410E+02  0.38649410355E+02  0.00000000000E+00 0.  1.
</event>
<event>
 4    1  0.1589319E+006  0.4675569E+02  0.7546771E-02  0.1312887E+00
         21   -1    0    0  504  501  0.00000000000E+00  0.00000000000E+00  0.13234035080E+03  0.13234035080E+03  0.00000000000E+00 0.  1.
         21   -1    0    0  501  502 -0.00000000000E+00 -0.00000000000E+00 -0.33504210269E+02  0.33504210269E+02  0.00000000000E+00 0.  1.
         21    1    1    2  503  502 -0.43373808685E+02  0.17458729825E+02 -0.96238481044E+01  0.47735866801E+02  0.00000000000E+00 0.  1.
         21    1    1    2  504  503  0.43373808685E+02 -0.17458729825E+02  0.10845998864E+03  0.11810869427E+03  0.00000000000E+00 0.  1.
</event>
<event>
 4    1  0.1589319E+006  0.2084346E+02  0.7546771E-02  0.1521512E+00
         21   -1    0    0  504  501  0.00000000000E+00  0.00000000000E+00  0.10125271319E+02  0.10125271319E+02  0.00000000000E+00 0.  1.
         21   -1    0    0  503  502 -0.00000000000E+00 -0.00000000000E+00 -0.43545173831E+02  0.43545173831E+02  0.00000000000E+00 0.  1.
         21    1    1    2  503  501  0.20802304138E+02 -0.13092095666E+01 -0.19957389808E+02  0.28857361194E+02  0.00000000000E+00 0.  1.
         21    1    1    2  504  502 -0.20802304138E+02  0.13092095666E+01 -0.13462512704E+02  0.24813083956E+02  0.00000000000E+00 0.  1.
</event>
<event>
 4    1  0.1589319E+006  0.3646832E+02  0.7546771E-02  0.1370524E+00
         21   -1    0    0  504  501  0.00000000000E+00  0.00000000000E+00  0.30362738768E+01  0.30362738768E+01  0.00000000000E+00 0. -1.
         21   -1    0    0  503  502 -0.00000000000E+00 -0.00000000000E+00 -0.45956946462E+03  0.45956946462E+03  0.00000000000E+00 0.  1.
         21    1    1    2  503  501 -0.35943884510E+02 -0.61624170732E+01 -0.17817574432E+03  0.18186955237E+03  0.00000000000E+00 0. -1.
         21    1    1    2  504  502  0.35943884510E+02  0.61624170732E+01 -0.27835744643E+03  0.28073618612E+03  0.00000000000E+00 0.  1.
</event>
<event>
 4    1  0.1589319E+006  0.3054760E+02  0.7546771E-02  0.1414896E+00
         21   -1    0    0  504  501  0.00000000000E+00  0.00000000000E+00  0.82783022775E+01  0.82783022775E+01  0.00000000000E+00 0.  1.
         21   -1    0    0  501  502 -0.00000000000E+00 -0.00000000000E+00 -0.21290925386E+03  0.21290925386E+03  0.00000000000E+00 0.  1.
         21    1    1    2  503  502 -0.22660806415E+02 -0.20485209335E+02 -0.17817974240E+03  0.18077935875E+03  0.00000000000E+00 0.  1.
         21    1    1    2  504  503  0.22660806415E+02  0.20485209335E+02 -0.26451209186E+02  0.40408197390E+02  0.00000000000E+00 0.  1.
</event>
<event>
 4    1  0.1589319E+006  0.2991288E+02  0.7546771E-02  0.1420355E+00
         21   -1    0    0  503  501  0.00000000000E+00  0.00000000000E+00  0.26194509630E+01  0.26194509630E+01  0.00000000000E+00 0.  1.
         21   -1    0    0  504  502 -0.00000000000E+00 -0.00000000000E+00 -0.37031167504E+03  0.37031167504E+03  0.00000000000E+00 0.  1.
         21    1    1    2  503  502  0.14952273305E+02 -0.25907715556E+02 -0.23577561844E+03  0.23766556851E+03  0.00000000000E+00 0.  1.
         21    1    1    2  504  501 -0.14952273305E+02  0.25907715556E+02 -0.13191660564E+03  0.13526555750E+03  0.00000000000E+00 0.  1.
</event>
<event>
 4    1  0.1589319E+006  0.2196121E+02  0.7546771E-02  0.1505971E+00
         21   -1    0    0  504  501  0.00000000000E+00  0.00000000000E+00  0.17137321117E+01  0.17137321117E+01  0.00000000000E+00 0. -1.
         21   -1    0    0  501  502 -0.00000000000E+00 -0.00000000000E+00 -0.44474085595E+03  0.44474085595E+03  0.00000000000E+00 0. -1.
         21    1    1    2  503  502 -0.11124192132E+02 -0.18935336774E+02 -0.35678374676E+03  0.35745899986E+03  0.00000000000E+00 0. -1.
         21    1    1    2  504  503  0.11124192132E+02  0.18935336774E+02 -0.86243377078E+02  0.88995588200E+02  0.00000000000E+00 0. -1.
</event>
<event>
 4    1  0.1589319E+006  0.2098017E+02  0.7546771E-02  0.1519548E+00
         21   -1    0    0  504  501  0.00000000000E+00  0.00000000000E+00  0.33318392947E+01  0.33318392947E+01  0.00000000000E+00 0. -1.
         21   -1    0    0  503  502 -0.00000000000E+00 -0.00000000000E+00 -0.13428552626E+03  0.13428552626E+03  0.00000000000E+00 0. -1.
         21    1    1    2  503  501 -0.53665076457E+01  0.20282211230E+02 -0.74236044645E+02  0.77143747778E+02  0.00000000000E+00 0. -1.
         21    1    1    2  504  502  0.53665076457E+01 -0.20282211230E+02 -0.56717642324E+02  0.60473617780E+02  0.00000000000E+00 0. -1.
</event>
<event>
 4    1  0.1589319E+006  0.2026226E+02  0.7546771E-02  0.1530064E+00
         21   -1    0    0  504  501  0.00000000000E+00  0.00000000000E+00  0.25655814834E+01  0.25655814834E+01  0.00000000000E+00 0.  1.
         21   -1    0    0  501  502 -0.00000000000E+00 -0.00000000000E+00 -0.44307409037E+03  0.44307409037E+03  0.00000000000E+00 0.  1.
         21    1    1    2  503  502 -0.78144258266E+01  0.18694752599E+02 -0.39834690671E+03  0.39886190231E+03  0.00000000000E+00 0.  1.
         21    1    1    2  504  503  0.78144258266E+01 -0.18694752599E+02 -0.42161602178E+02  0.46777769549E+02  0.00000000000E+00 0.  1.
</event>
<event>
 4    1  0.1589319E+006  0.2285323E+02  0.7546771E-02  0.1494349E+00
         21   -1    0    0  502  501  0.00000000000E+00  0.00000000000E+00  0.12819565252E+02  0.12819565252E+02  0.00000000000E+00 0. -1.
         21   -1    0    0  503  502 -0.00000000000E+00 -0.00000000000E+00 -0.14571786607E+03  0.14571786607E+03  0.00000000000E+00 0. -1.
         21    1    1    2  503  504 -0.48610313244E+01  0.22330259483E+02 -0.13373041180E+03  0.13566905747E+03  0.00000000000E+00 0. -1.
         21    1    1    2  504  501  0.48610313244E+01 -0.22330259483E+02  0.83211098104E+00  0.22868373856E+02  0.00000000000E+00 0. -1.
</event>
<event>
 4    1  0.1589319E+006  0.2120909E+02  0.7546771E-02  0.1516300E+00
         21   -1    0    0  504  501  0.00000000000E+00  0.00000000000E+00  0.32936443484E+03  0.32936443484E+03  0.00000000000E+00 0. -1.
         21   -1    0    0  503  502 -0.00000000000E+00 -0.00000000000E+00 -0.13974348332E+01  0.13974348332E+01  0.00000000000E+00 0. -1.
         21    1    1    2  503  501 -0.20284675268E+02 -0.61933266292E+01  0.18889106782E+03  0.19007803883E+03  0.00000000000E+00 0. -1.
         21    1    1    2  504  502  0.20284675268E+02  0.61933266292E+01  0.13907593219E+03  0.14068383084E+03  0.00000000000E+00 0. -1.
</event>
<event>
 4    1  0.1589319E+006  0.3125752E+02  0.7546771E-02  0.1408974E+00
         21   -1    0    0  503  501  0.00000000000E+00  0.00000000000E+00  0.58642384451E+02  0.58642384451E+02  0.00000000000E+00 0.  1.
         21   -1    0    0  504  502 -0.00000000000E+00 -0.00000000000E+00 -0.18401801810E+02  0.18401801810E+02  0.00000000000E+00 0. -1.
         21    1    1    2  503  502  0.28447194524E+02 -0.12953365779E+02  0.31969021826E+02  0.44710747229E+02  0.00000000000E+00 0.  1.
         21    1    1    2  504  501 -0.28447194524E+02  0.12953365779E+02  0.82715608152E+01  0.32333439031E+02  0.00000000000E+00 0. -1.
</event>
<event>
 4    1  0.1589319E+006  0.2945096E+02  0.7546771E-02  0.1424428E+00
         21   -1    0    0  502  501  0.00000000000E+00  0.00000000000E+00  0.10017049808E+02  0.10017049808E+02  0.00000000000E+00 0. -1.
         21   -1    0    0  504  502 -0.00000000000E+00 -0.00000000000E+00 -0.15830202383E+03  0.15830202383E+03  0.00000000000E+00 0. -1.
         21    1    1    2  503  501  0.10689111146E+02  0.27442702567E+02 -0.17497519935E+02  0.34256710658E+02  0.00000000000E+00 0. -1.
         21    1    1    2  504  503 -0.10689111146E+02 -0.27442702567E+02 -0.13078745408E+03  0.13406236298E+03  0.00000000000E+00 0. -1.
</event>
<event>
 4    1  0.1589319E+006  0.3397690E+02  0.7546771E-02  0.1387902E+00
         21   -1    0    0  504  501  0.00000000000E+00  0.00000000000E+00  0.22834854927E+03  0.22834854927E+03  0.00000000000E+00 0.  1.
         21   -1    0    0  503  502 -0.00000000000E+00 -0.00000000000E+00 -0.51665478120E+01  0.51665478120E+01  0.00000000000E+00 0.  1.
         21    1    1    2  503  501 -0.17260342287E+02 -0.29266193523E+02  0.12870395119E+03  0.13311324709E+03  0.00000000000E+00 0.  1.
         21    1    1    2  504  502  0.17260342287E+02  0.29266193523E+02  0.94478050268E+02  0.10040184999E+03  0.00000000000E+00 0.  1.
</event>
<event>
 4    1  0.1589319E+006  0.2072413E+02  0.7546771E-02  0.1523240E+00
         21   -1    0    0  504  501  0.00000000000E+00  0.00000000000E+00  0.36845469717E+02  0.36845469717E+02  0.00000000000E+00 0. -1.
         21   -1    0    0  503  502 -0.00000000000E+00 -0.00000000000E+00 -0.25009947237E+02  0.25009947237E+02  0.00000000000E+00 0.  1.
         21    1    1    2  503  501 -0.20032808271E+02 -0.53081310944E+01  0.28516690162E+02  0.35251826629E+02  0.00000000000E+00 0. -1.
         21    1    1    2  504  502  0.20032808271E+02  0.53081310944E+01 -0.16681167682E+02  0.26603590325E+02  0.00000000000E+00 0.  1.
</event>
<event>
 4    1  0.1589319E+006  0.2091081E+02  0.7546771E-02  0.1520542E+00
         21   -1    0    0  504  501  0.00000000000E+00  0.00000000000E+00  0.83010104440E+02  0.83010104440E+02  0.00000000000E+00 0. -1.
         21   -1    0    0  503  502 -0.00000000000E+00 -0.00000000000E+00 -0.29214253658E+02  0.29214253658E+02  0.00000000000E+00 0.  1.
         21    1    1    2  503  501  0.10081799605E+02  0.18319916454E+02 -0.23904257292E+02  0.31759652687E+02  0.00000000000E+00 0.  1.
         21    1    1    2  504  502 -0.10081799605E+02 -0.18319916454E+02  0.77700108073E+02  0.80464705410E+02  0.00000000000E+00 0. -1.
</event>
<event>
 4    1  0.1589319E+006  0.2410726E+02  0.7546771E-02  0.1479043E+00
         21   -1    0    0  503  501  0.00000000000E+00  0.00000000000E+00  0.10056052783E+02  0.10056052783E+02  0.00000000000E+00 0.  1.
         21   -1    0    0  504  502 -0.00000000000E+00 -0.00000000000E+00 -0.63234110383E+02  0.63234110383E+02  0.00000000000E+00 0.  1.
         21    1    1    2  503  502 -0.94152307314E+01 -0.22192640979E+02 -0.37339357700E+02  0.44445331777E+02  0.00000000000E+00 0.  1.
         21    1    1    2  504  501  0.94152307314E+01  0.22192640979E+02 -0.15838699900E+02  0.28844831389E+02  0.00000000000E+00 0.  1.
</event>
<event>
 4    1  0.1589319E+006  0.2366348E+02  0.7546771E-02  0.1484331E+00
         21   -1    0    0  504  501  0.00000000000E+00  0.00000000000E+00  0.20566200699E+03  0.20566200699E+03  0.00000000000E+00 0.  1.
         21   -1    0    0  503  502 -0.00000000000E+00 -0.00000000000E+00 -0.29805805584E+01  0.29805805584E+01  0.00000000000E+00 0.  1.
         21    1    1    2  503  501  0.23565864031E+02 -0.21471648219E+01  0.13202486722E+03  0.13412876585E+03  0.00000000000E+00 0.  1.
         21    1    1    2  504  502 -0.23565864031E+02  0.21471648219E+01  0.70656559207E+02  0.74513821693E+02  0.00000000000E+00 0.  1.
</event>
<event>
 4    1  0.1589319E+006  0.3234775E+02  0.7546771E-02  0.1400234E+00
         21   -1    0    0  504  501  0.00000000000E+00  0.00000000000E+00  0.73345607363E+02  0.73345607363E+02  0.00000000000E+00 0.  1.
         21   -1    0    0  503  502 -0.00000000000E+00 -0.00000000000E+00 -0.13071729357E+03  0.13071729357E+03  0.00000000000E+00 0. -1.
         21    1    1    2  503  501  0.25551181155E+02 -0.19837192228E+02 -0.12498865495E+03  0.12910670362E+03  0.00000000000E+00 0. -1.
         21    1    1    2  504  502 -0.25551181155E+02  0.19837192228E+02  0.67616968741E+02  0.74956197313E+02  0.00000000000E+00 0.  1.
</event>
<event>
 4    1  0.1589319E+006  0.3156419E+02  0.7546771E-02  0.1406474E+00
         21   -1    0    0  502  501  0.00000000000E+00  0.00000000000E+00  0.16142068452E+02  0.16142068452E+02  0.00000000000E+00 0.  1.
         21   -1    0    0  503  502 -0.00000000000E+00 -0.00000000000E+00 -0.19912684405E+03  0.19912684405E+03  0.00000000000E+00 0. -1.
         21    1    1    2  503  504  0.24381195870E+02 -0.20046330623E+02 -0.18090312107E+03  0.18363615466E+03  0.00000000000E+00 0. -1.
         21    1    1    2  504  501 -0.24381195870E+02  0.20046330623E+02 -0.20816545286E+01  0.31632757848E+02  0.00000000000E+00 0.  1.
</event>
<event>
 4    1  0.1589319E+006  0.2034765E+02  0.7546771E-02  0.1528786E+00
         21   -1    0    0  503  501  0.00000000000E+00  0.00000000000E+00  0.52085674678E+01  0.52085674678E+01  0.00000000000E+00 0.  1.
         21   -1    0    0  501  502 -0.00000000000E+00 -0.00000000000E+00 -0.25533555500E+03  0.25533555500E+03  0.00000000000E+00 0. -1.
         21    1    1    2  503  504 -0.99295884903E+01 -0.17760352370E+02 -0.16954493017E+02  0.26485499379E+02  0.00000000000E+00 0.  1.
         21    1    1    2  504  502  0.99295884903E+01  0.17760352370E+02 -0.23317249451E+03  0.23405862309E+03  0.00000000000E+00 0. -1.
</event>
<event>
 4    1  0.1589319E+006  0.2783334E+02  0.7546771E-02  0.1439412E+00
         21   -1    0    0  503  501  0.00000000000E+00  0.00000000000E+00  0.80731104870E+02  0.80731104870E+02  0.00000000000E+00 0.  1.
         21   -1    0    0  504  502 -0.00000000000E+00 -0.00000000000E+00 -0.14373112981E+03  0.14373112981E+03  0.00000000000E+00 0. -1.
         21    1    1    2  503  502  0.24258455304E+02  0.13646325364E+02 -0.13991994947E+03  0.14266144226E+03  0.00000000000E+00 0. -1.
         21    1    1    2  504  501 -0.24258455304E+02 -0.13646325364E+02  0.76919924531E+02  0.81800792414E+02  0.00000000000E+00 0.  1.
</event>
<event>
 4    1  0.1589319E+006  0.2695849E+02  0.7546771E-02  0.1448026E+00
         21   -1    0    0  504  501  0.00000000000E+00  0.00000000000E+00  0.28613929958E+02  0.28613929958E+02  0.00000000000E+00 0.  1.
         21   -1    0    0  503  502 -0.00000000000E+00 -0.00000000000E+00 -0.27578669712E+02  0.27578669712E+02  0.00000000000E+00 0.  1.
         21    1    1    2  503  501 -0.61998164616E+01 -0.26235899315E+02 -0.73814308821E+01  0.27950772062E+02  0.00000000000E+00 0.  1.
         21    1    1    2  504  502  0.61998164616E+01  0.26235899315E+02  0.84166911281E+01  0.28241827607E+02  0.00000000000E+00 0.  1.
</event>
<event>
 4    1  0.1589319E+006  0.2053110E+02  0.7546771E-02  0.1526066E+00
         21   -1    0    0  503  501  0.00000000000E+00  0.00000000000E+00  0.25201855978E+02  0.25201855978E+02  0.00000000000E+00 0. -1.
         21   -1    0    0  504  502 -0.00000000000E+00 -0.00000000000E+00 -0.69327473109E+02  0.69327473109E+02  0.00000000000E+00 0.  1.
         21    1    1    2  503  502 -0.20447559140E+02 -0.18502406152E+01 -0.63232999100E+02  0.66482616075E+02  0.00000000000E+00 0.  1.
         21    1    1    2  504  501  0.20447559140E+02  0.18502406152E+01  0.19107381969E+02  0.28046713012E+02  0.00000000000E+00 0. -1.
</event>
<event>
 4    1  0.1589319E+006  0.9003706E+02  0.7546771E-02  0.1182290E+00
         21   -1    0    0  502  501  0.00000000000E+00  0.00000000000E+00  0.78913840400E+02  0.78913840400E+02  0.00000000000E+00 0.  1.
         21   -1    0    0  503  502 -0.00000000000E+00 -0.00000000000E+00 -0.62360959711E+03  0.62360959711E+03  0.00000000000E+00 0.  1.
         21    1    1    2  503  504  0.89973499862E+02  0.33826186754E+01 -0.59337658688E+03  0.60016868182E+03  0.00000000000E+00 0.  1.
         21    1    1    2  504  501 -0.89973499862E+02 -0.33826186754E+01  0.48680830166E+02  0.10235475569E+03  0.00000000000E+00 0.  1.
</event>
<event>
 4    1  0.1589319E+006  0.2132939E+02  0.7546771E-02  0.1514614E+00
         21   -1    0    0  502  501  0.00000000000E+00  0.00000000000E+00  0.11810166473E+02  0.11810166473E+02  0.00000000000E+00 0.  1.
         21   -1    0    0  503  502 -0.00000000000E+00 -0.00000000000E+00 -0.52071785825E+02  0.52071785825E+02  0.00000000000E+00 0.  1.
         21    1    1    2  503  504 -0.21237400058E+02  0.19787659726E+01 -0.36424699474E+02  0.42210205019E+02  0.00000000000E+00 0.  1.
         21    1    1    2  504  501  0.21237400058E+02 -0.19787659726E+01 -0.38369198779E+01  0.21671747280E+02  0.00000000000E+00 0.  1.
</event>
<event>
 4    1  0.1589319E+006  0.2109198E+02  0.7546771E-02  0.1517956E+00
         21   -1    0    0  503  501  0.00000000000E+00  0.00000000000E+00  0.10843014607E+04  0.10843014607E+04  0.00000000000E+00 0. -1.
         21   -1    0    0  504  502 -0.00000000000E+00 -0.00000000000E+00 -0.13031495875E+01  0.13031495875E+01  0.00000000000E+00 0.  1.
         21    1    1    2  503  502 -0.12402336041E+02 -0.17060297028E+02  0.92197974314E+02  0.94579797745E+02  0.00000000000E+00 0.  1.
         21    1    1    2  504  501  0.12402336041E+02  0.17060297028E+02  0.99080033683E+03  0.99102481257E+03  0.00000000000E+00 0. -1.
</event>
<event>
 4    1  0.1589319E+006  0.3369362E+02  0.7546771E-02  0.1389988E+00
         21   -1    0    0  503  501  0.00000000000E+00  0.00000000000E+00  0.34542213156E+03  0.34542213156E+03  0.00000000000E+00 0.  1.
         21   -1    0    0  504  502 -0.00000000000E+00 -0.00000000000E+00 -0.71743161557E+01  0.71743161557E+01  0.00000000000E+00 0.  1.
         21    1    1    2  503  502 -0.41446520605E+01  0.33437727673E+02  0.29890328938E+03  0.30079633670E+03  0.00000000000E+00 0.  1.
         21    1    1    2  504  501  0.41446520605E+01 -0.33437727673E+02  0.39344526022E+02  0.51800111009E+02  0.00000000000E+00 0.  1.
</event>
<event>
 4    1  0.1589319E+006  0.2070492E+02  0.7546771E-02  0.1523520E+00
         21   -1    0    0  504  501  0.00000000000E+00  0.00000000000E+00  0.49121990286E+02  0.49121990286E+02  0.00000000000E+00 0. -1.
         21   -1    0    0  503  502 -0.00000000000E+00 -0.00000000000E+00 -0.89986093624E+01  0.89986093624E+01  0.00000000000E+00 0. -1.
         21    1    1    2  503  501  0.12924251439E+02 -0.16175833182E+02  0.25109269086E+02  0.32544880526E+02  0.00000000000E+00 0. -1.
         21    1    1    2  504  502 -0.12924251439E+02  0.16175833182E+02  0.15014111838E+02  0.25575719123E+02  0.00000000000E+00 0. -1.
</event>
<event>
 4    1  0.1589319E+006  0.2319657E+02  0.7546771E-02  0.1490044E+00
         21   -1    0    0  503  501  0.00000000000E+00  0.00000000000E+00  0.83338832485E+02  0.83338832485E+02  0.00000000000E+00 0. -1.
         21   -1    0    0  504  502 -0.00000000000E+00 -0.00000000000E+00 -0.36112181127E+02  0.36112181127E+02  0.00000000000E+00 0.  1.
         21    1    1    2  503  502 -0.21671659210E+02  0.82716508747E+01  0.77736915882E+02  0.81124035353E+02  0.00000000000E+00 0. -1.
         21    1    1    2  504  501  0.21671659210E+02 -0.82716508747E+01 -0.30510264524E+02  0.38326978259E+02  0.00000000000E+00 0.  1.
</event>
<event>
 4    1  0.1589319E+006  0.5289091E+02  0.7546771E-02  0.1286103E+00
         21   -1    0    0  502  501  0.00000000000E+00  0.00000000000E+00  0.25555213864E+03  0.25555213864E+03  0.00000000000E+00 0. -1.
         21   -1    0    0  503  502 -0.00000000000E+00 -0.00000000000E+00 -0.60428769430E+02  0.60428769430E+02  0.00000000000E+00 0.  1.
         21    1    1    2  503  504  0.51701166209E+02 -0.11155170565E+02 -0.45404382728E+02  0.69706573496E+02  0.00000000000E+00 0.  1.
         21    1    1    2  504  501 -0.51701166209E+02  0.11155170565E+02  0.24052775194E+03  0.24627433457E+03  0.00000000000E+00 0. -1.
</event>
<event>
 4    1  0.1589319E+006  0.2757364E+02  0.7546771E-02  0.1441929E+00
         21   -1    0    0  502  501  0.00000000000E+00  0.00000000000E+00  0.42531064173E+02  0.42531064173E+02  0.00000000000E+00 0. -1.
         21   -1    0    0  504  502 -0.00000000000E+00 -0.00000000000E+00 -0.22370739734E+02  0.22370739734E+02  0.00000000000E+00 0. -1.
         21    1    1    2  503  501  0.27268730437E+02  0.40892238410E+01  0.24625239467E+02  0.36969011754E+02  0.00000000000E+00 0. -1.
         21    1    1    2  504  503 -0.27268730437E+02 -0.40892238410E+01 -0.44649150273E+01  0.27932792153E+02  0.00000000000E+00 0. -1.
</event>
<event>
 4    1  0.1589319E+006  0.2792599E+02  0.7546771E-02  0.1438522E+00
         21   -1    0    0  502  501  0.00000000000E+00  0.00000000000E+00  0.79261516811E+01  0.79261516811E+01  0.00000000000E+00 0.  1.
         21   -1    0    0  503  502 -0.00000000000E+00 -0.00000000000E+00 -0.12369135474E+03  0.12369135474E+03  0.00000000000E+00 0. -1.
         21    1    1    2  503  504 -0.49900465659E+01  0.27476542169E+02 -0.87645720362E+02  0.91987136232E+02  0.00000000000E+00 0. -1.
         21    1    1    2  504  501  0.49900465659E+01 -0.27476542169E+02 -0.28119482698E+02  0.39630370191E+02  0.00000000000E+00 0.  1.
</event>
<event>
 4    1  0.1589319E+006  0.2132220E+02  0.7546771E-02  0.1514714E+00
         21   -1    0    0  504  501  0.00000000000E+00  0.00000000000E+00  0.11451348752E+02  0.11451348752E+02  0.00000000000E+00 0.  1.
         21   -1    0    0  501  502 -0.00000000000E+00 -0.00000000000E+00 -0.14823694637E+03  0.14823694637E+03  0.00000000000E+00 0.  1.
         21    1    1    2  503  502  0.71750606256E+01  0.20078717309E+02 -0.13671322099E+03  0.13836596828E+03  0.00000000000E+00 0.  1.
         21    1    1    2  504  503 -0.71750606256E+01 -0.20078717309E+02 -0.72376627881E-01  0.21322326846E+02  0.00000000000E+00 0.  1.
</event>
<event>
 4    1  0.1589319E+006  0.2152944E+02  0.7546771E-02  0.1511838E+00
         21   -1    0    0  503  501  0.00000000000E+00  0.00000000000E+00  0.46132618480E+02  0.46132618480E+02  0.00000000000E+00 0. -1.
         21   -1    0    0  501  502 -0.00000000000E+00 -0.00000000000E+00 -0.10276507767E+03  0.10276507767E+03  0.00000000000E+00 0.  1.
         21    1    1    2  503  504  0.11732141701E+02 -0.18051973424E+02  0.42399540206E+02  0.47552475257E+02  0.00000000000E+00 0. -1.
         21    1    1    2  504  502 -0.11732141701E+02  0.18051973424E+02 -0.99031999397E+02  0.10134522089E+03  0.00000000000E+00 0.  1.
</event>
<event>
 4    1  0.1589319E+006  0.2709849E+02  0.7546771E-02  0.1446621E+00
         21   -1    0    0  502  501  0.00000000000E+00  0.00000000000E+00  0.35357568705E+02  0.35357568705E+02  0.00000000000E+00 0.  1.
         21   -1    0    0  503  502 -0.00000000000E+00 -0.00000000000E+00 -0.38807491512E+02  0.38807491512E+02  0.00000000000E+00 0. -1.
         21    1    1    2  503  504 -0.26348922595E+02 -0.63294739207E+01 -0.27007241404E+02  0.38258581394E+02  0.00000000000E+00 0. -1.
         21    1    1    2  504  501  0.26348922595E+02  0.63294739207E+01  0.23557318597E+02  0.35906478823E+02  0.00000000000E+00 0.  1.
</event>
<event>
 4    1  0.1589319E+006  0.2491265E+02  0.7546771E-02  0.1469783E+00
         21   -1    0    0  503  501  0.00000000000E+00  0.00000000000E+00  0.44645359153E+02  0.44645359153E+02  0.00000000000E+00 0.  1.
         21   -1    0    0  504  502 -0.00000000000E+00 -0.00000000000E+00 -0.19220952843E+02  0.19220952843E+02  0.00000000000E+00 0.  1.
         21    1    1    2  503  502 -0.20730477831E+01  0.24826252031E+02 -0.40868674557E+01  0.25245649182E+02  0.00000000000E+00 0.  1.
         21    1    1    2  504  501  0.20730477831E+01 -0.24826252031E+02  0.29511273765E+02  0.38620662814E+02  0.00000000000E+00 0.  1.
</event>
<event>
 4    1  0.1589319E+006  0.2035162E+02  0.7546771E-02  0.1528727E+00
         21   -1    0    0  503  501  0.00000000000E+00  0.00000000000E+00  0.50013413359E+02  0.50013413359E+02  0.00000000000E+00 0. -1.
         21   -1    0    0  504  502 -0.00000000000E+00 -0.00000000000E+00 -0.15150535631E+02  0.15150535631E+02  0.00000000000E+00 0. -1.
         21    1    1    2  503  502  0.20343834754E+02  0.56282544882E+00 -0.45072078800E+01  0.20844742931E+02  0.00000000000E+00 0. -1.
         21    1    1    2  504  501 -0.20343834754E+02 -0.56282544882E+00  0.39370085608E+02  0.44319206059E+02  0.00000000000E+00 0. -1.
</event>
<event>
 4    1  0.1589319E+006  0.2401840E+02  0.7546771E-02  0.1480091E+00
         21   -1    0    0  504  501  0.00000000000E+00  0.00000000000E+00  0.49502049983E+01  0.49502049983E+01  0.00000000000E+00 0. -1.
         21   -1    0    0  503  502 -0.00000000000E+00 -0.00000000000E+00 -0.11451156334E+04  0.11451156334E+04  0.00000000000E+00 0. -1.
         21    1    1    2  503  501  0.22882522248E+02 -0.72988947068E+01 -0.25094996549E+02  0.34736760646E+02  0.00000000000E+00 0. -1.
         21    1    1    2  504  502 -0.22882522248E+02  0.72988947068E+01 -0.11150704318E+04  0.11153290777E+04  0.00000000000E+00 0. -1.
</event>
<event>
 4    1  0.1589319E+006  0.2345351E+02  0.7546771E-02  0.1486881E+00
         21   -1    0    0  503  501  0.00000000000E+00  0.00000000000E+00  0.93327481191E+01  0.93327481191E+01  0.00000000000E+00 0. -1.
         21   -1    0    0  504  502 -0.00000000000E+00 -0.00000000000E+00 -0.11956990685E+03  0.11956990685E+03  0.00000000000E+00 0. -1.
         21    1    1    2  503  502  0.17681477842E+01  0.23386760331E+02 -0.92234716180E+01  0.25201970837E+02  0.00000000000E+00 0. -1.
         21    1    1    2  504  501 -0.17681477842E+01 -0.23386760331E+02 -0.10101368711E+03  0.10370068413E+03  0.00000000000E+00 0. -1.
</event>
<event>
 4    1  0.1589319E+006  0.2304665E+02  0.7546771E-02  0.1491913E+00
         21   -1    0    0  503  501  0.00000000000E+00  0.00000000000E+00  0.10868636662E+02  0.10868636662E+02  0.00000000000E+00 0. -1.
         21   -1    0    0  501  502 -0.00000000000E+00 -0.00000000000E+00 -0.27772820726E+03  0.27772820726E+03  0.00000000000E+00 0. -1.
         21    1    1    2  503  504  0.21959122178E+02  0.69960587306E+01 -0.24407207460E+01  0.23175525935E+02  0.00000000000E+00 0. -1.
         21    1    1    2  504  502 -0.21959122178E+02 -0.69960587306E+01 -0.26441884985E+03  0.26542131798E+03  0.00000000000E+00 0. -1.
</event>
<event>
 4    1  0.1589319E+006  0.3757692E+02  0.7546771E-02  0.1363301E+00
         21   -1    0    0  504  501  0.00000000000E+00  0.00000000000E+00  0.14997782180E+02  0.14997782180E+02  0.00000000000E+00 0.  1.
         21   -1    0    0  501  502 -0.00000000000E+00 -0.00000000000E+00 -0.24105783480E+03  0.24105783480E+03  0.00000000000E+00 0.  1.
         21    1    1    2  503  502  0.26186907501E+02 -0.26949405020E+02 -0.21297657560E+03  0.21626614693E+03  0.00000000000E+00 0.  1.
         21    1    1    2  504  503 -0.26186907501E+02  0.26949405020E+02 -0.13083477015E+02  0.39789470041E+02  0.00000000000E+00 0.  1.
</event>
<event>
 4    1  0.1589319E+006  0.3176605E+02  0.7546771E-02  0.1404846E+00
         21   -1    0    0  504  501  0.00000000000E+00  0.00000000000E+00  0.41868085833E+02  0.41868085833E+02  0.00000000000E+00 0. -1.
         21   -1    0    0  501  502 -0.00000000000E+00 -0.00000000000E+00 -0.39041308987E+02  0.39041308987E+02  0.00000000000E+00 0. -1.
         21    1    1    2  503  502 -0.28269003563E+02 -0.14489496887E+02 -0.23611943458E+02  0.39580373373E+02  0.00000000000E+00 0. -1.
         21    1    1    2  504  503  0.28269003563E+02  0.14489496887E+02  0.26438720305E+02  0.41329021447E+02  0.00000000000E+00 0. -1.
</event>
<event>
 4    1  0.1589319E+006  0.2021166E+02  0.7546771E-02  0.1530824E+00
         21   -1    0    0  504  501  0.00000000000E+00  0.00000000000E+00  0.17641982218E+02  0.17641982218E+02  0.00000000000E+00 0. -1.
         21   -1    0    0  503  502 -0.00000000000E+00 -0.00000000000E+00 -0.33262813515E+02  0.33262813515E+02  0.00000000000E+00 0. -1.
         21    1    1    2  503  501  0.19044834355E+02  0.67679864532E+01 -0.21840623784E+02  0.29757758711E+02  0.00000000000E+00 0. -1.
         21    1    1    2  504  502 -0.19044834355E+02 -0.67679864532E+01  0.62197924873E+01  0.21147037022E+02  0.00000000000E+00 0. -1.
</event>
<event>
 4    1  0.1589319E+006  0.2003761E+02  0.7546771E-02  0.1533461E+00
         21   -1    0    0  503  501  0.00000000000E+00  0.00000000000E+00  0.21030064000E+01  0.21030064000E+01  0.00000000000E+00 0.  1.
         21   -1    0    0  504  502 -0.00000000000E+00 -0.00000000000E+00 -0.20020958548E+03  0.20020958548E+03  0.00000000000E+00 0.  1.
         21    1    1    2  503  502 -0.10751843075E+02 -0.16908690340E+02 -0.12084288337E+03  0.12249289122E+03  0.00000000000E+00 0.  1.
         21    1    1    2  504  501  0.10751843075E+02  0.16908690340E+02 -0.77263695716E+02  0.79819700665E+02  0.00000000000E+00 0.  1.
</event>
<event>
 4    1  0.1589319E+006  0.2305909E+02  0.7546771E-02  0.1491757E+00
         21   -1    0    0  503  501  0.00000000000E+00  0.00000000000E+00  0.84339383929E+00  0.84339383929E+00  0.00000000000E+00 0. -1.
         21   -1    0    0  504  502 -0.00000000000E+00 -0.00000000000E+00 -0.63356265861E+03  0.63356265861E+03  0.00000000000E+00 0.  1.
         21    1    1    2  503  502  0.48092907534E+01 -0.22551997293E+02 -0.29414395931E+03  0.29504642119E+03  0.00000000000E+00 0.  1.
         21    1    1    2  504  501 -0.48092907534E+01  0.22551997293E+02 -0.33857530547E+03  0.33935963126E+03  0.00000000000E+00 0. -1.
</event>
<event>
 4    1  0.1589319E+006  0.2205284E+02  0.7546771E-02  0.1504747E+00
         21   -1    0    0  502  501  0.00000000000E+00  0.00000000000E+00  0.24325518458E+03  0.24325518458E+03  0.00000000000E+00 0.  1.
         21   -1    0    0  503  502 -0.00000000000E+00 -0.00000000000E+00 -0.22619505193E+01  0.22619505193E+01  0.00000000000E+00 0.  1.
         21    1    1    2  503  504 -0.12752233123E+02  0.17991899827E+02  0.78661518968E+02  0.81694323397E+02  0.00000000000E+00 0.  1.
         21    1    1    2  504  501  0.12752233123E+02 -0.17991899827E+02  0.16233171509E+03  0.16382281170E+03  0.00000000000E+00 0.  1.
</event>
<event>
 4    1  0.1589319E+006  0.2616102E+02  0.7546771E-02  0.1456223E+00
         21   -1    0    0  504  501  0.00000000000E+00  0.00000000000E+00  0.20923777983E+02  0.20923777983E+02  0.00000000000E+00 0.  1.
         21   -1    0    0  503  502 -0.00000000000E+00 -0.00000000000E+00 -0.35652830875E+02  0.35652830875E+02  0.00000000000E+00 0.  1.
         21    1    1    2  503  501  0.14806432637E+02  0.21567765725E+02 -0.15492932023E+02  0.30404438961E+02  0.00000000000E+00 0.  1.
         21    1    1    2  504  502 -0.14806432637E+02 -0.21567765725E+02  0.76387913088E+00  0.26172169898E+02  0.00000000000E+00 0.  1.
</event>
<event>
 4    1  0.1589319E+006  0.2098158E+02  0.7546771E-02  0.1519528E+00
         21   -1    0    0  504  501  0.00000000000E+00  0.00000000000E+00  0.77019984708E+01  0.77019984708E+01  0.00000000000E+00 0. -1.
         21   -1    0    0  503  502 -0.00000000000E+00 -0.00000000000E+00 -0.91581858816E+02  0.91581858816E+02  0.00000000000E+00 0. -1.
         21    1    1    2  503  501  0.20661430552E+02 -0.36513050367E+01 -0.11504668312E+02  0.23928730303E+02  0.00000000000E+00 0. -1.
         21    1    1    2  504  502 -0.20661430552E+02  0.36513050367E+01 -0.72375192033E+02  0.75355126983E+02  0.00000000000E+00 0. -1.
</event>
<event>
 4    1  0.1589319E+006  0.2499182E+02  0.7546771E-02  0.1468895E+00
         21   -1    0    0  504  501  0.00000000000E+00  0.00000000000E+00  0.17451303791E+03  0.17451303791E+03  0.00000000000E+00 0.  1.
         21   -1    0    0  503  502 -0.00000000000E+00 -0.00000000000E+00 -0.57781750432E+01  0.57781750432E+01  0.00000000000E+00 0.  1.
         21    1    1    2  503  501 -0.17038788773E+02 -0.18283076772E+02  0.28754729876E+02  0.38097581411E+02  0.00000000000E+00 0.  1.
         21    1    1    2  504  502  0.17038788773E+02  0.18283076772E+02  0.13998013299E+03  0.14219363154E+03  0.00000000000E+00 0.  1.
</event>
<event>
 4    1  0.1589319E+006  0.3128838E+02  0.7546771E-02  0.1408721E+00
         21   -1    0    0  504  501  0.00000000000E+00  0.00000000000E+00  0.62370792309E+01  0.62370792309E+01  0.00000000000E+00 0.  1.
         21   -1    0    0  503  502 -0.00000000000E+00 -0.00000000000E+00 -0.15697382609E+03  0.15697382609E+03  0.00000000000E+00 0.  1.
         21    1    1    2  503  501 -0.18941622486E+02 -0.24903366892E+02 -0.76174109326E+02  0.82349606415E+02  0.00000000000E+00 0.  1.
         21    1    1    2  504  502  0.18941622486E+02  0.24903366892E+02 -0.74562637535E+02  0.80861298908E+02  0.00000000000E+00 0.  1.
</event>
<event>
 4    1  0.1589319E+006  0.2290324E+02  0.7546771E-02  0.1493717E+00
         21   -1    0    0  503  501  0.00000000000E+00  0.00000000000E+00  0.33441630892E+02  0.33441630892E+02  0.00000000000E+00 0.  1.
         21   -1    0    0  501  502 -0.00000000000E+00 -0.00000000000E+00 -0.81449728166E+02  0.81449728166E+02  0.00000000000E+00 0. -1.
         21    1    1    2  503  504  0.13839020834E+02  0.18249385314E+02  0.27614577533E+02  0.35876502816E+02  0.00000000000E+00 0.  1.
         21    1    1    2  504  502 -0.13839020834E+02 -0.18249385314E+02 -0.75622674807E+02  0.79014856242E+02  0.00000000000E+00 0. -1.
</event>
<event>
 4    1  0.1589319E+006  0.2492418E+02  0.7546771E-02  0.1469653E+00
         21   -1    0    0  504  501  0.00000000000E+00  0.00000000000E+00  0.56662743167E+02  0.56662743167E+02  0.00000000000E+00 0. -1.
         21   -1    0    0  501  502 -0.00000000000E+00 -0.00000000000E+00 -0.45282135753E+03  0.45282135753E+03  0.00000000000E+00 0.  1.
         21    1    1    2  503  502  0.24600177934E+02 -0.40057576729E+01 -0.44971864978E+03  0.45040879078E+03  0.00000000000E+00 0.  1.
         21    1    1    2  504  503 -0.24600177934E+02  0.40057576729E+01  0.53560035415E+02  0.59075309923E+02  0.00000000000E+00 0. -1.
</event>
<event>
 4    1  0.1589319E+006  0.2185332E+02  0.7546771E-02  0.1507422E+00
         21   -1    0    0  503  501  0.00000000000E+00  0.00000000000E+00  0.24670861540E+02  0.24670861540E+02  0.00000000000E+00 0. -1.
         21   -1    0    0  504  502 -0.00000000000E+00 -0.00000000000E+00 -0.35919933445E+02  0.35919933445E+02  0.00000000000E+00 0. -1.
         21    1    1    2  503  502  0.21828006643E+02  0.10514471600E+01 -0.26196242564E+02  0.34114667514E+02  0.00000000000E+00 0. -1.
         21    1    1    2  504  501 -0.21828006643E+02 -0.10514471600E+01  0.14947170658E+02  0.26476127470E+02  0.00000000000E+00 0. -1.
</event>
<event>
 4    1  0.1589319E+006  0.2612695E+02  0.7546771E-02  0.1456581E+00
         21   -1    0    0  504  501  0.00000000000E+00  0.00000000000E+00  0.43212522510E+02  0.43212522510E+02  0.00000000000E+00 0. -1.
         21   -1    0    0  503  502 -0.00000000000E+00 -0.00000000000E+00 -0.36931200741E+02  0.36931200741E+02  0.00000000000E+00 0. -1.
         21    1    1    2  503  501 -0.17020209516E+02 -0.19822462002E+02  0.33454312838E+02  0.42447715831E+02  0.00000000000E+00 0. -1.
         21    1    1    2  504  502  0.17020209516E+02  0.19822462002E+02 -0.27172991069E+02  0.37696007420E+02  0.00000000000E+00 0. -1.
</event>
<event>
 4    1  0.1589319E+006  0.3527006E+02  0.7546771E-02  0.1378674E+00
         21   -1    0    0  502  501  0.00000000000E+00  0.00000000000E+00  0.21786554315E+02  0.21786554315E+02  0.00000000000E+00 0. -1.
         21   -1    0    0  503  502 -0.00000000000E+00 -0.00000000000E+00 -0.19237776721E+03  0.19237776721E+03  0.00000000000E+00 0.  1.
         21    1    1    2  503  504  0.23711227835E+02  0.26110440785E+02 -0.17509129065E+03  0.17860833549E+03  0.00000000000E+00 0.  1.
         21    1    1    2  504  501 -0.23711227835E+02 -0.26110440785E+02  0.45000777551E+01  0.35555986039E+02  0.00000000000E+00 0. -1.
</event>
<event>
 4    1  0.1589319E+006  0.3003460E+02  0.7546771E-02  0.1419296E+00
         21   -1    0    0  503  501  0.00000000000E+00  0.00000000000E+00  0.87548986268E+02  0.87548986268E+02  0.00000000000E+00 0. -1.
         21   -1    0    0  501  502 -0.00000000000E+00 -0.00000000000E+00 -0.14713446393E+02  0.14713446393E+02  0.00000000000E+00 0. -1.
         21    1    1    2  503  504  0.28381247604E+02  0.98276272249E+01  0.64409922561E+02  0.71068386761E+02  0.00000000000E+00 0. -1.
         21    1    1    2  504  502 -0.28381247604E+02 -0.98276272249E+01  0.84256173140E+01  0.31194045899E+02  0.00000000000E+00 0. -1.
</event>
<event>
 4    1  0.1589319E+006  0.2344575E+02  0.7546771E-02  0.1486975E+00
         21   -1    0    0  503  501  0.00000000000E+00  0.00000000000E+00  0.20395249673E+02  0.20395249673E+02  0.00000000000E+00 0. -1.
         21   -1    0    0  501  502 -0.00000000000E+00 -0.00000000000E+00 -0.50854325192E+02  0.50854325192E+02  0.00000000000E+00 0.  1.
         21    1    1    2  503  504  0.16330500572E+02 -0.16823143374E+02  0.91937244916E+01  0.25183883179E+02  0.00000000000E+00 0. -1.
         21    1    1    2  504  502 -0.16330500572E+02  0.16823143374E+02 -0.39652800010E+02  0.46065691687E+02  0.00000000000E+00 0.  1.
</event>
<event>
 4    1  0.1589319E+006  0.2428552E+02  0.7546771E-02  0.1476957E+00
         21   -1    0    0  503  501  0.00000000000E+00  0.00000000000E+00  0.16867126660E+02  0.16867126660E+02  0.00000000000E+00 0. -1.
         21   -1    0    0  504  502 -0.00000000000E+00 -0.00000000000E+00 -0.93161606760E+02  0.93161606760E+02  0.00000000000E+00 0. -1.
         21    1    1    2  503  502 -0.23524899559E+02  0.60304003019E+01  0.53338448235E+01  0.24864362603E+02  0.00000000000E+00 0. -1.
         21    1    1    2  504  501  0.23524899559E+02 -0.60304003019E+01 -0.81628324923E+02  0.85164370817E+02  0.00000000000E+00 0. -1.
</event>
<event>
 4    1  0.1589319E+006  0.2726179E+02  0.7546771E-02  0.1444996E+00
         21   -1    0    0  504  501  0.00000000000E+00  0.00000000000E+00  0.98243897557E+02  0.98243897557E+02  0.00000000000E+00 0. -1.
         21   -1    0    0  503  502 -0.00000000000E+00 -0.00000000000E+00 -0.52401696282E+02  0.52401696282E+02  0.00000000000E+00 0.  1.
         21    1    1    2  503  501 -0.24628713486E+02  0.11688964276E+02 -0.46752947526E+02  0.54120638542E+02  0.00000000000E+00 0.  1.
         21    1    1    2  504  502  0.24628713486E+02 -0.11688964276E+02  0.92595148800E+02  0.96524955297E+02  0.00000000000E+00 0. -1.
</event>
<event>
 4    1  0.1589319E+006  0.2094819E+02  0.7546771E-02  0.1520006E+00
         21   -1    0    0  504  501  0.00000000000E+00  0.00000000000E+00  0.20079388454E+02  0.20079388454E+02  0.00000000000E+00 0. -1.
         21   -1    0    0  503  502 -0.00000000000E+00 -0.00000000000E+00 -0.22362651675E+02  0.22362651675E+02  0.00000000000E+00 0. -1.
         21    1    1    2  503  501  0.12823680142E+02 -0.16564422657E+02 -0.43402422084E+01  0.21393096381E+02  0.00000000000E+00 0. -1.
         21    1    1    2  504  502 -0.12823680142E+02  0.16564422657E+02  0.20569789867E+01  0.21048943748E+02  0.00000000000E+00 0. -1.
</event>
<event>
 4    1  0.1589319E+006  0.2226526E+02  0.7546771E-02  0.1501936E+00
         21   -1    0    0  502  501  0.00000000000E+00  0.00000000000E+00  0.18480463703E+03  0.18480463703E+03  0.00000000000E+00 0.  1.
         21   -1    0    0  504  502 -0.00000000000E+00 -0.00000000000E+00 -0.13664155513E+02  0.13664155513E+02  0.00000000000E+00 0.  1.
         21    1    1    2  503  501 -0.83624470897E+01 -0.20635199607E+02  0.17453220481E+03  0.17594667517E+03  0.00000000000E+00 0.  1.
         21    1    1    2  504  503  0.83624470897E+01  0.20635199607E+02 -0.33917233000E+01  0.22522117376E+02  0.00000000000E+00 0.  1.
</event>
<event>
 4    1  0.1589319E+006  0.2096911E+02  0.7546771E-02  0.1519706E+00
         21   -1    0    0  503  501  0.00000000000E+00  0.00000000000E+00  0.39805860447E+01  0.39805860447E+01  0.00000000000E+00 0. -1.
         21   -1    0    0  504  502 -0.00000000000E+00 -0.00000000000E+00 -0.14798860134E+03  0.14798860134E+03  0.00000000000E+00 0. -1.
         21    1    1    2  503  502 -0.20681016122E+02 -0.34640043456E+01 -0.11026715181E+03  0.11224325602E+03  0.00000000000E+00 0. -1.
         21    1    1    2  504  501  0.20681016122E+02  0.34640043456E+01 -0.33740863481E+02  0.39725931360E+02  0.00000000000E+00 0. -1.
</event>
<event>
 4    1  0.1589319E+006  0.2495645E+02  0.7546771E-02  0.1469291E+00
         21   -1    0    0  503  501  0.00000000000E+00  0.00000000000E+00  0.28300025825E+02  0.28300025825E+02  0.00000000000E+00 0.  1.
         21   -1    0    0  504  502 -0.00000000000E+00 -0.00000000000E+00 -0.61590940353E+02  0.61590940353E+02  0.00000000000E+00 0. -1.
         21    1    1    2  503  502  0.13984188681E+02 -0.20670432062E+02 -0.52676943763E+02  0.58289662024E+02  0.00000000000E+00 0. -1.
         21    1    1    2  504  501 -0.13984188681E+02  0.20670432062E+02  0.19386029235E+02  0.31601304153E+02  0.00000000000E+00 0.  1.
</event>
<event>
 4    1  0.1589319E+006  0.3255590E+02  0.7546771E-02  0.1398611E+00
         21   -1    0    0  504  501  0.00000000000E+00  0.00000000000E+00  0.17661912925E+03  0.17661912925E+03  0.00000000000E+00 0. -1.
         21   -1    0    0  503  502 -0.00000000000E+00 -0.00000000000E+00 -0.34696745740E+02  0.34696745740E+02  0.00000000000E+00 0. -1.
         21    1    1    2  503  501  0.55862497417E+00  0.32551105649E+02 -0.25126270333E+02  0.41124396673E+02  0.00000000000E+00 0. -1.
         21    1    1    2  504  502 -0.55862497417E+00 -0.32551105649E+02  0.16704865384E+03  0.17019147831E+03  0.00000000000E+00 0. -1.
</event>
<event>
 4    1  0.1589319E+006  0.2171535E+02  0.7546771E-02  0.1509292E+00
         21   -1    0    0  502  501  0.00000000000E+00  0.00000000000E+00  0.25971256105E+02  0.25971256105E+02  0.00000000000E+00 0.  1.
         21   -1    0    0  503  502 -0.00000000000E+00 -0.00000000000E+00 -0.40561451274E+02  0.40561451274E+02  0.00000000000E+00 0.  1.
         21    1    1    2  503  504  0.87333615537E+01  0.19881769133E+02 -0.32018999553E+02  0.38688146508E+02  0.00000000000E+00 0.  1.
         21    1    1    2  504  501 -0.87333615537E+01 -0.19881769133E+02  0.17428804383E+02  0.27844560871E+02  0.00000000000E+00 0.  1.
</event>
<event>
 4    1  0.1589319E+006  0.2894157E+02  0.7546771E-02  0.1429023E+00
         21   -1    0    0  503  501  0.00000000000E+00  0.00000000000E+00  0.11629088858E+03  0.11629088858E+03  0.00000000000E+00 0.  1.
         21   -1    0    0  501  502 -0.00000000000E+00 -0.00000000000E+00 -0.11215399677E+02  0.11215399677E+02  0.00000000000E+00 0. -1.
         21    1    1    2  503  504 -0.24532592007E+02 -0.15354679553E+02  0.90671521802E+02  0.95178459331E+02  0.00000000000E+00 0.  1.
         21    1    1    2  504  502  0.24532592007E+02  0.15354679553E+02  0.14403967100E+02  0.32327828924E+02  0.00000000000E+00 0. -1.
</event>
<event>
 4    1  0.1589319E+006  0.2914444E+02  0.7546771E-02  0.1427180E+00
         21   -1    0    0  504  501  0.00000000000E+00  0.00000000000E+00  0.33666466387E+03  0.33666466387E+03  0.00000000000E+00 0. -1.
         21   -1    0    0  503  502 -0.00000000000E+00 -0.00000000000E+00 -0.26867126587E+01  0.26867126587E+01  0.00000000000E+00 0.  1.
         21    1    1    2  503  501  0.24675383724E+02 -0.15508831018E+02  0.12510229687E+03  0.12845225994E+03  0.00000000000E+00 0.  1.
         21    1    1    2  504  502 -0.24675383724E+02  0.15508831018E+02  0.20887565435E+03  0.21089911660E+03  0.00000000000E+00 0. -1.
</event>
<event>
 4    1  0.1589319E+006  0.2100666E+02  0.7546771E-02  0.1519170E+00
         21   -1    0    0  502  501  0.00000000000E+00  0.00000000000E+00  0.91617153921E+03  0.91617153921E+03  0.00000000000E+00 0. -1.
         21   -1    0    0  504  502 -0.00000000000E+00 -0.00000000000E+00 -0.10105731719E+01  0.10105731719E+01  0.00000000000E+00 0.  1.
         21    1    1    2  503  501 -0.14717109301E+02  0.14989551281E+02  0.78934912634E+03  0.78962859827E+03  0.00000000000E+00 0. -1.
         21    1    1    2  504  503  0.14717109301E+02 -0.14989551281E+02  0.12581183970E+03  0.12755351411E+03  0.00000000000E+00 0.  1.
</event>
<event>
 4    1  0.1589319E+006  0.2014861E+02  0.7546771E-02  0.1531776E+00
         21   -1    0    0  503  501  0.00000000000E+00  0.00000000000E+00  0.17303917507E+02  0.17303917507E+02  0.00000000000E+00 0.  1.
         21   -1    0    0  501  502 -0.00000000000E+00 -0.00000000000E+00 -0.14716858934E+03  0.14716858934E+03  0.00000000000E+00 0.  1.
         21    1    1    2  503  504  0.98608939974E+01  0.17570688726E+02  0.10464654992E+02  0.22704081942E+02  0.00000000000E+00 0.  1.
         21    1    1    2  504  502 -0.98608939974E+01 -0.17570688726E+02 -0.14032932682E+03  0.14176842490E+03  0.00000000000E+00 0.  1.
</event>
<event>
 4    1  0.1589319E+006  0.2184099E+02  0.7546771E-02  0.1507588E+00
         21   -1    0    0  503  501  0.00000000000E+00  0.00000000000E+00  0.20800703946E+03  0.20800703946E+03  0.00000000000E+00 0.  1.
         21   -1    0    0  504  502 -0.00000000000E+00 -0.00000000000E+00 -0.10059330086E+02  0.10059330086E+02  0.00000000000E+00 0. -1.
         21    1    1    2  503  502  0.18747031254E+02 -0.11206145023E+02  0.19477547453E+03  0.19599621003E+03  0.00000000000E+00 0.  1.
         21    1    1    2  504  501 -0.18747031254E+02  0.11206145023E+02  0.31722348401E+01  0.22070159515E+02  0.00000000000E+00 0. -1.
</event>
<event>
 4    1  0.1589319E+006  0.2532732E+02  0.7546771E-02  0.1465175E+00
         21   -1    0    0  503  501  0.00000000000E+00  0.00000000000E+00  0.25962905394E+02  0.25962905394E+02  0.00000000000E+00 0.  1.
         21   -1    0    0  504  502 -0.00000000000E+00 -0.00000000000E+00 -0.24915815576E+02  0.24915815576E+02  0.00000000000E+00 0.  1.
         21    1    1    2  503  502  0.17188956008E+02  0.18601426120E+02 -0.18036839485E+01  0.25391465853E+02  0.00000000000E+00 0.  1.
         21    1    1    2  504  501 -0.17188956008E+02 -0.18601426120E+02  0.28507737664E+01  0.25487255117E+02  0.00000000000E+00 0.  1.
</event>
<event>
 4    1  0.1589319E+006  0.2589003E+02  0.7546771E-02  0.1459088E+00
         21   -1    0    0  503  501  0.00000000000E+00  0.00000000000E+00  0.16063995784E+03  0.16063995784E+03  0.00000000000E+00 0. -1.
         21   -1    0    0  501  502 -0.00000000000E+00 -0.00000000000E+00 -0.70556891496E+01  0.70556891496E+01  0.00000000000E+00 0. -1.
         21    1    1    2  503  504 -0.35296100137E+01  0.25648300483E+02  0.13039003080E+03  0.13293552421E+03  0.00000000000E+00 0. -1.
         21    1    1    2  504  502  0.35296100137E+01 -0.25648300483E+02  0.23194237893E+02  0.34760122784E+02  0.00000000000E+00 0. -1.
</event>
<event>
 4    1  0.1589319E+006  0.2178653E+02  0.7546771E-02  0.1508325E+00
         21   -1    0    0  503  501  0.00000000000E+00  0.00000000000E+00  0.14036753902E+02  0.14036753902E+02  0.00000000000E+00 0.  1.
         21   -1    0    0  504  502 -0.00000000000E+00 -0.00000000000E+00 -0.98113101188E+02  0.98113101188E+02  0.00000000000E+00 0.  1.
         21    1    1    2  503  502  0.12548648821E+02 -0.17809663905E+02  0.33564397410E+01  0.22043556959E+02  0.00000000000E+00 0.  1.
         21    1    1    2  504  501 -0.12548648821E+02  0.17809663905E+02 -0.87432787027E+02  0.90106298132E+02  0.00000000000E+00 0.  1.
</event>
<event>
 4    1  0.1589319E+006  0.2890435E+02  0.7546771E-02  0.1429363E+00
         21   -1    0    0  503  501  0.00000000000E+00  0.00000000000E+00  0.29374161631E+03  0.29374161631E+03  0.00000000000E+00 0.  1.
         21   -1    0    0  504  502 -0.00000000000E+00 -0.00000000000E+00 -0.33532591201E+01  0.33532591201E+01  0.00000000000E+00 0.  1.
         21    1    1    2  503  502  0.12860311283E+01 -0.28875726266E+02  0.87316182638E+02  0.91975959870E+02  0.00000000000E+00 0.  1.
         21    1    1    2  504  501 -0.12860311283E+01  0.28875726266E+02  0.20307217455E+03  0.20511891556E+03  0.00000000000E+00 0.  1.
</event>
<event>
 4    1  0.1589319E+006  0.2132405E+02  0.7546771E-02  0.1514688E+00
         21   -1    0    0  504  501  0.00000000000E+00  0.00000000000E+00  0.85854347619E+03  0.85854347619E+03  0.00000000000E+00 0. -1.
         21   -1    0    0  503  502 -0.00000000000E+00 -0.00000000000E+00 -0.54039647074E+00  0.54039647074E+00  0.00000000000E+00 0. -1.
         21    1    1    2  503  501  0.19404745790E+02 -0.88414371748E+01  0.48961561230E+03  0.49007975165E+03  0.00000000000E+00 0. -1.
         21    1    1    2  504  502 -0.19404745790E+02  0.88414371748E+01  0.36838746742E+03  0.36900412101E+03  0.00000000000E+00 0. -1.
</event>
<event>
 4    1  0.1589319E+006  0.3278289E+02  0.7546771E-02  0.1396858E+00
         21   -1    0    0  504  501  0.00000000000E+00  0.00000000000E+00  0.41103959865E+02  0.41103959865E+02  0.00000000000E+00 0.  1.
         21   -1    0    0  503  502 -0.00000000000E+00 -0.00000000000E+00 -0.45592879586E+03  0.45592879586E+03  0.00000000000E+00 0. -1.
         21    1    1    2  503  501  0.30094660125E+02 -0.13001134931E+02  0.33872871989E+02  0.47139044691E+02  0.00000000000E+00 0.  1.
         21    1    1    2  504  502 -0.30094660125E+02  0.13001134931E+02 -0.44869770798E+03  0.44989371103E+03  0.00000000000E+00 0. -1.
</event>
<event>
 4    1  0.1589319E+006  0.2153558E+02  0.7546771E-02  0.1511754E+00
         21   -1    0    0  503  501  0.00000000000E+00  0.00000000000E+00  0.16402580147E+01  0.16402580147E+01  0.00000000000E+00 0.  1.
         21   -1    0    0  504  502 -0.00000000000E+00 -0.00000000000E+00 -0.10200639414E+04  0.10200639414E+04  0.00000000000E+00 0. -1.
         21    1    1    2  503  502  0.89589810263E+01 -0.19583609654E+02 -0.94353005202E+03  0.94377578915E+03  0.00000000000E+00 0. -1.
         21    1    1    2  504  501 -0.89589810263E+01  0.19583609654E+02 -0.74893631327E+02  0.77928410233E+02  0.00000000000E+00 0.  1.
</event>
<event>
 4    1  0.1589319E+006  0.2897449E+02  0.7546771E-02  0.1428722E+00
         21   -1    0    0  503  501  0.00000000000E+00  0.00000000000E+00  0.80650958526E+02  0.80650958526E+02  0.00000000000E+00 0. -1.
         21   -1    0    0  504  502 -0.00000000000E+00 -0.00000000000E+00 -0.76610670105E+02  0.76610670105E+02  0.00000000000E+00 0. -1.
         21    1    1    2  503  502  0.21318689534E+02  0.19622298931E+02 -0.71073831780E+02  0.76752919832E+02  0.00000000000E+00 0. -1.
         21    1    1    2  504  501 -0.21318689534E+02 -0.19622298931E+02  0.75114120202E+02  0.80508708799E+02  0.00000000000E+00 0. -1.
</event>
<event>
 4    1  0.1589319E+006  0.4988290E+02  0.7546771E-02  0.1298681E+00
         21   -1    0    0  504  501  0.00000000000E+00  0.00000000000E+00  0.14450101282E+03  0.14450101282E+03  0.00000000000E+00 0.  1.
         21   -1    0    0  501  502 -0.00000000000E+00 -0.00000000000E+00 -0.31191800506E+02  0.31191800506E+02  0.00000000000E+00 0.  1.
         21    1    1    2  503  502 -0.48190965405E+02 -0.12881541507E+02 -0.21390430794E+01  0.49928736851E+02  0.00000000000E+00 0.  1.
         21    1    1    2  504  503  0.48190965405E+02  0.12881541507E+02  0.11544825539E+03  0.12576407647E+03  0.00000000000E+00 0.  1.
</event>
<event>
 4    1  0.1589319E+006  0.2172713E+02  0.7546771E-02  0.1509132E+00
         21   -1    0    0  503  501  0.00000000000E+00  0.00000000000E+00  0.20855199139E+01  0.20855199139E+01  0.00000000000E+00 0.  1.
         21   -1    0    0  501  502 -0.00000000000E+00 -0.00000000000E+00 -0.26397022488E+03  0.26397022488E+03  0.00000000000E+00 0.  1.
         21    1    1    2  503  504 -0.21399565555E+02  0.37585367094E+01 -0.80725833204E+02  0.83598613329E+02  0.00000000000E+00 0.  1.
         21    1    1    2  504  502  0.21399565555E+02 -0.37585367094E+01 -0.18115887177E+03  0.18245713147E+03  0.00000000000E+00 0.  1.
</event>
<event>
 4    1  0.1589319E+006  0.4404444E+02  0.7546771E-02  0.1326287E+00
         21   -1    0    0  503  501  0.00000000000E+00  0.00000000000E+00  0.66016970222E+03  0.66016970222E+03  0.00000000000E+00 0. -1.
         21   -1    0    0  504  502 -0.00000000000E+00 -0.00000000000E+00 -0.22693456215E+02  0.22693456215E+02  0.00000000000E+00 0. -1.
         21    1    1    2  503  502  0.40672197608E+02 -0.16902210603E+02  0.17805255469E+00  0.44044796335E+02  0.00000000000E+00 0. -1.
         21    1    1    2  504  501 -0.40672197608E+02  0.16902210603E+02  0.63729819345E+03  0.63881836210E+03  0.00000000000E+00 0. -1.
</event>
<event>
 4    1  0.1589319E+006  0.2617573E+02  0.7546771E-02  0.1456068E+00
         21   -1    0    0  503  501  0.00000000000E+00  0.00000000000E+00  0.68333806831E+01  0.68333806831E+01  0.00000000000E+00 0.  1.
         21   -1    0    0  504  502 -0.00000000000E+00 -0.00000000000E+00 -0.11958842196E+03  0.11958842196E+03  0.00000000000E+00 0.  1.
         21    1    1    2  503  502  0.24534131227E+02  0.91238879007E+01 -0.30970337212E+02  0.40550347872E+02  0.00000000000E+00 0.  1.
         21    1    1    2  504  501 -0.24534131227E+02 -0.91238879007E+01 -0.81784704064E+02  0.85871454770E+02  0.00000000000E+00 0.  1.
</event>
<event>
 4    1  0.1589319E+006  0.2765019E+02  0.7546771E-02  0.1441184E+00
         21   -1    0    0  504  501  0.00000000000E+00  0.00000000000E+00  0.53710128010E+03  0.53710128010E+03  0.00000000000E+00 0.  1.
         21   -1    0    0  503  502 -0.00000000000E+00 -0.00000000000E+00 -0.34282743408E+01  0.34282743408E+01  0.00000000000E+00 0. -1.
         21    1    1    2  503  501  0.19547563023E+02 -0.19555709379E+02  0.60160239932E+02  0.66210176394E+02  0.00000000000E+00 0. -1.
         21    1    1    2  504  502 -0.19547563023E+02  0.19555709379E+02  0.47351276582E+03  0.47431937804E+03  0.00000000000E+00 0.  1.
</event>
<event>
 4    1  0.1589319E+006  0.3995736E+02  0.7546771E-02  0.1348736E+00
         21   -1    0    0  504  501  0.00000000000E+00  0.00000000000E+00  0.64367169948E+03  0.64367169948E+03  0.00000000000E+00 0. -1.
         21   -1    0    0  501  502 -0.00000000000E+00 -0.00000000000E+00 -0.45819711874E+02  0.45819711874E+02  0.00000000000E+00 0.  1.
         21    1    1    2  503  502  0.29825938988E+02 -0.26589545011E+02 -0.36358510044E+02  0.54023437442E+02  0.00000000000E+00 0.  1.
         21    1    1    2  504  503 -0.29825938988E+02  0.26589545011E+02  0.63421049764E+03  0.63546797391E+03  0.00000000000E+00 0. -1.
</event>
<event>
 4    1  0.1589319E+006  0.2435523E+02  0.7546771E-02  0.1476147E+00
         21   -1    0    0  504  501  0.00000000000E+00  0.00000000000E+00  0.12649362271E+02  0.12649362271E+02  0.00000000000E+00 0. -1.
         21   -1    0    0  503  502 -0.00000000000E+00 -0.00000000000E+00 -0.80396209795E+02  0.80396209795E+02  0.00000000000E+00 0.  1.
         21    1    1    2  503  501 -0.15545716605E+02  0.18748544470E+02 -0.63905521149E+02  0.68389274436E+02  0.00000000000E+00 0.  1.
         21    1    1    2  504  502  0.15545716605E+02 -0.18748544470E+02 -0.38413263740E+01  0.24656297630E+02  0.00000000000E+00 0. -1.
</event>
<event>
 4    1  0.1589319E+006  0.2420025E+02  0.7546771E-02  0.1477953E+00
         21   -1    0    0  504  501  0.00000000000E+00  0.00000000000E+00  0.16300973837E+03  0.16300973837E+03  0.00000000000E+00 0.  1.
         21   -1    0    0  501  502 -0.00000000000E+00 -0.00000000000E+00 -0.24426119462E+02  0.24426119462E+02  0.00000000000E+00 0. -1.
         21    1    1    2  503  502  0.18058843063E+02 -0.16109936504E+02 -0.17259828200E+02  0.29724628449E+02  0.00000000000E+00 0. -1.
         21    1    1    2  504  503 -0.18058843063E+02  0.16109936504E+02  0.15584344710E+03  0.15771122938E+03  0.00000000000E+00 0.  1.
</event>
<event>
 4    1  0.1589319E+006  0.3023270E+02  0.7546771E-02  0.1417585E+00
         21   -1    0    0  504  501  0.00000000000E+00  0.00000000000E+00  0.10571037012E+03  0.10571037012E+03  0.00000000000E+00 0. -1.
         21   -1    0    0  503  502 -0.00000000000E+00 -0.00000000000E+00 -0.10144607589E+02  0.10144607589E+02  0.00000000000E+00 0. -1.
         21    1    1    2  503  501  0.14025433117E+02 -0.26782519381E+02  0.70044173215E+02  0.76290250491E+02  0.00000000000E+00 0. -1.
         21    1    1    2  504  502 -0.14025433117E+02  0.26782519381E+02  0.25521589313E+02  0.39564727215E+02  0.00000000000E+00 0. -1.
</event>
<event>
 4    1  0.1589319E+006  0.2351687E+02  0.7546771E-02  0.1486108E+00
         21   -1    0    0  504  501  0.00000000000E+00  0.00000000000E+00  0.18469410484E+03  0.18469410484E+03  0.00000000000E+00 0. -1.
         21   -1    0    0  503  502 -0.00000000000E+00 -0.00000000000E+00 -0.59504087179E+01  0.59504087179E+01  0.00000000000E+00 0. -1.
         21    1    1    2  503  501 -0.21866149713E+02 -0.86553355034E+01  0.22186334927E+02  0.32330740688E+02  0.00000000000E+00 0. -1.
         21    1    1    2  504  502  0.21866149713E+02  0.86553355034E+01  0.15655736120E+03  0.15831377287E+03  0.00000000000E+00 0. -1.
</event>
<event>
 4    1  0.1589319E+006  0.3468991E+02  0.7546771E-02  0.1382756E+00
         21   -1    0    0  502  501  0.00000000000E+00  0.00000000000E+00  0.15041501057E+04  0.15041501057E+04  0.00000000000E+00 0. -1.
         21   -1    0    0  504  502 -0.00000000000E+00 -0.00000000000E+00 -0.20700169465E+01  0.20700169465E+01  0.00000000000E+00 0.  1.
         21    1    1    2  503  501 -0.33328817010E+02  0.96218427677E+01  0.13409263593E+04  0.13413750001E+04  0.00000000000E+00 0. -1.
         21    1    1    2  504  503  0.33328817010E+02 -0.96218427677E+01  0.16115372945E+03  0.16484512252E+03  0.00000000000E+00 0.  1.
</event>
<event>
 4    1  0.1589319E+006  0.2669830E+02  0.7546771E-02  0.1450663E+00
         21   -1    0    0  502  501  0.00000000000E+00  0.00000000000E+00  0.50151996206E+03  0.50151996206E+03  0.00000000000E+00 0.  1.
         21   -1    0    0  503  502 -0.00000000000E+00 -0.00000000000E+00 -0.66878419523E+01  0.66878419523E+01  0.00000000000E+00 0.  1.
         21    1    1    2  503  504 -0.72435510896E+01  0.25696888933E+02  0.21923598593E+02  0.34546248834E+02  0.00000000000E+00 0.  1.
         21    1    1    2  504  501  0.72435510896E+01 -0.25696888933E+02  0.47290852152E+03  0.47366155518E+03  0.00000000000E+00 0.  1.
</event>
<event>
 4    1  0.1589319E+006  0.2388597E+02  0.7546771E-02  0.1481663E+00
         21   -1    0    0  503  501  0.00000000000E+00  0.00000000000E+00  0.60302392448E+02  0.60302392448E+02  0.00000000000E+00 0.  1.
         21   -1    0    0  504  502 -0.00000000000E+00 -0.00000000000E+00 -0.11789326575E+02  0.11789326575E+02  0.00000000000E+00 0.  1.
         21    1    1    2  503  502 -0.23142826241E+02  0.59118007820E+01  0.40274362325E+02  0.46824823070E+02  0.00000000000E+00 0.  1.
         21    1    1    2  504  501  0.23142826241E+02 -0.59118007820E+01  0.82387035482E+01  0.25266895952E+02  0.00000000000E+00 0.  1.
</event>
<event>
 4    1  0.1589319E+006  0.2469336E+02  0.7546771E-02  0.1472263E+00
         21   -1    0    0  504  501  0.00000000000E+00  0.00000000000E+00  0.15392878351E+04  0.15392878351E+04  0.00000000000E+00 0.  1.
         21   -1    0    0  501  502 -0.00000000000E+00 -0.00000000000E+00 -0.57590653329E+00  0.57590653329E+00  0.00000000000E+00 0.  1.
         21    1    1    2  503  502  0.23483914068E+02  0.76333219781E+01  0.11995257123E+04  0.11997798533E+04  0.00000000000E+00 0.  1.
         21    1    1    2  504  503 -0.23483914068E+02 -0.76333219781E+01  0.33918621621E+03  0.34008388831E+03  0.00000000000E+00 0.  1.
</event>
<event>
 4    1  0.1589319E+006  0.2264787E+02  0.7546771E-02  0.1496968E+00
         21   -1    0    0  504  501  0.00000000000E+00  0.00000000000E+00  0.23367524105E+03  0.23367524105E+03  0.00000000000E+00 0.  1.
         21   -1    0    0  503  502 -0.00000000000E+00 -0.00000000000E+00 -0.54568077686E+01  0.54568077686E+01  0.00000000000E+00 0.  1.
         21    1    1    2  503  501  0.18483994395E+02 -0.13086932011E+02  0.21668102955E+02  0.31343779669E+02  0.00000000000E+00 0.  1.
         21    1    1    2  504  502 -0.18483994395E+02  0.13086932011E+02  0.20655033033E+03  0.20778826915E+03  0.00000000000E+00 0.  1.
</event>
<event>
 4    1  0.1589319E+006  0.2216976E+02  0.7546771E-02  0.1503195E+00
         21   -1    0    0  503  501  0.00000000000E+00  0.00000000000E+00  0.11183920851E+04  0.11183920851E+04  0.00000000000E+00 0. -1.
         21   -1    0    0  504  502 -0.00000000000E+00 -0.00000000000E+00 -0.19805767563E+01  0.19805767563E+01  0.00000000000E+00 0. -1.
         21    1    1    2  503  502 -0.92007635580E+01 -0.20170382606E+02  0.64062119711E+02  0.67789774792E+02  0.00000000000E+00 0. -1.
         21    1    1    2  504  501  0.92007635580E+01  0.20170382606E+02  0.10523493886E+04  0.10525828871E+04  0.00000000000E+00 0. -1.
</event>
<event>
 4    1  0.1589319E+006  0.2715112E+02  0.7546771E-02  0.1446096E+00
         21   -1    0    0  504  501  0.00000000000E+00  0.00000000000E+00  0.54608746900E+02  0.54608746900E+02  0.00000000000E+00 0. -1.
         21   -1    0    0  501  502 -0.00000000000E+00 -0.00000000000E+00 -0.56610430045E+02  0.56610430045E+02  0.00000000000E+00 0. -1.
         21    1    1    2  503  502  0.17819681104E+01 -0.27092578287E+02 -0.49529227692E+02  0.56482985087E+02  0.00000000000E+00 0. -1.
         21    1    1    2  504  503 -0.17819681104E+01  0.27092578287E+02  0.47527544546E+02  0.54736191858E+02  0.00000000000E+00 0. -1.
</event>
<event>
 4    1  0.1589319E+006  0.3189705E+02  0.7546771E-02  0.1403797E+00
         21   -1    0    0  504  501  0.00000000000E+00  0.00000000000E+00  0.29141787564E+02  0.29141787564E+02  0.00000000000E+00 0.  1.
         21   -1    0    0  503  502 -0.00000000000E+00 -0.00000000000E+00 -0.15414210621E+03  0.15414210621E+03  0.00000000000E+00 0.  1.
         21    1    1    2  503  501 -0.27147279580E+02  0.16746558008E+02 -0.14309832055E+03  0.14661020203E+03  0.00000000000E+00 0.  1.
         21    1    1    2  504  502  0.27147279580E+02 -0.16746558008E+02  0.18098001903E+02  0.36673691750E+02  0.00000000000E+00 0.  1.
</event>
<event>
 4    1  0.1589319E+006  0.3350644E+02  0.7546771E-02  0.1391379E+00
         21   -1    0    0  502  501  0.00000000000E+00  0.00000000000E+00  0.44776364422E+02  0.44776364422E+02  0.00000000000E+00 0. -1.
         21   -1    0    0  504  502 -0.00000000000E+00 -0.00000000000E+00 -0.47313987873E+02  0.47313987873E+02  0.00000000000E+00 0. -1.
         21    1    1    2  503  501 -0.33402746982E+02 -0.26340535783E+01  0.30300530639E+02  0.45175257622E+02  0.00000000000E+00 0. -1.
         21    1    1    2  504  503  0.33402746982E+02  0.26340535783E+01 -0.32838154090E+02  0.46915094674E+02  0.00000000000E+00 0. -1.
</event>
<event>
 4    1  0.1589319E+006  0.3275388E+02  0.7546771E-02  0.1397081E+00
         21   -1    0    0  503  501  0.00000000000E+00  0.00000000000E+00  0.10364937764E+04  0.10364937764E+04  0.00000000000E+00 0.  1.
         21   -1    0    0  501  502 -0.00000000000E+00 -0.00000000000E+00 -0.13826717033E+01  0.13826717033E+01  0.00000000000E+00 0.  1.
         21    1    1    2  503  504  0.24471482195E+02  0.21770701503E+02  0.77775908014E+03  0.77844845920E+03  0.00000000000E+00 0.  1.
         21    1    1    2  504  502 -0.24471482195E+02 -0.21770701503E+02  0.25735202451E+03  0.25942798886E+03  0.00000000000E+00 0.  1.
</event>
<event>
 4    1  0.1589319E+006  0.2781673E+02  0.7546771E-02  0.1439572E+00
         21   -1    0    0  503  501  0.00000000000E+00  0.00000000000E+00  0.86125385918E+01  0.86125385918E+01  0.00000000000E+00 0.  1.
         21   -1    0    0  504  502 -0.00000000000E+00 -0.00000000000E+00 -0.11760154008E+03  0.11760154008E+03  0.00000000000E+00 0. -1.
         21    1    1    2  503  502 -0.27636062594E+02  0.31652353023E+01 -0.85154682815E+02  0.89582870436E+02  0.00000000000E+00 0. -1.
         21    1    1    2  504  501  0.27636062594E+02 -0.31652353023E+01 -0.23834318674E+02  0.36631208236E+02  0.00000000000E+00 0.  1.
</event>
<event>
 4    1  0.1589319E+006  0.2952273E+02  0.7546771E-02  0.1423790E+00
         21   -1    0    0  504  501  0.00000000000E+00  0.00000000000E+00  0.43054087859E+02  0.43054087859E+02  0.00000000000E+00 0. -1.
         21   -1    0    0  503  502 -0.00000000000E+00 -0.00000000000E+00 -0.57441833415E+02  0.57441833415E+02  0.00000000000E+00 0.  1.
         21    1    1    2  503  501  0.19612356410E+02  0.22066874146E+02  0.33241598155E+02  0.44458917063E+02  0.00000000000E+00 0. -1.
         21    1    1    2  504  502 -0.19612356410E+02 -0.22066874146E+02 -0.47629343711E+02  0.56037004210E+02  0.00000000000E+00 0.  1.
</event>
<event>
 4    1  0.1589319E+006  0.3084855E+02  0.7546771E-02  0.1412363E+00
         21   -1    0    0  504  501  0.00000000000E+00  0.00000000000E+00  0.56555897817E+01  0.56555897817E+01  0.00000000000E+00 0. -1.
         21   -1    0    0  503  502 -0.00000000000E+00 -0.00000000000E+00 -0.26634535810E+03  0.26634535810E+03  0.00000000000E+00 0. -1.
         21    1    1    2  503  501  0.23644111631E+02 -0.19813862881E+02 -0.21287466513E+03  0.21509824786E+03  0.00000000000E+00 0. -1.
         21    1    1    2  504  502 -0.23644111631E+02  0.19813862881E+02 -0.47815103185E+02  0.56902700021E+02  0.00000000000E+00 0. -1.
</event>
<event>
 4    1  0.1589319E+006  0.2563105E+02  0.7546771E-02  0.1461866E+00
         21   -1    0    0  504  501  0.00000000000E+00  0.00000000000E+00  0.36127780242E+03  0.36127780242E+03  0.00000000000E+00 0.  1.
         21   -1    0    0  503  502 -0.00000000000E+00 -0.00000000000E+00 -0.54373647172E+01  0.54373647172E+01  0.00000000000E+00 0.  1.
         21    1    1    2  503  501 -0.71651595529E+01 -0.24609173408E+02  0.32750804779E+03  0.32850947063E+03  0.00000000000E+00 0.  1.
         21    1    1    2  504  502  0.71651595529E+01  0.24609173408E+02  0.28332389908E+02  0.38205696501E+02  0.00000000000E+00 0.  1.
</event>
<event>
 4    1  0.1589319E+006  0.4332530E+02  0.7546771E-02  0.1330029E+00
         21   -1    0    0  504  501  0.00000000000E+00  0.00000000000E+00  0.25585839747E+02  0.25585839747E+02  0.00000000000E+00 0. -1.
         21   -1    0    0  503  502 -0.00000000000E+00 -0.00000000000E+00 -0.14459323215E+03  0.14459323215E+03  0.00000000000E+00 0. -1.
         21    1    1    2  503  501 -0.42245568621E+02  0.96121515488E+01 -0.11922524580E+03  0.12685322527E+03  0.00000000000E+00 0. -1.
         21    1    1    2  504  502  0.42245568621E+02 -0.96121515488E+01  0.21785340090E+00  0.43325846623E+02  0.00000000000E+00 0. -1.
</event>
<event>
 4    1  0.1589319E+006  0.2179388E+02  0.7546771E-02  0.1508225E+00
         21   -1    0    0  503  501  0.00000000000E+00  0.00000000000E+00  0.55907066388E+01  0.55907066388E+01  0.00000000000E+00 0.  1.
         21   -1    0    0  504  502 -0.00000000000E+00 -0.00000000000E+00 -0.10027149796E+03  0.10027149796E+03  0.00000000000E+00 0.  1.
         21    1    1    2  503  502  0.21502395463E+02 -0.35524810569E+01 -0.26654955229E+02  0.34430506394E+02  0.00000000000E+00 0.  1.
         21    1    1    2  504  501 -0.21502395463E+02  0.35524810569E+01 -0.68025836095E+02  0.71431698208E+02  0.00000000000E+00 0.  1.
</event>
<event>
 4    1  0.1589319E+006  0.2082623E+02  0.7546771E-02  0.1521760E+00
         21   -1    0    0  504  501  0.00000000000E+00  0.00000000000E+00  0.14912312446E+03  0.14912312446E+03  0.00000000000E+00 0. -1.
         21   -1    0    0  503  502 -0.00000000000E+00 -0.00000000000E+00 -0.62618762694E+01  0.62618762694E+01  0.00000000000E+00 0. -1.
         21    1    1    2  503  501 -0.12323531888E+02 -0.16788758014E+02  0.14576121695E+02  0.25420368949E+02  0.00000000000E+00 0. -1.
         21    1    1    2  504  502  0.12323531888E+02  0.16788758014E+02  0.12828512649E+03  0.12996463178E+03  0.00000000000E+00 0. -1.
</event>
<event>
 4    1  0.1589319E+006  0.5722148E+02  0.7546771E-02  0.1269577E+00
         21   -1    0    0  502  501  0.00000000000E+00  0.00000000000E+00  0.41368889900E+03  0.41368889900E+03  0.00000000000E+00 0. -1.
         21   -1    0    0  504  502 -0.00000000000E+00 -0.00000000000E+00 -0.91779102196E+01  0.91779102196E+01  0.00000000000E+00 0. -1.
         21    1    1    2  503  501  0.36299167843E+02  0.44234246821E+02  0.28069024040E+03  0.28646345183E+03  0.00000000000E+00 0. -1.
         21    1    1    2  504  503 -0.36299167843E+02 -0.44234246821E+02  0.12382074838E+03  0.13640335739E+03  0.00000000000E+00 0. -1.
</event>
<event>
 4    1  0.1589319E+006  0.2344829E+02  0.7546771E-02  0.1486944E+00
         21   -1    0    0  502  501  0.00000000000E+00  0.00000000000E+00  0.56369545830E+02  0.56369545830E+02  0.00000000000E+00 0.  1.
         21   -1    0    0  504  502 -0.00000000000E+00 -0.00000000000E+00 -0.14685905484E+02  0.14685905484E+02  0.00000000000E+00 0.  1.
         21    1    1    2  503  501 -0.21767824589E+02  0.87168945341E+01  0.41430532659E+02  0.47605792443E+02  0.00000000000E+00 0.  1.
         21    1    1    2  504  503  0.21767824589E+02 -0.87168945341E+01  0.25310768653E+00  0.23449658871E+02  0.00000000000E+00 0.  1.
</event>
<event>
 4    1  0.1589319E+006  0.2031185E+02  0.7546771E-02  0.1529321E+00
         21   -1    0    0  503  501  0.00000000000E+00  0.00000000000E+00  0.22307357277E+01  0.22307357277E+01  0.00000000000E+00 0.  1.
         21   -1    0    0  504  502 -0.00000000000E+00 -0.00000000000E+00 -0.70539161116E+03  0.70539161116E+03  0.00000000000E+00 0. -1.
         21    1    1    2  503  502 -0.16690164203E+02 -0.11576259857E+02 -0.47671828273E+02  0.51818670229E+02  0.00000000000E+00 0.  1.
         21    1    1    2  504  501  0.16690164203E+02  0.11576259857E+02 -0.65548904716E+03  0.65580367666E+03  0.00000000000E+00 0. -1.
</event>
<event>
 4    1  0.1589319E+006  0.2460394E+02  0.7546771E-02  0.1473283E+00
         21   -1    0    0  503  501  0.00000000000E+00  0.00000000000E+00  0.23552566489E+01  0.23552566489E+01  0.00000000000E+00 0.  1.
         21   -1    0    0  504  502 -0.00000000000E+00 -0.00000000000E+00 -0.41714015435E+03  0.41714015435E+03  0.00000000000E+00 0.  1.
         21    1    1    2  503  502 -0.20689249533E+01  0.24516799762E+02 -0.77442579451E+02  0.81257042975E+02  0.00000000000E+00 0.  1.
         21    1    1    2  504  501  0.20689249533E+01 -0.24516799762E+02 -0.33734231825E+03  0.33823836802E+03  0.00000000000E+00 0.  1.
</event>
<event>
 4    1  0.1589319E+006  0.3603596E+02  0.7546771E-02  0.1373423E+00
         21   -1    0    0  503  501  0.00000000000E+00  0.00000000000E+00  0.13052344988E+03  0.13052344988E+03  0.00000000000E+00 0.  1.
         21   -1    0    0  501  502 -0.00000000000E+00 -0.00000000000E+00 -0.78843527766E+02  0.78843527766E+02  0.00000000000E+00 0.  1.
         21    1    1    2  503  504 -0.25452554511E+02  0.25509953203E+02  0.12369590879E+03  0.12883814690E+03  0.00000000000E+00 0.  1.
         21    1    1    2  504  502  0.25452554511E+02 -0.25509953203E+02 -0.72015986682E+02  0.80528830746E+02  0.00000000000E+00 0.  1.
</event>
<event>
 4    1  0.1589319E+006  0.2094559E+02  0.7546771E-02  0.1520043E+00
         21   -1    0    0  502  501  0.00000000000E+00  0.00000000000E+00  0.56309070116E+02  0.56309070116E+02  0.00000000000E+00 0. -1.
         21   -1    0    0  503  502 -0.00000000000E+00 -0.00000000000E+00 -0.12198021961E+02  0.12198021961E+02  0.00000000000E+00 0. -1.
         21    1    1    2  503  504  0.65654085579E+01 -0.19890021220E+02  0.14671729526E+01  0.20996907632E+02  0.00000000000E+00 0. -1.
         21    1    1    2  504  501 -0.65654085579E+01  0.19890021220E+02  0.42643875203E+02  0.47510184445E+02  0.00000000000E+00 0. -1.
</event>
<event>
 4    1  0.1589319E+006  0.2594872E+02  0.7546771E-02  0.1458464E+00
         21   -1    0    0  502  501  0.00000000000E+00  0.00000000000E+00  0.40134970668E+02  0.40134970668E+02  0.00000000000E+00 0. -1.
         21   -1    0    0  503  502 -0.00000000000E+00 -0.00000000000E+00 -0.32918523977E+02  0.32918523977E+02  0.00000000000E+00 0. -1.
         21    1    1    2  503  504  0.19124265091E+02  0.17538482022E+02 -0.21969739512E+02  0.34000078252E+02  0.00000000000E+00 0. -1.
         21    1    1    2  504  501 -0.19124265091E+02 -0.17538482022E+02  0.29186186202E+02  0.39053416393E+02  0.00000000000E+00 0. -1.
</event>
<event>
 4    1  0.1589319E+006  0.6210518E+02  0.7546771E-02  0.1252843E+00
         21   -1    0    0  504  501  0.00000000000E+00  0.00000000000E+00  0.11882596637E+03  0.11882596637E+03  0.00000000000E+00 0. -1.
         21   -1    0    0  501  502 -0.00000000000E+00 -0.00000000000E+00 -0.14387648879E+03  0.14387648879E+03  0.00000000000E+00 0. -1.
         21    1    1    2  503  502  0.39683160744E+02 -0.47773426579E+02 -0.12811374499E+03  0.14237340057E+03  0.00000000000E+00 0. -1.
         21    1    1    2  504  503 -0.39683160744E+02  0.47773426579E+02  0.10306322257E+03  0.12032905459E+03  0.00000000000E+00 0. -1.
</event>
<event>
 4    1  0.1589319E+006  0.2117345E+02  0.7546771E-02  0.1516803E+00
         21   -1    0    0  503  501  0.00000000000E+00  0.00000000000E+00  0.10763135661E+02  0.10763135661E+02  0.00000000000E+00 0. -1.
         21   -1    0    0  504  502 -0.00000000000E+00 -0.00000000000E+00 -0.46807308217E+02  0.46807308217E+02  0.00000000000E+00 0. -1.
         21    1    1    2  503  502  0.12148928166E+02  0.17341243480E+02 -0.27574313165E+02  0.34765757975E+02  0.00000000000E+00 0. -1.
         21    1    1    2  504  501 -0.12148928166E+02 -0.17341243480E+02 -0.84698593914E+01  0.22804685903E+02  0.00000000000E+00 0. -1.
</event>
<event>
 4    1  0.1589319E+006  0.3390514E+02  0.7546771E-02  0.1388428E+00
         21   -1    0    0  503  501  0.00000000000E+00  0.00000000000E+00  0.76510133435E+02  0.76510133435E+02  0.00000000000E+00 0. -1.
         21   -1    0    0  504  502 -0.00000000000E+00 -0.00000000000E+00 -0.32855954645E+02  0.32855954645E+02  0.00000000000E+00 0. -1.
         21    1    1    2  503  502  0.33409751381E+02  0.57746695792E+01 -0.18457038208E+02  0.38603374924E+02  0.00000000000E+00 0. -1.
         21    1    1    2  504  501 -0.33409751381E+02 -0.57746695792E+01  0.62111216999E+02  0.70762713156E+02  0.00000000000E+00 0. -1.
</event>
<event>
 4    1  0.1589319E+006  0.2733881E+02  0.7546771E-02  0.1444234E+00
         21   -1    0    0  503  501  0.00000000000E+00  0.00000000000E+00  0.25613657938E+03  0.25613657938E+03  0.00000000000E+00 0.  1.
         21   -1    0    0  504  502 -0.00000000000E+00 -0.00000000000E+00 -0.29297579312E+01  0.29297579312E+01  0.00000000000E+00 0. -1.
         21    1    1    2  503  502 -0.26703151065E+02  0.58610625964E+01  0.11840259745E+03  0.12151783990E+03  0.00000000000E+00 0.  1.
         21    1    1    2  504  501  0.26703151065E+02 -0.58610625964E+01  0.13480422400E+03  0.13754849741E+03  0.00000000000E+00 0. -1.
</event>
<event>
 4    1  0.1589319E+006  0.2483114E+02  0.7546771E-02  0.1470701E+00
         21   -1    0    0  503  501  0.00000000000E+00  0.00000000000E+00  0.39905012085E+03  0.39905012085E+03  0.00000000000E+00 0. -1.
         21   -1    0    0  504  502 -0.00000000000E+00 -0.00000000000E+00 -0.18946492683E+02  0.18946492683E+02  0.00000000000E+00 0.  1.
         21    1    1    2  503  502  0.42885707495E+00  0.24827438033E+02 -0.10243110070E+02  0.26860880506E+02  0.00000000000E+00 0.  1.
         21    1    1    2  504  501 -0.42885707495E+00 -0.24827438033E+02  0.39034673824E+03  0.39113573303E+03  0.00000000000E+00 0. -1.
</event>
<event>
 4    1  0.1589319E+006  0.2313876E+02  0.7546771E-02  0.1490763E+00
         21   -1    0    0  504  501  0.00000000000E+00  0.00000000000E+00  0.18300043461E+02  0.18300043461E+02  0.00000000000E+00 0.  1.
         21   -1    0    0  503  502 -0.00000000000E+00 -0.00000000000E+00 -0.56844048798E+02  0.56844048798E+02  0.00000000000E+00 0. -1.
         21    1    1    2  503  501 -0.23138715032E+02  0.46759597063E-01  0.69023439381E+01  0.24146317973E+02  0.00000000000E+00 0.  1.
         21    1    1    2  504  502  0.23138715032E+02 -0.46759597063E-01 -0.45446349275E+02  0.50997774287E+02  0.00000000000E+00 0. -1.
</event>
<event>
 4    1  0.1589319E+006  0.2071264E+02  0.7546771E-02  0.1523407E+00
         21   -1    0    0  503  501  0.00000000000E+00  0.00000000000E+00  0.15829785437E+01  0.15829785437E+01  0.00000000000E+00 0.  1.
         21   -1    0    0  501  502 -0.00000000000E+00 -0.00000000000E+00 -0.52719530979E+03  0.52719530979E+03  0.00000000000E+00 0.  1.
         21    1    1    2  503  504  0.17090959409E+02 -0.11700972425E+02 -0.78504496976E+02  0.81190945891E+02  0.00000000000E+00 0.  1.
         21    1    1    2  504  502 -0.17090959409E+02  0.11700972425E+02 -0.44710783427E+03  0.44758734244E+03  0.00000000000E+00 0.  1.
</event>
<event>
 4    1  0.1589319E+006  0.3522171E+02  0.7546771E-02  0.1379011E+00
         21   -1    0    0  503  501  0.00000000000E+00  0.00000000000E+00  0.39902841816E+02  0.39902841816E+02  0.00000000000E+00 0.  1.
         21   -1    0    0  504  502 -0.00000000000E+00 -0.00000000000E+00 -0.75818828197E+02  0.75818828197E+02  0.00000000000E+00 0.  1.
         21    1    1    2  503  502 -0.71827079956E+01 -0.34481556365E+02  0.26483759652E+02  0.44067658762E+02  0.00000000000E+00 0.  1.
         21    1    1    2  504  501  0.71827079956E+01  0.34481556365E+02 -0.62399746032E+02  0.71654011251E+02  0.00000000000E+00 0.  1.
</event>
<event>
 4    1  0.1589319E+006  0.2278869E+02  0.7546771E-02  0.1495169E+00
         21   -1    0    0  502  501  0.00000000000E+00  0.00000000000E+00  0.31629917364E+03  0.31629917364E+03  0.00000000000E+00 0.  1.
         21   -1    0    0  503  502 -0.00000000000E+00 -0.00000000000E+00 -0.30512078822E+01  0.30512078822E+01  0.00000000000E+00 0. -1.
         21    1    1    2  503  504 -0.19118698711E+02 -0.12401605703E+02  0.48104436993E+02  0.53229327657E+02  0.00000000000E+00 0. -1.
         21    1    1    2  504  501  0.19118698711E+02  0.12401605703E+02  0.26514352877E+03  0.26612105387E+03  0.00000000000E+00 0.  1.
</event>
<event>
 4    1  0.1589319E+006  0.5510212E+02  0.7546771E-02  0.1277448E+00
         21   -1    0    0  504  501  0.00000000000E+00  0.00000000000E+00  0.19563854095E+02  0.19563854095E+02  0.00000000000E+00 0. -1.
         21   -1    0    0  503  502 -0.00000000000E+00 -0.00000000000E+00 -0.26301950000E+03  0.26301950000E+03  0.00000000000E+00 0. -1.
         21    1    1    2  503  501  0.37894092590E+02  0.40003522118E+02 -0.21219229843E+03  0.21923005165E+03  0.00000000000E+00 0. -1.
         21    1    1    2  504  502 -0.37894092590E+02 -0.40003522118E+02 -0.31263347480E+02  0.63353302445E+02  0.00000000000E+00 0. -1.
</event>
<event>
 4    1  0.1589319E+006  0.2548656E+02  0.7546771E-02  0.1463433E+00
         21   -1    0    0  502  501  0.00000000000E+00  0.00000000000E+00  0.14125179593E+02  0.14125179593E+02  0.00000000000E+00 0.  1.
         21   -1    0    0  503  502 -0.00000000000E+00 -0.00000000000E+00 -0.49755236511E+02  0.49755236511E+02  0.00000000000E+00 0. -1.
         21    1    1    2  503  504 -0.25120694511E+02  0.43029678735E+01 -0.26605808881E+02  0.36843369708E+02  0.00000000000E+00 0. -1.
         21    1    1    2  504  501  0.25120694511E+02 -0.43029678735E+01 -0.90242480366E+01  0.27037046397E+02  0.00000000000E+00 0.  1.
</event>
<event>
 4    1  0.1589319E+006  0.2405350E+02  0.7546771E-02  0.1479677E+00
         21   -1    0    0  504  501  0.00000000000E+00  0.00000000000E+00  0.21962443493E+02  0.21962443493E+02  0.00000000000E+00 0.  1.
         21   -1    0    0  503  502 -0.00000000000E+00 -0.00000000000E+00 -0.40661536133E+02  0.40661536133E+02  0.00000000000E+00 0. -1.
         21    1    1    2  503  501  0.18965624988E+01  0.23978618492E+02  0.92309842530E+01  0.25763970275E+02  0.00000000000E+00 0.  1.
         21    1    1    2  504  502 -0.18965624988E+01 -0.23978618492E+02 -0.27930076893E+02  0.36860009350E+02  0.00000000000E+00 0. -1.
</event>
<event>
 4    1  0.1589319E+006  0.2015755E+02  0.7546771E-02  0.1531641E+00
         21   -1    0    0  504  501  0.00000000000E+00  0.00000000000E+00  0.13733810907E+02  0.13733810907E+02  0.00000000000E+00 0. -1.
         21   -1    0    0  503  502 -0.00000000000E+00 -0.00000000000E+00 -0.69970214262E+02  0.69970214262E+02  0.00000000000E+00 0. -1.
         21    1    1    2  503  501 -0.24975122832E+01 -0.20002226484E+02  0.36773457713E+01  0.20490229473E+02  0.00000000000E+00 0. -1.
         21    1    1    2  504  502  0.24975122832E+01  0.20002226484E+02 -0.59913749126E+02  0.63213795696E+02  0.00000000000E+00 0. -1.
</event>
<event>
 4    1  0.1589319E+006  0.2002079E+02  0.7546771E-02  0.1533718E+00
         21   -1    0    0  503  501  0.00000000000E+00  0.00000000000E+00  0.29740294177E+02  0.29740294177E+02  0.00000000000E+00 0.  1.
         21   -1    0    0  504  502 -0.00000000000E+00 -0.00000000000E+00 -0.18443937435E+02  0.18443937435E+02  0.00000000000E+00 0.  1.
         21    1    1    2  503  502  0.75442882260E+01 -0.18544963263E+02  0.18149620653E+02  0.27022965735E+02  0.00000000000E+00 0.  1.
         21    1    1    2  504  501 -0.75442882260E+01  0.18544963263E+02 -0.68532639111E+01  0.21161265876E+02  0.00000000000E+00 0.  1.
</event>
<event>
 4    1  0.1589319E+006  0.3852150E+02  0.7546771E-02  0.1357374E+00
         21   -1    0    0  503  501  0.00000000000E+00  0.00000000000E+00  0.57531068276E+02  0.57531068276E+02  0.00000000000E+00 0.  1.
         21   -1    0    0  504  502 -0.00000000000E+00 -0.00000000000E+00 -0.28619418876E+02  0.28619418876E+02  0.00000000000E+00 0.  1.
         21    1    1    2  503  502 -0.33768667854E+02  0.18536003192E+02  0.27992299668E+02  0.47618013227E+02  0.00000000000E+00 0.  1.
         21    1    1    2  504  501  0.33768667854E+02 -0.18536003192E+02  0.91934973132E+00  0.38532473926E+02  0.00000000000E+00 0.  1.
</event>
<event>
 4    1  0.1589319E+006  0.2392905E+02  0.7546771E-02  0.1481150E+00
         21   -1    0    0  503  501  0.00000000000E+00  0.00000000000E+00  0.75393467054E+02  0.75393467054E+02  0.00000000000E+00 0. -1.
         21   -1    0    0  501  502 -0.00000000000E+00 -0.00000000000E+00 -0.11813948293E+03  0.11813948293E+03  0.00000000000E+00 0. -1.
         21    1    1    2  503  504 -0.68701027596E+01 -0.22921633141E+02  0.72231396411E+02  0.76091880022E+02  0.00000000000E+00 0. -1.
         21    1    1    2  504  502  0.68701027596E+01  0.22921633141E+02 -0.11497741229E+03  0.11744106996E+03  0.00000000000E+00 0. -1.
</event>
<event>
 4    1  0.1589319E+006  0.2088663E+02  0.7546771E-02  0.1520890E+00
         21   -1    0    0  502  501  0.00000000000E+00  0.00000000000E+00  0.86266794499E+01  0.86266794499E+01  0.00000000000E+00 0. -1.
         21   -1    0    0  503  502 -0.00000000000E+00 -0.00000000000E+00 -0.72668662808E+02  0.72668662808E+02  0.00000000000E+00 0. -1.
         21    1    1    2  503  504  0.18130106238E+02  0.10370659860E+02 -0.54436309502E+02  0.58305772702E+02  0.00000000000E+00 0. -1.
         21    1    1    2  504  501 -0.18130106238E+02 -0.10370659860E+02 -0.96056738558E+01  0.22989569556E+02  0.00000000000E+00 0. -1.
</event>
<event>
 4    1  0.1589319E+006  0.2505038E+02  0.7546771E-02  0.1468241E+00
         21   -1    0    0  503  501  0.00000000000E+00  0.00000000000E+00  0.63047950309E+01  0.63047950309E+01  0.00000000000E+00 0.  1.
         21   -1    0    0  504  502 -0.00000000000E+00 -0.00000000000E+00 -0.10083826009E+03  0.10083826009E+03  0.00000000000E+00 0.  1.
         21    1    1    2  503  502 -0.10125206865E+02  0.22912919662E+02 -0.41166802886E+02  0.48189494304E+02  0.00000000000E+00 0.  1.
         21    1    1    2  504  501  0.10125206865E+02 -0.22912919662E+02 -0.53366662177E+02  0.58953560820E+02  0.00000000000E+00 0.  1.
</event>
<event>
 4    1  0.1589319E+006  0.2273595E+02  0.7546771E-02  0.1495841E+00
         21   -1    0    0  503  501  0.00000000000E+00  0.00000000000E+00  0.19918946757E+02  0.19918946757E+02  0.00000000000E+00 0.  1.
         21   -1    0    0  504  502 -0.00000000000E+00 -0.00000000000E+00 -0.96089318995E+02  0.96089318995E+02  0.00000000000E+00 0.  1.
         21    1    1    2  503  502 -0.10648015309E+02  0.20088378964E+02  0.11471017620E+02  0.25465809326E+02  0.00000000000E+00 0.  1.
         21    1    1    2  504  501  0.10648015309E+02 -0.20088378964E+02 -0.87641389858E+02  0.90542456426E+02  0.00000000000E+00 0.  1.
</event>
<event>
 4    1  0.1589319E+006  0.2848675E+02  0.7546771E-02  0.1433219E+00
         21   -1    0    0  502  501  0.00000000000E+00  0.00000000000E+00  0.56837592595E+03  0.56837592595E+03  0.00000000000E+00 0.  1.
         21   -1    0    0  503  502 -0.00000000000E+00 -0.00000000000E+00 -0.54684570046E+01  0.54684570046E+01  0.00000000000E+00 0. -1.
         21    1    1    2  503  504 -0.24449787177E+02  0.14618572867E+02  0.34815278313E+02  0.44984423634E+02  0.00000000000E+00 0. -1.
         21    1    1    2  504  501  0.24449787177E+02 -0.14618572867E+02  0.52809219064E+03  0.52885995932E+03  0.00000000000E+00 0.  1.
</event>
<event>
 4    1  0.1589319E+006  0.2113013E+02  0.7546771E-02  0.1517415E+00
         21   -1    0    0  502  501  0.00000000000E+00  0.00000000000E+00  0.73155719014E+01  0.73155719014E+01  0.00000000000E+00 0. -1.
         21   -1    0    0  503  502 -0.00000000000E+00 -0.00000000000E+00 -0.54751136331E+03  0.54751136331E+03  0.00000000000E+00 0.  1.
         21    1    1    2  503  504  0.19624397658E+02  0.78336024807E+01 -0.53159283324E+03  0.53201261514E+03  0.00000000000E+00 0.  1.
         21    1    1    2  504  501 -0.19624397658E+02 -0.78336024807E+01 -0.86029581683E+01  0.22814320076E+02  0.00000000000E+00 0. -1.
</event>
<event>
 4    1  0.1589319E+006  0.3074600E+02  0.7546771E-02  0.1413222E+00
         21   -1    0    0  504  501  0.00000000000E+00  0.00000000000E+00  0.59086861595E+02  0.59086861595E+02  0.00000000000E+00 0. -1.
         21   -1    0    0  503  502 -0.00000000000E+00 -0.00000000000E+00 -0.58239684852E+03  0.58239684852E+03  0.00000000000E+00 0. -1.
         21    1    1    2  503  501 -0.28563467893E+02  0.11377378106E+02  0.54650706850E+02  0.62705790720E+02  0.00000000000E+00 0. -1.
         21    1    1    2  504  502  0.28563467893E+02 -0.11377378106E+02 -0.57796069378E+03  0.57877791940E+03  0.00000000000E+00 0. -1.
</event>
<event>
 4    1  0.1589319E+006  0.2150724E+02  0.7546771E-02  0.1512145E+00
         21   -1    0    0  504  501  0.00000000000E+00  0.00000000000E+00  0.37393752327E+01  0.37393752327E+01  0.00000000000E+00 0. -1.
         21   -1    0    0  503  502 -0.00000000000E+00 -0.00000000000E+00 -0.15692463936E+03  0.15692463936E+03  0.00000000000E+00 0.  1.
         21    1    1    2  503  501 -0.11730658161E+02  0.18026452930E+02 -0.39629217231E+02  0.45089202748E+02  0.00000000000E+00 0. -1.
         21    1    1    2  504  502  0.11730658161E+02 -0.18026452930E+02 -0.11355604689E+03  0.11557481184E+03  0.00000000000E+00 0.  1.
</event>
<event>
 4    1  0.1589319E+006  0.2891058E+02  0.7546771E-02  0.1429306E+00
         21   -1    0    0  503  501  0.00000000000E+00  0.00000000000E+00  0.13162587795E+02  0.13162587795E+02  0.00000000000E+00 0. -1.
         21   -1    0    0  504  502 -0.00000000000E+00 -0.00000000000E+00 -0.10892505526E+03  0.10892505526E+03  0.00000000000E+00 0.  1.
         21    1    1    2  503  502 -0.27942921789E+02  0.74171768968E+01 -0.84603263019E+01  0.30123056159E+02  0.00000000000E+00 0. -1.
         21    1    1    2  504  501  0.27942921789E+02 -0.74171768968E+01 -0.87302141168E+02  0.91964586901E+02  0.00000000000E+00 0.  1.
</event>
<event>
 4    1  0.1589319E+006  0.2386699E+02  0.7546771E-02  0.1481889E+00
         21   -1    0    0  504  501  0.00000000000E+00  0.00000000000E+00  0.60290862906E+01  0.60290862906E+01  0.00000000000E+00 0. -1.
         21   -1    0    0  503  502 -0.00000000000E+00 -0.00000000000E+00 -0.21529004822E+03  0.21529004822E+03  0.00000000000E+00 0.  1.
         21    1    1    2  503  501  0.14143800485E+02 -0.19224622382E+02 -0.21735737684E+02  0.32281194070E+02  0.00000000000E+00 0. -1.
         21    1    1    2  504  502 -0.14143800485E+02  0.19224622382E+02 -0.18752522425E+03  0.18903794044E+03  0.00000000000E+00 0.  1.
</event>
<event>
 4    1  0.1589319E+006  0.2674627E+02  0.7546771E-02  0.1450174E+00
         21   -1    0    0  503  501  0.00000000000E+00  0.00000000000E+00  0.35259710914E+03  0.35259710914E+03  0.00000000000E+00 0. -1.
         21   -1    0    0  504  502 -0.00000000000E+00 -0.00000000000E+00 -0.39407606196E+01  0.39407606196E+01  0.00000000000E+00 0. -1.
         21    1    1    2  503  502 -0.20505004495E+02  0.17172878483E+02  0.50157047927E+02  0.56842698928E+02  0.00000000000E+00 0. -1.
         21    1    1    2  504  501  0.20505004495E+02 -0.17172878483E+02  0.29849930060E+03  0.29969517084E+03  0.00000000000E+00 0. -1.
</event>
<event>
 4    1  0.1589319E+006  0.2872667E+02  0.7546771E-02  0.1430994E+00
         21   -1    0    0  503  501  0.00000000000E+00  0.00000000000E+00  0.69550300692E+02  0.69550300692E+02  0.00000000000E+00 0.  1.
         21   -1    0    0  504  502 -0.00000000000E+00 -0.00000000000E+00 -0.22531132216E+02  0.22531132216E+02  0.00000000000E+00 0.  1.
         21    1    1    2  503  502  0.10070222464E+02 -0.26903757436E+02  0.55187159478E+02  0.62216108170E+02  0.00000000000E+00 0.  1.
         21    1    1    2  504  501 -0.10070222464E+02  0.26903757436E+02 -0.81679910017E+01  0.29865324737E+02  0.00000000000E+00 0.  1.
</event>
<event>
 4    1  0.1589319E+006  0.2601678E+02  0.7546771E-02  0.1457743E+00
         21   -1    0    0  504  501  0.00000000000E+00  0.00000000000E+00  0.25406576307E+03  0.25406576307E+03  0.00000000000E+00 0. -1.
         21   -1    0    0  501  502 -0.00000000000E+00 -0.00000000000E+00 -0.10372551661E+02  0.10372551661E+02  0.00000000000E+00 0. -1.
         21    1    1    2  503  502 -0.16471042126E+02 -0.20138953623E+02  0.78653662424E+01  0.27179710592E+02  0.00000000000E+00 0. -1.
         21    1    1    2  504  503  0.16471042126E+02  0.20138953623E+02  0.23582784517E+03  0.23725860414E+03  0.00000000000E+00 0. -1.
</event>
<event>
 4    1  0.1589319E+006  0.2043976E+02  0.7546771E-02  0.1527416E+00
         21   -1    0    0  503  501  0.00000000000E+00  0.00000000000E+00  0.33215472807E+02  0.33215472807E+02  0.00000000000E+00 0.  1.
         21   -1    0    0  504  502 -0.00000000000E+00 -0.00000000000E+00 -0.15395306683E+02  0.15395306683E+02  0.00000000000E+00 0.  1.
         21    1    1    2  503  502 -0.18806908325E+02 -0.80052504038E+01 -0.14873555951E+01  0.20493805440E+02  0.00000000000E+00 0.  1.
         21    1    1    2  504  501  0.18806908325E+02  0.80052504038E+01  0.19307521719E+02  0.28116974049E+02  0.00000000000E+00 0.  1.
</event>
<event>
 4    1  0.1589319E+006  0.2127255E+02  0.7546771E-02  0.1515409E+00
         21   -1    0    0  504  501  0.00000000000E+00  0.00000000000E+00  0.39538412844E+01  0.39538412844E+01  0.00000000000E+00 0.  1.
         21   -1    0    0  503  502 -0.00000000000E+00 -0.00000000000E+00 -0.41085234426E+03  0.41085234426E+03  0.00000000000E+00 0.  1.
         21    1    1    2  503  501  0.48536759757E+01  0.20711424281E+02 -0.27287185405E+02  0.34599302790E+02  0.00000000000E+00 0.  1.
         21    1    1    2  504  502 -0.48536759757E+01 -0.20711424281E+02 -0.37961131757E+03  0.38020688276E+03  0.00000000000E+00 0.  1.
</event>
<event>
 4    1  0.1589319E+006  0.2168738E+02  0.7546771E-02  0.1509673E+00
         21   -1    0    0  503  501  0.00000000000E+00  0.00000000000E+00  0.72899413635E+00  0.72899413635E+00  0.00000000000E+00 0.  1.
         21   -1    0    0  504  502 -0.00000000000E+00 -0.00000000000E+00 -0.10954044801E+04  0.10954044801E+04  0.00000000000E+00 0.  1.
         21    1    1    2  503  502 -0.21605195743E+02  0.18862890536E+01 -0.89869913357E+03  0.89896077515E+03  0.00000000000E+00 0.  1.
         21    1    1    2  504  501  0.21605195743E+02 -0.18862890536E+01 -0.19597635237E+03  0.19717269907E+03  0.00000000000E+00 0.  1.
</event>
<event>
 4    1  0.1589319E+006  0.2436127E+02  0.7546771E-02  0.1476077E+00
         21   -1    0    0  504  501  0.00000000000E+00  0.00000000000E+00  0.15798858195E+02  0.15798858195E+02  0.00000000000E+00 0.  1.
         21   -1    0    0  503  502 -0.00000000000E+00 -0.00000000000E+00 -0.41640050283E+02  0.41640050283E+02  0.00000000000E+00 0.  1.
         21    1    1    2  503  501 -0.16516390073E+02  0.17907550421E+02 -0.21905833453E+02  0.32761822940E+02  0.00000000000E+00 0.  1.
         21    1    1    2  504  502  0.16516390073E+02 -0.17907550421E+02 -0.39353586355E+01  0.24677085539E+02  0.00000000000E+00 0.  1.
</event>
<event>
 4    1  0.1589319E+006  0.2634849E+02  0.7546771E-02  0.1454265E+00
         21   -1    0    0  503  501  0.00000000000E+00  0.00000000000E+00  0.24130898677E+03  0.24130898677E+03  0.00000000000E+00 0.  1.
         21   -1    0    0  504  502 -0.00000000000E+00 -0.00000000000E+00 -0.12949029543E+02  0.12949029543E+02  0.00000000000E+00 0. -1.
         21    1    1    2  503  502  0.70046181872E+01 -0.25400361304E+02  0.20595357210E+01  0.26428861454E+02  0.00000000000E+00 0. -1.
         21    1    1    2  504  501 -0.70046181872E+01  0.25400361304E+02  0.22630042150E+03  0.22782915486E+03  0.00000000000E+00 0.  1.
</event>
<event>
 4    1  0.1589319E+006  0.2302376E+02  0.7546771E-02  0.1492200E+00
         21   -1    0    0  503  501  0.00000000000E+00  0.00000000000E+00  0.30876303547E+01  0.30876303547E+01  0.00000000000E+00 0. -1.
         21   -1    0    0  504  502 -0.00000000000E+00 -0.00000000000E+00 -0.57045656787E+03  0.57045656787E+03  0.00000000000E+00 0. -1.
         21    1    1    2  503  502  0.20902042213E+02  0.96539158972E+01 -0.43917795825E+02  0.49586956460E+02  0.00000000000E+00 0. -1.
         21    1    1    2  504  501 -0.20902042213E+02 -0.96539158972E+01 -0.52345114169E+03  0.52395724176E+03  0.00000000000E+00 0. -1.
</event>
<event>
 4    1  0.1589319E+006  0.2000514E+02  0.7546771E-02  0.1533957E+00
         21   -1    0    0  503  501  0.00000000000E+00  0.00000000000E+00  0.67696318741E+01  0.67696318741E+01  0.00000000000E+00 0. -1.
         21   -1    0    0  501  502 -0.00000000000E+00 -0.00000000000E+00 -0.23670672409E+03  0.23670672409E+03  0.00000000000E+00 0.  1.
         21    1    1    2  503  504 -0.11570449238E+02  0.16319624700E+02 -0.95226961746E+01  0.22155974101E+02  0.00000000000E+00 0. -1.
         21    1    1    2  504  502  0.11570449238E+02 -0.16319624700E+02 -0.22041439604E+03  0.22132038186E+03  0.00000000000E+00 0.  1.
</event>
<event>
 4    1  0.1589319E+006  0.2308951E+02  0.7546771E-02  0.1491377E+00
         21   -1    0    0  504  501  0.00000000000E+00  0.00000000000E+00  0.14179315623E+04  0.14179315623E+04  0.00000000000E+00 0. -1.
         21   -1    0    0  503  502 -0.00000000000E+00 -0.00000000000E+00 -0.50397958842E+00  0.50397958842E+00  0.00000000000E+00 0. -1.
         21    1    1    2  503  501 -0.72150090234E-01  0.23089401218E+02  0.35130653233E+03  0.35206449028E+03  0.00000000000E+00 0. -1.
         21    1    1    2  504  502  0.72150090234E-01 -0.23089401218E+02  0.10661210504E+04  0.10663710516E+04  0.00000000000E+00 0. -1.
</event>
<event>
 4    1  0.1589319E+006  0.2421807E+02  0.7546771E-02  0.1477744E+00
         21   -1    0    0  502  501  0.00000000000E+00  0.00000000000E+00  0.47872918296E+01  0.47872918296E+01  0.00000000000E+00 0.  1.
         21   -1    0    0  503  502 -0.00000000000E+00 -0.00000000000E+00 -0.41687643289E+03  0.41687643289E+03  0.00000000000E+00 0. -1.
         21    1    1    2  503  504 -0.12003844381E+02 -0.21033849466E+02 -0.38320756829E+03  0.38397207645E+03  0.00000000000E+00 0. -1.
         21    1    1    2  504  501  0.12003844381E+02  0.21033849466E+02 -0.28881572778E+02  0.37691648271E+02  0.00000000000E+00 0.  1.
</event>
<event>
 4    1  0.1589319E+006  0.2007533E+02  0.7546771E-02  0.1532887E+00
         21   -1    0    0  504  501  0.00000000000E+00  0.00000000000E+00  0.20299445950E+02  0.20299445950E+02  0.00000000000E+00 0.  1.
         21   -1    0    0  503  502 -0.00000000000E+00 -0.00000000000E+00 -0.92521984281E+03  0.92521984281E+03  0.00000000000E+00 0.  1.
         21    1    1    2  503  501 -0.17749488077E+02  0.93794796676E+01 -0.92012001458E+03  0.92033899200E+03  0.00000000000E+00 0.  1.
         21    1    1    2  504  502  0.17749488077E+02 -0.93794796676E+01  0.15199617723E+02  0.25180296756E+02  0.00000000000E+00 0.  1.
</event>
<event>
 4    1  0.1589319E+006  0.2924747E+02  0.7546771E-02  0.1426251E+00
         21   -1    0    0  504  501  0.00000000000E+00  0.00000000000E+00  0.73378038822E+01  0.73378038822E+01  0.00000000000E+00 0.  1.
         21   -1    0    0  503  502 -0.00000000000E+00 -0.00000000000E+00 -0.15350885012E+03  0.15350885012E+03  0.00000000000E+00 0.  1.
         21    1    1    2  503  501 -0.10182429581E+02  0.27417744430E+02 -0.33638019091E+02  0.44575003199E+02  0.00000000000E+00 0.  1.
         21    1    1    2  504  502  0.10182429581E+02 -0.27417744430E+02 -0.11253302715E+03  0.11627165080E+03  0.00000000000E+00 0.  1.
</event>
<event>
 4    1  0.1589319E+006  0.3218015E+02  0.7546771E-02  0.1401551E+00
         21   -1    0    0  502  501  0.00000000000E+00  0.00000000000E+00  0.95995405259E+03  0.95995405259E+03  0.00000000000E+00 0. -1.
         21   -1    0    0  504  502 -0.00000000000E+00 -0.00000000000E+00 -0.98610407986E+01  0.98610407986E+01  0.00000000000E+00 0.  1.
         21    1    1    2  503  501  0.30402778500E+02 -0.10546704544E+02  0.93266248019E+03  0.93321747941E+03  0.00000000000E+00 0. -1.
         21    1    1    2  504  503 -0.30402778500E+02  0.10546704544E+02  0.17430531602E+02  0.36597613982E+02  0.00000000000E+00 0.  1.
</event>
<event>
 4    1  0.1589319E+006  0.2907111E+02  0.7546771E-02  0.1427844E+00
         21   -1    0    0  502  501  0.00000000000E+00  0.00000000000E+00  0.20017692734E+03  0.20017692734E+03  0.00000000000E+00 0.  1.
         21   -1    0    0  503  502 -0.00000000000E+00 -0.00000000000E+00 -0.14473140736E+02  0.14473140736E+02  0.00000000000E+00 0.  1.
         21    1    1    2  503  504 -0.24799695922E+02 -0.15169195057E+02  0.25269699524E+01  0.29180729491E+02  0.00000000000E+00 0.  1.
         21    1    1    2  504  501  0.24799695922E+02  0.15169195057E+02  0.18317681665E+03  0.18546933859E+03  0.00000000000E+00 0.  1.
</event>
<event>
 4    1  0.1589319E+006  0.3958261E+02  0.7546771E-02  0.1350949E+00
         21   -1    0    0  502  501  0.00000000000E+00  0.00000000000E+00  0.13007807356E+02  0.13007807356E+02  0.00000000000E+00 0.  1.
         21   -1    0    0  504  502 -0.00000000000E+00 -0.00000000000E+00 -0.47511083805E+03  0.47511083805E+03  0.00000000000E+00 0. -1.
         21    1    1    2  503  501 -0.17186338669E+02  0.35656879405E+02 -0.20186328228E+02  0.44432770937E+02  0.00000000000E+00 0.  1.
         21    1    1    2  504  503  0.17186338669E+02 -0.35656879405E+02 -0.44191670247E+03  0.44368587447E+03  0.00000000000E+00 0. -1.
</event>
<event>
 4    1  0.1589319E+006  0.2009421E+02  0.7546771E-02  0.1532600E+00
         21   -1    0    0  504  501  0.00000000000E+00  0.00000000000E+00  0.10624469857E+02  0.10624469857E+02  0.00000000000E+00 0.  1.
         21   -1    0    0  501  502 -0.00000000000E+00 -0.00000000000E+00 -0.20931541367E+03  0.20931541367E+03  0.00000000000E+00 0. -1.
         21    1    1    2  503  502  0.87782824934E+01 -0.18075369251E+02 -0.19883238576E+03  0.19984517719E+03  0.00000000000E+00 0. -1.
         21    1    1    2  504  503 -0.87782824934E+01  0.18075369251E+02  0.14144194951E+00  0.20094706341E+02  0.00000000000E+00 0.  1.
</event>
<event>
 4    1  0.1589319E+006  0.2222559E+02  0.7546771E-02  0.1502458E+00
         21   -1    0    0  503  501  0.00000000000E+00  0.00000000000E+00  0.39783249133E+02  0.39783249133E+02  0.00000000000E+00 0.  1.
         21   -1    0    0  504  502 -0.00000000000E+00 -0.00000000000E+00 -0.25289109376E+02  0.25289109376E+02  0.00000000000E+00 0.  1.
         21    1    1    2  503  502 -0.46363921464E+01 -0.21736621886E+02  0.30459981832E+02  0.37706595661E+02  0.00000000000E+00 0.  1.
         21    1    1    2  504  501  0.46363921464E+01  0.21736621886E+02 -0.15965842074E+02  0.27365762848E+02  0.00000000000E+00 0.  1.
</event>
<event>
 4    1  0.1589319E+006  0.2759400E+02  0.7546771E-02  0.1441731E+00
         21   -1    0    0  503  501  0.00000000000E+00  0.00000000000E+00  0.11425106008E+04  0.11425106008E+04  0.00000000000E+00 0.  1.
         21   -1    0    0  504  502 -0.00000000000E+00 -0.00000000000E+00 -0.13839008502E+01  0.13839008502E+01  0.00000000000E+00 0.  1.
         21    1    1    2  503  502  0.25636482675E+02  0.10207823515E+02  0.98237520700E+03  0.98276267544E+03  0.00000000000E+00 0.  1.
         21    1    1    2  504  501 -0.25636482675E+02 -0.10207823515E+02  0.15875149296E+03  0.16113182623E+03  0.00000000000E+00 0.  1.
</event>
<event>
 4    1  0.1589319E+006  0.2571463E+02  0.7546771E-02  0.1460965E+00
         21   -1    0    0  502  501  0.00000000000E+00  0.00000000000E+00  0.11507064298E+03  0.11507064298E+03  0.00000000000E+00 0.  1.
         21   -1    0    0  504  502 -0.00000000000E+00 -0.00000000000E+00 -0.22678339831E+03  0.22678339831E+03  0.00000000000E+00 0. -1.
         21    1    1    2  503  501 -0.24292000537E+02 -0.84345111254E+01  0.11289121176E+03  0.11578284830E+03  0.00000000000E+00 0.  1.
         21    1    1    2  504  503  0.24292000537E+02  0.84345111254E+01 -0.22460396708E+03  0.22607119299E+03  0.00000000000E+00 0. -1.
</event>
<event>
 4    1  0.1589319E+006  0.2367664E+02  0.7546771E-02  0.1484172E+00
         21   -1    0    0  504  501  0.00000000000E+00  0.00000000000E+00  0.43460312968E+02  0.43460312968E+02  0.00000000000E+00 0. -1.
         21   -1    0    0  503  502 -0.00000000000E+00 -0.00000000000E+00 -0.15141790728E+03  0.15141790728E+03  0.00000000000E+00 0.  1.
         21    1    1    2  503  501 -0.12735922357E+02  0.19959449215E+02  0.39217707276E+02  0.45810608981E+02  0.00000000000E+00 0. -1.
         21    1    1    2  504  502  0.12735922357E+02 -0.19959449215E+02 -0.14717530159E+03  0.14906761127E+03  0.00000000000E+00 0.  1.
</event>
<event>
 4    1  0.1589319E+006  0.3094124E+02  0.7546771E-02  0.1411589E+00
         21   -1    0    0  503  501  0.00000000000E+00  0.00000000000E+00  0.56403553157E+03  0.56403553157E+03  0.00000000000E+00 0. -1.
         21   -1    0    0  504  502 -0.00000000000E+00 -0.00000000000E+00 -0.30264319584E+01  0.30264319584E+01  0.00000000000E+00 0. -1.
         21    1    1    2  503  502  0.16993991108E+02 -0.25856613042E+02  0.46839839315E+03  0.46941923147E+03  0.00000000000E+00 0. -1.
         21    1    1    2  504  501 -0.16993991108E+02  0.25856613042E+02  0.92610706462E+02  0.97642732055E+02  0.00000000000E+00 0. -1.
</event>
<event>
 4    1  0.1589319E+006  0.2250775E+02  0.7546771E-02  0.1498774E+00
         21   -1    0    0  504  501  0.00000000000E+00  0.00000000000E+00  0.16087322659E+02  0.16087322659E+02  0.00000000000E+00 0.  1.
         21   -1    0    0  503  502 -0.00000000000E+00 -0.00000000000E+00 -0.19145382017E+03  0.19145382017E+03  0.00000000000E+00 0. -1.
         21    1    1    2  503  501  0.10473418179E+02  0.19922507531E+02 -0.18253652013E+03  0.18391894947E+03  0.00000000000E+00 0. -1.
         21    1    1    2  504  502 -0.10473418179E+02 -0.19922507531E+02  0.71700226169E+01  0.23622193357E+02  0.00000000000E+00 0.  1.
</event>
<event>
 4    1  0.1589319E+006  0.2368692E+02  0.7546771E-02  0.1484048E+00
         21   -1    0    0  504  501  0.00000000000E+00  0.00000000000E+00  0.51745191460E+02  0.51745191460E+02  0.00000000000E+00 0. -1.
         21   -1    0    0  501  502 -0.00000000000E+00 -0.00000000000E+00 -0.16386338862E+02  0.16386338862E+02  0.00000000000E+00 0. -1.
         21    1    1    2  503  502 -0.85613260084E+01 -0.22085599499E+02 -0.21342582827E+01  0.23782873389E+02  0.00000000000E+00 0. -1.
         21    1    1    2  504  503  0.85613260084E+01  0.22085599499E+02  0.37493110880E+02  0.44348656933E+02  0.00000000000E+00 0. -1.
</event>
<event>
 4    1  0.1589319E+006  0.4543443E+02  0.7546771E-02  0.1319281E+00
         21   -1    0    0  504  501  0.00000000000E+00  0.00000000000E+00  0.16525364159E+03  0.16525364159E+03  0.00000000000E+00 0.  1.
         21   -1    0    0  503  502 -0.00000000000E+00 -0.00000000000E+00 -0.12499588552E+02  0.12499588552E+02  0.00000000000E+00 0.  1.
         21    1    1    2  503  501  0.24964113680E+02 -0.37961566454E+02  0.74134531519E+02  0.86949504099E+02  0.00000000000E+00 0.  1.
         21    1    1    2  504  502 -0.24964113680E+02  0.37961566454E+02  0.78619521520E+02  0.90803726044E+02  0.00000000000E+00 0.  1.
</event>
<event>
 4    1  0.1589319E+006  0.2922655E+02  0.7546771E-02  0.1426439E+00
         21   -1    0    0  503  501  0.00000000000E+00  0.00000000000E+00  0.33760227280E+02  0.33760227280E+02  0.00000000000E+00 0. -1.
         21   -1    0    0  501  502 -0.00000000000E+00 -0.00000000000E+00 -0.82305726247E+03  0.82305726247E+03  0.00000000000E+00 0. -1.
         21    1    1    2  503  504  0.26281899161E+02 -0.12784877370E+02  0.27123944386E+02  0.39873546016E+02  0.00000000000E+00 0. -1.
         21    1    1    2  504  502 -0.26281899161E+02  0.12784877370E+02 -0.81642097957E+03  0.81694394373E+03  0.00000000000E+00 0. -1.
</event>
<event>
 4    1  0.1589319E+006  0.2164736E+02  0.7546771E-02  0.1510220E+00
         21   -1    0    0  504  501  0.00000000000E+00  0.00000000000E+00  0.74415082804E+01  0.74415082804E+01  0.00000000000E+00 0.  1.
         21   -1    0    0  503  502 -0.00000000000E+00 -0.00000000000E+00 -0.65807711407E+02  0.65807711407E+02  0.00000000000E+00 0. -1.
         21    1    1    2  503  501  0.15977081246E+02 -0.14606193440E+02 -0.36785518957E+02  0.42682343151E+02  0.00000000000E+00 0.  1.
         21    1    1    2  504  502 -0.15977081246E+02  0.14606193440E+02 -0.21580684169E+02  0.30566876536E+02  0.00000000000E+00 0. -1.
</event>
<event>
 4    1  0.1589319E+006  0.2219154E+02  0.7546771E-02  0.1502907E+00
         21   -1    0    0  504  501  0.00000000000E+00  0.00000000000E+00  0.20083868755E+03  0.20083868755E+03  0.00000000000E+00 0. -1.
         21   -1    0    0  503  502 -0.00000000000E+00 -0.00000000000E+00 -0.62238534040E+01  0.62238534040E+01  0.00000000000E+00 0.  1.
         21    1    1    2  503  501 -0.12410950294E+02  0.18396542061E+02  0.16710769116E+02  0.27779745346E+02  0.00000000000E+00 0.  1.
         21    1    1    2  504  502  0.12410950294E+02 -0.18396542061E+02  0.17790406503E+03  0.17928279561E+03  0.00000000000E+00 0. -1.
</event>
<event>
 4    1  0.1589319E+006  0.2368327E+02  0.7546771E-02  0.1484092E+00
         21   -1    0    0  502  501  0.00000000000E+00  0.00000000000E+00  0.26916625632E+03  0.26916625632E+03  0.00000000000E+00 0.  1.
         21   -1    0    0  503  502 -0.00000000000E+00 -0.00000000000E+00 -0.13002306488E+02  0.13002306488E+02  0.00000000000E+00 0. -1.
         21    1    1    2  503  504 -0.54250231616E+01  0.23053558729E+02 -0.12033999287E+01  0.23713827565E+02  0.00000000000E+00 0. -1.
         21    1    1    2  504  501  0.54250231616E+01 -0.23053558729E+02  0.25736734976E+03  0.25845473524E+03  0.00000000000E+00 0.  1.
</event>
<event>
 4    1  0.1589319E+006  0.3217555E+02  0.7546771E-02  0.1401587E+00
         21   -1    0    0  504  501  0.00000000000E+00  0.00000000000E+00  0.17514003671E+03  0.17514003671E+03  0.00000000000E+00 0.  1.
         21   -1    0    0  503  502 -0.00000000000E+00 -0.00000000000E+00 -0.22072172135E+03  0.22072172135E+03  0.00000000000E+00 0. -1.
         21    1    1    2  503  501 -0.56444501911E+01 -0.31676583645E+02 -0.21805337489E+03  0.22041447337E+03  0.00000000000E+00 0. -1.
         21    1    1    2  504  502  0.56444501911E+01  0.31676583645E+02  0.17247169025E+03  0.17544728469E+03  0.00000000000E+00 0.  1.
</event>
<event>
 4    1  0.1589319E+006  0.2760650E+02  0.7546771E-02  0.1441609E+00
         21   -1    0    0  503  501  0.00000000000E+00  0.00000000000E+00  0.36260939539E+03  0.36260939539E+03  0.00000000000E+00 0.  1.
         21   -1    0    0  504  502 -0.00000000000E+00 -0.00000000000E+00 -0.23658203171E+01  0.23658203171E+01  0.00000000000E+00 0.  1.
         21    1    1    2  503  502  0.27383020021E+02  0.35055483544E+01  0.24108844850E+03  0.24266387999E+03  0.00000000000E+00 0.  1.
         21    1    1    2  504  501 -0.27383020021E+02 -0.35055483544E+01  0.11915512658E+03  0.12231133571E+03  0.00000000000E+00 0.  1.
</event>
<event>
 4    1  0.1589319E+006  0.2347750E+02  0.7546771E-02  0.1486588E+00
         21   -1    0    0  504  501  0.00000000000E+00  0.00000000000E+00  0.14246800010E+03  0.14246800010E+03  0.00000000000E+00 0. -1.
         21   -1    0    0  503  502 -0.00000000000E+00 -0.00000000000E+00 -0.22505421232E+03  0.22505421232E+03  0.00000000000E+00 0. -1.
         21    1    1    2  503  501 -0.23345912708E+02 -0.24822366246E+01  0.14088164080E+03  0.14282447218E+03  0.00000000000E+00 0. -1.
         21    1    1    2  504  502  0.23345912708E+02  0.24822366246E+01 -0.22346785301E+03  0.22469774024E+03  0.00000000000E+00 0. -1.
</event>
<event>
 4    1  0.1589319E+006  0.2134434E+02  0.7546771E-02  0.1514405E+00
         21   -1    0    0  503  501  0.00000000000E+00  0.00000000000E+00  0.24912118610E+03  0.24912118610E+03  0.00000000000E+00 0. -1.
         21   -1    0    0  504  502 -0.00000000000E+00 -0.00000000000E+00 -0.11066503248E+02  0.11066503248E+02  0.00000000000E+00 0. -1.
         21    1    1    2  503  502  0.28784212501E+01  0.21149359318E+02  0.23788705721E+03  0.23884269446E+03  0.00000000000E+00 0. -1.
         21    1    1    2  504  501 -0.28784212501E+01 -0.21149359318E+02  0.16762564290E+00  0.21344994889E+02  0.00000000000E+00 0. -1.
</event>
<event>
 4    1  0.1589319E+006  0.2120191E+02  0.7546771E-02  0.1516402E+00
         21   -1    0    0  504  501  0.00000000000E+00  0.00000000000E+00  0.39802503802E+03  0.39802503802E+03  0.00000000000E+00 0.  1.
         21   -1    0    0  501  502 -0.00000000000E+00 -0.00000000000E+00 -0.14844271923E+01  0.14844271923E+01  0.00000000000E+00 0.  1.
         21    1    1    2  503  502  0.66834001321E+01  0.20120958120E+02  0.10057767996E+03  0.10278808539E+03  0.00000000000E+00 0.  1.
         21    1    1    2  504  503 -0.66834001321E+01 -0.20120958120E+02  0.29596293087E+03  0.29672137982E+03  0.00000000000E+00 0.  1.
</event>
<event>
 4    1  0.1589319E+006  0.3414056E+02  0.7546771E-02  0.1386708E+00
         21   -1    0    0  502  501  0.00000000000E+00  0.00000000000E+00  0.74407628612E+02  0.74407628612E+02  0.00000000000E+00 0. -1.
         21   -1    0    0  503  502 -0.00000000000E+00 -0.00000000000E+00 -0.27273862197E+02  0.27273862197E+02  0.00000000000E+00 0. -1.
         21    1    1    2  503  504 -0.42575465770E+01  0.33874052722E+02 -0.96025292182E+01  0.35465288919E+02  0.00000000000E+00 0. -1.
         21    1    1    2  504  501  0.42575465770E+01 -0.33874052722E+02  0.56736295633E+02  0.66216201891E+02  0.00000000000E+00 0. -1.
</event>
<event>
 4    1  0.1589319E+006  0.2792693E+02  0.7546771E-02  0.1438513E+00
         21   -1    0    0  504  501  0.00000000000E+00  0.00000000000E+00  0.42937874565E+02  0.42937874565E+02  0.00000000000E+00 0.  1.
         21   -1    0    0  501  502 -0.00000000000E+00 -0.00000000000E+00 -0.81536562000E+02  0.81536562000E+02  0.00000000000E+00 0. -1.
         21    1    1    2  503  502 -0.27274513690E+02 -0.60011836269E+01 -0.74168139193E+02  0.79251663537E+02  0.00000000000E+00 0. -1.
         21    1    1    2  504  503  0.27274513690E+02  0.60011836269E+01  0.35569451758E+02  0.45222773028E+02  0.00000000000E+00 0.  1.
</event>
<event>
 4    1  0.1589319E+006  0.4006471E+02  0.7546771E-02  0.1348107E+00
         21   -1    0    0  502  501  0.00000000000E+00  0.00000000000E+00  0.13557770336E+02  0.13557770336E+02  0.00000000000E+00 0.  1.
         21   -1    0    0  503  502 -0.00000000000E+00 -0.00000000000E+00 -0.25427709197E+03  0.25427709197E+03  0.00000000000E+00 0.  1.
         21    1    1    2  503  504 -0.36873414377E+02  0.15669476540E+02 -0.21825534537E+03  0.22190217882E+03  0.00000000000E+00 0.  1.
         21    1    1    2  504  501  0.36873414377E+02 -0.15669476540E+02 -0.22463976269E+02  0.45932683491E+02  0.00000000000E+00 0.  1.
</event>
<event>
 4    1  0.1589319E+006  0.2005395E+02  0.7546771E-02  0.1533213E+00
         21   -1    0    0  503  501  0.00000000000E+00  0.00000000000E+00  0.21060407073E+02  0.21060407073E+02  0.00000000000E+00 0. -1.
         21   -1    0    0  504  502 -0.00000000000E+00 -0.00000000000E+00 -0.19568350689E+02  0.19568350689E+02  0.00000000000E+00 0.  1.
         21    1    1    2  503  502 -0.14432122346E+02 -0.13923884769E+02  0.39035834455E+01  0.20430337397E+02  0.00000000000E+00 0. -1.
         21    1    1    2  504  501  0.14432122346E+02  0.13923884769E+02 -0.24115270622E+01  0.20198420365E+02  0.00000000000E+00 0.  1.
</event>
<event>
 4    1  0.1589319E+006  0.2035150E+02  0.7546771E-02  0.1528728E+00
         21   -1    0    0  503  501  0.00000000000E+00  0.00000000000E+00  0.56204824329E+00  0.56204824329E+00  0.00000000000E+00 0.  1.
         21   -1    0    0  504  502 -0.00000000000E+00 -0.00000000000E+00 -0.74722909520E+03  0.74722909520E+03  0.00000000000E+00 0.  1.
         21    1    1    2  503  502 -0.97198739270E+01  0.17880370919E+02 -0.41725433556E+03  0.41775036105E+03  0.00000000000E+00 0.  1.
         21    1    1    2  504  501  0.97198739270E+01 -0.17880370919E+02 -0.32941271140E+03  0.33004078239E+03  0.00000000000E+00 0.  1.
</event>
<event>
 4    1  0.1589319E+006  0.2188827E+02  0.7546771E-02  0.1506951E+00
         21   -1    0    0  503  501  0.00000000000E+00  0.00000000000E+00  0.32254109894E+01  0.32254109894E+01  0.00000000000E+00 0. -1.
         21   -1    0    0  504  502 -0.00000000000E+00 -0.00000000000E+00 -0.18210965145E+03  0.18210965145E+03  0.00000000000E+00 0. -1.
         21    1    1    2  503  502 -0.19927781955E+02 -0.90542666754E+01 -0.12922966875E+03  0.13107022363E+03  0.00000000000E+00 0. -1.
         21    1    1    2  504  501  0.19927781955E+02  0.90542666754E+01 -0.49654571715E+02  0.54264838808E+02  0.00000000000E+00 0. -1.
</event>
<event>
 4    1  0.1589319E+006  0.3708033E+02  0.7546771E-02  0.1366500E+00
         21   -1    0    0  503  501  0.00000000000E+00  0.00000000000E+00  0.70262145213E+02  0.70262145213E+02  0.00000000000E+00 0. -1.
         21   -1    0    0  504  502 -0.00000000000E+00 -0.00000000000E+00 -0.53486575733E+03  0.53486575733E+03  0.00000000000E+00 0.  1.
         21    1    1    2  503  502 -0.30682554081E+02 -0.20821423504E+02  0.64675692709E+02  0.74551297971E+02  0.00000000000E+00 0. -1.
         21    1    1    2  504  501  0.30682554081E+02  0.20821423504E+02 -0.52927930483E+03  0.53057660457E+03  0.00000000000E+00 0.  1.
</event>
<event>
 4    1  0.1589319E+006  0.3429981E+02  0.7546771E-02  0.1385554E+00
         21   -1    0    0  504  501  0.00000000000E+00  0.00000000000E+00  0.16118445502E+02  0.16118445502E+02  0.00000000000E+00 0. -1.
         21   -1    0    0  503  502 -0.00000000000E+00 -0.00000000000E+00 -0.79451121336E+02  0.79451121336E+02  0.00000000000E+00 0. -1.
         21    1    1    2  503  501  0.31798100435E+02 -0.12859163743E+02 -0.45293654554E+02  0.56815424194E+02  0.00000000000E+00 0. -1.
         21    1    1    2  504  502 -0.31798100435E+02  0.12859163743E+02 -0.18039021280E+02  0.38754142645E+02  0.00000000000E+00 0. -1.
</event>
<event>
 4    1  0.1589319E+006  0.2320496E+02  0.7546771E-02  0.1489940E+00
         21   -1    0    0  503  501  0.00000000000E+00  0.00000000000E+00  0.15704116877E+04  0.15704116877E+04  0.00000000000E+00 0. -1.
         21   -1    0    0  501  502 -0.00000000000E+00 -0.00000000000E+00 -0.83860981485E+00  0.83860981485E+00  0.00000000000E+00 0. -1.
         21    1    1    2  503  504 -0.19523547770E+02 -0.12541986836E+02  0.13888127836E+04  0.13890066301E+04  0.00000000000E+00 0. -1.
         21    1    1    2  504  502  0.19523547770E+02  0.12541986836E+02  0.18076029419E+03  0.18224366740E+03  0.00000000000E+00 0. -1.
</event>
<event>
 4    1  0.1589319E+006  0.2683657E+02  0.7546771E-02  0.1449257E+00
         21   -1    0    0  503  501  0.00000000000E+00  0.00000000000E+00  0.11467673939E+03  0.11467673939E+03  0.00000000000E+00 0. -1.
         21   -1    0    0  504  502 -0.00000000000E+00 -0.00000000000E+00 -0.28891970016E+02  0.28891970016E+02  0.00000000000E+00 0. -1.
         21    1    1    2  503  502 -0.53836010539E+01  0.26291036043E+02 -0.20612591764E+02  0.33839040704E+02  0.00000000000E+00 0. -1.
         21    1    1    2  504  501  0.53836010539E+01 -0.26291036043E+02  0.10639736114E+03  0.10972966870E+03  0.00000000000E+00 0. -1.
</event>
<event>
 4    1  0.1589319E+006  0.2041554E+02  0.7546771E-02  0.1527775E+00
         21   -1    0    0  502  501  0.00000000000E+00  0.00000000000E+00  0.44240019247E+02  0.44240019247E+02  0.00000000000E+00 0.  1.
         21   -1    0    0  503  502 -0.00000000000E+00 -0.00000000000E+00 -0.97834548977E+03  0.97834548977E+03  0.00000000000E+00 0.  1.
         21    1    1    2  503  504 -0.14985881247E+02  0.13864251992E+02 -0.97587772930E+03  0.97609125427E+03  0.00000000000E+00 0.  1.
         21    1    1    2  504  501  0.14985881247E+02 -0.13864251992E+02  0.41772258783E+02  0.46494254741E+02  0.00000000000E+00 0.  1.
</event>
<event>
 4    1  0.1589319E+006  0.2068051E+02  0.7546771E-02  0.1523876E+00
         21   -1    0    0  504  501  0.00000000000E+00  0.00000000000E+00  0.11977292235E+02  0.11977292235E+02  0.00000000000E+00 0.  1.
         21   -1    0    0  503  502 -0.00000000000E+00 -0.00000000000E+00 -0.38706357550E+03  0.38706357550E+03  0.00000000000E+00 0.  1.
         21    1    1    2  503  501  0.19054649109E+02 -0.80376452373E+01  0.25514425536E+01  0.20837304353E+02  0.00000000000E+00 0.  1.
         21    1    1    2  504  502 -0.19054649109E+02  0.80376452373E+01 -0.37763772581E+03  0.37820356338E+03  0.00000000000E+00 0.  1.
</event>
<event>
 4    1  0.1589319E+006  0.4654072E+02  0.7546771E-02  0.1313910E+00
         21   -1    0    0  503  501  0.00000000000E+00  0.00000000000E+00  0.88027929765E+03  0.88027929765E+03  0.00000000000E+00 0.  1.
         21   -1    0    0  504  502 -0.00000000000E+00 -0.00000000000E+00 -0.40561991251E+01  0.40561991251E+01  0.00000000000E+00 0.  1.
         21    1    1    2  503  502  0.40950092328E+02 -0.22116252694E+02  0.16078867220E+03  0.16738887598E+03  0.00000000000E+00 0.  1.
         21    1    1    2  504  501 -0.40950092328E+02  0.22116252694E+02  0.71543442633E+03  0.71694662080E+03  0.00000000000E+00 0.  1.
</event>
<event>
 4    1  0.1589319E+006  0.4011697E+02  0.7546771E-02  0.1347802E+00
         21   -1    0    0  504  501  0.00000000000E+00  0.00000000000E+00  0.45308945546E+01  0.45308945546E+01  0.00000000000E+00 0. -1.
         21   -1    0    0  503  502 -0.00000000000E+00 -0.00000000000E+00 -0.35551326271E+03  0.35551326271E+03  0.00000000000E+00 0. -1.
         21    1    1    2  503  501  0.39116339559E+02  0.89041159088E+01 -0.18083960995E+03  0.18523589239E+03  0.00000000000E+00 0. -1.
         21    1    1    2  504  502 -0.39116339559E+02 -0.89041159088E+01 -0.17014275820E+03  0.17480826488E+03  0.00000000000E+00 0. -1.
</event>
<event>
 4    1  0.1589319E+006  0.2011846E+02  0.7546771E-02  0.1532232E+00
         21   -1    0    0  502  501  0.00000000000E+00  0.00000000000E+00  0.14603970201E+03  0.14603970201E+03  0.00000000000E+00 0.  1.
         21   -1    0    0  503  502 -0.00000000000E+00 -0.00000000000E+00 -0.14564114867E+02  0.14564114867E+02  0.00000000000E+00 0. -1.
         21    1    1    2  503  504 -0.16991780593E+02  0.10771815957E+02 -0.65206201946E+01  0.21148785177E+02  0.00000000000E+00 0. -1.
         21    1    1    2  504  501  0.16991780593E+02 -0.10771815957E+02  0.13799620734E+03  0.13945503170E+03  0.00000000000E+00 0.  1.
</event>
<event>
 4    1  0.1589319E+006  0.2673796E+02  0.7546771E-02  0.1450258E+00
         21   -1    0    0  504  501  0.00000000000E+00  0.00000000000E+00  0.25604905105E+02  0.25604905105E+02  0.00000000000E+00 0. -1.
         21   -1    0    0  503  502 -0.00000000000E+00 -0.00000000000E+00 -0.37349942633E+02  0.37349942633E+02  0.00000000000E+00 0. -1.
         21    1    1    2  503  501  0.23965735400E+02 -0.11855879798E+02  0.99429579946E+01  0.28526843020E+02  0.00000000000E+00 0. -1.
         21    1    1    2  504  502 -0.23965735400E+02  0.11855879798E+02 -0.21687995523E+02  0.34428004717E+02  0.00000000000E+00 0. -1.
</event>
<event>
 4    1  0.1589319E+006  0.3258985E+02  0.7546771E-02  0.1398348E+00
         21   -1    0    0  504  501  0.00000000000E+00  0.00000000000E+00  0.24770650849E+03  0.24770650849E+03  0.00000000000E+00 0. -1.
         21   -1    0    0  501  502 -0.00000000000E+00 -0.00000000000E+00 -0.47767996735E+01  0.47767996735E+01  0.00000000000E+00 0. -1.
         21    1    1    2  503  502  0.15312683671E+02 -0.28768384487E+02  0.81070539518E+02  0.87375801026E+02  0.00000000000E+00 0. -1.
         21    1    1    2  504  503 -0.15312683671E+02  0.28768384487E+02  0.16185916930E+03  0.16510750714E+03  0.00000000000E+00 0. -1.
</event>
<event>
 4    1  0.1589319E+006  0.2691006E+02  0.7546771E-02  0.1448514E+00
         21   -1    0    0  504  501  0.00000000000E+00  0.00000000000E+00  0.31330697647E+03  0.31330697647E+03  0.00000000000E+00 0.  1.
         21   -1    0    0  503  502 -0.00000000000E+00 -0.00000000000E+00 -0.99330254268E+02  0.99330254268E+02  0.00000000000E+00 0.  1.
         21    1    1    2  503  501 -0.19416557634E+01  0.26839916825E+02  0.31089243443E+03  0.31205489413E+03  0.00000000000E+00 0.  1.
         21    1    1    2  504  502  0.19416557634E+01 -0.26839916825E+02 -0.96915712226E+02  0.10058233661E+03  0.00000000000E+00 0.  1.
</event>
<event>
 4    1  0.1589319E+006  0.2699071E+02  0.7546771E-02  0.1447701E+00
         21   -1    0    0  502  501  0.00000000000E+00  0.00000000000E+00  0.81126383837E+03  0.81126383837E+03  0.00000000000E+00 0.  1.
         21   -1    0    0  504  502 -0.00000000000E+00 -0.00000000000E+00 -0.91152774387E+00  0.91152774387E+00  0.00000000000E+00 0.  1.
         21    1    1    2  503  501  0.24894379035E+02  0.10429207133E+02  0.45468387872E+03  0.45548427859E+03  0.00000000000E+00 0.  1.
         21    1    1    2  504  503 -0.24894379035E+02 -0.10429207133E+02  0.35566843191E+03  0.35669108753E+03  0.00000000000E+00 0.  1.
</event>
<event>
 4    1  0.1589319E+006  0.2214122E+02  0.7546771E-02  0.1503573E+00
         21   -1    0    0  504  501  0.00000000000E+00  0.00000000000E+00  0.52507100118E+01  0.52507100118E+01  0.00000000000E+00 0.  1.
         21   -1    0    0  503  502 -0.00000000000E+00 -0.00000000000E+00 -0.13183313314E+03  0.13183313314E+03  0.00000000000E+00 0. -1.
         21    1    1    2  503  501  0.16705427361E+02  0.14531423269E+02 -0.10031607300E+03  0.10273046320E+03  0.00000000000E+00 0. -1.
         21    1    1    2  504  502 -0.16705427361E+02 -0.14531423269E+02 -0.26266350126E+02  0.34353379958E+02  0.00000000000E+00 0.  1.
</event>
<event>
 4    1  0.1589319E+006  0.2144626E+02  0.7546771E-02  0.1512988E+00
         21   -1    0    0  504  501  0.00000000000E+00  0.00000000000E+00  0.66059359684E+02  0.66059359684E+02  0.00000000000E+00 0.  1.
         21   -1    0    0  503  502 -0.00000000000E+00 -0.00000000000E+00 -0.14088681198E+02  0.14088681198E+02  0.00000000000E+00 0.  1.
         21    1    1    2  503  501  0.51650961068E+00 -0.21440037267E+02 -0.25152916392E+01  0.21593255248E+02  0.00000000000E+00 0.  1.
         21    1    1    2  504  502 -0.51650961068E+00  0.21440037267E+02  0.54485970125E+02  0.58554785634E+02  0.00000000000E+00 0.  1.
</event>
<event>
 4    1  0.1589319E+006  0.5048837E+02  0.7546771E-02  0.1296069E+00
         21   -1    0    0  503  501  0.00000000000E+00  0.00000000000E+00  0.12425481991E+02  0.12425481991E+02  0.00000000000E+00 0. -1.
         21   -1    0    0  504  502 -0.00000000000E+00 -0.00000000000E+00 -0.20782284497E+03  0.20782284497E+03  0.00000000000E+00 0. -1.
         21    1    1    2  503  502  0.18612354055E+02  0.46932455254E+02 -0.85207459979E+02  0.99042346074E+02  0.00000000000E+00 0. -1.
         21    1    1    2  504  501 -0.18612354055E+02 -0.46932455254E+02 -0.11018990300E+03  0.12120598088E+03  0.00000000000E+00 0. -1.
</event>
<event>
 4    1  0.1589319E+006  0.2039609E+02  0.7546771E-02  0.1528064E+00
         21   -1    0    0  503  501  0.00000000000E+00  0.00000000000E+00  0.86151819429E+01  0.86151819429E+01  0.00000000000E+00 0. -1.
         21   -1    0    0  504  502 -0.00000000000E+00 -0.00000000000E+00 -0.13248400758E+03  0.13248400758E+03  0.00000000000E+00 0. -1.
         21    1    1    2  503  502 -0.12427268562E+02  0.16172922029E+02 -0.11817649449E+03  0.11992366013E+03  0.00000000000E+00 0. -1.
         21    1    1    2  504  501  0.12427268562E+02 -0.16172922029E+02 -0.56923311477E+01  0.21175529386E+02  0.00000000000E+00 0. -1.
</event>
<event>
 4    1  0.1589319E+006  0.2417243E+02  0.7546771E-02  0.1478278E+00
         21   -1    0    0  504  501  0.00000000000E+00  0.00000000000E+00  0.86381692912E+01  0.86381692912E+01  0.00000000000E+00 0. -1.
         21   -1    0    0  503  502 -0.00000000000E+00 -0.00000000000E+00 -0.73535795875E+02  0.73535795875E+02  0.00000000000E+00 0. -1.
         21    1    1    2  503  501  0.23745244833E+02 -0.45243659227E+01 -0.20817265746E+02  0.31900863504E+02  0.00000000000E+00 0. -1.
         21    1    1    2  504  502 -0.23745244833E+02  0.45243659227E+01 -0.44080360837E+02  0.50273101662E+02  0.00000000000E+00 0. -1.
</event>
<event>
 4    1  0.1589319E+006  0.3374454E+02  0.7546771E-02  0.1389611E+00
         21   -1    0    0  503  501  0.00000000000E+00  0.00000000000E+00  0.17546411056E+03  0.17546411056E+03  0.00000000000E+00 0.  1.
         21   -1    0    0  501  502 -0.00000000000E+00 -0.00000000000E+00 -0.13964773754E+02  0.13964773754E+02  0.00000000000E+00 0. -1.
         21    1    1    2  503  504  0.33437956811E+02 -0.45384065916E+01  0.15004588690E+03  0.15379357030E+03  0.00000000000E+00 0.  1.
         21    1    1    2  504  502 -0.33437956811E+02  0.45384065916E+01  0.11453449906E+02  0.35635314014E+02  0.00000000000E+00 0. -1.
</event>
<event>
 4    1  0.1589319E+006  0.4694581E+02  0.7546771E-02  0.1311987E+00
         21   -1    0    0  503  501  0.00000000000E+00  0.00000000000E+00  0.73149700690E+02  0.73149700690E+02  0.00000000000E+00 0.  1.
         21   -1    0    0  501  502 -0.00000000000E+00 -0.00000000000E+00 -0.54211070855E+02  0.54211070855E+02  0.00000000000E+00 0.  1.
         21    1    1    2  503  504  0.45101496817E+02 -0.13029360966E+02  0.51912780240E+02  0.69991756762E+02  0.00000000000E+00 0.  1.
         21    1    1    2  504  502 -0.45101496817E+02  0.13029360966E+02 -0.32974150405E+02  0.57369014784E+02  0.00000000000E+00 0.  1.
</event>
<event>
 4    1  0.1589319E+006  0.2015630E+02  0.7546771E-02  0.1531660E+00
         21   -1    0    0  503  501  0.00000000000E+00  0.00000000000E+00  0.25227390733E+03  0.25227390733E+03  0.00000000000E+00 0. -1.
         21   -1    0    0  504  502 -0.00000000000E+00 -0.00000000000E+00 -0.55195118927E+01  0.55195118927E+01  0.00000000000E+00 0.  1.
         21    1    1    2  503  502  0.20085644137E+02 -0.16861852088E+01  0.14902769425E+02  0.25067286600E+02  0.00000000000E+00 0.  1.
         21    1    1    2  504  501 -0.20085644137E+02  0.16861852088E+01  0.23185162601E+03  0.23272613262E+03  0.00000000000E+00 0. -1.
</event>
<event>
 4    1  0.1589319E+006  0.2129153E+02  0.7546771E-02  0.1515143E+00
         21   -1    0    0  504  501  0.00000000000E+00  0.00000000000E+00  0.25060714683E+02  0.25060714683E+02  0.00000000000E+00 0. -1.
         21   -1    0    0  503  502 -0.00000000000E+00 -0.00000000000E+00 -0.62678104459E+03  0.62678104459E+03  0.00000000000E+00 0. -1.
         21    1    1    2  503  501 -0.48692869943E+01  0.20727260353E+02  0.20323155909E+02  0.29433992996E+02  0.00000000000E+00 0. -1.
         21    1    1    2  504  502  0.48692869943E+01 -0.20727260353E+02 -0.62204348582E+03  0.62240776628E+03  0.00000000000E+00 0. -1.
</event>
<event>
 4    1  0.1589319E+006  0.2076023E+02  0.7546771E-02  0.1522716E+00
         21   -1    0    0  502  501  0.00000000000E+00  0.00000000000E+00  0.64623156400E+02  0.64623156400E+02  0.00000000000E+00 0. -1.
         21   -1    0    0  504  502 -0.00000000000E+00 -0.00000000000E+00 -0.13808647565E+02  0.13808647565E+02  0.00000000000E+00 0.  1.
         21    1    1    2  503  501 -0.20659444943E+02  0.20431474256E+01  0.53605223380E+02  0.57484842266E+02  0.00000000000E+00 0. -1.
         21    1    1    2  504  503  0.20659444943E+02 -0.20431474256E+01 -0.27907145451E+01  0.20946961699E+02  0.00000000000E+00 0.  1.
</event>
<event>
 4    1  0.1589319E+006  0.2290805E+02  0.7546771E-02  0.1493656E+00
         21   -1    0    0  503  501  0.00000000000E+00  0.00000000000E+00  0.10811263933E+01  0.10811263933E+01  0.00000000000E+00 0. -1.
         21   -1    0    0  504  502 -0.00000000000E+00 -0.00000000000E+00 -0.60883789821E+03  0.60883789821E+03  0.00000000000E+00 0.  1.
         21    1    1    2  503  502 -0.22132341462E+02 -0.59108567263E+01 -0.44119262700E+03  0.44178695418E+03  0.00000000000E+00 0.  1.
         21    1    1    2  504  501  0.22132341462E+02  0.59108567263E+01 -0.16656414482E+03  0.16813207043E+03  0.00000000000E+00 0. -1.
</event>
<event>
 4    1  0.1589319E+006  0.2064973E+02  0.7546771E-02  0.1524325E+00
         21   -1    0    0  502  501  0.00000000000E+00  0.00000000000E+00  0.47855552995E+01  0.47855552995E+01  0.00000000000E+00 0.  1.
         21   -1    0    0  504  502 -0.00000000000E+00 -0.00000000000E+00 -0.15106001896E+03  0.15106001896E+03  0.00000000000E+00 0.  1.
         21    1    1    2  503  501 -0.94537092751E+01 -0.18358609492E+02 -0.23233598775E+02  0.31083939158E+02  0.00000000000E+00 0.  1.
         21    1    1    2  504  503  0.94537092751E+01  0.18358609492E+02 -0.12304086488E+03  0.12476163510E+03  0.00000000000E+00 0.  1.
</event>
<event>
 4    1  0.1589319E+006  0.5341714E+02  0.7546771E-02  0.1284000E+00
         21   -1    0    0  502  501  0.00000000000E+00  0.00000000000E+00  0.15128696198E+02  0.15128696198E+02  0.00000000000E+00 0. -1.
         21   -1    0    0  503  502 -0.00000000000E+00 -0.00000000000E+00 -0.27930477334E+03  0.27930477334E+03  0.00000000000E+00 0. -1.
         21    1    1    2  503  504  0.14829342730E+02  0.51317459586E+02 -0.21597882153E+03  0.22248649940E+03  0.00000000000E+00 0. -1.
         21    1    1    2  504  501 -0.14829342730E+02 -0.51317459586E+02 -0.48197255612E+02  0.71946970143E+02  0.00000000000E+00 0. -1.
</event>
<event>
 4    1  0.1589319E+006  0.2848012E+02  0.7546771E-02  0.1433281E+00
         21   -1    0    0  504  501  0.00000000000E+00  0.00000000000E+00  0.59352869376E+02  0.59352869376E+02  0.00000000000E+00 0. -1.
         21   -1    0    0  501  502 -0.00000000000E+00 -0.00000000000E+00 -0.70093051476E+02  0.70093051476E+02  0.00000000000E+00 0. -1.
         21    1    1    2  503  502 -0.27610886645E+02 -0.69825486314E+01 -0.63441788553E+02  0.69541193415E+02  0.00000000000E+00 0. -1.
         21    1    1    2  504  503  0.27610886645E+02  0.69825486314E+01  0.52701606453E+02  0.59904727438E+02  0.00000000000E+00 0. -1.
</event>
<event>
 4    1  0.1589319E+006  0.2117082E+02  0.7546771E-02  0.1516840E+00
         21   -1    0    0  503  501  0.00000000000E+00  0.00000000000E+00  0.10146146728E+02  0.10146146728E+02  0.00000000000E+00 0.  1.
         21   -1    0    0  504  502 -0.00000000000E+00 -0.00000000000E+00 -0.45981776897E+03  0.45981776897E+03  0.00000000000E+00 0. -1.
         21    1    1    2  503  502  0.15893173736E+02 -0.13986086475E+02 -0.44824543820E+03  0.44874511301E+03  0.00000000000E+00 0. -1.
         21    1    1    2  504  501 -0.15893173736E+02  0.13986086475E+02 -0.14261840373E+01  0.21218802680E+02  0.00000000000E+00 0.  1.
</event>
<event>
 4    1  0.1589319E+006  0.3124020E+02  0.7546771E-02  0.1409117E+00
         21   -1    0    0  504  501  0.00000000000E+00  0.00000000000E+00  0.75778284233E+03  0.75778284233E+03  0.00000000000E+00 0.  1.
         21   -1    0    0  503  502 -0.00000000000E+00 -0.00000000000E+00 -0.13019653715E+01  0.13019653715E+01  0.00000000000E+00 0.  1.
         21    1    1    2  503  501 -0.96981023719E+01 -0.29696749183E+02  0.33879434327E+03  0.34023162277E+03  0.00000000000E+00 0.  1.
         21    1    1    2  504  502  0.96981023719E+01  0.29696749183E+02  0.41768653369E+03  0.41885318493E+03  0.00000000000E+00 0.  1.
</event>
<event>
 4    1  0.1589319E+006  0.4480525E+02  0.7546771E-02  0.1322416E+00
         21   -1    0    0  504  501  0.00000000000E+00  0.00000000000E+00  0.56101084344E+03  0.56101084344E+03  0.00000000000E+00 0.  1.
         21   -1    0    0  501  502 -0.00000000000E+00 -0.00000000000E+00 -0.42244228606E+01  0.42244228606E+01  0.00000000000E+00 0. -1.
         21    1    1    2  503  502  0.34424474600E+02  0.28678665579E+02  0.16787189835E+03  0.17374833688E+03  0.00000000000E+00 0. -1.
         21    1    1    2  504  503 -0.34424474600E+02 -0.28678665579E+02  0.38891452223E+03  0.39148692943E+03  0.00000000000E+00 0.  1.
</event>
<event>
 4    1  0.1589319E+006  0.4195136E+02  0.7546771E-02  0.1337415E+00
         21   -1    0    0  503  501  0.00000000000E+00  0.00000000000E+00  0.21371293968E+03  0.21371293968E+03  0.00000000000E+00 0. -1.
         21   -1    0    0  501  502 -0.00000000000E+00 -0.00000000000E+00 -0.37007902612E+03  0.37007902612E+03  0.00000000000E+00 0.  1.
         21    1    1    2  503  504 -0.11213356952E+02 -0.40424960683E+02  0.21044705117E+03  0.21458769342E+03  0.00000000000E+00 0. -1.
         21    1    1    2  504  502  0.11213356952E+02  0.40424960683E+02 -0.36681313762E+03  0.36920427239E+03  0.00000000000E+00 0.  1.
</event>
<event>
 4    1  0.1589319E+006  0.2823388E+02  0.7546771E-02  0.1435592E+00
         21   -1    0    0  503  501  0.00000000000E+00  0.00000000000E+00  0.29129817179E+02  0.29129817179E+02  0.00000000000E+00 0. -1.
         21   -1    0    0  501  502 -0.00000000000E+00 -0.00000000000E+00 -0.38139768063E+03  0.38139768063E+03  0.00000000000E+00 0.  1.
         21    1    1    2  503  504  0.28181781257E+02 -0.17144771984E+01  0.21628866387E+02  0.35566277399E+02  0.00000000000E+00 0. -1.
         21    1    1    2  504  502 -0.28181781257E+02  0.17144771984E+01 -0.37389672984E+03  0.37496122041E+03  0.00000000000E+00 0.  1.
</event>
<event>
 4    1  0.1589319E+006  0.2117697E+02  0.7546771E-02  0.1516753E+00
         21   -1    0    0  504  501  0.00000000000E+00  0.00000000000E+00  0.97507077439E+03  0.97507077439E+03  0.00000000000E+00 0.  1.
         21   -1    0    0  501  502 -0.00000000000E+00 -0.00000000000E+00 -0.23053831377E+03  0.23053831377E+03  0.00000000000E+00 0.  1.
         21    1    1    2  503  502 -0.51787416521E+01  0.20533989461E+02 -0.22993670839E+03  0.23090983944E+03  0.00000000000E+00 0.  1.
         21    1    1    2  504  503  0.51787416521E+01 -0.20533989461E+02  0.97446916901E+03  0.97469924871E+03  0.00000000000E+00 0.  1.
</event>
<event>
 4    1  0.1589319E+006  0.4617765E+02  0.7546771E-02  0.1315654E+00
         21   -1    0    0  503  501  0.00000000000E+00  0.00000000000E+00  0.14769730737E+03  0.14769730737E+03  0.00000000000E+00 0. -1.
         21   -1    0    0  504  502 -0.00000000000E+00 -0.00000000000E+00 -0.20061262401E+02  0.20061262401E+02  0.00000000000E+00 0. -1.
         21    1    1    2  503  502  0.45258469086E+02  0.91676943743E+01  0.10822898421E+03  0.11766855429E+03  0.00000000000E+00 0. -1.
         21    1    1    2  504  501 -0.45258469086E+02 -0.91676943743E+01  0.19407060757E+02  0.50090015486E+02  0.00000000000E+00 0. -1.
</event>
<event>
 4    1  0.1589319E+006  0.2024050E+02  0.7546771E-02  0.1530390E+00
         21   -1    0    0  502  501  0.00000000000E+00  0.00000000000E+00  0.13632178688E+03  0.13632178688E+03  0.00000000000E+00 0. -1.
         21   -1    0    0  504  502 -0.00000000000E+00 -0.00000000000E+00 -0.34170166772E+01  0.34170166772E+01  0.00000000000E+00 0. -1.
         21    1    1    2  503  501 -0.24912488071E+01 -0.20086600034E+02  0.90707400989E+02  0.92938207513E+02  0.00000000000E+00 0. -1.
         21    1    1    2  504  503  0.24912488071E+01  0.20086600034E+02  0.42197369214E+02  0.46800596045E+02  0.00000000000E+00 0. -1.
</event>
<event>
 4    1  0.1589319E+006  0.3007011E+02  0.7546771E-02  0.1418988E+00
         21   -1    0    0  503  501  0.00000000000E+00  0.00000000000E+00  0.19555193490E+03  0.19555193490E+03  0.00000000000E+00 0.  1.
         21   -1    0    0  504  502 -0.00000000000E+00 -0.00000000000E+00 -0.15953699696E+02  0.15953699696E+02  0.00000000000E+00 0.  1.
         21    1    1    2  503  502 -0.28440680345E+02  0.97641859562E+01  0.67967733773E+00  0.30077792259E+02  0.00000000000E+00 0.  1.
         21    1    1    2  504  501  0.28440680345E+02 -0.97641859562E+01  0.17891855786E+03  0.18142784233E+03  0.00000000000E+00 0.  1.
</event>
<event>
 4    1  0.1589319E+006  0.2274956E+02  0.7546771E-02  0.1495667E+00
         21   -1    0    0  503  501  0.00000000000E+00  0.00000000000E+00  0.11151516192E+03  0.11151516192E+03  0.00000000000E+00 0.  1.
         21   -1    0    0  504  502 -0.00000000000E+00 -0.00000000000E+00 -0.88271608176E+01  0.88271608176E+01  0.00000000000E+00 0.  1.
         21    1    1    2  503  502 -0.21364100689E+02 -0.78177873718E+01  0.99072693047E+01  0.24813234024E+02  0.00000000000E+00 0.  1.
         21    1    1    2  504  501  0.21364100689E+02  0.78177873718E+01  0.92780731801E+02  0.95529088717E+02  0.00000000000E+00 0.  1.
</event>
<event>
 4    1  0.1589319E+006  0.2970628E+02  0.7546771E-02  0.1422166E+00
         21   -1    0    0  503  501  0.00000000000E+00  0.00000000000E+00  0.15033278095E+02  0.15033278095E+02  0.00000000000E+00 0. -1.
         21   -1    0    0  504  502 -0.00000000000E+00 -0.00000000000E+00 -0.69741672199E+02  0.69741672199E+02  0.00000000000E+00 0. -1.
         21    1    1    2  503  502  0.15270046405E+02 -0.25481150484E+02 -0.10488829377E+02  0.31503632948E+02  0.00000000000E+00 0. -1.
         21    1    1    2  504  501 -0.15270046405E+02  0.25481150484E+02 -0.44219564727E+02  0.53271317347E+02  0.00000000000E+00 0. -1.
</event>
<event>
 4    1  0.1589319E+006  0.2815605E+02  0.7546771E-02  0.1436329E+00
         21   -1    0    0  504  501  0.00000000000E+00  0.00000000000E+00  0.15241055370E+03  0.15241055370E+03  0.00000000000E+00 0.  1.
         21   -1    0    0  503  502 -0.00000000000E+00 -0.00000000000E+00 -0.12062303075E+02  0.12062303075E+02  0.00000000000E+00 0.  1.
         21    1    1    2  503  501 -0.11434869932E+02 -0.25729490848E+02  0.13219483227E+03  0.13516004080E+03  0.00000000000E+00 0.  1.
         21    1    1    2  504  502  0.11434869932E+02  0.25729490848E+02  0.81534183562E+01  0.29312815978E+02  0.00000000000E+00 0.  1.
</event>
<event>
 4    1  0.1589319E+006  0.2250722E+02  0.7546771E-02  0.1498780E+00
         21   -1    0    0  502  501  0.00000000000E+00  0.00000000000E+00  0.61570950611E+02  0.61570950611E+02  0.00000000000E+00 0.  1.
         21   -1    0    0  504  502 -0.00000000000E+00 -0.00000000000E+00 -0.22447105160E+02  0.22447105160E+02  0.00000000000E+00 0.  1.
         21    1    1    2  503  501 -0.63045227483E+01 -0.21606203344E+02  0.52997299501E+02  0.57578544480E+02  0.00000000000E+00 0.  1.
         21    1    1    2  504  503  0.63045227483E+01  0.21606203344E+02 -0.13873454050E+02  0.26439511291E+02  0.00000000000E+00 0.  1.
</event>
<event>
 4    1  0.1589319E+006  0.2506516E+02  0.7546771E-02  0.1468076E+00
         21   -1    0    0  503  501  0.00000000000E+00  0.00000000000E+00  0.18846531826E+02  0.18846531826E+02  0.00000000000E+00 0.  1.
         21   -1    0    0  504  502 -0.00000000000E+00 -0.00000000000E+00 -0.10590781651E+03  0.10590781651E+03  0.00000000000E+00 0.  1.
         21    1    1    2  503  502 -0.12445424736E+02  0.21757151754E+02  0.81046448268E+01  0.26342883614E+02  0.00000000000E+00 0.  1.
         21    1    1    2  504  501  0.12445424736E+02 -0.21757151754E+02 -0.95165929515E+02  0.98411464728E+02  0.00000000000E+00 0.  1.
</event>
<event>
 4    1  0.1589319E+006  0.2108872E+02  0.7546771E-02  0.1518002E+00
         21   -1    0    0  503  501  0.00000000000E+00  0.00000000000E+00  0.76300856947E+02  0.76300856947E+02  0.00000000000E+00 0.  1.
         21   -1    0    0  504  502 -0.00000000000E+00 -0.00000000000E+00 -0.11517211735E+03  0.11517211735E+03  0.00000000000E+00 0. -1.
         21    1    1    2  503  502  0.12534114594E+02  0.16959659516E+02  0.73846864625E+02  0.76799046182E+02  0.00000000000E+00 0.  1.
         21    1    1    2  504  501 -0.12534114594E+02 -0.16959659516E+02 -0.11271812503E+03  0.11467392812E+03  0.00000000000E+00 0. -1.
</event>
<event>
 4    1  0.1589319E+006  0.2331459E+02  0.7546771E-02  0.1488585E+00
         21   -1    0    0  503  501  0.00000000000E+00  0.00000000000E+00  0.28142081728E+02  0.28142081728E+02  0.00000000000E+00 0. -1.
         21   -1    0    0  504  502 -0.00000000000E+00 -0.00000000000E+00 -0.13386746897E+03  0.13386746897E+03  0.00000000000E+00 0.  1.
         21    1    1    2  503  502 -0.20642452458E+02 -0.10837863381E+02 -0.12779600604E+03  0.12990530892E+03  0.00000000000E+00 0.  1.
         21    1    1    2  504  501  0.20642452458E+02  0.10837863381E+02  0.22070618796E+02  0.32104241779E+02  0.00000000000E+00 0. -1.
</event>
<event>
 4    1  0.1589319E+006  0.2008929E+02  0.7546771E-02  0.1532675E+00
         21   -1    0    0  502  501  0.00000000000E+00  0.00000000000E+00  0.36912593517E+02  0.36912593517E+02  0.00000000000E+00 0.  1.
         21   -1    0    0  503  502 -0.00000000000E+00 -0.00000000000E+00 -0.12357509467E+02  0.12357509467E+02  0.00000000000E+00 0.  1.
         21    1    1    2  503  504 -0.14052898199E+02 -0.14356029585E+02  0.20640544643E+02  0.28802979297E+02  0.00000000000E+00 0.  1.
         21    1    1    2  504  501  0.14052898199E+02  0.14356029585E+02  0.39145394059E+01  0.20467123686E+02  0.00000000000E+00 0.  1.
</event>
<event>
 4    1  0.1589319E+006  0.2220702E+02  0.7546771E-02  0.1502703E+00
         21   -1    0    0  503  501  0.00000000000E+00  0.00000000000E+00  0.72563068960E+02  0.72563068960E+02  0.00000000000E+00 0. -1.
         21   -1    0    0  504  502 -0.00000000000E+00 -0.00000000000E+00 -0.11621263438E+02  0.11621263438E+02  0.00000000000E+00 0. -1.
         21    1    1    2  503  502  0.20537458672E+02 -0.84477445164E+01  0.57593237280E+02  0.61726271365E+02  0.00000000000E+00 0. -1.
         21    1    1    2  504  501 -0.20537458672E+02  0.84477445164E+01  0.33485682415E+01  0.22458061034E+02  0.00000000000E+00 0. -1.
</event>
<event>
 4    1  0.1589319E+006  0.3580008E+02  0.7546771E-02  0.1375024E+00
         21   -1    0    0  504  501  0.00000000000E+00  0.00000000000E+00  0.35713208330E+02  0.35713208330E+02  0.00000000000E+00 0. -1.
         21   -1    0    0  503  502 -0.00000000000E+00 -0.00000000000E+00 -0.37307647420E+02  0.37307647420E+02  0.00000000000E+00 0. -1.
         21    1    1    2  503  501 -0.89864684039E+01 -0.34653842047E+02  0.63270067706E+01  0.36354867593E+02  0.00000000000E+00 0. -1.
         21    1    1    2  504  502  0.89864684039E+01  0.34653842047E+02 -0.79214458615E+01  0.36665988157E+02  0.00000000000E+00 0. -1.
</event>
<event>
 4    1  0.1589319E+006  0.2329830E+02  0.7546771E-02  0.1488786E+00
         21   -1    0    0  504  501  0.00000000000E+00  0.00000000000E+00  0.92267921769E+02  0.92267921769E+02  0.00000000000E+00 0. -1.
         21   -1    0    0  503  502 -0.00000000000E+00 -0.00000000000E+00 -0.10426221831E+02  0.10426221831E+02  0.00000000000E+00 0. -1.
         21    1    1    2  503  501 -0.22410302460E+02 -0.63709750725E+01  0.74815784269E+02  0.78359508392E+02  0.00000000000E+00 0. -1.
         21    1    1    2  504  502  0.22410302460E+02  0.63709750725E+01  0.70259156684E+01  0.24334635208E+02  0.00000000000E+00 0. -1.
</event>
<event>
 4    1  0.1589319E+006  0.2302341E+02  0.7546771E-02  0.1492204E+00
         21   -1    0    0  504  501  0.00000000000E+00  0.00000000000E+00  0.87437319506E+02  0.87437319506E+02  0.00000000000E+00 0. -1.
         21   -1    0    0  501  502 -0.00000000000E+00 -0.00000000000E+00 -0.42865163804E+02  0.42865163804E+02  0.00000000000E+00 0. -1.
         21    1    1    2  503  502 -0.22626685480E+02 -0.42556608177E+01 -0.38082484905E+02  0.44501159551E+02  0.00000000000E+00 0. -1.
         21    1    1    2  504  503  0.22626685480E+02  0.42556608177E+01  0.82654640608E+02  0.85801323759E+02  0.00000000000E+00 0. -1.
</event>
<event>
 4    1  0.1589319E+006  0.2368678E+02  0.7546771E-02  0.1484050E+00
         21   -1    0    0  502  501  0.00000000000E+00  0.00000000000E+00  0.13706593323E+03  0.13706593323E+03  0.00000000000E+00 0. -1.
         21   -1    0    0  503  502 -0.00000000000E+00 -0.00000000000E+00 -0.15304230818E+02  0.15304230818E+02  0.00000000000E+00 0. -1.
         21    1    1    2  503  504 -0.23386070288E+02 -0.37623588778E+01 -0.43245207815E+01  0.24078311981E+02  0.00000000000E+00 0. -1.
         21    1    1    2  504  501  0.23386070288E+02  0.37623588778E+01  0.12608622319E+03  0.12829185206E+03  0.00000000000E+00 0. -1.
</event>
<event>
 4    1  0.1589319E+006  0.3215488E+02  0.7546771E-02  0.1401750E+00
         21   -1    0    0  504  501  0.00000000000E+00  0.00000000000E+00  0.15428410020E+02  0.15428410020E+02  0.00000000000E+00 0.  1.
         21   -1    0    0  503  502 -0.00000000000E+00 -0.00000000000E+00 -0.96416407330E+02  0.96416407330E+02  0.00000000000E+00 0.  1.
         21    1    1    2  503  501  0.17932616338E+02  0.26690032940E+02 -0.96128356908E+01  0.33561036890E+02  0.00000000000E+00 0.  1.
         21    1    1    2  504  502 -0.17932616338E+02 -0.26690032940E+02 -0.71375161619E+02  0.78283780461E+02  0.00000000000E+00 0.  1.
</event>
<event>
 4    1  0.1589319E+006  0.2098178E+02  0.7546771E-02  0.1519525E+00
         21   -1    0    0  504  501  0.00000000000E+00  0.00000000000E+00  0.23680454844E+01  0.23680454844E+01  0.00000000000E+00 0. -1.
         21   -1    0    0  503  502 -0.00000000000E+00 -0.00000000000E+00 -0.39227615858E+03  0.39227615858E+03  0.00000000000E+00 0. -1.
         21    1    1    2  503  501  0.11855733711E+02 -0.17311171383E+02 -0.33807483393E+03  0.33872529934E+03  0.00000000000E+00 0. -1.
         21    1    1    2  504  502 -0.11855733711E+02  0.17311171383E+02 -0.51833279170E+02  0.55918904728E+02  0.00000000000E+00 0. -1.
</event>
<event>
 4    1  0.1589319E+006  0.3909084E+02  0.7546771E-02  0.1353897E+00
         21   -1    0    0  503  501  0.00000000000E+00  0.00000000000E+00  0.19490802567E+02  0.19490802567E+02  0.00000000000E+00 0.  1.
         21   -1    0    0  504  502 -0.00000000000E+00 -0.00000000000E+00 -0.11933182099E+04  0.11933182099E+04  0.00000000000E+00 0.  1.
         21    1    1    2  503  502 -0.78991151311E+00 -0.39082854791E+02 -0.11730594865E+04  0.11737106340E+04  0.00000000000E+00 0.  1.
         21    1    1    2  504  501  0.78991151311E+00  0.39082854791E+02 -0.76792086608E+00  0.39098378499E+02  0.00000000000E+00 0.  1.
</event>
<event>
 4    1  0.1589319E+006  0.2760944E+02  0.7546771E-02  0.1441580E+00
         21   -1    0    0  503  501  0.00000000000E+00  0.00000000000E+00  0.19942046350E+01  0.19942046350E+01  0.00000000000E+00 0.  1.
         21   -1    0    0  501  502 -0.00000000000E+00 -0.00000000000E+00 -0.53676740184E+03  0.53676740184E+03  0.00000000000E+00 0.  1.
         21    1    1    2  503  504  0.22979885513E+02 -0.15303789941E+02 -0.12285433305E+03  0.12591849853E+03  0.00000000000E+00 0.  1.
         21    1    1    2  504  502 -0.22979885513E+02  0.15303789941E+02 -0.41191886416E+03  0.41284310794E+03  0.00000000000E+00 0.  1.
</event>
<event>
 4    1  0.1589319E+006  0.2204613E+02  0.7546771E-02  0.1504836E+00
         21   -1    0    0  503  501  0.00000000000E+00  0.00000000000E+00  0.38915312267E+01  0.38915312267E+01  0.00000000000E+00 0. -1.
         21   -1    0    0  504  502 -0.00000000000E+00 -0.00000000000E+00 -0.17277833435E+03  0.17277833435E+03  0.00000000000E+00 0. -1.
         21    1    1    2  503  502 -0.20016390135E+02 -0.92399095824E+01 -0.37940378444E+02  0.43880566537E+02  0.00000000000E+00 0. -1.
         21    1    1    2  504  501  0.20016390135E+02  0.92399095824E+01 -0.13094642468E+03  0.13278929904E+03  0.00000000000E+00 0. -1.
</event>
<event>
 4    1  0.1589319E+006  0.2244077E+02  0.7546771E-02  0.1499642E+00
         21   -1    0    0  502  501  0.00000000000E+00  0.00000000000E+00  0.76697142442E+03  0.76697142442E+03  0.00000000000E+00 0. -1.
         21   -1    0    0  504  502 -0.00000000000E+00 -0.00000000000E+00 -0.29403127645E+01  0.29403127645E+01  0.00000000000E+00 0.  1.
         21    1    1    2  503  501 -0.14704384690E+02  0.16951964939E+02  0.72127784516E+03  0.72162685507E+03  0.00000000000E+00 0. -1.
         21    1    1    2  504  503  0.14704384690E+02 -0.16951964939E+02  0.42753266493E+02  0.48284882108E+02  0.00000000000E+00 0.  1.
</event>
<event>
 4    1  0.1589319E+006  0.2312196E+02  0.7546771E-02  0.1490972E+00
         21   -1    0    0  502  501  0.00000000000E+00  0.00000000000E+00  0.19227498984E+03  0.19227498984E+03  0.00000000000E+00 0.  1.
         21   -1    0    0  503  502 -0.00000000000E+00 -0.00000000000E+00 -0.31202676035E+02  0.31202676035E+02  0.00000000000E+00 0.  1.
         21    1    1    2  503  504  0.22892904741E+02 -0.32465549196E+01 -0.26107907833E+02  0.34874748139E+02  0.00000000000E+00 0.  1.
         21    1    1    2  504  501 -0.22892904741E+02  0.32465549196E+01  0.18718022164E+03  0.18860291774E+03  0.00000000000E+00 0.  1.
</event>
<event>
 4    1  0.1589319E+006  0.2258505E+02  0.7546771E-02  0.1497776E+00
         21   -1    0    0  503  501  0.00000000000E+00  0.00000000000E+00  0.69892919291E+01  0.69892919291E+01  0.00000000000E+00 0.  1.
         21   -1    0    0  504  502 -0.00000000000E+00 -0.00000000000E+00 -0.10018399016E+03  0.10018399016E+03  0.00000000000E+00 0.  1.
         21    1    1    2  503  502 -0.14765787034E+02  0.17089641796E+02 -0.18674029012E+02  0.29305352463E+02  0.00000000000E+00 0.  1.
         21    1    1    2  504  501  0.14765787034E+02 -0.17089641796E+02 -0.74520669221E+02  0.77867929629E+02  0.00000000000E+00 0.  1.
</event>
<event>
 4    1  0.1589319E+006  0.2677169E+02  0.7546771E-02  0.1449915E+00
         21   -1    0    0  503  501  0.00000000000E+00  0.00000000000E+00  0.66705422841E+01  0.66705422841E+01  0.00000000000E+00 0.  1.
         21   -1    0    0  504  502 -0.00000000000E+00 -0.00000000000E+00 -0.11578396413E+03  0.11578396413E+03  0.00000000000E+00 0.  1.
         21    1    1    2  503  502 -0.21560961616E+02  0.15869730107E+02 -0.38126264726E+02  0.46586859322E+02  0.00000000000E+00 0.  1.
         21    1    1    2  504  501  0.21560961616E+02 -0.15869730107E+02 -0.70987157119E+02  0.75867647092E+02  0.00000000000E+00 0.  1.
</event>
<event>
 4    1  0.1589319E+006  0.2121130E+02  0.7546771E-02  0.1516269E+00
         21   -1    0    0  504  501  0.00000000000E+00  0.00000000000E+00  0.26060618404E+02  0.26060618404E+02  0.00000000000E+00 0.  1.
         21   -1    0    0  503  502 -0.00000000000E+00 -0.00000000000E+00 -0.62275777457E+02  0.62275777457E+02  0.00000000000E+00 0. -1.
         21    1    1    2  503  501 -0.14411278274E+02  0.15563879397E+02  0.19442560415E+02  0.28773815161E+02  0.00000000000E+00 0.  1.
         21    1    1    2  504  502  0.14411278274E+02 -0.15563879397E+02 -0.55657719467E+02  0.59562580701E+02  0.00000000000E+00 0. -1.
</event>
<event>
 4    1  0.1589319E+006  0.2174304E+02  0.7546771E-02  0.1508915E+00
         21   -1    0    0  504  501  0.00000000000E+00  0.00000000000E+00  0.32947449189E+01  0.32947449189E+01  0.00000000000E+00 0. -1.
         21   -1    0    0  501  502 -0.00000000000E+00 -0.00000000000E+00 -0.22343839716E+03  0.22343839716E+03  0.00000000000E+00 0. -1.
         21    1    1    2  503  502  0.41918262038E+00 -0.21739000559E+02 -0.17788491616E+03  0.17920882584E+03  0.00000000000E+00 0. -1.
         21    1    1    2  504  503 -0.41918262038E+00  0.21739000559E+02 -0.42258736079E+02  0.47524316243E+02  0.00000000000E+00 0. -1.
</event>
<event>
 4    1  0.1589319E+006  0.2795110E+02  0.7546771E-02  0.1438281E+00
         21   -1    0    0  503  501  0.00000000000E+00  0.00000000000E+00  0.96610897953E+02  0.96610897953E+02  0.00000000000E+00 0.  1.
         21   -1    0    0  501  502 -0.00000000000E+00 -0.00000000000E+00 -0.15146835114E+02  0.15146835114E+02  0.00000000000E+00 0.  1.
         21    1    1    2  503  504  0.11068574848E+02 -0.25666138981E+02  0.78881889400E+02  0.83687612671E+02  0.00000000000E+00 0.  1.
         21    1    1    2  504  502 -0.11068574848E+02  0.25666138981E+02  0.25821734394E+01  0.28070120395E+02  0.00000000000E+00 0.  1.
</event>
<event>
 4    1  0.1589319E+006  0.2456928E+02  0.7546771E-02  0.1473680E+00
         21   -1    0    0  504  501  0.00000000000E+00  0.00000000000E+00  0.10429341520E+04  0.10429341520E+04  0.00000000000E+00 0. -1.
         21   -1    0    0  503  502 -0.00000000000E+00 -0.00000000000E+00 -0.70836729329E+01  0.70836729329E+01  0.00000000000E+00 0.  1.
         21    1    1    2  503  501 -0.85608067798E+01  0.23029589941E+02  0.14822291825E+02  0.28694071871E+02  0.00000000000E+00 0.  1.
         21    1    1    2  504  502  0.85608067798E+01 -0.23029589941E+02  0.10210281873E+04  0.10213237531E+04  0.00000000000E+00 0. -1.
</event>
<event>
 4    1  0.1589319E+006  0.3223940E+02  0.7546771E-02  0.1401084E+00
         21   -1    0    0  504  501  0.00000000000E+00  0.00000000000E+00  0.58215076938E+03  0.58215076938E+03  0.00000000000E+00 0. -1.
         21   -1    0    0  501  502 -0.00000000000E+00 -0.00000000000E+00 -0.14918888477E+04  0.14918888477E+04  0.00000000000E+00 0.  1.
         21    1    1    2  503  502  0.30378340154E+02  0.10795159869E+02 -0.14912681373E+04  0.14916165849E+04  0.00000000000E+00 0.  1.
         21    1    1    2  504  503 -0.30378340154E+02 -0.10795159869E+02  0.58153005893E+03  0.58242303222E+03  0.00000000000E+00 0. -1.
</event>
<event>
 4    1  0.1589319E+006  0.2403479E+02  0.7546771E-02  0.1479898E+00
         21   -1    0    0  503  501  0.00000000000E+00  0.00000000000E+00  0.87359288458E+02  0.87359288458E+02  0.00000000000E+00 0. -1.
         21   -1    0    0  504  502 -0.00000000000E+00 -0.00000000000E+00 -0.74050636344E+01  0.74050636344E+01  0.00000000000E+00 0. -1.
         21    1    1    2  503  502 -0.12446075775E+02  0.20561277556E+02  0.24476683821E+02  0.34304212392E+02  0.00000000000E+00 0. -1.
         21    1    1    2  504  501  0.12446075775E+02 -0.20561277556E+02  0.55477541003E+02  0.60460139701E+02  0.00000000000E+00 0. -1.
</event>
<event>
 4    1  0.1589319E+006  0.3547015E+02  0.7546771E-02  0.1377288E+00
         21   -1    0    0  502  501  0.00000000000E+00  0.00000000000E+00  0.89431097318E+02  0.89431097318E+02  0.00000000000E+00 0.  1.
         21   -1    0    0  504  502 -0.00000000000E+00 -0.00000000000E+00 -0.26592509249E+03  0.26592509249E+03  0.00000000000E+00 0. -1.
         21    1    1    2  503  501  0.11174153793E+02  0.33664070255E+02  0.84667409908E+02  0.91797067707E+02  0.00000000000E+00 0.  1.
         21    1    1    2  504  503 -0.11174153793E+02 -0.33664070255E+02 -0.26116140508E+03  0.26355912210E+03  0.00000000000E+00 0. -1.
</event>
<event>
 4    1  0.1589319E+006  0.2507747E+02  0.7546771E-02  0.1467939E+00
         21   -1    0    0  503  501  0.00000000000E+00  0.00000000000E+00  0.53222952156E+03  0.53222952156E+03  0.00000000000E+00 0.  1.
         21   -1    0    0  501  502 -0.00000000000E+00 -0.00000000000E+00 -0.32685541938E+01  0.32685541938E+01  0.00000000000E+00 0. -1.
         21    1    1    2  503  504 -0.21021782949E+02  0.13673484116E+02  0.47842792387E+03  0.47908470844E+03  0.00000000000E+00 0.  1.
         21    1    1    2  504  502  0.21021782949E+02 -0.13673484116E+02  0.50533043496E+02  0.56413367310E+02  0.00000000000E+00 0. -1.
</event>
<event>
 4    1  0.1589319E+006  0.2033739E+02  0.7546771E-02  0.1528939E+00
         21   -1    0    0  504  501  0.00000000000E+00  0.00000000000E+00  0.13519770658E+02  0.13519770658E+02  0.00000000000E+00 0. -1.
         21   -1    0    0  503  502 -0.00000000000E+00 -0.00000000000E+00 -0.53888565307E+02  0.53888565307E+02  0.00000000000E+00 0. -1.
         21    1    1    2  503  501 -0.31677430024E+01  0.20089175059E+02  0.19757413572E+01  0.20433137404E+02  0.00000000000E+00 0. -1.
         21    1    1    2  504  502  0.31677430024E+01 -0.20089175059E+02 -0.42344536006E+02  0.46975198561E+02  0.00000000000E+00 0. -1.
</event>
<event>
 4    1  0.1589319E+006  0.2028376E+02  0.7546771E-02  0.1529741E+00
         21   -1    0    0  503  501  0.00000000000E+00  0.00000000000E+00  0.79156282656E+02  0.79156282656E+02  0.00000000000E+00 0. -1.
         21   -1    0    0  504  502 -0.00000000000E+00 -0.00000000000E+00 -0.12204310579E+02  0.12204310579E+02  0.00000000000E+00 0.  1.
         21    1    1    2  503  502  0.38135609580E+01 -0.19922035861E+02  0.68087948284E+02  0.71045052337E+02  0.00000000000E+00 0. -1.
         21    1    1    2  504  501 -0.38135609580E+01  0.19922035861E+02 -0.11359762073E+01  0.20315540898E+02  0.00000000000E+00 0.  1.
</event>
<event>
 4    1  0.1589319E+006  0.3853409E+02  0.7546771E-02  0.1357297E+00
         21   -1    0    0  502  501  0.00000000000E+00  0.00000000000E+00  0.59540614221E+01  0.59540614221E+01  0.00000000000E+00 0.  1.
         21   -1    0    0  504  502 -0.00000000000E+00 -0.00000000000E+00 -0.65059976299E+03  0.65059976299E+03  0.00000000000E+00 0.  1.
         21    1    1    2  503  501  0.36895711737E+02  0.11116772917E+02 -0.64530640833E+02  0.75160360504E+02  0.00000000000E+00 0.  1.
         21    1    1    2  504  503 -0.36895711737E+02 -0.11116772917E+02 -0.58011506074E+03  0.58139346391E+03  0.00000000000E+00 0.  1.
</event>
<event>
 4    1  0.1589319E+006  0.2658633E+02  0.7546771E-02  0.1451808E+00
         21   -1    0    0  504  501  0.00000000000E+00  0.00000000000E+00  0.33143221695E+02  0.33143221695E+02  0.00000000000E+00 0.  1.
         21   -1    0    0  503  502 -0.00000000000E+00 -0.00000000000E+00 -0.26873377142E+02  0.26873377142E+02  0.00000000000E+00 0.  1.
         21    1    1    2  503  501 -0.11368869729E+02 -0.24032927136E+02 -0.10498345513E+02  0.28584052269E+02  0.00000000000E+00 0.  1.
         21    1    1    2  504  502  0.11368869729E+02  0.24032927136E+02  0.16768190067E+02  0.31432546568E+02  0.00000000000E+00 0.  1.
</event>
<event>
 4    1  0.1589319E+006  0.2265573E+02  0.7546771E-02  0.1496867E+00
         21   -1    0    0  504  501  0.00000000000E+00  0.00000000000E+00  0.31192429088E+02  0.31192429088E+02  0.00000000000E+00 0. -1.
         21   -1    0    0  501  502 -0.00000000000E+00 -0.00000000000E+00 -0.35585917986E+02  0.35585917986E+02  0.00000000000E+00 0.  1.
         21    1    1    2  503  502  0.93712139992E+01  0.20626736168E+02 -0.26677830212E+02  0.34999836023E+02  0.00000000000E+00 0.  1.
         21    1    1    2  504  503 -0.93712139992E+01 -0.20626736168E+02  0.22284341314E+02  0.31778511051E+02  0.00000000000E+00 0. -1.
</event>
<event>
 4    1  0.1589319E+006  0.2645572E+02  0.7546771E-02  0.1453153E+00
         21   -1    0    0  503  501  0.00000000000E+00  0.00000000000E+00  0.10487943793E+04  0.10487943793E+04  0.00000000000E+00 0. -1.
         21   -1    0    0  501  502 -0.00000000000E+00 -0.00000000000E+00 -0.76773269877E+01  0.76773269877E+01  0.00000000000E+00 0.  1.
         21    1    1    2  503  504  0.18203228949E+02 -0.19197589268E+02  0.10253144061E+04  0.10256556617E+04  0.00000000000E+00 0. -1.
         21    1    1    2  504  502 -0.18203228949E+02  0.19197589268E+02  0.15802646208E+02  0.30816044604E+02  0.00000000000E+00 0.  1.
</event>
<event>
 4    1  0.1589319E+006  0.2501996E+02  0.7546771E-02  0.1468580E+00
         21   -1    0    0  502  501  0.00000000000E+00  0.00000000000E+00  0.55194041545E+01  0.55194041545E+01  0.00000000000E+00 0. -1.
         21   -1    0    0  504  502 -0.00000000000E+00 -0.00000000000E+00 -0.11846610484E+04  0.11846610484E+04  0.00000000000E+00 0. -1.
         21    1    1    2  503  501 -0.18663943002E+02 -0.16662998894E+02 -0.23683680697E+02  0.34451633225E+02  0.00000000000E+00 0. -1.
         21    1    1    2  504  503  0.18663943002E+02  0.16662998894E+02 -0.11554579636E+04  0.11557288193E+04  0.00000000000E+00 0. -1.
</event>
<event>
 4    1  0.1589319E+006  0.2273112E+02  0.7546771E-02  0.1495902E+00
         21   -1    0    0  502  501  0.00000000000E+00  0.00000000000E+00  0.22305796274E+03  0.22305796274E+03  0.00000000000E+00 0.  1.
         21   -1    0    0  504  502 -0.00000000000E+00 -0.00000000000E+00 -0.29710145061E+01  0.29710145061E+01  0.00000000000E+00 0.  1.
         21    1    1    2  503  501 -0.15051901992E+02 -0.17033611540E+02  0.16308993212E+03  0.16466641927E+03  0.00000000000E+00 0.  1.
         21    1    1    2  504  503  0.15051901992E+02  0.17033611540E+02  0.56997016112E+02  0.61362557976E+02  0.00000000000E+00 0.  1.
</event>
<event>
 4    1  0.1589319E+006  0.2130976E+02  0.7546771E-02  0.1514888E+00
         21   -1    0    0  502  501  0.00000000000E+00  0.00000000000E+00  0.14495424981E+03  0.14495424981E+03  0.00000000000E+00 0. -1.
         21   -1    0    0  503  502 -0.00000000000E+00 -0.00000000000E+00 -0.37653916369E+02  0.37653916369E+02  0.00000000000E+00 0.  1.
         21    1    1    2  503  504 -0.19767483899E+02  0.79594340022E+01 -0.33773260461E+02  0.39934184998E+02  0.00000000000E+00 0.  1.
         21    1    1    2  504  501  0.19767483899E+02 -0.79594340022E+01  0.14107359390E+03  0.14267398118E+03  0.00000000000E+00 0. -1.
</event>
<event>
 4    1  0.1589319E+006  0.2835135E+02  0.7546771E-02  0.1434486E+00
         21   -1    0    0  502  501  0.00000000000E+00  0.00000000000E+00  0.18039293805E+02  0.18039293805E+02  0.00000000000E+00 0.  1.
         21   -1    0    0  504  502 -0.00000000000E+00 -0.00000000000E+00 -0.54941157910E+02  0.54941157910E+02  0.00000000000E+00 0.  1.
         21    1    1    2  503  501 -0.46505863813E+01 -0.27967325855E+02 -0.25878614402E+01  0.28469216639E+02  0.00000000000E+00 0.  1.
         21    1    1    2  504  503  0.46505863813E+01  0.27967325855E+02 -0.34314002665E+02  0.44511235077E+02  0.00000000000E+00 0.  1.
</event>
<event>
 4    1  0.1589319E+006  0.2415219E+02  0.7546771E-02  0.1478516E+00
         21   -1    0    0  503  501  0.00000000000E+00  0.00000000000E+00  0.10333088113E+04  0.10333088113E+04  0.00000000000E+00 0. -1.
         21   -1    0    0  501  502 -0.00000000000E+00 -0.00000000000E+00 -0.31333629735E+01  0.31333629735E+01  0.00000000000E+00 0. -1.
         21    1    1    2  503  504 -0.24141156960E+02 -0.73005103738E+00  0.98430943853E+03  0.98460570749E+03  0.00000000000E+00 0. -1.
         21    1    1    2  504  502  0.24141156960E+02  0.73005103738E+00  0.45866009754E+02  0.51836466745E+02  0.00000000000E+00 0. -1.
</event>
<event>
 4    1  0.1589319E+006  0.2517768E+02  0.7546771E-02  0.1466825E+00
         21   -1    0    0  503  501  0.00000000000E+00  0.00000000000E+00  0.14754912225E+03  0.14754912225E+03  0.00000000000E+00 0.  1.
         21   -1    0    0  501  502 -0.00000000000E+00 -0.00000000000E+00 -0.77673472655E+01  0.77673472655E+01  0.00000000000E+00 0.  1.
         21    1    1    2  503  504  0.25137917614E+02  0.14144316933E+01  0.12180450843E+03  0.12437947496E+03  0.00000000000E+00 0.  1.
         21    1    1    2  504  502 -0.25137917614E+02 -0.14144316933E+01  0.17977266554E+02  0.30936994549E+02  0.00000000000E+00 0.  1.
</event>
<event>
 4    1  0.1589319E+006  0.2215298E+02  0.7546771E-02  0.1503417E+00
         21   -1    0    0  504  501  0.00000000000E+00  0.00000000000E+00  0.67405017761E+02  0.67405017761E+02  0.00000000000E+00 0.  1.
         21   -1    0    0  503  502 -0.00000000000E+00 -0.00000000000E+00 -0.13326038854E+03  0.13326038854E+03  0.00000000000E+00 0.  1.
         21    1    1    2  503  501 -0.43437702771E+01  0.21722945946E+02  0.64625682199E+02  0.68317153925E+02  0.00000000000E+00 0.  1.
         21    1    1    2  504  502  0.43437702771E+01 -0.21722945946E+02 -0.13048105298E+03  0.13234825238E+03  0.00000000000E+00 0.  1.
</event>
<event>
 4    1  0.1589319E+006  0.2357057E+02  0.7546771E-02  0.1485455E+00
         21   -1    0    0  502  501  0.00000000000E+00  0.00000000000E+00  0.76972488059E+01  0.76972488059E+01  0.00000000000E+00 0. -1.
         21   -1    0    0  503  502 -0.00000000000E+00 -0.00000000000E+00 -0.10316430677E+03  0.10316430677E+03  0.00000000000E+00 0. -1.
         21    1    1    2  503  504  0.31439422378E+01 -0.23359949586E+02 -0.78112392229E+02  0.81591160288E+02  0.00000000000E+00 0. -1.
         21    1    1    2  504  501 -0.31439422378E+01  0.23359949586E+02 -0.17354665732E+02  0.29270395284E+02  0.00000000000E+00 0. -1.
</event>
<event>
 4    1  0.1589319E+006  0.3433926E+02  0.7546771E-02  0.1385269E+00
         21   -1    0    0  503  501  0.00000000000E+00  0.00000000000E+00  0.29334871733E+03  0.29334871733E+03  0.00000000000E+00 0. -1.
         21   -1    0    0  504  502 -0.00000000000E+00 -0.00000000000E+00 -0.51389830960E+01  0.51389830960E+01  0.00000000000E+00 0. -1.
         21    1    1    2  503  502 -0.19227053679E+02  0.28451808886E+02  0.74454978475E+02  0.81992248669E+02  0.00000000000E+00 0. -1.
         21    1    1    2  504  501  0.19227053679E+02 -0.28451808886E+02  0.21375475576E+03  0.21649545175E+03  0.00000000000E+00 0. -1.
</event>
<event>
 4    1  0.1589319E+006  0.2656522E+02  0.7546771E-02  0.1452025E+00
         21   -1    0    0  502  501  0.00000000000E+00  0.00000000000E+00  0.12175822179E+02  0.12175822179E+02  0.00000000000E+00 0.  1.
         21   -1    0    0  504  502 -0.00000000000E+00 -0.00000000000E+00 -0.34591954119E+03  0.34591954119E+03  0.00000000000E+00 0.  1.
         21    1    1    2  503  501 -0.26230049392E+02  0.42065676967E+01 -0.35114221696E+01  0.26796283111E+02  0.00000000000E+00 0.  1.
         21    1    1    2  504  503  0.26230049392E+02 -0.42065676967E+01 -0.33023229684E+03  0.33129908026E+03  0.00000000000E+00 0.  1.
</event>
<event>
 4    1  0.1589319E+006  0.2045152E+02  0.7546771E-02  0.1527242E+00
         21   -1    0    0  503  501  0.00000000000E+00  0.00000000000E+00  0.47771902929E+03  0.47771902929E+03  0.00000000000E+00 0. -1.
         21   -1    0    0  504  502 -0.00000000000E+00 -0.00000000000E+00 -0.12236094072E+04  0.12236094072E+04  0.00000000000E+00 0. -1.
         21    1    1    2  503  502 -0.17317801211E+02  0.10879262092E+02  0.47741463141E+03  0.47785248233E+03  0.00000000000E+00 0. -1.
         21    1    1    2  504  501  0.17317801211E+02 -0.10879262092E+02 -0.12233050093E+04  0.12234759542E+04  0.00000000000E+00 0. -1.
</event>
<event>
 4    1  0.1589319E+006  0.3406429E+02  0.7546771E-02  0.1387264E+00
         21   -1    0    0  504  501  0.00000000000E+00  0.00000000000E+00  0.50337246671E+03  0.50337246671E+03  0.00000000000E+00 0.  1.
         21   -1    0    0  503  502 -0.00000000000E+00 -0.00000000000E+00 -0.62562102818E+01  0.62562102818E+01  0.00000000000E+00 0.  1.
         21    1    1    2  503  501 -0.34022478748E+02 -0.16871687933E+01  0.45105677332E+03  0.45234123000E+03  0.00000000000E+00 0.  1.
         21    1    1    2  504  502  0.34022478748E+02  0.16871687933E+01  0.46059483102E+02  0.57287446987E+02  0.00000000000E+00 0.  1.
</event>
<event>
 4    1  0.1589319E+006  0.2056462E+02  0.7546771E-02  0.1525573E+00
         21   -1    0    0  504  501  0.00000000000E+00  0.00000000000E+00  0.89900271751E+02  0.89900271751E+02  0.00000000000E+00 0.  1.
         21   -1    0    0  503  502 -0.00000000000E+00 -0.00000000000E+00 -0.75009022138E+01  0.75009022138E+01  0.00000000000E+00 0. -1.
         21    1    1    2  503  501 -0.19871928603E+02  0.52924373009E+01  0.11462131195E+02  0.23543234496E+02  0.00000000000E+00 0. -1.
         21    1    1    2  504  502  0.19871928603E+02 -0.52924373009E+01  0.70937238342E+02  0.73857939469E+02  0.00000000000E+00 0.  1.
</event>
<event>
 4    1  0.1589319E+006  0.3068581E+02  0.7546771E-02  0.1413729E+00
         21   -1    0    0  503  501  0.00000000000E+00  0.00000000000E+00  0.32291756421E+02  0.32291756421E+02  0.00000000000E+00 0. -1.
         21   -1    0    0  504  502 -0.00000000000E+00 -0.00000000000E+00 -0.15329308719E+03  0.15329308719E+03  0.00000000000E+00 0.  1.
         21    1    1    2  503  502 -0.27438540379E+02  0.13738470698E+02 -0.14400239383E+03  0.14723555448E+03  0.00000000000E+00 0.  1.
         21    1    1    2  504  501  0.27438540379E+02 -0.13738470698E+02  0.23001063056E+02  0.38349289132E+02  0.00000000000E+00 0. -1.
</event>
<event>
 4    1  0.1589319E+006  0.2078954E+02  0.7546771E-02  0.1522291E+00
         21   -1    0    0  503  501  0.00000000000E+00  0.00000000000E+00  0.42872025566E+01  0.42872025566E+01  0.00000000000E+00 0.  1.
         21   -1    0    0  504  502 -0.00000000000E+00 -0.00000000000E+00 -0.14673115980E+03  0.14673115980E+03  0.00000000000E+00 0.  1.
         21    1    1    2  503  502  0.70809161609E+01 -0.19546501739E+02 -0.11346272053E+03  0.11535161053E+03  0.00000000000E+00 0.  1.
         21    1    1    2  504  501 -0.70809161609E+01  0.19546501739E+02 -0.28981236723E+02  0.35666751827E+02  0.00000000000E+00 0.  1.
</event>
<event>
 4    1  0.1589319E+006  0.2614103E+02  0.7546771E-02  0.1456433E+00
         21   -1    0    0  504  501  0.00000000000E+00  0.00000000000E+00  0.10290920369E+02  0.10290920369E+02  0.00000000000E+00 0.  1.
         21   -1    0    0  503  502 -0.00000000000E+00 -0.00000000000E+00 -0.91358462336E+03  0.91358462336E+03  0.00000000000E+00 0. -1.
         21    1    1    2  503  501 -0.18262561063E+02  0.18703804285E+02 -0.89648007100E+03  0.89686112143E+03  0.00000000000E+00 0. -1.
         21    1    1    2  504  502  0.18262561063E+02 -0.18703804285E+02 -0.68136319924E+01  0.27014422301E+02  0.00000000000E+00 0.  1.
</event>
<event>
 4    1  0.1589319E+006  0.2109094E+02  0.7546771E-02  0.1517970E+00
         21   -1    0    0  503  501  0.00000000000E+00  0.00000000000E+00  0.14030751080E+02  0.14030751080E+02  0.00000000000E+00 0.  1.
         21   -1    0    0  504  502 -0.00000000000E+00 -0.00000000000E+00 -0.48028179780E+02  0.48028179780E+02  0.00000000000E+00 0.  1.
         21    1    1    2  503  502 -0.97611777786E+01 -0.18696174923E+02  0.10915587200E+01  0.21119163071E+02  0.00000000000E+00 0.  1.
         21    1    1    2  504  501  0.97611777786E+01  0.18696174923E+02 -0.35088987421E+02  0.40939767789E+02  0.00000000000E+00 0.  1.
</event>
<event>
 4    1  0.1589319E+006  0.2005812E+02  0.7546771E-02  0.1533149E+00
         21   -1    0    0  504  501  0.00000000000E+00  0.00000000000E+00  0.32714525296E+03  0.32714525296E+03  0.00000000000E+00 0.  1.
         21   -1    0    0  501  502 -0.00000000000E+00 -0.00000000000E+00 -0.64317127268E+01  0.64317127268E+01  0.00000000000E+00 0.  1.
         21    1    1    2  503  502 -0.96264187162E+01 -0.17597168946E+02  0.10359407069E+02  0.22575331826E+02  0.00000000000E+00 0.  1.
         21    1    1    2  504  503  0.96264187162E+01  0.17597168946E+02  0.31035413316E+03  0.31100163386E+03  0.00000000000E+00 0.  1.
</event>
<event>
 4    1  0.1589319E+006  0.5348411E+02  0.7546771E-02  0.1283734E+00
         21   -1    0    0  502  501  0.00000000000E+00  0.00000000000E+00  0.57725790810E+02  0.57725790810E+02  0.00000000000E+00 0.  1.
         21   -1    0    0  503  502 -0.00000000000E+00 -0.00000000000E+00 -0.60446738748E+02  0.60446738748E+02  0.00000000000E+00 0. -1.
         21    1    1    2  503  504  0.16791336248E+02  0.50779929671E+02 -0.26442720676E+02  0.59663788910E+02  0.00000000000E+00 0. -1.
         21    1    1    2  504  501 -0.16791336248E+02 -0.50779929671E+02  0.23721772738E+02  0.58508740648E+02  0.00000000000E+00 0.  1.
</event>
<event>
 4    1  0.1589319E+006  0.2489194E+02  0.7546771E-02  0.1470016E+00
         21   -1    0    0  504  501  0.00000000000E+00  0.00000000000E+00  0.40255022814E+01  0.40255022814E+01  0.00000000000E+00 0. -1.
         21   -1    0    0  501  502 -0.00000000000E+00 -0.00000000000E+00 -0.29725987869E+03  0.29725987869E+03  0.00000000000E+00 0.  1.
         21    1    1    2  503  502 -0.48168458823E+01  0.24421436361E+02 -0.25122454049E+03  0.25245470545E+03  0.00000000000E+00 0.  1.
         21    1    1    2  504  503  0.48168458823E+01 -0.24421436361E+02 -0.42009835917E+02  0.48830675522E+02  0.00000000000E+00 0. -1.
</event>
<event>
 4    1  0.1589319E+006  0.2927427E+02  0.7546771E-02  0.1426010E+00
         21   -1    0    0  503  501  0.00000000000E+00  0.00000000000E+00  0.18213143464E+03  0.18213143464E+03  0.00000000000E+00 0.  1.
         21   -1    0    0  504  502 -0.00000000000E+00 -0.00000000000E+00 -0.47709493013E+01  0.47709493013E+01  0.00000000000E+00 0. -1.
         21    1    1    2  503  502  0.28375551232E+01  0.29136419041E+02  0.77717862258E+02  0.83048472277E+02  0.00000000000E+00 0. -1.
         21    1    1    2  504  501 -0.28375551232E+01 -0.29136419041E+02  0.99642623081E+02  0.10385391166E+03  0.00000000000E+00 0.  1.
</event>
<event>
 4    1  0.1589319E+006  0.2994561E+02  0.7546771E-02  0.1420070E+00
         21   -1    0    0  503  501  0.00000000000E+00  0.00000000000E+00  0.31182195674E+02  0.31182195674E+02  0.00000000000E+00 0.  1.
         21   -1    0    0  504  502 -0.00000000000E+00 -0.00000000000E+00 -0.37006948066E+02  0.37006948066E+02  0.00000000000E+00 0.  1.
         21    1    1    2  503  502  0.29938375332E+02  0.65818001919E+00 -0.19009239533E+02  0.35469574371E+02  0.00000000000E+00 0.  1.
         21    1    1    2  504  501 -0.29938375332E+02 -0.65818001919E+00  0.13184487142E+02  0.32719569368E+02  0.00000000000E+00 0.  1.
</event>
<event>
 4    1  0.1589319E+006  0.2722230E+02  0.7546771E-02  0.1445388E+00
         21   -1    0    0  504  501  0.00000000000E+00  0.00000000000E+00  0.75450220163E+02  0.75450220163E+02  0.00000000000E+00 0.  1.
         21   -1    0    0  503  502 -0.00000000000E+00 -0.00000000000E+00 -0.98745802592E+01  0.98745802592E+01  0.00000000000E+00 0.  1.
         21    1    1    2  503  501  0.25751970563E+02  0.88255064512E+01  0.35908204737E+02  0.45060545041E+02  0.00000000000E+00 0.  1.
         21    1    1    2  504  502 -0.25751970563E+02 -0.88255064512E+01  0.29667435167E+02  0.40264255381E+02  0.00000000000E+00 0.  1.
</event>
<event>
 4    1  0.1589319E+006  0.2145463E+02  0.7546771E-02  0.1512872E+00
         21   -1    0    0  503  501  0.00000000000E+00  0.00000000000E+00  0.42302824841E+03  0.42302824841E+03  0.00000000000E+00 0.  1.
         21   -1    0    0  504  502 -0.00000000000E+00 -0.00000000000E+00 -0.12775558736E+01  0.12775558736E+01  0.00000000000E+00 0.  1.
         21    1    1    2  503  502 -0.52113827103E+01 -0.20812081002E+02  0.12917917296E+03  0.13094869206E+03  0.00000000000E+00 0.  1.
         21    1    1    2  504  501  0.52113827103E+01  0.20812081002E+02  0.29257151958E+03  0.29335711223E+03  0.00000000000E+00 0.  1.
</event>
<event>
 4    1  0.1589319E+006  0.2133902E+02  0.7546771E-02  0.1514479E+00
         21   -1    0    0  503  501  0.00000000000E+00  0.00000000000E+00  0.45193794137E+03  0.45193794137E+03  0.00000000000E+00 0. -1.
         21   -1    0    0  504  502 -0.00000000000E+00 -0.00000000000E+00 -0.29096961185E+01  0.29096961185E+01  0.00000000000E+00 0.  1.
         21    1    1    2  503  502  0.12374706500E+02 -0.17384484983E+02  0.40839355610E+03  0.40895066981E+03  0.00000000000E+00 0. -1.
         21    1    1    2  504  501 -0.12374706500E+02  0.17384484983E+02  0.40634689153E+02  0.45896967674E+02  0.00000000000E+00 0.  1.
</event>
<event>
 4    1  0.1589319E+006  0.2335822E+02  0.7546771E-02  0.1488048E+00
         21   -1    0    0  504  501  0.00000000000E+00  0.00000000000E+00  0.66238585272E+00  0.66238585272E+00  0.00000000000E+00 0.  1.
         21   -1    0    0  503  502 -0.00000000000E+00 -0.00000000000E+00 -0.83839550581E+03  0.83839550581E+03  0.00000000000E+00 0.  1.
         21    1    1    2  503  501 -0.19465846658E+02  0.12910741469E+02 -0.36332123979E+03  0.36407132504E+03  0.00000000000E+00 0.  1.
         21    1    1    2  504  502  0.19465846658E+02 -0.12910741469E+02 -0.47441188016E+03  0.47498656662E+03  0.00000000000E+00 0.  1.
</event>
<event>
 4    1  0.1589319E+006  0.2208253E+02  0.7546771E-02  0.1504352E+00
         21   -1    0    0  502  501  0.00000000000E+00  0.00000000000E+00  0.72172416285E+02  0.72172416285E+02  0.00000000000E+00 0. -1.
         21   -1    0    0  504  502 -0.00000000000E+00 -0.00000000000E+00 -0.13343138434E+02  0.13343138434E+02  0.00000000000E+00 0.  1.
         21    1    1    2  503  501  0.22025095845E+02 -0.15916331496E+01  0.59455726866E+02  0.63424140517E+02  0.00000000000E+00 0. -1.
         21    1    1    2  504  503 -0.22025095845E+02  0.15916331496E+01 -0.62644901603E+00  0.22091414202E+02  0.00000000000E+00 0.  1.
</event>
<event>
 4    1  0.1589319E+006  0.2395954E+02  0.7546771E-02  0.1480788E+00
         21   -1    0    0  503  501  0.00000000000E+00  0.00000000000E+00  0.20753168972E+03  0.20753168972E+03  0.00000000000E+00 0.  1.
         21   -1    0    0  501  502 -0.00000000000E+00 -0.00000000000E+00 -0.96613991146E+01  0.96613991146E+01  0.00000000000E+00 0.  1.
         21    1    1    2  503  504 -0.12221356870E+02 -0.20608204547E+02  0.19067786298E+03  0.19217728036E+03  0.00000000000E+00 0.  1.
         21    1    1    2  504  502  0.12221356870E+02  0.20608204547E+02  0.71924276322E+01  0.25015808475E+02  0.00000000000E+00 0.  1.
</event>
<event>
 4    1  0.1589319E+006  0.2062707E+02  0.7546771E-02  0.1524656E+00
         21   -1    0    0  503  501  0.00000000000E+00  0.00000000000E+00  0.67902635474E+03  0.67902635474E+03  0.00000000000E+00 0. -1.
         21   -1    0    0  504  502 -0.00000000000E+00 -0.00000000000E+00 -0.11089078473E+01  0.11089078473E+01  0.00000000000E+00 0. -1.
         21    1    1    2  503  502  0.18989604474E+02  0.80542569013E+01  0.11468369869E+03  0.11652393264E+03  0.00000000000E+00 0. -1.
         21    1    1    2  504  501 -0.18989604474E+02 -0.80542569013E+01  0.56323374820E+03  0.56361132995E+03  0.00000000000E+00 0. -1.
</event>
<event>
 4    1  0.1589319E+006  0.2029612E+02  0.7546771E-02  0.1529556E+00
         21   -1    0    0  503  501  0.00000000000E+00  0.00000000000E+00  0.13606189797E+03  0.13606189797E+03  0.00000000000E+00 0. -1.
         21   -1    0    0  504  502 -0.00000000000E+00 -0.00000000000E+00 -0.30649955062E+01  0.30649955062E+01  0.00000000000E+00 0. -1.
         21    1    1    2  503  502 -0.25561720668E+01 -0.20134508674E+02  0.58808203264E+02  0.62212034417E+02  0.00000000000E+00 0. -1.
         21    1    1    2  504  501  0.25561720668E+01  0.20134508674E+02  0.74188699204E+02  0.76914859063E+02  0.00000000000E+00 0. -1.
</event>
<event>
 4    1  0.1589319E+006  0.2602335E+02  0.7546771E-02  0.1457673E+00
         21   -1    0    0  502  501  0.00000000000E+00  0.00000000000E+00  0.53696592185E+03  0.53696592185E+03  0.00000000000E+00 0.  1.
         21   -1    0    0  503  502 -0.00000000000E+00 -0.00000000000E+00 -0.38908738810E+02  0.38908738810E+02  0.00000000000E+00 0.  1.
         21    1    1    2  503  504  0.21559004217E+02  0.14574773017E+02 -0.34203698730E+02  0.42977990625E+02  0.00000000000E+00 0.  1.
         21    1    1    2  504  501 -0.21559004217E+02 -0.14574773017E+02  0.53226088177E+03  0.53289667003E+03  0.00000000000E+00 0.  1.
</event>
<event>
 4    1  0.1589319E+006  0.2435991E+02  0.7546771E-02  0.1476093E+00
         21   -1    0    0  504  501  0.00000000000E+00  0.00000000000E+00  0.88533587105E+02  0.88533587105E+02  0.00000000000E+00 0.  1.
         21   -1    0    0  503  502 -0.00000000000E+00 -0.00000000000E+00 -0.99557968650E+01  0.99557968650E+01  0.00000000000E+00 0.  1.
         21    1    1    2  503  501  0.10139701332E+02 -0.22149309186E+02  0.11139023473E+02  0.26785878452E+02  0.00000000000E+00 0.  1.
         21    1    1    2  504  502 -0.10139701332E+02  0.22149309186E+02  0.67438766766E+02  0.71703505518E+02  0.00000000000E+00 0.  1.
</event>
<event>
 4    1  0.1589319E+006  0.2550638E+02  0.7546771E-02  0.1463217E+00
         21   -1    0    0  502  501  0.00000000000E+00  0.00000000000E+00  0.10803544163E+03  0.10803544163E+03  0.00000000000E+00 0. -1.
         21   -1    0    0  503  502 -0.00000000000E+00 -0.00000000000E+00 -0.74178535524E+01  0.74178535524E+01  0.00000000000E+00 0. -1.
         21    1    1    2  503  504 -0.12710424380E+02 -0.22113813954E+02  0.25266335081E+02  0.35902135646E+02  0.00000000000E+00 0. -1.
         21    1    1    2  504  501  0.12710424380E+02  0.22113813954E+02  0.75351252998E+02  0.79551159538E+02  0.00000000000E+00 0. -1.
</event>
<event>
 4    1  0.1589319E+006  0.2085003E+02  0.7546771E-02  0.1521417E+00
         21   -1    0    0  503  501  0.00000000000E+00  0.00000000000E+00  0.23920290241E+03  0.23920290241E+03  0.00000000000E+00 0.  1.
         21   -1    0    0  501  502 -0.00000000000E+00 -0.00000000000E+00 -0.58680891036E+01  0.58680891036E+01  0.00000000000E+00 0.  1.
         21    1    1    2  503  504 -0.20764093733E+02 -0.18911043971E+01  0.21847467867E+03  0.21946733033E+03  0.00000000000E+00 0.  1.
         21    1    1    2  504  502  0.20764093733E+02  0.18911043971E+01  0.14860134639E+02  0.25603661181E+02  0.00000000000E+00 0.  1.
</event>
<event>
 4    1  0.1589319E+006  0.2066591E+02  0.7546771E-02  0.1524089E+00
         21   -1    0    0  504  501  0.00000000000E+00  0.00000000000E+00  0.31017513756E+01  0.31017513756E+01  0.00000000000E+00 0. -1.
         21   -1    0    0  503  502 -0.00000000000E+00 -0.00000000000E+00 -0.15051997034E+03  0.15051997034E+03  0.00000000000E+00 0. -1.
         21    1    1    2  503  501 -0.19298794889E+02  0.73916415896E+01 -0.96134500239E+02  0.98330676728E+02  0.00000000000E+00 0. -1.
         21    1    1    2  504  502  0.19298794889E+02 -0.73916415896E+01 -0.51283718730E+02  0.55291044992E+02  0.00000000000E+00 0. -1.
</event>
<event>
 4    1  0.1589319E+006  0.3603713E+02  0.7546771E-02  0.1373415E+00
         21   -1    0    0  503  501  0.00000000000E+00  0.00000000000E+00  0.94410103666E+02  0.94410103666E+02  0.00000000000E+00 0.  1.
         21   -1    0    0  501  502 -0.00000000000E+00 -0.00000000000E+00 -0.28376271275E+02  0.28376271275E+02  0.00000000000E+00 0.  1.
         21    1    1    2  503  504  0.29117052182E+02 -0.21233746865E+02  0.77085090244E+02  0.85092807402E+02  0.00000000000E+00 0.  1.
         21    1    1    2  504  502 -0.29117052182E+02  0.21233746865E+02 -0.11051257853E+02  0.37693567539E+02  0.00000000000E+00 0.  1.
</event>
<event>
 4    1  0.1589319E+006  0.2076787E+02  0.7546771E-02  0.1522605E+00
         21   -1    0    0  504  501  0.00000000000E+00  0.00000000000E+00  0.66689224417E+02  0.66689224417E+02  0.00000000000E+00 0. -1.
         21   -1    0    0  503  502 -0.00000000000E+00 -0.00000000000E+00 -0.59198177684E+02  0.59198177684E+02  0.00000000000E+00 0.  1.
         21    1    1    2  503  501  0.63127643451E+01  0.19785182035E+02  0.63151519892E+02  0.66478710025E+02  0.00000000000E+00 0. -1.
         21    1    1    2  504  502 -0.63127643451E+01 -0.19785182035E+02 -0.55660473160E+02  0.59408692076E+02  0.00000000000E+00 0.  1.
</event>
<event>
 4    1  0.1589319E+006  0.3689270E+02  0.7546771E-02  0.1367724E+00
         21   -1    0    0  504  501  0.00000000000E+00  0.00000000000E+00  0.19171067041E+03  0.19171067041E+03  0.00000000000E+00 0.  1.
         21   -1    0    0  503  502 -0.00000000000E+00 -0.00000000000E+00 -0.71956062780E+01  0.71956062780E+01  0.00000000000E+00 0.  1.
         21    1    1    2  503  501 -0.33013398404E+02  0.16467758747E+02  0.10374449954E+03  0.11010900389E+03  0.00000000000E+00 0.  1.
         21    1    1    2  504  502  0.33013398404E+02 -0.16467758747E+02  0.80770564596E+02  0.88797272804E+02  0.00000000000E+00 0.  1.
</event>
<event>
 4    1  0.1589319E+006  0.3244440E+02  0.7546771E-02  0.1399479E+00
         21   -1    0    0  504  501  0.00000000000E+00  0.00000000000E+00  0.99522681216E+02  0.99522681216E+02  0.00000000000E+00 0. -1.
         21   -1    0    0  501  502 -0.00000000000E+00 -0.00000000000E+00 -0.40768075683E+03  0.40768075683E+03  0.00000000000E+00 0.  1.
         21    1    1    2  503  502  0.19435554700E+02 -0.25978805799E+02 -0.40436941456E+03  0.40566890757E+03  0.00000000000E+00 0.  1.
         21    1    1    2  504  503 -0.19435554700E+02  0.25978805799E+02  0.96211338946E+02  0.10153453048E+03  0.00000000000E+00 0. -1.
</event>
<event>
 4    1  0.1589319E+006  0.2214721E+02  0.7546771E-02  0.1503494E+00
         21   -1    0    0  503  501  0.00000000000E+00  0.00000000000E+00  0.89121744430E+02  0.89121744430E+02  0.00000000000E+00 0.  1.
         21   -1    0    0  504  502 -0.00000000000E+00 -0.00000000000E+00 -0.11520997445E+03  0.11520997445E+03  0.00000000000E+00 0. -1.
         21    1    1    2  503  502  0.32866221174E+01 -0.21901986738E+02 -0.11273983078E+03  0.11489459671E+03  0.00000000000E+00 0. -1.
         21    1    1    2  504  501 -0.32866221174E+01  0.21901986738E+02  0.86651600762E+02  0.89437122173E+02  0.00000000000E+00 0.  1.
</event>
<event>
 4    1  0.1589319E+006  0.3252933E+02  0.7546771E-02  0.1398818E+00
         21   -1    0    0  504  501  0.00000000000E+00  0.00000000000E+00  0.47763209771E+02  0.47763209771E+02  0.00000000000E+00 0. -1.
         21   -1    0    0  503  502 -0.00000000000E+00 -0.00000000000E+00 -0.24189683641E+02  0.24189683641E+02  0.00000000000E+00 0. -1.
         21    1    1    2  503  501 -0.14449730012E+02 -0.29143831892E+02  0.22222729261E+02  0.39395524246E+02  0.00000000000E+00 0. -1.
         21    1    1    2  504  502  0.14449730012E+02  0.29143831892E+02  0.13507968688E+01  0.32557369165E+02  0.00000000000E+00 0. -1.
</event>
<event>
 4    1  0.1589319E+006  0.2396916E+02  0.7546771E-02  0.1480674E+00
         21   -1    0    0  504  501  0.00000000000E+00  0.00000000000E+00  0.36205988157E+03  0.36205988157E+03  0.00000000000E+00 0. -1.
         21   -1    0    0  501  502 -0.00000000000E+00 -0.00000000000E+00 -0.25679939195E+01  0.25679939195E+01  0.00000000000E+00 0.  1.
         21    1    1    2  503  502 -0.15484914283E+02 -0.18295849707E+02  0.67052717113E+02  0.71208058246E+02  0.00000000000E+00 0.  1.
         21    1    1    2  504  503  0.15484914283E+02  0.18295849707E+02  0.29243917054E+03  0.29341981725E+03  0.00000000000E+00 0. -1.
</event>
<event>
 4    1  0.1589319E+006  0.2170764E+02  0.7546771E-02  0.1509397E+00
         21   -1    0    0  503  501  0.00000000000E+00  0.00000000000E+00  0.43631103840E+03  0.43631103840E+03  0.00000000000E+00 0. -1.
         21   -1    0    0  501  502 -0.00000000000E+00 -0.00000000000E+00 -0.23995778137E+01  0.23995778137E+01  0.00000000000E+00 0.  1.
         21    1    1    2  503  504  0.21694176169E+01  0.21598963485E+02  0.37962146963E+03  0.38024160977E+03  0.00000000000E+00 0. -1.
         21    1    1    2  504  502 -0.21694176169E+01 -0.21598963485E+02  0.54289990950E+02  0.58469006437E+02  0.00000000000E+00 0.  1.
</event>
<event>
 4    1  0.1589319E+006  0.4069996E+02  0.7546771E-02  0.1344432E+00
         21   -1    0    0  504  501  0.00000000000E+00  0.00000000000E+00  0.19288071054E+03  0.19288071054E+03  0.00000000000E+00 0. -1.
         21   -1    0    0  503  502 -0.00000000000E+00 -0.00000000000E+00 -0.18847305163E+02  0.18847305163E+02  0.00000000000E+00 0.  1.
         21    1    1    2  503  501 -0.40196921364E+02  0.63792079937E+01  0.89115500673E+01  0.41664163334E+02  0.00000000000E+00 0.  1.
         21    1    1    2  504  502  0.40196921364E+02 -0.63792079937E+01  0.16512185531E+03  0.17006385237E+03  0.00000000000E+00 0. -1.
</event>
<event>
 4    1  0.1589319E+006  0.2461538E+02  0.7546771E-02  0.1473152E+00
         21   -1    0    0  502  501  0.00000000000E+00  0.00000000000E+00  0.64195396656E+02  0.64195396656E+02  0.00000000000E+00 0. -1.
         21   -1    0    0  503  502 -0.00000000000E+00 -0.00000000000E+00 -0.73373262731E+02  0.73373262731E+02  0.00000000000E+00 0. -1.
         21    1    1    2  503  504  0.79905348476E+01 -0.23282363206E+02 -0.68796861018E+02  0.73067948990E+02  0.00000000000E+00 0. -1.
         21    1    1    2  504  501 -0.79905348476E+01  0.23282363206E+02  0.59618994944E+02  0.64500710397E+02  0.00000000000E+00 0. -1.
</event>
<event>
 4    1  0.1589319E+006  0.4745289E+02  0.7546771E-02  0.1309610E+00
         21   -1    0    0  502  501  0.00000000000E+00  0.00000000000E+00  0.93870967658E+02  0.93870967658E+02  0.00000000000E+00 0.  1.
         21   -1    0    0  504  502 -0.00000000000E+00 -0.00000000000E+00 -0.45655883633E+02  0.45655883633E+02  0.00000000000E+00 0.  1.
         21    1    1    2  503  501 -0.17935928642E+02 -0.43932672230E+02  0.72167968510E+02  0.86371250450E+02  0.00000000000E+00 0.  1.
         21    1    1    2  504  503  0.17935928642E+02  0.43932672230E+02 -0.23952884485E+02  0.53155600840E+02  0.00000000000E+00 0.  1.
</event>
<event>
 4    1  0.1589319E+006  0.3465622E+02  0.7546771E-02  0.1382996E+00
         21   -1    0    0  502  501  0.00000000000E+00  0.00000000000E+00  0.56605611620E+02  0.56605611620E+02  0.00000000000E+00 0.  1.
         21   -1    0    0  503  502 -0.00000000000E+00 -0.00000000000E+00 -0.17828182317E+04  0.17828182317E+04  0.00000000000E+00 0. -1.
         21    1    1    2  503  504 -0.28307280013E+02  0.19993785599E+02 -0.17773289487E+04  0.17776667982E+04  0.00000000000E+00 0. -1.
         21    1    1    2  504  501  0.28307280013E+02 -0.19993785599E+02  0.51116328643E+02  0.61757045090E+02  0.00000000000E+00 0.  1.
</event>
<event>
 4    1  0.1589319E+006  0.3143807E+02  0.7546771E-02  0.1407498E+00
         21   -1    0    0  504  501  0.00000000000E+00  0.00000000000E+00  0.23216553060E+02  0.23216553060E+02  0.00000000000E+00 0.  1.
         21   -1    0    0  501  502 -0.00000000000E+00 -0.00000000000E+00 -0.14815863881E+03  0.14815863881E+03  0.00000000000E+00 0.  1.
         21    1    1    2  503  502 -0.21413529562E+02 -0.23017671105E+02 -0.13480812040E+03  0.13842536530E+03  0.00000000000E+00 0.  1.
         21    1    1    2  504  503  0.21413529562E+02  0.23017671105E+02  0.98660346519E+01  0.32949826572E+02  0.00000000000E+00 0.  1.
</event>
<event>
 4    1  0.1589319E+006  0.2214773E+02  0.7546771E-02  0.1503487E+00
         21   -1    0    0  502  501  0.00000000000E+00  0.00000000000E+00  0.76356179958E+02  0.76356179958E+02  0.00000000000E+00 0.  1.
         21   -1    0    0  504  502 -0.00000000000E+00 -0.00000000000E+00 -0.11915133154E+02  0.11915133154E+02  0.00000000000E+00 0. -1.
         21    1    1    2  503  501  0.20946141096E+02 -0.71958999027E+01  0.62182199457E+02  0.66008694363E+02  0.00000000000E+00 0.  1.
         21    1    1    2  504  503 -0.20946141096E+02  0.71958999027E+01  0.22588473468E+01  0.22262618748E+02  0.00000000000E+00 0. -1.
</event>
<event>
 4    1  0.1589319E+006  0.2388348E+02  0.7546771E-02  0.1481692E+00
         21   -1    0    0  504  501  0.00000000000E+00  0.00000000000E+00  0.16777438739E+02  0.16777438739E+02  0.00000000000E+00 0. -1.
         21   -1    0    0  503  502 -0.00000000000E+00 -0.00000000000E+00 -0.57677332845E+02  0.57677332845E+02  0.00000000000E+00 0.  1.
         21    1    1    2  503  501 -0.16182692837E+02  0.17565341552E+02 -0.44302396507E+02  0.50330141144E+02  0.00000000000E+00 0.  1.
         21    1    1    2  504  502  0.16182692837E+02 -0.17565341552E+02  0.34025024015E+01  0.24124630440E+02  0.00000000000E+00 0. -1.
</event>
<event>
 4    1  0.1589319E+006  0.2119869E+02  0.7546771E-02  0.1516447E+00
         21   -1    0    0  504  501  0.00000000000E+00  0.00000000000E+00  0.15114597221E+02  0.15114597221E+02  0.00000000000E+00 0.  1.
         21   -1    0    0  503  502 -0.00000000000E+00 -0.00000000000E+00 -0.46128522402E+02  0.46128522402E+02  0.00000000000E+00 0. -1.
         21    1    1    2  503  501  0.21034751183E+02 -0.26312889087E+01  0.27496766711E+01  0.21376275645E+02  0.00000000000E+00 0.  1.
         21    1    1    2  504  502 -0.21034751183E+02  0.26312889087E+01 -0.33763601852E+02  0.39866843977E+02  0.00000000000E+00 0. -1.
</event>
<event>
 4    1  0.1589319E+006  0.2147461E+02  0.7546771E-02  0.1512595E+00
         21   -1    0    0  503  501  0.00000000000E+00  0.00000000000E+00  0.92246965809E+02  0.92246965809E+02  0.00000000000E+00 0.  1.
         21   -1    0    0  504  502 -0.00000000000E+00 -0.00000000000E+00 -0.35036277648E+02  0.35036277648E+02  0.00000000000E+00 0.  1.
         21    1    1    2  503  502  0.53995714086E+01  0.20784694719E+02  0.87531927790E+02  0.90127672158E+02  0.00000000000E+00 0.  1.
         21    1    1    2  504  501 -0.53995714086E+01 -0.20784694719E+02 -0.30321239629E+02  0.37155571299E+02  0.00000000000E+00 0.  1.
</event>
<event>
 4    1  0.1589319E+006  0.2156749E+02  0.7546771E-02  0.1511315E+00
         21   -1    0    0  504  501  0.00000000000E+00  0.00000000000E+00  0.41761207694E+02  0.41761207694E+02  0.00000000000E+00 0. -1.
         21   -1    0    0  503  502 -0.00000000000E+00 -0.00000000000E+00 -0.37243258323E+02  0.37243258323E+02  0.00000000000E+00 0. -1.
         21    1    1    2  503  501 -0.93001483071E+01  0.19459288055E+02 -0.30812819919E+02  0.37610989371E+02  0.00000000000E+00 0. -1.
         21    1    1    2  504  502  0.93001483071E+01 -0.19459288055E+02  0.35330769290E+02  0.41393476645E+02  0.00000000000E+00 0. -1.
</event>
<event>
 4    1  0.1589319E+006  0.4179263E+02  0.7546771E-02  0.1338290E+00
         21   -1    0    0  504  501  0.00000000000E+00  0.00000000000E+00  0.21553239797E+04  0.21553239797E+04  0.00000000000E+00 0.  1.
         21   -1    0    0  503  502 -0.00000000000E+00 -0.00000000000E+00 -0.88967834127E+00  0.88967834127E+00  0.00000000000E+00 0.  1.
         21    1    1    2  503  501  0.31361420586E+02  0.27623998201E+02  0.13990918411E+04  0.13997159011E+04  0.00000000000E+00 0.  1.
         21    1    1    2  504  502 -0.31361420586E+02 -0.27623998201E+02  0.75534246029E+03  0.75649775697E+03  0.00000000000E+00 0.  1.
</event>
<event>
 4    1  0.1589319E+006  0.2419547E+02  0.7546771E-02  0.1478008E+00
         21   -1    0    0  504  501  0.00000000000E+00  0.00000000000E+00  0.20786415963E+02  0.20786415963E+02  0.00000000000E+00 0.  1.
         21   -1    0    0  503  502 -0.00000000000E+00 -0.00000000000E+00 -0.95810136473E+02  0.95810136473E+02  0.00000000000E+00 0.  1.
         21    1    1    2  503  501  0.50717456080E+01 -0.23657937109E+02  0.11474223713E+02  0.26778319618E+02  0.00000000000E+00 0.  1.
         21    1    1    2  504  502 -0.50717456080E+01  0.23657937109E+02 -0.86497944223E+02  0.89818232818E+02  0.00000000000E+00 0.  1.
</event>
<event>
 4    1  0.1589319E+006  0.2713449E+02  0.7546771E-02  0.1446262E+00
         21   -1    0    0  502  501  0.00000000000E+00  0.00000000000E+00  0.31112874197E+03  0.31112874197E+03  0.00000000000E+00 0.  1.
         21   -1    0    0  503  502 -0.00000000000E+00 -0.00000000000E+00 -0.43987430681E+01  0.43987430681E+01  0.00000000000E+00 0. -1.
         21    1    1    2  503  504  0.27112605082E+02 -0.10897076990E+01  0.46130984812E+02  0.53519609275E+02  0.00000000000E+00 0. -1.
         21    1    1    2  504  501 -0.27112605082E+02  0.10897076990E+01  0.26059901409E+03  0.26200787576E+03  0.00000000000E+00 0.  1.
</event>
<event>
 4    1  0.1589319E+006  0.2547855E+02  0.7546771E-02  0.1463520E+00
         21   -1    0    0  503  501  0.00000000000E+00  0.00000000000E+00  0.23903337287E+03  0.23903337287E+03  0.00000000000E+00 0. -1.
         21   -1    0    0  504  502 -0.00000000000E+00 -0.00000000000E+00 -0.55037938295E+01  0.55037938295E+01  0.00000000000E+00 0. -1.
         21    1    1    2  503  502  0.23950767912E+02  0.86900778534E+01  0.29742000894E+02  0.39163035555E+02  0.00000000000E+00 0. -1.
         21    1    1    2  504  501 -0.23950767912E+02 -0.86900778534E+01  0.20378757815E+03  0.20537413115E+03  0.00000000000E+00 0. -1.
</event>
<event>
 4    1  0.1589319E+006  0.2239297E+02  0.7546771E-02  0.1500265E+00
         21   -1    0    0  503  501  0.00000000000E+00  0.00000000000E+00  0.84174938300E+01  0.84174938300E+01  0.00000000000E+00 0. -1.
         21   -1    0    0  504  502 -0.00000000000E+00 -0.00000000000E+00 -0.70150113317E+02  0.70150113317E+02  0.00000000000E+00 0. -1.
         21    1    1    2  503  502  0.22385131085E+02  0.59251502728E+00 -0.46121153990E+02  0.51269932837E+02  0.00000000000E+00 0. -1.
         21    1    1    2  504  501 -0.22385131085E+02 -0.59251502728E+00 -0.15611465498E+02  0.27297674310E+02  0.00000000000E+00 0. -1.
</event>
<event>
 4    1  0.1589319E+006  0.2161747E+02  0.7546771E-02  0.1510629E+00
         21   -1    0    0  503  501  0.00000000000E+00  0.00000000000E+00  0.18427602549E+03  0.18427602549E+03  0.00000000000E+00 0. -1.
         21   -1    0    0  501  502 -0.00000000000E+00 -0.00000000000E+00 -0.91961715812E+01  0.91961715812E+01  0.00000000000E+00 0. -1.
         21    1    1    2  503  504 -0.13618552465E+02 -0.16788385994E+02  0.16986447561E+03  0.17123450280E+03  0.00000000000E+00 0. -1.
         21    1    1    2  504  502  0.13618552465E+02  0.16788385994E+02  0.52153782965E+01  0.22237694267E+02  0.00000000000E+00 0. -1.
</event>
<event>
 4    1  0.1589319E+006  0.2178318E+02  0.7546771E-02  0.1508370E+00
         21   -1    0    0  502  501  0.00000000000E+00  0.00000000000E+00  0.10550246558E+02  0.10550246558E+02  0.00000000000E+00 0. -1.
         21   -1    0    0  503  502 -0.00000000000E+00 -0.00000000000E+00 -0.17867072361E+03  0.17867072361E+03  0.00000000000E+00 0. -1.
         21    1    1    2  503  504  0.17488716673E+02 -0.12986594765E+02 -0.16590103820E+03  0.16732501705E+03  0.00000000000E+00 0. -1.
         21    1    1    2  504  501 -0.17488716673E+02  0.12986594765E+02 -0.22194388582E+01  0.21895953126E+02  0.00000000000E+00 0. -1.
</event>
<event>
 4    1  0.1589319E+006  0.2758341E+02  0.7546771E-02  0.1441834E+00
         21   -1    0    0  503  501  0.00000000000E+00  0.00000000000E+00  0.85817295424E+01  0.85817295424E+01  0.00000000000E+00 0.  1.
         21   -1    0    0  504  502 -0.00000000000E+00 -0.00000000000E+00 -0.11576008271E+03  0.11576008271E+03  0.00000000000E+00 0.  1.
         21    1    1    2  503  502 -0.26675929073E+02  0.70170705649E+01 -0.23507364970E+02  0.36241422145E+02  0.00000000000E+00 0.  1.
         21    1    1    2  504  501  0.26675929073E+02 -0.70170705649E+01 -0.83670988194E+02  0.88100390105E+02  0.00000000000E+00 0.  1.
</event>
<event>
 4    1  0.1589319E+006  0.2108455E+02  0.7546771E-02  0.1518061E+00
         21   -1    0    0  504  501  0.00000000000E+00  0.00000000000E+00  0.44455340436E+03  0.44455340436E+03  0.00000000000E+00 0.  1.
         21   -1    0    0  503  502 -0.00000000000E+00 -0.00000000000E+00 -0.39192511669E+01  0.39192511669E+01  0.00000000000E+00 0. -1.
         21    1    1    2  503  501  0.16525442091E+02 -0.13094576575E+02  0.41384309336E+03  0.41437985484E+03  0.00000000000E+00 0.  1.
         21    1    1    2  504  502 -0.16525442091E+02  0.13094576575E+02  0.26791059832E+02  0.34092800690E+02  0.00000000000E+00 0. -1.
</event>
<event>
 4    1  0.1589319E+006  0.2535040E+02  0.7546771E-02  0.1464921E+00
         21   -1    0    0  503  501  0.00000000000E+00  0.00000000000E+00  0.39213589657E+01  0.39213589657E+01  0.00000000000E+00 0.  1.
         21   -1    0    0  504  502 -0.00000000000E+00 -0.00000000000E+00 -0.16575251325E+03  0.16575251325E+03  0.00000000000E+00 0.  1.
         21    1    1    2  503  502  0.24711808102E+02 -0.56541514380E+01 -0.71904966331E+02  0.76242816522E+02  0.00000000000E+00 0.  1.
         21    1    1    2  504  501 -0.24711808102E+02  0.56541514380E+01 -0.89926187950E+02  0.93431055691E+02  0.00000000000E+00 0.  1.
</event>
<event>
 4    1  0.1589319E+006  0.2022145E+02  0.7546771E-02  0.1530677E+00
         21   -1    0    0  503  501  0.00000000000E+00  0.00000000000E+00  0.11232391961E+03  0.11232391961E+03  0.00000000000E+00 0.  1.
         21   -1    0    0  504  502 -0.00000000000E+00 -0.00000000000E+00 -0.12451419416E+02  0.12451419416E+02  0.00000000000E+00 0.  1.
         21    1    1    2  503  502 -0.16591902631E+02 -0.11559229077E+02 -0.25447073846E+01  0.20380935833E+02  0.00000000000E+00 0.  1.
         21    1    1    2  504  501  0.16591902631E+02  0.11559229077E+02  0.10241720758E+03  0.10439440319E+03  0.00000000000E+00 0.  1.
</event>
<event>
 4    1  0.1589319E+006  0.2012087E+02  0.7546771E-02  0.1532196E+00
         21   -1    0    0  502  501  0.00000000000E+00  0.00000000000E+00  0.16122084965E+02  0.16122084965E+02  0.00000000000E+00 0. -1.
         21   -1    0    0  504  502 -0.00000000000E+00 -0.00000000000E+00 -0.90264621719E+02  0.90264621719E+02  0.00000000000E+00 0.  1.
         21    1    1    2  503  501 -0.73246572245E+01 -0.18740299577E+02  0.81212209111E+01  0.21698010526E+02  0.00000000000E+00 0. -1.
         21    1    1    2  504  503  0.73246572245E+01  0.18740299577E+02 -0.82263757665E+02  0.84688696158E+02  0.00000000000E+00 0.  1.
</event>
<event>
 4    1  0.1589319E+006  0.2208166E+02  0.7546771E-02  0.1504363E+00
         21   -1    0    0  502  501  0.00000000000E+00  0.00000000000E+00  0.39584447528E+01  0.39584447528E+01  0.00000000000E+00 0.  1.
         21   -1    0    0  504  502 -0.00000000000E+00 -0.00000000000E+00 -0.52632156811E+03  0.52632156811E+03  0.00000000000E+00 0. -1.
         21    1    1    2  503  501 -0.22080352563E+02 -0.24069353005E+00 -0.29133123832E+02  0.36555968143E+02  0.00000000000E+00 0.  1.
         21    1    1    2  504  503  0.22080352563E+02  0.24069353005E+00 -0.49322999952E+03  0.49372404472E+03  0.00000000000E+00 0. -1.
</event>
<event>
 4    1  0.1589319E+006  0.2058507E+02  0.7546771E-02  0.1525272E+00
         21   -1    0    0  503  501  0.00000000000E+00  0.00000000000E+00  0.23321297140E+01  0.23321297140E+01  0.00000000000E+00 0. -1.
         21   -1    0    0  501  502 -0.00000000000E+00 -0.00000000000E+00 -0.70837819700E+03  0.70837819700E+03  0.00000000000E+00 0.  1.
         21    1    1    2  503  504  0.71760162993E+01 -0.19293773876E+02 -0.46612813820E+02  0.50955856705E+02  0.00000000000E+00 0. -1.
         21    1    1    2  504  502 -0.71760162993E+01  0.19293773876E+02 -0.65943325346E+03  0.65975447001E+03  0.00000000000E+00 0.  1.
</event>
<event>
 4    1  0.1589319E+006  0.7012512E+02  0.7546771E-02  0.1228838E+00
         21   -1    0    0  504  501  0.00000000000E+00  0.00000000000E+00  0.30953882528E+02  0.30953882528E+02  0.00000000000E+00 0.  1.
         21   -1    0    0  503  502 -0.00000000000E+00 -0.00000000000E+00 -0.23646259603E+03  0.23646259603E+03  0.00000000000E+00 0. -1.
         21    1    1    2  503  501 -0.47261729058E+02 -0.51806004622E+02 -0.17934876137E+03  0.19257079569E+03  0.00000000000E+00 0. -1.
         21    1    1    2  504  502  0.47261729058E+02  0.51806004622E+02 -0.26159952135E+02  0.74845682869E+02  0.00000000000E+00 0.  1.
</event>
<event>
 4    1  0.1589319E+006  0.2694054E+02  0.7546771E-02  0.1448206E+00
         21   -1    0    0  504  501  0.00000000000E+00  0.00000000000E+00  0.25924037786E+01  0.25924037786E+01  0.00000000000E+00 0.  1.
         21   -1    0    0  503  502 -0.00000000000E+00 -0.00000000000E+00 -0.87488911023E+03  0.87488911023E+03  0.00000000000E+00 0. -1.
         21    1    1    2  503  501  0.10610583508E+02 -0.24763037290E+02 -0.79794190915E+03  0.79839656993E+03  0.00000000000E+00 0. -1.
         21    1    1    2  504  502 -0.10610583508E+02  0.24763037290E+02 -0.74354797303E+02  0.79084944080E+02  0.00000000000E+00 0.  1.
</event>
<event>
 4    1  0.1589319E+006  0.2140803E+02  0.7546771E-02  0.1513518E+00
         21   -1    0    0  502  501  0.00000000000E+00  0.00000000000E+00  0.28227308894E+02  0.28227308894E+02  0.00000000000E+00 0. -1.
         21   -1    0    0  504  502 -0.00000000000E+00 -0.00000000000E+00 -0.88618039919E+02  0.88618039919E+02  0.00000000000E+00 0. -1.
         21    1    1    2  503  501  0.19249900138E+02 -0.93672252231E+01  0.22604795161E+02  0.31133267223E+02  0.00000000000E+00 0. -1.
         21    1    1    2  504  503 -0.19249900138E+02  0.93672252231E+01 -0.82995526186E+02  0.85712081590E+02  0.00000000000E+00 0. -1.
</event>
<event>
 4    1  0.1589319E+006  0.2343526E+02  0.7546771E-02  0.1487104E+00
         21   -1    0    0  502  501  0.00000000000E+00  0.00000000000E+00  0.27353004101E+02  0.27353004101E+02  0.00000000000E+00 0. -1.
         21   -1    0    0  504  502 -0.00000000000E+00 -0.00000000000E+00 -0.82671757248E+02  0.82671757248E+02  0.00000000000E+00 0.  1.
         21    1    1    2  503  501  0.18521538835E+02 -0.14358416597E+02  0.20208602664E+02  0.30945098959E+02  0.00000000000E+00 0. -1.
         21    1    1    2  504  503 -0.18521538835E+02  0.14358416597E+02 -0.75527355810E+02  0.79079662390E+02  0.00000000000E+00 0.  1.
</event>
<event>
 4    1  0.1589319E+006  0.2417721E+02  0.7546771E-02  0.1478222E+00
         21   -1    0    0  503  501  0.00000000000E+00  0.00000000000E+00  0.17143856869E+03  0.17143856869E+03  0.00000000000E+00 0. -1.
         21   -1    0    0  504  502 -0.00000000000E+00 -0.00000000000E+00 -0.75911194632E+01  0.75911194632E+01  0.00000000000E+00 0. -1.
         21    1    1    2  503  502  0.24041980744E+02 -0.25536027184E+01  0.14836056518E+03  0.15031764708E+03  0.00000000000E+00 0. -1.
         21    1    1    2  504  501 -0.24041980744E+02  0.25536027184E+01  0.15486884053E+02  0.28712041073E+02  0.00000000000E+00 0. -1.
</event>
<event>
 4    1  0.1589319E+006  0.4364361E+02  0.7546771E-02  0.1328363E+00
         21   -1    0    0  503  501  0.00000000000E+00  0.00000000000E+00  0.11471359495E+02  0.11471359495E+02  0.00000000000E+00 0. -1.
         21   -1    0    0  504  502 -0.00000000000E+00 -0.00000000000E+00 -0.16673927571E+03  0.16673927571E+03  0.00000000000E+00 0. -1.
         21    1    1    2  503  502 -0.43162141024E+02 -0.64648592554E+01 -0.83382670734E+02  0.94113944778E+02  0.00000000000E+00 0. -1.
         21    1    1    2  504  501  0.43162141024E+02  0.64648592554E+01 -0.71885245482E+02  0.84096690428E+02  0.00000000000E+00 0. -1.
</event>
<event>
 4    1  0.1589319E+006  0.2606486E+02  0.7546771E-02  0.1457235E+00
         21   -1    0    0  503  501  0.00000000000E+00  0.00000000000E+00  0.79711062596E+01  0.79711062596E+01  0.00000000000E+00 0. -1.
         21   -1    0    0  504  502 -0.00000000000E+00 -0.00000000000E+00 -0.16593890135E+03  0.16593890135E+03  0.00000000000E+00 0. -1.
         21    1    1    2  503  502 -0.15774049130E+02 -0.20749850104E+02 -0.13962699191E+03  0.14203898682E+03  0.00000000000E+00 0. -1.
         21    1    1    2  504  501  0.15774049130E+02  0.20749850104E+02 -0.18340803182E+02  0.31871020797E+02  0.00000000000E+00 0. -1.
</event>
<event>
 4    1  0.1589319E+006  0.2417159E+02  0.7546771E-02  0.1478288E+00
         21   -1    0    0  502  501  0.00000000000E+00  0.00000000000E+00  0.13555695874E+03  0.13555695874E+03  0.00000000000E+00 0. -1.
         21   -1    0    0  503  502 -0.00000000000E+00 -0.00000000000E+00 -0.51171451126E+01  0.51171451126E+01  0.00000000000E+00 0. -1.
         21    1    1    2  503  504  0.15874275525E+02 -0.18228365878E+02  0.37287044967E+02  0.44436355255E+02  0.00000000000E+00 0. -1.
         21    1    1    2  504  501 -0.15874275525E+02  0.18228365878E+02  0.93152768663E+02  0.96237748600E+02  0.00000000000E+00 0. -1.
</event>
<event>
 4    1  0.1589319E+006  0.3061511E+02  0.7546771E-02  0.1414325E+00
         21   -1    0    0  504  501  0.00000000000E+00  0.00000000000E+00  0.27322172651E+02  0.27322172651E+02  0.00000000000E+00 0.  1.
         21   -1    0    0  503  502 -0.00000000000E+00 -0.00000000000E+00 -0.83847950042E+02  0.83847950042E+02  0.00000000000E+00 0. -1.
         21    1    1    2  503  501  0.89099184027E+01  0.29289906122E+02  0.14464179994E+02  0.33859972674E+02  0.00000000000E+00 0.  1.
         21    1    1    2  504  502 -0.89099184027E+01 -0.29289906122E+02 -0.70989957384E+02  0.77310150019E+02  0.00000000000E+00 0. -1.
</event>
<event>
 4    1  0.1589319E+006  0.2004171E+02  0.7546771E-02  0.1533399E+00
         21   -1    0    0  504  501  0.00000000000E+00  0.00000000000E+00  0.11139696267E+01  0.11139696267E+01  0.00000000000E+00 0. -1.
         21   -1    0    0  503  502 -0.00000000000E+00 -0.00000000000E+00 -0.10171637452E+04  0.10171637452E+04  0.00000000000E+00 0.  1.
         21    1    1    2  503  501 -0.14004901571E+02 -0.14336420126E+02 -0.98964578035E+02  0.10097355057E+03  0.00000000000E+00 0. -1.
         21    1    1    2  504  502  0.14004901571E+02  0.14336420126E+02 -0.91708519751E+03  0.91730416422E+03  0.00000000000E+00 0.  1.
</event>
<event>
 4    1  0.1589319E+006  0.2013441E+02  0.7546771E-02  0.1531991E+00
         21   -1    0    0  504  501  0.00000000000E+00  0.00000000000E+00  0.17311035109E+03  0.17311035109E+03  0.00000000000E+00 0.  1.
         21   -1    0    0  503  502 -0.00000000000E+00 -0.00000000000E+00 -0.60723217471E+01  0.60723217471E+01  0.00000000000E+00 0. -1.
         21    1    1    2  503  501 -0.10652863990E+02  0.17085400172E+02  0.15374080085E+03  0.15505363026E+03  0.00000000000E+00 0.  1.
         21    1    1    2  504  502  0.10652863990E+02 -0.17085400172E+02  0.13297228494E+02  0.24129042580E+02  0.00000000000E+00 0. -1.
</event>
<event>
 4    1  0.1589319E+006  0.8746570E+02  0.7546771E-02  0.1187501E+00
         21   -1    0    0  503  501  0.00000000000E+00  0.00000000000E+00  0.57212660054E+03  0.57212660054E+03  0.00000000000E+00 0. -1.
         21   -1    0    0  504  502 -0.00000000000E+00 -0.00000000000E+00 -0.16953274667E+02  0.16953274667E+02  0.00000000000E+00 0. -1.
         21    1    1    2  503  502 -0.16379384497E+02  0.85918361682E+02  0.14220484340E+03  0.16695049145E+03  0.00000000000E+00 0. -1.
         21    1    1    2  504  501  0.16379384497E+02 -0.85918361682E+02  0.41296848247E+03  0.42212938375E+03  0.00000000000E+00 0. -1.
</event>
<event>
 4    1  0.1589319E+006  0.2132364E+02  0.7546771E-02  0.1514694E+00
         21   -1    0    0  504  501  0.00000000000E+00  0.00000000000E+00  0.45159743747E+03  0.45159743747E+03  0.00000000000E+00 0.  1.
         21   -1    0    0  501  502 -0.00000000000E+00 -0.00000000000E+00 -0.42056922987E+02  0.42056922987E+02  0.00000000000E+00 0.  1.
         21    1    1    2  503  502  0.17993176624E+02  0.11443035457E+02 -0.39084439056E+02  0.44522924902E+02  0.00000000000E+00 0.  1.
         21    1    1    2  504  503 -0.17993176624E+02 -0.11443035457E+02  0.44862495354E+03  0.44913143556E+03  0.00000000000E+00 0.  1.
</event>
<event>
 4    1  0.1589319E+006  0.2134205E+02  0.7546771E-02  0.1514437E+00
         21   -1    0    0  504  501  0.00000000000E+00  0.00000000000E+00  0.60477854461E+01  0.60477854461E+01  0.00000000000E+00 0. -1.
         21   -1    0    0  503  502 -0.00000000000E+00 -0.00000000000E+00 -0.26948693541E+03  0.26948693541E+03  0.00000000000E+00 0. -1.
         21    1    1    2  503  501 -0.32382705056E+01  0.21094943647E+02 -0.24866192143E+03  0.24957610906E+03  0.00000000000E+00 0. -1.
         21    1    1    2  504  502  0.32382705056E+01 -0.21094943647E+02 -0.14777228533E+02  0.25958611797E+02  0.00000000000E+00 0. -1.
</event>
<event>
 4    1  0.1589319E+006  0.3056465E+02  0.7546771E-02  0.1414752E+00
         21   -1    0    0  502  501  0.00000000000E+00  0.00000000000E+00  0.53940853158E+02  0.53940853158E+02  0.00000000000E+00 0.  1.
         21   -1    0    0  503  502 -0.00000000000E+00 -0.00000000000E+00 -0.35913289278E+02  0.35913289278E+02  0.00000000000E+00 0.  1.
         21    1    1    2  503  504  0.25779795024E+02 -0.16419496199E+02 -0.23313646769E+02  0.38441173403E+02  0.00000000000E+00 0.  1.
         21    1    1    2  504  501 -0.25779795024E+02  0.16419496199E+02  0.41341210650E+02  0.51412969034E+02  0.00000000000E+00 0.  1.
</event>
<event>
 4    1  0.1589319E+006  0.2328393E+02  0.7546771E-02  0.1488963E+00
         21   -1    0    0  502  501  0.00000000000E+00  0.00000000000E+00  0.13275851270E+02  0.13275851270E+02  0.00000000000E+00 0.  1.
         21   -1    0    0  503  502 -0.00000000000E+00 -0.00000000000E+00 -0.25643895432E+03  0.25643895432E+03  0.00000000000E+00 0. -1.
         21    1    1    2  503  504 -0.21291594824E+02  0.94238811007E+01 -0.24523592252E+03  0.24633878955E+03  0.00000000000E+00 0. -1.
         21    1    1    2  504  501  0.21291594824E+02 -0.94238811007E+01  0.20728194704E+01  0.23376016036E+02  0.00000000000E+00 0.  1.
</event>
<event>
 4    1  0.1589319E+006  0.2050770E+02  0.7546771E-02  0.1526411E+00
         21   -1    0    0  504  501  0.00000000000E+00  0.00000000000E+00  0.26069702471E+01  0.26069702471E+01  0.00000000000E+00 0.  1.
         21   -1    0    0  501  502 -0.00000000000E+00 -0.00000000000E+00 -0.22247776244E+03  0.22247776244E+03  0.00000000000E+00 0.  1.
         21    1    1    2  503  502  0.20495009510E+02 -0.72133686361E+00 -0.16893999516E+03  0.17018016249E+03  0.00000000000E+00 0.  1.
         21    1    1    2  504  503 -0.20495009510E+02  0.72133686361E+00 -0.50930797031E+02  0.54904570191E+02  0.00000000000E+00 0.  1.
</event>
<event>
 4    1  0.1589319E+006  0.2588912E+02  0.7546771E-02  0.1459098E+00
         21   -1    0    0  503  501  0.00000000000E+00  0.00000000000E+00  0.76492948710E+02  0.76492948710E+02  0.00000000000E+00 0. -1.
         21   -1    0    0  504  502 -0.00000000000E+00 -0.00000000000E+00 -0.10485291940E+02  0.10485291940E+02  0.00000000000E+00 0. -1.
         21    1    1    2  503  502 -0.16201242769E+02  0.20193223089E+02  0.50633513985E+02  0.56868262365E+02  0.00000000000E+00 0. -1.
         21    1    1    2  504  501  0.16201242769E+02 -0.20193223089E+02  0.15374142785E+02  0.30109978285E+02  0.00000000000E+00 0. -1.
</event>
<event>
 4    1  0.1589319E+006  0.2433640E+02  0.7546771E-02  0.1476366E+00
         21   -1    0    0  502  501  0.00000000000E+00  0.00000000000E+00  0.59719701824E+01  0.59719701824E+01  0.00000000000E+00 0.  1.
         21   -1    0    0  503  502 -0.00000000000E+00 -0.00000000000E+00 -0.99257250185E+02  0.99257250185E+02  0.00000000000E+00 0.  1.
         21    1    1    2  503  504  0.24276563682E+02  0.17054847554E+01 -0.45112836802E+02  0.51258445810E+02  0.00000000000E+00 0.  1.
         21    1    1    2  504  501 -0.24276563682E+02 -0.17054847554E+01 -0.48172443200E+02  0.53970774557E+02  0.00000000000E+00 0.  1.
</event>
<event>
 4    1  0.1589319E+006  0.2457305E+02  0.7546771E-02  0.1473637E+00
         21   -1    0    0  504  501  0.00000000000E+00  0.00000000000E+00  0.11013761152E+02  0.11013761152E+02  0.00000000000E+00 0. -1.
         21   -1    0    0  503  502 -0.00000000000E+00 -0.00000000000E+00 -0.60123251692E+02  0.60123251692E+02  0.00000000000E+00 0. -1.
         21    1    1    2  503  501 -0.24334842964E+02 -0.34132089065E+01 -0.13996502826E+02  0.28279615777E+02  0.00000000000E+00 0. -1.
         21    1    1    2  504  502  0.24334842964E+02  0.34132089065E+01 -0.35112987714E+02  0.42857397067E+02  0.00000000000E+00 0. -1.
</event>
<event>
 4    1  0.1589319E+006  0.2107224E+02  0.7546771E-02  0.1518236E+00
         21   -1    0    0  504  501  0.00000000000E+00  0.00000000000E+00  0.66866924168E+02  0.66866924168E+02  0.00000000000E+00 0. -1.
         21   -1    0    0  503  502 -0.00000000000E+00 -0.00000000000E+00 -0.13039398130E+02  0.13039398130E+02  0.00000000000E+00 0.  1.
         21    1    1    2  503  501  0.16113061701E+02 -0.13579715695E+02  0.54901648425E+02  0.58806721007E+02  0.00000000000E+00 0. -1.
         21    1    1    2  504  502 -0.16113061701E+02  0.13579715695E+02 -0.10741223875E+01  0.21099601292E+02  0.00000000000E+00 0.  1.
</event>
<event>
 4    1  0.1589319E+006  0.3134160E+02  0.7546771E-02  0.1408285E+00
         21   -1    0    0  503  501  0.00000000000E+00  0.00000000000E+00  0.63182484243E+03  0.63182484243E+03  0.00000000000E+00 0.  1.
         21   -1    0    0  504  502 -0.00000000000E+00 -0.00000000000E+00 -0.21524839465E+01  0.21524839465E+01  0.00000000000E+00 0. -1.
         21    1    1    2  503  502  0.31323923737E+02  0.10525787987E+01  0.48188638766E+03  0.48290453169E+03  0.00000000000E+00 0.  1.
         21    1    1    2  504  501 -0.31323923737E+02 -0.10525787987E+01  0.14778597082E+03  0.15107279468E+03  0.00000000000E+00 0. -1.
</event>
<event>
 4    1  0.1589319E+006  0.3201432E+02  0.7546771E-02  0.1402863E+00
         21   -1    0    0  504  501  0.00000000000E+00  0.00000000000E+00  0.15657634843E+02  0.15657634843E+02  0.00000000000E+00 0.  1.
         21   -1    0    0  503  502 -0.00000000000E+00 -0.00000000000E+00 -0.75430378000E+02  0.75430378000E+02  0.00000000000E+00 0.  1.
         21    1    1    2  503  501  0.19308684179E+02  0.25536077789E+02 -0.13326433115E+02  0.34677231336E+02  0.00000000000E+00 0.  1.
         21    1    1    2  504  502 -0.19308684179E+02 -0.25536077789E+02 -0.46446310043E+02  0.56410781507E+02  0.00000000000E+00 0.  1.
</event>
<event>
 4    1  0.1589319E+006  0.2197379E+02  0.7546771E-02  0.1505803E+00
         21   -1    0    0  503  501  0.00000000000E+00  0.00000000000E+00  0.62173182210E+02  0.62173182210E+02  0.00000000000E+00 0.  1.
         21   -1    0    0  501  502 -0.00000000000E+00 -0.00000000000E+00 -0.23860161104E+02  0.23860161104E+02  0.00000000000E+00 0.  1.
         21    1    1    2  503  504 -0.21041741933E+02 -0.63318543237E+01  0.54485567504E+02  0.58749675310E+02  0.00000000000E+00 0.  1.
         21    1    1    2  504  502  0.21041741933E+02  0.63318543237E+01 -0.16172546398E+02  0.27283668004E+02  0.00000000000E+00 0.  1.
</event>
<event>
 4    1  0.1589319E+006  0.3065190E+02  0.7546771E-02  0.1414014E+00
         21   -1    0    0  504  501  0.00000000000E+00  0.00000000000E+00  0.72856606821E+02  0.72856606821E+02  0.00000000000E+00 0. -1.
         21   -1    0    0  501  502 -0.00000000000E+00 -0.00000000000E+00 -0.23790372378E+02  0.23790372378E+02  0.00000000000E+00 0.  1.
         21    1    1    2  503  502  0.23605612917E+02 -0.19552853546E+02 -0.81681198398E+01  0.31721557728E+02  0.00000000000E+00 0.  1.
         21    1    1    2  504  503 -0.23605612917E+02  0.19552853546E+02  0.57234354282E+02  0.64925421470E+02  0.00000000000E+00 0. -1.
</event>
<event>
 4    1  0.1589319E+006  0.4143035E+02  0.7546771E-02  0.1340302E+00
         21   -1    0    0  503  501  0.00000000000E+00  0.00000000000E+00  0.66212504210E+02  0.66212504210E+02  0.00000000000E+00 0.  1.
         21   -1    0    0  504  502 -0.00000000000E+00 -0.00000000000E+00 -0.16740344795E+03  0.16740344795E+03  0.00000000000E+00 0.  1.
         21    1    1    2  503  502  0.10492350737E+02  0.40079725216E+02 -0.15797893900E+03  0.16332121407E+03  0.00000000000E+00 0.  1.
         21    1    1    2  504  501 -0.10492350737E+02 -0.40079725216E+02  0.56787995261E+02  0.70294738090E+02  0.00000000000E+00 0.  1.
</event>
<event>
 4    1  0.1589319E+006  0.2240018E+02  0.7546771E-02  0.1500171E+00
         21   -1    0    0  504  501  0.00000000000E+00  0.00000000000E+00  0.99952787123E+02  0.99952787123E+02  0.00000000000E+00 0. -1.
         21   -1    0    0  503  502 -0.00000000000E+00 -0.00000000000E+00 -0.92493960012E+01  0.92493960012E+01  0.00000000000E+00 0.  1.
         21    1    1    2  503  501  0.21396926339E+02 -0.66286815693E+01  0.82273362834E+02  0.85268247948E+02  0.00000000000E+00 0. -1.
         21    1    1    2  504  502 -0.21396926339E+02  0.66286815693E+01  0.84300282874E+01  0.23933935176E+02  0.00000000000E+00 0.  1.
</event>
<event>
 4    1  0.1589319E+006  0.2795611E+02  0.7546771E-02  0.1438233E+00
         21   -1    0    0  503  501  0.00000000000E+00  0.00000000000E+00  0.17764364791E+02  0.17764364791E+02  0.00000000000E+00 0. -1.
         21   -1    0    0  504  502 -0.00000000000E+00 -0.00000000000E+00 -0.48371808141E+02  0.48371808141E+02  0.00000000000E+00 0. -1.
         21    1    1    2  503  502  0.27930637495E+02 -0.11932188318E+01 -0.53567995605E+01  0.28464707685E+02  0.00000000000E+00 0. -1.
         21    1    1    2  504  501 -0.27930637495E+02  0.11932188318E+01 -0.25250643790E+02  0.37671465247E+02  0.00000000000E+00 0. -1.
</event>
<event>
 4    1  0.1589319E+006  0.3346120E+02  0.7546771E-02  0.1391716E+00
         21   -1    0    0  502  501  0.00000000000E+00  0.00000000000E+00  0.46439248163E+03  0.46439248163E+03  0.00000000000E+00 0.  1.
         21   -1    0    0  503  502 -0.00000000000E+00 -0.00000000000E+00 -0.26002444976E+01  0.26002444976E+01  0.00000000000E+00 0.  1.
         21    1    1    2  503  504  0.33449021919E+02 -0.90254447756E+00  0.16790472065E+03  0.17120644518E+03  0.00000000000E+00 0.  1.
         21    1    1    2  504  501 -0.33449021919E+02  0.90254447756E+00  0.29388751648E+03  0.29578628095E+03  0.00000000000E+00 0.  1.
</event>
<event>
 4    1  0.1589319E+006  0.2004080E+02  0.7546771E-02  0.1533413E+00
         21   -1    0    0  504  501  0.00000000000E+00  0.00000000000E+00  0.73816013949E+03  0.73816013949E+03  0.00000000000E+00 0. -1.
         21   -1    0    0  503  502 -0.00000000000E+00 -0.00000000000E+00 -0.70738580243E+03  0.70738580243E+03  0.00000000000E+00 0. -1.
         21    1    1    2  503  501  0.94082952256E+01  0.17695135878E+02 -0.70710778064E+03  0.70739172126E+03  0.00000000000E+00 0. -1.
         21    1    1    2  504  502 -0.94082952256E+01 -0.17695135878E+02  0.73788211770E+03  0.73815422066E+03  0.00000000000E+00 0. -1.
</event>
<event>
 4    1  0.1589319E+006  0.2969003E+02  0.7546771E-02  0.1422309E+00
         21   -1    0    0  503  501  0.00000000000E+00  0.00000000000E+00  0.43250593261E+03  0.43250593261E+03  0.00000000000E+00 0.  1.
         21   -1    0    0  501  502 -0.00000000000E+00 -0.00000000000E+00 -0.12868967005E+02  0.12868967005E+02  0.00000000000E+00 0. -1.
         21    1    1    2  503  504  0.25275076379E+02  0.15577826082E+02  0.41411226443E+03  0.41517522289E+03  0.00000000000E+00 0.  1.
         21    1    1    2  504  502 -0.25275076379E+02 -0.15577826082E+02  0.55247011784E+01  0.30199676728E+02  0.00000000000E+00 0. -1.
</event>
<event>
 4    1  0.1589319E+006  0.2610779E+02  0.7546771E-02  0.1456782E+00
         21   -1    0    0  503  501  0.00000000000E+00  0.00000000000E+00  0.32014669488E+01  0.32014669488E+01  0.00000000000E+00 0.  1.
         21   -1    0    0  504  502 -0.00000000000E+00 -0.00000000000E+00 -0.24507916382E+03  0.24507916382E+03  0.00000000000E+00 0. -1.
         21    1    1    2  503  502  0.25561244827E+02  0.53140876731E+01 -0.16591636599E+03  0.16795790326E+03  0.00000000000E+00 0. -1.
         21    1    1    2  504  501 -0.25561244827E+02 -0.53140876731E+01 -0.75961330887E+02  0.80322727512E+02  0.00000000000E+00 0.  1.
</event>
<event>
 4    1  0.1589319E+006  0.2772038E+02  0.7546771E-02  0.1440503E+00
         21   -1    0    0  504  501  0.00000000000E+00  0.00000000000E+00  0.37178448000E+03  0.37178448000E+03  0.00000000000E+00 0. -1.
         21   -1    0    0  503  502 -0.00000000000E+00 -0.00000000000E+00 -0.74201371109E+01  0.74201371109E+01  0.00000000000E+00 0. -1.
         21    1    1    2  503  501 -0.27152684123E+02  0.55813068419E+01  0.21136777895E+02  0.34859469602E+02  0.00000000000E+00 0. -1.
         21    1    1    2  504  502  0.27152684123E+02 -0.55813068419E+01  0.34322756499E+03  0.34434514751E+03  0.00000000000E+00 0. -1.
</event>
<event>
 4    1  0.1589319E+006  0.3724213E+02  0.7546771E-02  0.1365451E+00
         21   -1    0    0  503  501  0.00000000000E+00  0.00000000000E+00  0.15291708336E+02  0.15291708336E+02  0.00000000000E+00 0.  1.
         21   -1    0    0  504  502 -0.00000000000E+00 -0.00000000000E+00 -0.10587950374E+03  0.10587950374E+03  0.00000000000E+00 0.  1.
         21    1    1    2  503  502  0.36522213750E+02  0.72872430784E+01 -0.22354849372E+02  0.43436336163E+02  0.00000000000E+00 0.  1.
         21    1    1    2  504  501 -0.36522213750E+02 -0.72872430784E+01 -0.68232946031E+02  0.77734875911E+02  0.00000000000E+00 0.  1.
</event>
<event>
 4    1  0.1589319E+006  0.2046824E+02  0.7546771E-02  0.1526994E+00
         21   -1    0    0  504  501  0.00000000000E+00  0.00000000000E+00  0.11985296835E+02  0.11985296835E+02  0.00000000000E+00 0.  1.
         21   -1    0    0  503  502 -0.00000000000E+00 -0.00000000000E+00 -0.40775483115E+02  0.40775483115E+02  0.00000000000E+00 0.  1.
         21    1    1    2  503  501 -0.32115370319E+01 -0.20214723567E+02 -0.24361805652E+02  0.31818965942E+02  0.00000000000E+00 0.  1.
         21    1    1    2  504  502  0.32115370319E+01  0.20214723567E+02 -0.44283806283E+01  0.20941814009E+02  0.00000000000E+00 0.  1.
</event>
<event>
 4    1  0.1589319E+006  0.2935045E+02  0.7546771E-02  0.1425326E+00
         21   -1    0    0  503  501  0.00000000000E+00  0.00000000000E+00  0.46617589340E+02  0.46617589340E+02  0.00000000000E+00 0. -1.
         21   -1    0    0  504  502 -0.00000000000E+00 -0.00000000000E+00 -0.44131635127E+02  0.44131635127E+02  0.00000000000E+00 0.  1.
         21    1    1    2  503  502 -0.18704260669E+02  0.22618566802E+02 -0.33351235935E+02  0.44426949813E+02  0.00000000000E+00 0.  1.
         21    1    1    2  504  501  0.18704260669E+02 -0.22618566802E+02  0.35837190148E+02  0.46322274653E+02  0.00000000000E+00 0. -1.
</event>
<event>
 4    1  0.1589319E+006  0.2283017E+02  0.7546771E-02  0.1494642E+00
         21   -1    0    0  503  501  0.00000000000E+00  0.00000000000E+00  0.27970411497E+02  0.27970411497E+02  0.00000000000E+00 0. -1.
         21   -1    0    0  504  502 -0.00000000000E+00 -0.00000000000E+00 -0.18796155466E+02  0.18796155466E+02  0.00000000000E+00 0. -1.
         21    1    1    2  503  502 -0.13379750446E+02 -0.18498615599E+02  0.67552137270E+01  0.23808599572E+02  0.00000000000E+00 0. -1.
         21    1    1    2  504  501  0.13379750446E+02  0.18498615599E+02  0.24190423041E+01  0.22957967391E+02  0.00000000000E+00 0. -1.
</event>
<event>
 4    1  0.1589319E+006  0.3520853E+02  0.7546771E-02  0.1379103E+00
         21   -1    0    0  503  501  0.00000000000E+00  0.00000000000E+00  0.73686011891E+02  0.73686011891E+02  0.00000000000E+00 0.  1.
         21   -1    0    0  501  502 -0.00000000000E+00 -0.00000000000E+00 -0.15772360774E+03  0.15772360774E+03  0.00000000000E+00 0.  1.
         21    1    1    2  503  504 -0.35079258418E+02 -0.30142827730E+01  0.67341344239E+02  0.75990110644E+02  0.00000000000E+00 0.  1.
         21    1    1    2  504  502  0.35079258418E+02  0.30142827730E+01 -0.15137894009E+03  0.15541950899E+03  0.00000000000E+00 0.  1.
</event>
<event>
 4    1  0.1589319E+006  0.2293156E+02  0.7546771E-02  0.1493359E+00
         21   -1    0    0  503  501  0.00000000000E+00  0.00000000000E+00  0.12673884759E+02  0.12673884759E+02  0.00000000000E+00 0.  1.
         21   -1    0    0  504  502 -0.00000000000E+00 -0.00000000000E+00 -0.65260113802E+02  0.65260113802E+02  0.00000000000E+00 0.  1.
         21    1    1    2  503  502  0.15869030718E+02 -0.16553854976E+02 -0.49809826012E+02  0.54834979875E+02  0.00000000000E+00 0.  1.
         21    1    1    2  504  501 -0.15869030718E+02  0.16553854976E+02 -0.27764030312E+01  0.23099018686E+02  0.00000000000E+00 0.  1.
</event>
<event>
 4    1  0.1589319E+006  0.4090167E+02  0.7546771E-02  0.1343282E+00
         21   -1    0    0  504  501  0.00000000000E+00  0.00000000000E+00  0.30140568438E+02  0.30140568438E+02  0.00000000000E+00 0. -1.
         21   -1    0    0  503  502 -0.00000000000E+00 -0.00000000000E+00 -0.15316748964E+03  0.15316748964E+03  0.00000000000E+00 0.  1.
         21    1    1    2  503  501 -0.38229388758E+02 -0.14541691993E+02  0.11673304055E+02  0.42534844520E+02  0.00000000000E+00 0. -1.
         21    1    1    2  504  502  0.38229388758E+02  0.14541691993E+02 -0.13470022526E+03  0.14077321356E+03  0.00000000000E+00 0.  1.
</event>
<event>
 4    1  0.1589319E+006  0.2396908E+02  0.7546771E-02  0.1480675E+00
         21   -1    0    0  503  501  0.00000000000E+00  0.00000000000E+00  0.71418840651E+01  0.71418840651E+01  0.00000000000E+00 0. -1.
         21   -1    0    0  504  502 -0.00000000000E+00 -0.00000000000E+00 -0.30172264124E+03  0.30172264124E+03  0.00000000000E+00 0. -1.
         21    1    1    2  503  502  0.23465524352E+02  0.48873400334E+01 -0.27954306153E+03  0.28056877976E+03  0.00000000000E+00 0. -1.
         21    1    1    2  504  501 -0.23465524352E+02 -0.48873400334E+01 -0.15037695644E+02  0.28295745545E+02  0.00000000000E+00 0. -1.
</event>
<event>
 4    1  0.1589319E+006  0.2000168E+02  0.7546771E-02  0.1534010E+00
         21   -1    0    0  502  501  0.00000000000E+00  0.00000000000E+00  0.23730311766E+02  0.23730311766E+02  0.00000000000E+00 0. -1.
         21   -1    0    0  503  502 -0.00000000000E+00 -0.00000000000E+00 -0.31575153003E+02  0.31575153003E+02  0.00000000000E+00 0. -1.
         21    1    1    2  503  504  0.11036059072E+02 -0.16681508748E+02 -0.22800756330E+02  0.30330542744E+02  0.00000000000E+00 0. -1.
         21    1    1    2  504  501 -0.11036059072E+02  0.16681508748E+02  0.14955915092E+02  0.24974922025E+02  0.00000000000E+00 0. -1.
</event>
<event>
 4    1  0.1589319E+006  0.3437660E+02  0.7546771E-02  0.1385000E+00
         21   -1    0    0  504  501  0.00000000000E+00  0.00000000000E+00  0.79988440643E+02  0.79988440643E+02  0.00000000000E+00 0. -1.
         21   -1    0    0  503  502 -0.00000000000E+00 -0.00000000000E+00 -0.17475249855E+02  0.17475249855E+02  0.00000000000E+00 0. -1.
         21    1    1    2  503  501  0.24619293981E+02 -0.23992524107E+02  0.12097195478E+02  0.36443010133E+02  0.00000000000E+00 0. -1.
         21    1    1    2  504  502 -0.24619293981E+02  0.23992524107E+02  0.50415995309E+02  0.61020680365E+02  0.00000000000E+00 0. -1.
</event>
<event>
 4    1  0.1589319E+006  0.2308822E+02  0.7546771E-02  0.1491393E+00
         21   -1    0    0  504  501  0.00000000000E+00  0.00000000000E+00  0.72383827482E+03  0.72383827482E+03  0.00000000000E+00 0. -1.
         21   -1    0    0  503  502 -0.00000000000E+00 -0.00000000000E+00 -0.77177424923E+00  0.77177424923E+00  0.00000000000E+00 0. -1.
         21    1    1    2  503  501 -0.19037594220E+02  0.13062766442E+02  0.43905199959E+03  0.43965864509E+03  0.00000000000E+00 0. -1.
         21    1    1    2  504  502  0.19037594220E+02 -0.13062766442E+02  0.28401450098E+03  0.28495140398E+03  0.00000000000E+00 0. -1.
</event>
<event>
 4    1  0.1589319E+006  0.3147667E+02  0.7546771E-02  0.1407184E+00
         21   -1    0    0  504  501  0.00000000000E+00  0.00000000000E+00  0.53663709387E+02  0.53663709387E+02  0.00000000000E+00 0. -1.
         21   -1    0    0  503  502 -0.00000000000E+00 -0.00000000000E+00 -0.75899695851E+02  0.75899695851E+02  0.00000000000E+00 0. -1.
         21    1    1    2  503  501  0.27352017698E+02  0.15577165134E+02  0.45236418211E+02  0.55110021578E+02  0.00000000000E+00 0. -1.
         21    1    1    2  504  502 -0.27352017698E+02 -0.15577165134E+02 -0.67472404675E+02  0.74453383660E+02  0.00000000000E+00 0. -1.
</event>
<event>
 4    1  0.1589319E+006  0.2739135E+02  0.7546771E-02  0.1443716E+00
         21   -1    0    0  503  501  0.00000000000E+00  0.00000000000E+00  0.39121925618E+03  0.39121925618E+03  0.00000000000E+00 0. -1.
         21   -1    0    0  504  502 -0.00000000000E+00 -0.00000000000E+00 -0.42328583136E+01  0.42328583136E+01  0.00000000000E+00 0. -1.
         21    1    1    2  503  502 -0.20304932187E+02 -0.18384665016E+02  0.47266526898E+02  0.54629760606E+02  0.00000000000E+00 0. -1.
         21    1    1    2  504  501  0.20304932187E+02  0.18384665016E+02  0.33971987096E+03  0.34082235388E+03  0.00000000000E+00 0. -1.
</event>
<event>
 4    1  0.1589319E+006  0.2729667E+02  0.7546771E-02  0.1444651E+00
         21   -1    0    0  504  501  0.00000000000E+00  0.00000000000E+00  0.85754552886E+03  0.85754552886E+03  0.00000000000E+00 0. -1.
         21   -1    0    0  503  502 -0.00000000000E+00 -0.00000000000E+00 -0.10039846911E+02  0.10039846911E+02  0.00000000000E+00 0. -1.
         21    1    1    2  503  501  0.26658175392E+02 -0.58693925556E+01  0.83834982328E+03  0.83879409528E+03  0.00000000000E+00 0. -1.
         21    1    1    2  504  502 -0.26658175392E+02  0.58693925556E+01  0.91558586673E+01  0.28791280488E+02  0.00000000000E+00 0. -1.
</event>
<event>
 4    1  0.1589319E+006  0.2413941E+02  0.7546771E-02  0.1478666E+00
         21   -1    0    0  503  501  0.00000000000E+00  0.00000000000E+00  0.66428868621E+01  0.66428868621E+01  0.00000000000E+00 0. -1.
         21   -1    0    0  504  502 -0.00000000000E+00 -0.00000000000E+00 -0.14220044166E+03  0.14220044166E+03  0.00000000000E+00 0.  1.
         21    1    1    2  503  502 -0.41904981081E+01 -0.23772899906E+02 -0.11384377042E+03  0.11637489037E+03  0.00000000000E+00 0.  1.
         21    1    1    2  504  501  0.41904981081E+01  0.23772899906E+02 -0.21713784381E+02  0.32468438159E+02  0.00000000000E+00 0. -1.
</event>
<event>
 4    1  0.1589319E+006  0.3401639E+02  0.7546771E-02  0.1387613E+00
         21   -1    0    0  502  501  0.00000000000E+00  0.00000000000E+00  0.33859157899E+03  0.33859157899E+03  0.00000000000E+00 0. -1.
         21   -1    0    0  503  502 -0.00000000000E+00 -0.00000000000E+00 -0.49740909963E+02  0.49740909963E+02  0.00000000000E+00 0. -1.
         21    1    1    2  503  504  0.13567065219E+02  0.31193736878E+02 -0.42952163726E+02  0.54790536116E+02  0.00000000000E+00 0. -1.
         21    1    1    2  504  501 -0.13567065219E+02 -0.31193736878E+02  0.33180283275E+03  0.33354195283E+03  0.00000000000E+00 0. -1.
</event>
<event>
 4    1  0.1589319E+006  0.2546576E+02  0.7546771E-02  0.1463660E+00
         21   -1    0    0  504  501  0.00000000000E+00  0.00000000000E+00  0.98853260153E+02  0.98853260153E+02  0.00000000000E+00 0. -1.
         21   -1    0    0  503  502 -0.00000000000E+00 -0.00000000000E+00 -0.23239844457E+02  0.23239844457E+02  0.00000000000E+00 0. -1.
         21    1    1    2  503  501 -0.18382918337E+02  0.17623084984E+02  0.89524135974E+02  0.93075645218E+02  0.00000000000E+00 0. -1.
         21    1    1    2  504  502  0.18382918337E+02 -0.17623084984E+02 -0.13910720278E+02  0.29017459392E+02  0.00000000000E+00 0. -1.
</event>
<event>
 4    1  0.1589319E+006  0.2379434E+02  0.7546771E-02  0.1482757E+00
         21   -1    0    0  503  501  0.00000000000E+00  0.00000000000E+00  0.79021823732E+02  0.79021823732E+02  0.00000000000E+00 0. -1.
         21   -1    0    0  501  502 -0.00000000000E+00 -0.00000000000E+00 -0.89488341111E+01  0.89488341111E+01  0.00000000000E+00 0.  1.
         21    1    1    2  503  504  0.19962490614E+02  0.12948719937E+02  0.54676164334E+02  0.59629299223E+02  0.00000000000E+00 0. -1.
         21    1    1    2  504  502 -0.19962490614E+02 -0.12948719937E+02  0.15396825287E+02  0.28341358620E+02  0.00000000000E+00 0.  1.
</event>
<event>
 4    1  0.1589319E+006  0.2231064E+02  0.7546771E-02  0.1501341E+00
         21   -1    0    0  504  501  0.00000000000E+00  0.00000000000E+00  0.11178115637E+01  0.11178115637E+01  0.00000000000E+00 0.  1.
         21   -1    0    0  503  502 -0.00000000000E+00 -0.00000000000E+00 -0.44976832379E+03  0.44976832379E+03  0.00000000000E+00 0.  1.
         21    1    1    2  503  501 -0.21026923558E+02 -0.74587542652E+01 -0.20186149062E+03  0.20309068399E+03  0.00000000000E+00 0.  1.
         21    1    1    2  504  502  0.21026923558E+02  0.74587542652E+01 -0.24678902161E+03  0.24779545136E+03  0.00000000000E+00 0.  1.
</event>
<event>
 4    1  0.1589319E+006  0.3014272E+02  0.7546771E-02  0.1418360E+00
         21   -1    0    0  503  501  0.00000000000E+00  0.00000000000E+00  0.84127821076E+02  0.84127821076E+02  0.00000000000E+00 0. -1.
         21   -1    0    0  501  502 -0.00000000000E+00 -0.00000000000E+00 -0.31923007158E+03  0.31923007158E+03  0.00000000000E+00 0. -1.
         21    1    1    2  503  504 -0.20325345673E+02  0.22259022830E+02  0.80686915011E+02  0.86133396706E+02  0.00000000000E+00 0. -1.
         21    1    1    2  504  502  0.20325345673E+02 -0.22259022830E+02 -0.31578916552E+03  0.31722449595E+03  0.00000000000E+00 0. -1.
</event>
<event>
 4    1  0.1589319E+006  0.2181565E+02  0.7546771E-02  0.1507931E+00
         21   -1    0    0  503  501  0.00000000000E+00  0.00000000000E+00  0.13588690762E+03  0.13588690762E+03  0.00000000000E+00 0. -1.
         21   -1    0    0  504  502 -0.00000000000E+00 -0.00000000000E+00 -0.36011939865E+01  0.36011939865E+01  0.00000000000E+00 0. -1.
         21    1    1    2  503  502  0.35728455656E+01 -0.21521092029E+02  0.54587767234E+02  0.58785601631E+02  0.00000000000E+00 0. -1.
         21    1    1    2  504  501 -0.35728455656E+01  0.21521092029E+02  0.77697946399E+02  0.80702499975E+02  0.00000000000E+00 0. -1.
</event>
<event>
 4    1  0.1589319E+006  0.2745803E+02  0.7546771E-02  0.1443061E+00
         21   -1    0    0  504  501  0.00000000000E+00  0.00000000000E+00  0.72757750571E+01  0.72757750571E+01  0.00000000000E+00 0. -1.
         21   -1    0    0  503  502 -0.00000000000E+00 -0.00000000000E+00 -0.82482625748E+03  0.82482625748E+03  0.00000000000E+00 0.  1.
         21    1    1    2  503  501  0.16307233141E+02 -0.22091117468E+02 -0.19735513283E+02  0.33814698110E+02  0.00000000000E+00 0. -1.
         21    1    1    2  504  502 -0.16307233141E+02  0.22091117468E+02 -0.79781496914E+03  0.79828733443E+03  0.00000000000E+00 0.  1.
</event>
<event>
 4    1  0.1589319E+006  0.2254065E+02  0.7546771E-02  0.1498348E+00
         21   -1    0    0  503  501  0.00000000000E+00  0.00000000000E+00  0.49674312832E+02  0.49674312832E+02  0.00000000000E+00 0.  1.
         21   -1    0    0  504  502 -0.00000000000E+00 -0.00000000000E+00 -0.16559296195E+02  0.16559296195E+02  0.00000000000E+00 0. -1.
         21    1    1    2  503  502  0.77226668162E+01  0.21176437360E+02  0.37034463146E+02  0.43354729183E+02  0.00000000000E+00 0.  1.
         21    1    1    2  504  501 -0.77226668162E+01 -0.21176437360E+02 -0.39194465093E+01  0.22878879844E+02  0.00000000000E+00 0. -1.
</event>
<event>
 4    1  0.1589319E+006  0.2141981E+02  0.7546771E-02  0.1513355E+00
         21   -1    0    0  502  501  0.00000000000E+00  0.00000000000E+00  0.34785070539E+03  0.34785070539E+03  0.00000000000E+00 0. -1.
         21   -1    0    0  504  502 -0.00000000000E+00 -0.00000000000E+00 -0.17215490614E+01  0.17215490614E+01  0.00000000000E+00 0. -1.
         21    1    1    2  503  501 -0.20976770664E+02 -0.43339577537E+01  0.25758613653E+03  0.25847519384E+03  0.00000000000E+00 0. -1.
         21    1    1    2  504  503  0.20976770664E+02  0.43339577537E+01  0.88543019797E+02  0.91097060612E+02  0.00000000000E+00 0. -1.
</event>
<event>
 4    1  0.1589319E+006  0.2563461E+02  0.7546771E-02  0.1461828E+00
         21   -1    0    0  504  501  0.00000000000E+00  0.00000000000E+00  0.23754015546E+03  0.23754015546E+03  0.00000000000E+00 0. -1.
         21   -1    0    0  501  502 -0.00000000000E+00 -0.00000000000E+00 -0.34538795913E+01  0.34538795913E+01  0.00000000000E+00 0. -1.
         21    1    1    2  503  502  0.25476114016E+02 -0.28462389854E+01  0.63284352629E+02  0.68279153110E+02  0.00000000000E+00 0. -1.
         21    1    1    2  504  503 -0.25476114016E+02  0.28462389854E+01  0.17080192324E+03  0.17271488194E+03  0.00000000000E+00 0. -1.
</event>
<event>
 4    1  0.1589319E+006  0.2781105E+02  0.7546771E-02  0.1439627E+00
         21   -1    0    0  503  501  0.00000000000E+00  0.00000000000E+00  0.10296475370E+01  0.10296475370E+01  0.00000000000E+00 0. -1.
         21   -1    0    0  504  502 -0.00000000000E+00 -0.00000000000E+00 -0.76940767624E+03  0.76940767624E+03  0.00000000000E+00 0. -1.
         21    1    1    2  503  502  0.10087068606E+02  0.25917284967E+02 -0.44347454391E+03  0.44434572769E+03  0.00000000000E+00 0. -1.
         21    1    1    2  504  501 -0.10087068606E+02 -0.25917284967E+02 -0.32490348478E+03  0.32609159609E+03  0.00000000000E+00 0. -1.
</event>
<event>
 4    1  0.1589319E+006  0.2113830E+02  0.7546771E-02  0.1517299E+00
         21   -1    0    0  503  501  0.00000000000E+00  0.00000000000E+00  0.95767699068E+01  0.95767699068E+01  0.00000000000E+00 0. -1.
         21   -1    0    0  504  502 -0.00000000000E+00 -0.00000000000E+00 -0.52881991665E+02  0.52881991665E+02  0.00000000000E+00 0.  1.
         21    1    1    2  503  502  0.18621327202E+01  0.21056118520E+02 -0.10938326919E+02  0.23800728165E+02  0.00000000000E+00 0. -1.
         21    1    1    2  504  501 -0.18621327202E+01 -0.21056118520E+02 -0.32366894839E+02  0.38658033407E+02  0.00000000000E+00 0.  1.
</event>
<event>
 4    1  0.1589319E+006  0.3040902E+02  0.7546771E-02  0.1416075E+00
         21   -1    0    0  503  501  0.00000000000E+00  0.00000000000E+00  0.32870284940E+03  0.32870284940E+03  0.00000000000E+00 0. -1.
         21   -1    0    0  504  502 -0.00000000000E+00 -0.00000000000E+00 -0.38449421281E+02  0.38449421281E+02  0.00000000000E+00 0.  1.
         21    1    1    2  503  502  0.37379377274E+01 -0.30178405730E+02  0.32185949648E+03  0.32329281437E+03  0.00000000000E+00 0. -1.
         21    1    1    2  504  501 -0.37379377274E+01  0.30178405730E+02 -0.31606068359E+02  0.43859456311E+02  0.00000000000E+00 0.  1.
</event>
<event>
 4    1  0.1589319E+006  0.2377108E+02  0.7546771E-02  0.1483036E+00
         21   -1    0    0  502  501  0.00000000000E+00  0.00000000000E+00  0.30178241746E+02  0.30178241746E+02  0.00000000000E+00 0.  1.
         21   -1    0    0  504  502 -0.00000000000E+00 -0.00000000000E+00 -0.37539898971E+02  0.37539898971E+02  0.00000000000E+00 0. -1.
         21    1    1    2  503  501  0.23664334263E+02 -0.22502810139E+01  0.20290287632E+02  0.31253163887E+02  0.00000000000E+00 0.  1.
         21    1    1    2  504  503 -0.23664334263E+02  0.22502810139E+01 -0.27651944858E+02  0.36464976830E+02  0.00000000000E+00 0. -1.
</event>
<event>
 4    1  0.1589319E+006  0.2596632E+02  0.7546771E-02  0.1458277E+00
         21   -1    0    0  504  501  0.00000000000E+00  0.00000000000E+00  0.44106688550E+02  0.44106688550E+02  0.00000000000E+00 0.  1.
         21   -1    0    0  501  502 -0.00000000000E+00 -0.00000000000E+00 -0.26175261701E+02  0.26175261701E+02  0.00000000000E+00 0. -1.
         21    1    1    2  503  502  0.18474846605E+02  0.18246364196E+02 -0.13699077669E+02  0.29358380276E+02  0.00000000000E+00 0. -1.
         21    1    1    2  504  503 -0.18474846605E+02 -0.18246364196E+02  0.31630504518E+02  0.40923569975E+02  0.00000000000E+00 0.  1.
</event>
<event>
 4    1  0.1589319E+006  0.2240732E+02  0.7546771E-02  0.1500078E+00
         21   -1    0    0  503  501  0.00000000000E+00  0.00000000000E+00  0.25800620268E+01  0.25800620268E+01  0.00000000000E+00 0. -1.
         21   -1    0    0  504  502 -0.00000000000E+00 -0.00000000000E+00 -0.50051714905E+03  0.50051714905E+03  0.00000000000E+00 0.  1.
         21    1    1    2  503  502 -0.12428657946E+02  0.18644476897E+02 -0.44562678319E+03  0.44618977796E+03  0.00000000000E+00 0.  1.
         21    1    1    2  504  501  0.12428657946E+02 -0.18644476897E+02 -0.52310303828E+02  0.56907433115E+02  0.00000000000E+00 0. -1.
</event>
<event>
 4    1  0.1589319E+006  0.2674451E+02  0.7546771E-02  0.1450192E+00
         21   -1    0    0  502  501  0.00000000000E+00  0.00000000000E+00  0.56847868478E+02  0.56847868478E+02  0.00000000000E+00 0. -1.
         21   -1    0    0  503  502 -0.00000000000E+00 -0.00000000000E+00 -0.37096635070E+02  0.37096635070E+02  0.00000000000E+00 0. -1.
         21    1    1    2  503  504  0.19908142389E+01 -0.26670306812E+02 -0.28308739955E+02  0.38944234035E+02  0.00000000000E+00 0. -1.
         21    1    1    2  504  501 -0.19908142389E+01  0.26670306812E+02  0.48059973364E+02  0.55000269513E+02  0.00000000000E+00 0. -1.
</event>
<event>
 4    1  0.1589319E+006  0.2357030E+02  0.7546771E-02  0.1485458E+00
         21   -1    0    0  504  501  0.00000000000E+00  0.00000000000E+00  0.87223820464E+02  0.87223820464E+02  0.00000000000E+00 0.  1.
         21   -1    0    0  501  502 -0.00000000000E+00 -0.00000000000E+00 -0.24418020541E+02  0.24418020541E+02  0.00000000000E+00 0.  1.
         21    1    1    2  503  502  0.19907781080E+01  0.23486075356E+02 -0.16588607311E+02  0.28822574931E+02  0.00000000000E+00 0.  1.
         21    1    1    2  504  503 -0.19907781080E+01 -0.23486075356E+02  0.79394407234E+02  0.82819266075E+02  0.00000000000E+00 0.  1.
</event>
<event>
 4    1  0.1589319E+006  0.2420975E+02  0.7546771E-02  0.1477841E+00
         21   -1    0    0  504  501  0.00000000000E+00  0.00000000000E+00  0.30800578657E+03  0.30800578657E+03  0.00000000000E+00 0.  1.
         21   -1    0    0  503  502 -0.00000000000E+00 -0.00000000000E+00 -0.27295429836E+01  0.27295429836E+01  0.00000000000E+00 0.  1.
         21    1    1    2  503  501 -0.18093574289E+02 -0.16085223466E+02  0.23813852269E+03  0.23936597050E+03  0.00000000000E+00 0.  1.
         21    1    1    2  504  502  0.18093574289E+02  0.16085223466E+02  0.67137720892E+02  0.71369359049E+02  0.00000000000E+00 0.  1.
</event>
<event>
 4    1  0.1589319E+006  0.2467822E+02  0.7546771E-02  0.1472435E+00
         21   -1    0    0  503  501  0.00000000000E+00  0.00000000000E+00  0.30100048380E+02  0.30100048380E+02  0.00000000000E+00 0.  1.
         21   -1    0    0  504  502 -0.00000000000E+00 -0.00000000000E+00 -0.52750562244E+02  0.52750562244E+02  0.00000000000E+00 0.  1.
         21    1    1    2  503  502  0.18607906358E+02 -0.16209891571E+02  0.21199274907E+02  0.32533429274E+02  0.00000000000E+00 0.  1.
         21    1    1    2  504  501 -0.18607906358E+02  0.16209891571E+02 -0.43849788771E+02  0.50317181350E+02  0.00000000000E+00 0.  1.
</event>
<event>
 4    1  0.1589319E+006  0.2002982E+02  0.7546771E-02  0.1533580E+00
         21   -1    0    0  503  501  0.00000000000E+00  0.00000000000E+00  0.30752400207E+03  0.30752400207E+03  0.00000000000E+00 0.  1.
         21   -1    0    0  504  502 -0.00000000000E+00 -0.00000000000E+00 -0.25092322375E+01  0.25092322375E+01  0.00000000000E+00 0.  1.
         21    1    1    2  503  502 -0.19017544487E+02 -0.62870284232E+01  0.25991530107E+03  0.26068593643E+03  0.00000000000E+00 0.  1.
         21    1    1    2  504  501  0.19017544487E+02  0.62870284232E+01  0.45099468766E+02  0.49347297876E+02  0.00000000000E+00 0.  1.
</event>
<event>
 4    1  0.1589319E+006  0.2343514E+02  0.7546771E-02  0.1487105E+00
         21   -1    0    0  504  501  0.00000000000E+00  0.00000000000E+00  0.18415280667E+03  0.18415280667E+03  0.00000000000E+00 0.  1.
         21   -1    0    0  503  502 -0.00000000000E+00 -0.00000000000E+00 -0.13224209553E+02  0.13224209553E+02  0.00000000000E+00 0. -1.
         21    1    1    2  503  501 -0.10796564118E+02  0.20800005255E+02  0.17231460860E+03  0.17390092108E+03  0.00000000000E+00 0.  1.
         21    1    1    2  504  502  0.10796564118E+02 -0.20800005255E+02 -0.13860114840E+01  0.23476095143E+02  0.00000000000E+00 0. -1.
</event>
<event>
 4    1  0.1589319E+006  0.2073902E+02  0.7546771E-02  0.1523024E+00
         21   -1    0    0  504  501  0.00000000000E+00  0.00000000000E+00  0.81198906183E+02  0.81198906183E+02  0.00000000000E+00 0.  1.
         21   -1    0    0  503  502 -0.00000000000E+00 -0.00000000000E+00 -0.74320363925E+01  0.74320363925E+01  0.00000000000E+00 0.  1.
         21    1    1    2  503  501  0.19550117226E+02 -0.69209647420E+01  0.60635907239E+02  0.64084476148E+02  0.00000000000E+00 0.  1.
         21    1    1    2  504  502 -0.19550117226E+02  0.69209647420E+01  0.13130962551E+02  0.24546466427E+02  0.00000000000E+00 0.  1.
</event>
<event>
 4    1  0.1589319E+006  0.3669360E+02  0.7546771E-02  0.1369032E+00
         21   -1    0    0  502  501  0.00000000000E+00  0.00000000000E+00  0.24195184160E+03  0.24195184160E+03  0.00000000000E+00 0.  1.
         21   -1    0    0  503  502 -0.00000000000E+00 -0.00000000000E+00 -0.25766004787E+02  0.25766004787E+02  0.00000000000E+00 0.  1.
         21    1    1    2  503  504 -0.57914993573E+01  0.36233665074E+02 -0.10432675295E+02  0.38147878883E+02  0.00000000000E+00 0.  1.
         21    1    1    2  504  501  0.57914993573E+01 -0.36233665074E+02  0.22661851211E+03  0.22956996750E+03  0.00000000000E+00 0.  1.
</event>
<event>
 4    1  0.1589319E+006  0.2206239E+02  0.7546771E-02  0.1504620E+00
         21   -1    0    0  503  501  0.00000000000E+00  0.00000000000E+00  0.20579178461E+01  0.20579178461E+01  0.00000000000E+00 0. -1.
         21   -1    0    0  504  502 -0.00000000000E+00 -0.00000000000E+00 -0.26786791106E+03  0.26786791106E+03  0.00000000000E+00 0. -1.
         21    1    1    2  503  502  0.19569449544E+02  0.10187524530E+02 -0.17907116076E+03  0.18042513580E+03  0.00000000000E+00 0. -1.
         21    1    1    2  504  501 -0.19569449544E+02 -0.10187524530E+02 -0.86738832457E+02  0.89500693112E+02  0.00000000000E+00 0. -1.
</event>
<event>
 4    1  0.1589319E+006  0.2113986E+02  0.7546771E-02  0.1517277E+00
         21   -1    0    0  503  501  0.00000000000E+00  0.00000000000E+00  0.67366104519E+02  0.67366104519E+02  0.00000000000E+00 0. -1.
         21   -1    0    0  504  502 -0.00000000000E+00 -0.00000000000E+00 -0.81130026006E+02  0.81130026006E+02  0.00000000000E+00 0.  1.
         21    1    1    2  503  502 -0.20145343546E+02  0.64077316277E+01 -0.78029755342E+02  0.80842665777E+02  0.00000000000E+00 0.  1.
         21    1    1    2  504  501  0.20145343546E+02 -0.64077316277E+01  0.64265833856E+02  0.67653464748E+02  0.00000000000E+00 0. -1.
</event>
<event>
 4    1  0.1589319E+006  0.2346718E+02  0.7546771E-02  0.1486714E+00
         21   -1    0    0  503  501  0.00000000000E+00  0.00000000000E+00  0.14744435483E+03  0.14744435483E+03  0.00000000000E+00 0.  1.
         21   -1    0    0  504  502 -0.00000000000E+00 -0.00000000000E+00 -0.58615829581E+01  0.58615829581E+01  0.00000000000E+00 0. -1.
         21    1    1    2  503  502  0.20916257447E+02  0.10640428796E+02  0.24621372982E+02  0.34013534925E+02  0.00000000000E+00 0. -1.
         21    1    1    2  504  501 -0.20916257447E+02 -0.10640428796E+02  0.11696139889E+03  0.11929240287E+03  0.00000000000E+00 0.  1.
</event>
<event>
 4    1  0.1589319E+006  0.2161028E+02  0.7546771E-02  0.1510727E+00
         21   -1    0    0  504  501  0.00000000000E+00  0.00000000000E+00  0.24807268353E+03  0.24807268353E+03  0.00000000000E+00 0.  1.
         21   -1    0    0  503  502 -0.00000000000E+00 -0.00000000000E+00 -0.18168154879E+02  0.18168154879E+02  0.00000000000E+00 0. -1.
         21    1    1    2  503  501  0.18610216089E+02 -0.10984723601E+02  0.24098735464E+03  0.24195435395E+03  0.00000000000E+00 0.  1.
         21    1    1    2  504  502 -0.18610216089E+02  0.10984723601E+02 -0.11082825994E+02  0.24286484461E+02  0.00000000000E+00 0. -1.
</event>
<event>
 4    1  0.1589319E+006  0.2049544E+02  0.7546771E-02  0.1526592E+00
         21   -1    0    0  504  501  0.00000000000E+00  0.00000000000E+00  0.12812371562E+03  0.12812371562E+03  0.00000000000E+00 0.  1.
         21   -1    0    0  503  502 -0.00000000000E+00 -0.00000000000E+00 -0.48888021504E+01  0.48888021504E+01  0.00000000000E+00 0. -1.
         21    1    1    2  503  501  0.20472206786E+02  0.97566349257E+00  0.23448973378E+02  0.31143498879E+02  0.00000000000E+00 0. -1.
         21    1    1    2  504  502 -0.20472206786E+02 -0.97566349257E+00  0.99785940096E+02  0.10186901890E+03  0.00000000000E+00 0.  1.
</event>
<event>
 4    1  0.1589319E+006  0.2168613E+02  0.7546771E-02  0.1509690E+00
         21   -1    0    0  503  501  0.00000000000E+00  0.00000000000E+00  0.13494886312E+04  0.13494886312E+04  0.00000000000E+00 0. -1.
         21   -1    0    0  504  502 -0.00000000000E+00 -0.00000000000E+00 -0.63918858520E+00  0.63918858520E+00  0.00000000000E+00 0. -1.
         21    1    1    2  503  502  0.18341582747E+02  0.11570418957E+02  0.11296738246E+04  0.11298819577E+04  0.00000000000E+00 0. -1.
         21    1    1    2  504  501 -0.18341582747E+02 -0.11570418957E+02  0.21917561806E+03  0.22024586217E+03  0.00000000000E+00 0. -1.
</event>
<event>
 4    1  0.1589319E+006  0.2038746E+02  0.7546771E-02  0.1528193E+00
         21   -1    0    0  504  501  0.00000000000E+00  0.00000000000E+00  0.48166017859E+01  0.48166017859E+01  0.00000000000E+00 0.  1.
         21   -1    0    0  503  502 -0.00000000000E+00 -0.00000000000E+00 -0.12739738146E+03  0.12739738146E+03  0.00000000000E+00 0.  1.
         21    1    1    2  503  501 -0.13735663052E+02 -0.15065853286E+02 -0.23741168188E+02  0.31293632605E+02  0.00000000000E+00 0.  1.
         21    1    1    2  504  502  0.13735663052E+02  0.15065853286E+02 -0.98839611491E+02  0.10092035065E+03  0.00000000000E+00 0.  1.
</event>
<event>
 4    1  0.1589319E+006  0.5136330E+02  0.7546771E-02  0.1292367E+00
         21   -1    0    0  503  501  0.00000000000E+00  0.00000000000E+00  0.94426808023E+02  0.94426808023E+02  0.00000000000E+00 0.  1.
         21   -1    0    0  504  502 -0.00000000000E+00 -0.00000000000E+00 -0.39143595420E+02  0.39143595420E+02  0.00000000000E+00 0.  1.
         21    1    1    2  503  502  0.43355442267E+02  0.27540778833E+02  0.63372865972E+02  0.81573948136E+02  0.00000000000E+00 0.  1.
         21    1    1    2  504  501 -0.43355442267E+02 -0.27540778833E+02 -0.80896533695E+01  0.51996455308E+02  0.00000000000E+00 0.  1.
</event>
<event>
 4    1  0.1589319E+006  0.3268672E+02  0.7546771E-02  0.1397599E+00
         21   -1    0    0  504  501  0.00000000000E+00  0.00000000000E+00  0.20621866517E+02  0.20621866517E+02  0.00000000000E+00 0.  1.
         21   -1    0    0  503  502 -0.00000000000E+00 -0.00000000000E+00 -0.52243836903E+02  0.52243836903E+02  0.00000000000E+00 0.  1.
         21    1    1    2  503  501  0.31550464757E+02 -0.85434249312E+01 -0.19130428710E+02  0.37873410707E+02  0.00000000000E+00 0.  1.
         21    1    1    2  504  502 -0.31550464757E+02  0.85434249312E+01 -0.12491541676E+02  0.34992292714E+02  0.00000000000E+00 0.  1.
</event>
<event>
 4    1  0.1589319E+006  0.2257475E+02  0.7546771E-02  0.1497908E+00
         21   -1    0    0  504  501  0.00000000000E+00  0.00000000000E+00  0.35523597488E+03  0.35523597488E+03  0.00000000000E+00 0.  1.
         21   -1    0    0  503  502 -0.00000000000E+00 -0.00000000000E+00 -0.21413686011E+01  0.21413686011E+01  0.00000000000E+00 0. -1.
         21    1    1    2  503  501 -0.21505755645E+02 -0.68645317691E+01  0.73889530279E+02  0.77261128694E+02  0.00000000000E+00 0. -1.
         21    1    1    2  504  502  0.21505755645E+02  0.68645317691E+01  0.27920507600E+03  0.28011621479E+03  0.00000000000E+00 0.  1.
</event>
<event>
 4    1  0.1589319E+006  0.3245279E+02  0.7546771E-02  0.1399413E+00
         21   -1    0    0  503  501  0.00000000000E+00  0.00000000000E+00  0.80946194880E+02  0.80946194880E+02  0.00000000000E+00 0.  1.
         21   -1    0    0  501  502 -0.00000000000E+00 -0.00000000000E+00 -0.62759614805E+02  0.62759614805E+02  0.00000000000E+00 0.  1.
         21    1    1    2  503  504  0.29965258289E+02  0.12460603243E+02  0.73066052102E+02  0.79948929370E+02  0.00000000000E+00 0.  1.
         21    1    1    2  504  502 -0.29965258289E+02 -0.12460603243E+02 -0.54879472028E+02  0.63756880316E+02  0.00000000000E+00 0.  1.
</event>
<event>
 4    1  0.1589319E+006  0.2203838E+02  0.7546771E-02  0.1504940E+00
         21   -1    0    0  504  501  0.00000000000E+00  0.00000000000E+00  0.24559291008E+02  0.24559291008E+02  0.00000000000E+00 0. -1.
         21   -1    0    0  501  502 -0.00000000000E+00 -0.00000000000E+00 -0.56534479928E+02  0.56534479928E+02  0.00000000000E+00 0. -1.
         21    1    1    2  503  502  0.44849681908E+01 -0.21577194530E+02 -0.48682357534E+02  0.53438396295E+02  0.00000000000E+00 0. -1.
         21    1    1    2  504  503 -0.44849681908E+01  0.21577194530E+02  0.16707168614E+02  0.27655374642E+02  0.00000000000E+00 0. -1.
</event>
<event>
 4    1  0.1589319E+006  0.2115272E+02  0.7546771E-02  0.1517095E+00
         21   -1    0    0  504  501  0.00000000000E+00  0.00000000000E+00  0.90622958492E+02  0.90622958492E+02  0.00000000000E+00 0.  1.
         21   -1    0    0  503  502 -0.00000000000E+00 -0.00000000000E+00 -0.31313640186E+03  0.31313640186E+03  0.00000000000E+00 0.  1.
         21    1    1    2  503  501 -0.20447233701E+02 -0.54174099953E+01 -0.31153851683E+03  0.31225580085E+03  0.00000000000E+00 0.  1.
         21    1    1    2  504  502  0.20447233701E+02  0.54174099953E+01  0.89025073460E+02  0.91503559503E+02  0.00000000000E+00 0.  1.
</event>
<event>
 4    1  0.1589319E+006  0.5677173E+02  0.7546771E-02  0.1271214E+00
         21   -1    0    0  504  501  0.00000000000E+00  0.00000000000E+00  0.15056275421E+03  0.15056275421E+03  0.00000000000E+00 0.  1.
         21   -1    0    0  503  502 -0.00000000000E+00 -0.00000000000E+00 -0.37494195716E+02  0.37494195716E+02  0.00000000000E+00 0. -1.
         21    1    1    2  503  501 -0.30346137888E+02 -0.47980630848E+02  0.11812618294E+03  0.13106038348E+03  0.00000000000E+00 0.  1.
         21    1    1    2  504  502  0.30346137888E+02  0.47980630848E+02 -0.50576244518E+01  0.56996566444E+02  0.00000000000E+00 0. -1.
</event>
<event>
 4    1  0.1589319E+006  0.2408156E+02  0.7546771E-02  0.1479346E+00
         21   -1    0    0  503  501  0.00000000000E+00  0.00000000000E+00  0.23792935385E+03  0.23792935385E+03  0.00000000000E+00 0. -1.
         21   -1    0    0  504  502 -0.00000000000E+00 -0.00000000000E+00 -0.27466984513E+02  0.27466984513E+02  0.00000000000E+00 0. -1.
         21    1    1    2  503  502 -0.17618700519E+02  0.16416543344E+02  0.23190490728E+03  0.23315189796E+03  0.00000000000E+00 0. -1.
         21    1    1    2  504  501  0.17618700519E+02 -0.16416543344E+02 -0.21442537943E+02  0.32244440401E+02  0.00000000000E+00 0. -1.
</event>
<event>
 4    1  0.1589319E+006  0.2239290E+02  0.7546771E-02  0.1500266E+00
         21   -1    0    0  502  501  0.00000000000E+00  0.00000000000E+00  0.22809774775E+03  0.22809774775E+03  0.00000000000E+00 0. -1.
         21   -1    0    0  503  502 -0.00000000000E+00 -0.00000000000E+00 -0.13388957661E+02  0.13388957661E+02  0.00000000000E+00 0.  1.
         21    1    1    2  503  504 -0.17951856631E+02  0.13385545543E+02 -0.30322160821E+01  0.22597263559E+02  0.00000000000E+00 0.  1.
         21    1    1    2  504  501  0.17951856631E+02 -0.13385545543E+02  0.21774100617E+03  0.21888944185E+03  0.00000000000E+00 0. -1.
</event>
<event>
 4    1  0.1589319E+006  0.3926645E+02  0.7546771E-02  0.1352839E+00
         21   -1    0    0  503  501  0.00000000000E+00  0.00000000000E+00  0.34123005537E+02  0.34123005537E+02  0.00000000000E+00 0.  1.
         21   -1    0    0  501  502 -0.00000000000E+00 -0.00000000000E+00 -0.23750397091E+03  0.23750397091E+03  0.00000000000E+00 0.  1.
         21    1    1    2  503  504 -0.94213615902E+01  0.38119440823E+02  0.20522779557E+02  0.44306188097E+02  0.00000000000E+00 0.  1.
         21    1    1    2  504  502  0.94213615902E+01 -0.38119440823E+02 -0.22390374493E+03  0.22732078835E+03  0.00000000000E+00 0.  1.
</event>
<event>
 4    1  0.1589319E+006  0.2633864E+02  0.7546771E-02  0.1454367E+00
         21   -1    0    0  503  501  0.00000000000E+00  0.00000000000E+00  0.79298630439E+02  0.79298630439E+02  0.00000000000E+00 0. -1.
         21   -1    0    0  501  502 -0.00000000000E+00 -0.00000000000E+00 -0.69473327805E+02  0.69473327805E+02  0.00000000000E+00 0. -1.
         21    1    1    2  503  504  0.26336647026E+02 -0.32392966202E+00  0.74457679569E+02  0.78978920946E+02  0.00000000000E+00 0. -1.
         21    1    1    2  504  502 -0.26336647026E+02  0.32392966202E+00 -0.64632376935E+02  0.69793037298E+02  0.00000000000E+00 0. -1.
</event>
<event>
 4    1  0.1589319E+006  0.2127731E+02  0.7546771E-02  0.1515342E+00
         21   -1    0    0  504  501  0.00000000000E+00  0.00000000000E+00  0.21446790677E+02  0.21446790677E+02  0.00000000000E+00 0. -1.
         21   -1    0    0  503  502 -0.00000000000E+00 -0.00000000000E+00 -0.43638764776E+02  0.43638764776E+02  0.00000000000E+00 0.  1.
         21    1    1    2  503  501  0.17016909161E+01  0.21209153404E+02  0.12286736236E+02  0.24570059573E+02  0.00000000000E+00 0. -1.
         21    1    1    2  504  502 -0.17016909161E+01 -0.21209153404E+02 -0.34478710335E+02  0.40515495881E+02  0.00000000000E+00 0.  1.
</event>
<event>
 4    1  0.1589319E+006  0.2028575E+02  0.7546771E-02  0.1529711E+00
         21   -1    0    0  504  501  0.00000000000E+00  0.00000000000E+00  0.26617547930E+03  0.26617547930E+03  0.00000000000E+00 0. -1.
         21   -1    0    0  501  502 -0.00000000000E+00 -0.00000000000E+00 -0.19324059888E+01  0.19324059888E+01  0.00000000000E+00 0. -1.
         21    1    1    2  503  502  0.19977098385E+02 -0.35252489224E+01  0.72177950062E+02  0.74974451082E+02  0.00000000000E+00 0. -1.
         21    1    1    2  504  503 -0.19977098385E+02  0.35252489224E+01  0.19206512325E+03  0.19313343421E+03  0.00000000000E+00 0. -1.
</event>
<event>
 4    1  0.1589319E+006  0.3270315E+02  0.7546771E-02  0.1397472E+00
         21   -1    0    0  502  501  0.00000000000E+00  0.00000000000E+00  0.13267882211E+03  0.13267882211E+03  0.00000000000E+00 0. -1.
         21   -1    0    0  503  502 -0.00000000000E+00 -0.00000000000E+00 -0.32966554536E+03  0.32966554536E+03  0.00000000000E+00 0. -1.
         21    1    1    2  503  504 -0.29423532588E+02  0.14274155899E+02 -0.32682181148E+03  0.32845394237E+03  0.00000000000E+00 0. -1.
         21    1    1    2  504  501  0.29423532588E+02 -0.14274155899E+02  0.12983508824E+03  0.13389042510E+03  0.00000000000E+00 0. -1.
</event>
<event>
 4    1  0.1589319E+006  0.2205227E+02  0.7546771E-02  0.1504754E+00
         21   -1    0    0  502  501  0.00000000000E+00  0.00000000000E+00  0.28276038543E+02  0.28276038543E+02  0.00000000000E+00 0. -1.
         21   -1    0    0  503  502 -0.00000000000E+00 -0.00000000000E+00 -0.75827230626E+02  0.75827230626E+02  0.00000000000E+00 0.  1.
         21    1    1    2  503  504 -0.18797311081E+02 -0.11530988206E+02 -0.69545225301E+02  0.72957802564E+02  0.00000000000E+00 0.  1.
         21    1    1    2  504  501  0.18797311081E+02  0.11530988206E+02  0.21994033217E+02  0.31145466605E+02  0.00000000000E+00 0. -1.
</event>
<event>
 4    1  0.1589319E+006  0.2526230E+02  0.7546771E-02  0.1465890E+00
         21   -1    0    0  504  501  0.00000000000E+00  0.00000000000E+00  0.18979266419E+03  0.18979266419E+03  0.00000000000E+00 0. -1.
         21   -1    0    0  501  502 -0.00000000000E+00 -0.00000000000E+00 -0.41715401687E+02  0.41715401687E+02  0.00000000000E+00 0. -1.
         21    1    1    2  503  502  0.60151298384E+01  0.24535724285E+02 -0.36952137402E+02  0.44762082299E+02  0.00000000000E+00 0. -1.
         21    1    1    2  504  503 -0.60151298384E+01 -0.24535724285E+02  0.18502939990E+03  0.18674598358E+03  0.00000000000E+00 0. -1.
</event>
<event>
 4    1  0.1589319E+006  0.2285639E+02  0.7546771E-02  0.1494309E+00
         21   -1    0    0  504  501  0.00000000000E+00  0.00000000000E+00  0.96201599184E+01  0.96201599184E+01  0.00000000000E+00 0. -1.
         21   -1    0    0  501  502 -0.00000000000E+00 -0.00000000000E+00 -0.35561720120E+03  0.35561720120E+03  0.00000000000E+00 0. -1.
         21    1    1    2  503  502 -0.22808628603E+02  0.14768924036E+01 -0.34109661178E+03  0.34186154115E+03  0.00000000000E+00 0. -1.
         21    1    1    2  504  503  0.22808628603E+02 -0.14768924036E+01 -0.49004295025E+01  0.23375819969E+02  0.00000000000E+00 0. -1.
</event>
<event>
 4    1  0.1589319E+006  0.2396068E+02  0.7546771E-02  0.1480775E+00
         21   -1    0    0  503  501  0.00000000000E+00  0.00000000000E+00  0.18235121359E+02  0.18235121359E+02  0.00000000000E+00 0. -1.
         21   -1    0    0  504  502 -0.00000000000E+00 -0.00000000000E+00 -0.40361436019E+03  0.40361436019E+03  0.00000000000E+00 0. -1.
         21    1    1    2  503  502 -0.53111718186E+01 -0.23364624102E+02 -0.39522074776E+03  0.39594640251E+03  0.00000000000E+00 0. -1.
         21    1    1    2  504  501  0.53111718186E+01  0.23364624102E+02  0.98415089272E+01  0.25903079035E+02  0.00000000000E+00 0. -1.
</event>
<event>
 4    1  0.1589319E+006  0.2512223E+02  0.7546771E-02  0.1467441E+00
         21   -1    0    0  503  501  0.00000000000E+00  0.00000000000E+00  0.10374797924E+03  0.10374797924E+03  0.00000000000E+00 0.  1.
         21   -1    0    0  504  502 -0.00000000000E+00 -0.00000000000E+00 -0.36823035228E+02  0.36823035228E+02  0.00000000000E+00 0.  1.
         21    1    1    2  503  502  0.25007182879E+02 -0.24014948340E+01  0.97680402453E+02  0.10085924547E+03  0.00000000000E+00 0.  1.
         21    1    1    2  504  501 -0.25007182879E+02  0.24014948340E+01 -0.30755458442E+02  0.39711768998E+02  0.00000000000E+00 0.  1.
</event>
<event>
 4    1  0.1589319E+006  0.2874622E+02  0.7546771E-02  0.1430814E+00
         21   -1    0    0  504  501  0.00000000000E+00  0.00000000000E+00  0.96805100186E+01  0.96805100186E+01  0.00000000000E+00 0. -1.
         21   -1    0    0  503  502 -0.00000000000E+00 -0.00000000000E+00 -0.85856033588E+02  0.85856033588E+02  0.00000000000E+00 0. -1.
         21    1    1    2  503  501  0.67989542126E+01  0.27930619238E+02 -0.41712215149E+02  0.50658209227E+02  0.00000000000E+00 0. -1.
         21    1    1    2  504  502 -0.67989542126E+01 -0.27930619238E+02 -0.34463308420E+02  0.44878334380E+02  0.00000000000E+00 0. -1.
</event>
<event>
 4    1  0.1589319E+006  0.2722683E+02  0.7546771E-02  0.1445343E+00
         21   -1    0    0  504  501  0.00000000000E+00  0.00000000000E+00  0.16384613763E+02  0.16384613763E+02  0.00000000000E+00 0.  1.
         21   -1    0    0  501  502 -0.00000000000E+00 -0.00000000000E+00 -0.71762152387E+02  0.71762152387E+02  0.00000000000E+00 0.  1.
         21    1    1    2  503  502  0.21183119148E+02 -0.17104839295E+02 -0.54480637038E+02  0.60905171178E+02  0.00000000000E+00 0.  1.
         21    1    1    2  504  503 -0.21183119148E+02  0.17104839295E+02 -0.89690158661E+00  0.27241594972E+02  0.00000000000E+00 0.  1.
</event>
<event>
 4    1  0.1589319E+006  0.3044413E+02  0.7546771E-02  0.1415775E+00
         21   -1    0    0  503  501  0.00000000000E+00  0.00000000000E+00  0.13357259737E+03  0.13357259737E+03  0.00000000000E+00 0. -1.
         21   -1    0    0  504  502 -0.00000000000E+00 -0.00000000000E+00 -0.59874582017E+02  0.59874582017E+02  0.00000000000E+00 0. -1.
         21    1    1    2  503  502  0.13327501452E+01 -0.30414943102E+02  0.12779539953E+03  0.13137164506E+03  0.00000000000E+00 0. -1.
         21    1    1    2  504  501 -0.13327501452E+01  0.30414943102E+02 -0.54097384174E+02  0.62075534322E+02  0.00000000000E+00 0. -1.
</event>
<event>
 4    1  0.1589319E+006  0.2068592E+02  0.7546771E-02  0.1523797E+00
         21   -1    0    0  504  501  0.00000000000E+00  0.00000000000E+00  0.80031898463E+03  0.80031898463E+03  0.00000000000E+00 0. -1.
         21   -1    0    0  503  502 -0.00000000000E+00 -0.00000000000E+00 -0.89749401066E+00  0.89749401066E+00  0.00000000000E+00 0. -1.
         21    1    1    2  503  501 -0.14763417460E+02 -0.14489610377E+02  0.65442399977E+03  0.65475085244E+03  0.00000000000E+00 0. -1.
         21    1    1    2  504  502  0.14763417460E+02  0.14489610377E+02  0.14499749086E+03  0.14646562620E+03  0.00000000000E+00 0. -1.
</event>
<event>
 4    1  0.1589319E+006  0.3549203E+02  0.7546771E-02  0.1377137E+00
         21   -1    0    0  503  501  0.00000000000E+00  0.00000000000E+00  0.14155895723E+03  0.14155895723E+03  0.00000000000E+00 0. -1.
         21   -1    0    0  504  502 -0.00000000000E+00 -0.00000000000E+00 -0.15862480297E+02  0.15862480297E+02  0.00000000000E+00 0. -1.
         21    1    1    2  503  502 -0.12574682314E+02 -0.33189777324E+02  0.11500040385E+03  0.12035271845E+03  0.00000000000E+00 0. -1.
         21    1    1    2  504  501  0.12574682314E+02  0.33189777324E+02  0.10696073083E+02  0.37068719070E+02  0.00000000000E+00 0. -1.
</event>
<event>
 4    1  0.1589319E+006  0.2688521E+02  0.7546771E-02  0.1448765E+00
         21   -1    0    0  503  501  0.00000000000E+00  0.00000000000E+00  0.24826312192E+03  0.24826312192E+03  0.00000000000E+00 0.  1.
         21   -1    0    0  501  502 -0.00000000000E+00 -0.00000000000E+00 -0.40545924229E+02  0.40545924229E+02  0.00000000000E+00 0.  1.
         21    1    1    2  503  504 -0.81857265692E+01  0.25608752161E+02  0.24298191470E+03  0.24446477288E+03  0.00000000000E+00 0.  1.
         21    1    1    2  504  502  0.81857265692E+01 -0.25608752161E+02 -0.35264717007E+02  0.44344273275E+02  0.00000000000E+00 0.  1.
</event>
<event>
 4    1  0.1589319E+006  0.3286365E+02  0.7546771E-02  0.1396238E+00
         21   -1    0    0  504  501  0.00000000000E+00  0.00000000000E+00  0.47987106411E+02  0.47987106411E+02  0.00000000000E+00 0.  1.
         21   -1    0    0  503  502 -0.00000000000E+00 -0.00000000000E+00 -0.25907616148E+02  0.25907616148E+02  0.00000000000E+00 0.  1.
         21    1    1    2  503  501 -0.24672010101E+02 -0.21709707707E+02  0.24426752970E+02  0.40947353417E+02  0.00000000000E+00 0.  1.
         21    1    1    2  504  502  0.24672010101E+02  0.21709707707E+02 -0.23472627069E+01  0.32947369142E+02  0.00000000000E+00 0.  1.
</event>
<event>
 4    1  0.1589319E+006  0.2116805E+02  0.7546771E-02  0.1516879E+00
         21   -1    0    0  504  501  0.00000000000E+00  0.00000000000E+00  0.64150579546E+01  0.64150579546E+01  0.00000000000E+00 0. -1.
         21   -1    0    0  503  502 -0.00000000000E+00 -0.00000000000E+00 -0.73148605597E+02  0.73148605597E+02  0.00000000000E+00 0. -1.
         21    1    1    2  503  501  0.20207618927E+02 -0.63038444370E+01 -0.24917815233E+02  0.32695318218E+02  0.00000000000E+00 0. -1.
         21    1    1    2  504  502 -0.20207618927E+02  0.63038444370E+01 -0.41815732410E+02  0.46868345334E+02  0.00000000000E+00 0. -1.
</event>
<event>
 4    1  0.1589319E+006  0.2508736E+02  0.7546771E-02  0.1467828E+00
         21   -1    0    0  503  501  0.00000000000E+00  0.00000000000E+00  0.79094119120E+01  0.79094119120E+01  0.00000000000E+00 0.  1.
         21   -1    0    0  504  502 -0.00000000000E+00 -0.00000000000E+00 -0.21125998433E+03  0.21125998433E+03  0.00000000000E+00 0. -1.
         21    1    1    2  503  502  0.49734059478E+01 -0.24589448627E+02 -0.15156046211E+02  0.29310091901E+02  0.00000000000E+00 0.  1.
         21    1    1    2  504  501 -0.49734059478E+01  0.24589448627E+02 -0.18819452621E+03  0.18985930435E+03  0.00000000000E+00 0. -1.
</event>
<event>
 4    1  0.1589319E+006  0.2816269E+02  0.7546771E-02  0.1436266E+00
         21   -1    0    0  504  501  0.00000000000E+00  0.00000000000E+00  0.12372918066E+03  0.12372918066E+03  0.00000000000E+00 0. -1.
         21   -1    0    0  501  502 -0.00000000000E+00 -0.00000000000E+00 -0.27830960564E+03  0.27830960564E+03  0.00000000000E+00 0. -1.
         21    1    1    2  503  502  0.59971977239E+01  0.27516732433E+02 -0.27598109380E+03  0.27741431304E+03  0.00000000000E+00 0. -1.
         21    1    1    2  504  503 -0.59971977239E+01 -0.27516732433E+02  0.12140066882E+03  0.12462447326E+03  0.00000000000E+00 0. -1.
</event>
<event>
 4    1  0.1589319E+006  0.2129221E+02  0.7546771E-02  0.1515134E+00
         21   -1    0    0  503  501  0.00000000000E+00  0.00000000000E+00  0.24383930212E+03  0.24383930212E+03  0.00000000000E+00 0. -1.
         21   -1    0    0  504  502 -0.00000000000E+00 -0.00000000000E+00 -0.23086461771E+01  0.23086461771E+01  0.00000000000E+00 0. -1.
         21    1    1    2  503  502 -0.84726503859E+01  0.19533875631E+02  0.17506565705E+03  0.17635572681E+03  0.00000000000E+00 0. -1.
         21    1    1    2  504  501  0.84726503859E+01 -0.19533875631E+02  0.66464998894E+02  0.69792221484E+02  0.00000000000E+00 0. -1.
</event>
<event>
 4    1  0.1589319E+006  0.4717537E+02  0.7546771E-02  0.1310907E+00
         21   -1    0    0  504  501  0.00000000000E+00  0.00000000000E+00  0.14500733318E+03  0.14500733318E+03  0.00000000000E+00 0.  1.
         21   -1    0    0  503  502 -0.00000000000E+00 -0.00000000000E+00 -0.56385706637E+02  0.56385706637E+02  0.00000000000E+00 0. -1.
         21    1    1    2  503  501  0.42379551974E+02 -0.20724114675E+02 -0.41595202248E+02  0.62894166698E+02  0.00000000000E+00 0. -1.
         21    1    1    2  504  502 -0.42379551974E+02  0.20724114675E+02  0.13021682879E+03  0.13849887312E+03  0.00000000000E+00 0.  1.
</event>
<event>
 4    1  0.1589319E+006  0.2440668E+02  0.7546771E-02  0.1475551E+00
         21   -1    0    0  503  501  0.00000000000E+00  0.00000000000E+00  0.65698342898E+02  0.65698342898E+02  0.00000000000E+00 0.  1.
         21   -1    0    0  504  502 -0.00000000000E+00 -0.00000000000E+00 -0.37560034389E+02  0.37560034389E+02  0.00000000000E+00 0. -1.
         21    1    1    2  503  502 -0.19407961738E+02  0.14799229310E+02  0.59036964823E+02  0.63883091523E+02  0.00000000000E+00 0.  1.
         21    1    1    2  504  501  0.19407961738E+02 -0.14799229310E+02 -0.30898656314E+02  0.39375285764E+02  0.00000000000E+00 0. -1.
</event>
<event>
 4    1  0.1589319E+006  0.2203795E+02  0.7546771E-02  0.1504945E+00
         21   -1    0    0  503  501  0.00000000000E+00  0.00000000000E+00  0.15891992868E+03  0.15891992868E+03  0.00000000000E+00 0. -1.
         21   -1    0    0  504  502 -0.00000000000E+00 -0.00000000000E+00 -0.30602723538E+01  0.30602723538E+01  0.00000000000E+00 0. -1.
         21    1    1    2  503  502 -0.19947831357E+02  0.93677834219E+01  0.80928992632E+02  0.83875939283E+02  0.00000000000E+00 0. -1.
         21    1    1    2  504  501  0.19947831357E+02 -0.93677834219E+01  0.74930663692E+02  0.78104261750E+02  0.00000000000E+00 0. -1.
</event>
<event>
 4    1  0.1589319E+006  0.2204366E+02  0.7546771E-02  0.1504869E+00
         21   -1    0    0  504  501  0.00000000000E+00  0.00000000000E+00  0.34527387629E+02  0.34527387629E+02  0.00000000000E+00 0. -1.
         21   -1    0    0  501  502 -0.00000000000E+00 -0.00000000000E+00 -0.11562433462E+03  0.11562433462E+03  0.00000000000E+00 0.  1.
         21    1    1    2  503  502  0.13893798402E+01  0.21999835305E+02 -0.11090709589E+03  0.11307655392E+03  0.00000000000E+00 0.  1.
         21    1    1    2  504  503 -0.13893798402E+01 -0.21999835305E+02  0.29810148890E+02  0.37075168329E+02  0.00000000000E+00 0. -1.
</event>
<event>
 4    1  0.1589319E+006  0.2391165E+02  0.7546771E-02  0.1481357E+00
         21   -1    0    0  503  501  0.00000000000E+00  0.00000000000E+00  0.35722210221E+02  0.35722210221E+02  0.00000000000E+00 0.  1.
         21   -1    0    0  501  502 -0.00000000000E+00 -0.00000000000E+00 -0.60731636240E+02  0.60731636240E+02  0.00000000000E+00 0.  1.
         21    1    1    2  503  504 -0.15759790715E+02  0.17983213503E+02  0.28881977446E+02  0.37495807665E+02  0.00000000000E+00 0.  1.
         21    1    1    2  504  502  0.15759790715E+02 -0.17983213503E+02 -0.53891403465E+02  0.58958038796E+02  0.00000000000E+00 0.  1.
</event>
<event>
 4    1  0.1589319E+006  0.2468613E+02  0.7546771E-02  0.1472345E+00
         21   -1    0    0  502  501  0.00000000000E+00  0.00000000000E+00  0.60335846524E+03  0.60335846524E+03  0.00000000000E+00 0. -1.
         21   -1    0    0  503  502 -0.00000000000E+00 -0.00000000000E+00 -0.22058791811E+01  0.22058791811E+01  0.00000000000E+00 0.  1.
         21    1    1    2  503  504  0.13392167544E+02  0.20737763246E+02  0.77640807692E+02  0.81470853654E+02  0.00000000000E+00 0.  1.
         21    1    1    2  504  501 -0.13392167544E+02 -0.20737763246E+02  0.52351177837E+03  0.52409349077E+03  0.00000000000E+00 0. -1.
</event>
<event>
 4    1  0.1589319E+006  0.2119183E+02  0.7546771E-02  0.1516544E+00
         21   -1    0    0  502  501  0.00000000000E+00  0.00000000000E+00  0.79958946119E+02  0.79958946119E+02  0.00000000000E+00 0. -1.
         21   -1    0    0  503  502 -0.00000000000E+00 -0.00000000000E+00 -0.39074562933E+02  0.39074562933E+02  0.00000000000E+00 0.  1.
         21    1    1    2  503  504 -0.13300229126E+01 -0.21150047203E+02 -0.34631253658E+02  0.40600704274E+02  0.00000000000E+00 0.  1.
         21    1    1    2  504  501  0.13300229126E+01  0.21150047203E+02  0.75515636844E+02  0.78432804779E+02  0.00000000000E+00 0. -1.
</event>
<event>
 4    1  0.1589319E+006  0.2701483E+02  0.7546771E-02  0.1447459E+00
         21   -1    0    0  502  501  0.00000000000E+00  0.00000000000E+00  0.12534696599E+02  0.12534696599E+02  0.00000000000E+00 0. -1.
         21   -1    0    0  504  502 -0.00000000000E+00 -0.00000000000E+00 -0.10738346282E+03  0.10738346282E+03  0.00000000000E+00 0.  1.
         21    1    1    2  503  501  0.15063231066E+02  0.22425440211E+02 -0.68551804623E+01  0.27871038695E+02  0.00000000000E+00 0. -1.
         21    1    1    2  504  503 -0.15063231066E+02 -0.22425440211E+02 -0.87993585757E+02  0.92047120722E+02  0.00000000000E+00 0.  1.
</event>
<event>
 4    1  0.1589319E+006  0.2200453E+02  0.7546771E-02  0.1505391E+00
         21   -1    0    0  504  501  0.00000000000E+00  0.00000000000E+00  0.16746685008E+03  0.16746685008E+03  0.00000000000E+00 0.  1.
         21   -1    0    0  503  502 -0.00000000000E+00 -0.00000000000E+00 -0.44205283571E+01  0.44205283571E+01  0.00000000000E+00 0.  1.
         21    1    1    2  503  501  0.21253193820E+02  0.57009673327E+01  0.13207198548E+03  0.13389252639E+03  0.00000000000E+00 0.  1.
         21    1    1    2  504  502 -0.21253193820E+02 -0.57009673327E+01  0.30974336252E+02  0.37994852050E+02  0.00000000000E+00 0.  1.
</event>
<event>
 4    1  0.1589319E+006  0.2169493E+02  0.7546771E-02  0.1509570E+00
         21   -1    0    0  502  501  0.00000000000E+00  0.00000000000E+00  0.44256123969E+02  0.44256123969E+02  0.00000000000E+00 0.  1.
         21   -1    0    0  504  502 -0.00000000000E+00 -0.00000000000E+00 -0.13846372493E+02  0.13846372493E+02  0.00000000000E+00 0.  1.
         21    1    1    2  503  501 -0.98612954228E+01  0.19324201474E+02  0.29195365488E+02  0.36373606860E+02  0.00000000000E+00 0.  1.
         21    1    1    2  504  503  0.98612954228E+01 -0.19324201474E+02  0.12143859873E+01  0.21728889602E+02  0.00000000000E+00 0.  1.
</event>
<event>
 4    1  0.1589319E+006  0.2569176E+02  0.7546771E-02  0.1461211E+00
         21   -1    0    0  504  501  0.00000000000E+00  0.00000000000E+00  0.19077160627E+03  0.19077160627E+03  0.00000000000E+00 0.  1.
         21   -1    0    0  501  502 -0.00000000000E+00 -0.00000000000E+00 -0.34090739451E+02  0.34090739451E+02  0.00000000000E+00 0.  1.
         21    1    1    2  503  502  0.12426809705E+02  0.22486456622E+02 -0.28232617419E+02  0.38172595107E+02  0.00000000000E+00 0.  1.
         21    1    1    2  504  503 -0.12426809705E+02 -0.22486456622E+02  0.18491348423E+03  0.18668975061E+03  0.00000000000E+00 0.  1.
</event>
<event>
 4    1  0.1589319E+006  0.2347043E+02  0.7546771E-02  0.1486674E+00
         21   -1    0    0  503  501  0.00000000000E+00  0.00000000000E+00  0.10401192131E+02  0.10401192131E+02  0.00000000000E+00 0.  1.
         21   -1    0    0  504  502 -0.00000000000E+00 -0.00000000000E+00 -0.80104164058E+02  0.80104164058E+02  0.00000000000E+00 0.  1.
         21    1    1    2  503  502  0.43398471391E+01  0.23065707385E+02 -0.85097609665E+01  0.24965519463E+02  0.00000000000E+00 0.  1.
         21    1    1    2  504  501 -0.43398471391E+01 -0.23065707385E+02 -0.61193210961E+02  0.65539836726E+02  0.00000000000E+00 0.  1.
</event>
<event>
 4    1  0.1589319E+006  0.2157645E+02  0.7546771E-02  0.1511191E+00
         21   -1    0    0  503  501  0.00000000000E+00  0.00000000000E+00  0.54296011168E+02  0.54296011168E+02  0.00000000000E+00 0. -1.
         21   -1    0    0  501  502 -0.00000000000E+00 -0.00000000000E+00 -0.10445338880E+02  0.10445338880E+02  0.00000000000E+00 0. -1.
         21    1    1    2  503  504  0.10402659414E+02 -0.18903123542E+02  0.35626157796E+02  0.41650528470E+02  0.00000000000E+00 0. -1.
         21    1    1    2  504  502 -0.10402659414E+02  0.18903123542E+02  0.82245144909E+01  0.23090821578E+02  0.00000000000E+00 0. -1.
</event>
<event>
 4    1  0.1589319E+006  0.4305218E+02  0.7546771E-02  0.1331472E+00
         21   -1    0    0  503  501  0.00000000000E+00  0.00000000000E+00  0.13252616893E+03  0.13252616893E+03  0.00000000000E+00 0. -1.
         21   -1    0    0  504  502 -0.00000000000E+00 -0.00000000000E+00 -0.24729877018E+02  0.24729877018E+02  0.00000000000E+00 0. -1.
         21    1    1    2  503  502 -0.12726142775E+02 -0.41128283071E+02  0.10572442590E+03  0.11415403896E+03  0.00000000000E+00 0. -1.
         21    1    1    2  504  501  0.12726142775E+02  0.41128283071E+02  0.20718660177E+01  0.43102006996E+02  0.00000000000E+00 0. -1.
</event>
<event>
 4    1  0.1589319E+006  0.2701250E+02  0.7546771E-02  0.1447483E+00
         21   -1    0    0  504  501  0.00000000000E+00  0.00000000000E+00  0.78972888915E+01  0.78972888915E+01  0.00000000000E+00 0.  1.
         21   -1    0    0  503  502 -0.00000000000E+00 -0.00000000000E+00 -0.97335132535E+02  0.97335132535E+02  0.00000000000E+00 0. -1.
         21    1    1    2  503  501 -0.11156852179E+02  0.24600810900E+02 -0.32866014552E+02  0.42542333739E+02  0.00000000000E+00 0.  1.
         21    1    1    2  504  502  0.11156852179E+02 -0.24600810900E+02 -0.56571829092E+02  0.62690087688E+02  0.00000000000E+00 0. -1.
</event>
<event>
 4    1  0.1589319E+006  0.2693974E+02  0.7546771E-02  0.1448214E+00
         21   -1    0    0  504  501  0.00000000000E+00  0.00000000000E+00  0.80869604253E+03  0.80869604253E+03  0.00000000000E+00 0. -1.
         21   -1    0    0  503  502 -0.00000000000E+00 -0.00000000000E+00 -0.19727935821E+01  0.19727935821E+01  0.00000000000E+00 0. -1.
         21    1    1    2  503  501  0.14238534717E+02 -0.22869492785E+02  0.70262250650E+03  0.70313877450E+03  0.00000000000E+00 0. -1.
         21    1    1    2  504  502 -0.14238534717E+02  0.22869492785E+02  0.10410074245E+03  0.10753006161E+03  0.00000000000E+00 0. -1.
</event>
<event>
 4    1  0.1589319E+006  0.3062052E+02  0.7546771E-02  0.1414279E+00
         21   -1    0    0  504  501  0.00000000000E+00  0.00000000000E+00  0.16033819547E+03  0.16033819547E+03  0.00000000000E+00 0.  1.
         21   -1    0    0  503  502 -0.00000000000E+00 -0.00000000000E+00 -0.14245171512E+03  0.14245171512E+03  0.00000000000E+00 0.  1.
         21    1    1    2  503  501 -0.23982260428E+02  0.19038580892E+02  0.15719819899E+03  0.16015270882E+03  0.00000000000E+00 0.  1.
         21    1    1    2  504  502  0.23982260428E+02 -0.19038580892E+02 -0.13931171864E+03  0.14263720177E+03  0.00000000000E+00 0.  1.
</event>
<event>
 4    1  0.1589319E+006  0.2477941E+02  0.7546771E-02  0.1471286E+00
         21   -1    0    0  504  501  0.00000000000E+00  0.00000000000E+00  0.43881250296E+02  0.43881250296E+02  0.00000000000E+00 0.  1.
         21   -1    0    0  501  502 -0.00000000000E+00 -0.00000000000E+00 -0.24424797927E+02  0.24424797927E+02  0.00000000000E+00 0. -1.
         21    1    1    2  503  502 -0.18477024090E+02 -0.16511171903E+02 -0.12591996964E+02  0.27795280254E+02  0.00000000000E+00 0. -1.
         21    1    1    2  504  503  0.18477024090E+02  0.16511171903E+02  0.32048449333E+02  0.40510767970E+02  0.00000000000E+00 0.  1.
</event>
<event>
 4    1  0.1589319E+006  0.2342050E+02  0.7546771E-02  0.1487284E+00
         21   -1    0    0  504  501  0.00000000000E+00  0.00000000000E+00  0.39931585805E+02  0.39931585805E+02  0.00000000000E+00 0. -1.
         21   -1    0    0  503  502 -0.00000000000E+00 -0.00000000000E+00 -0.14113242595E+02  0.14113242595E+02  0.00000000000E+00 0. -1.
         21    1    1    2  503  501 -0.21250520718E+02 -0.98455711036E+01  0.17324244003E+02  0.29131586489E+02  0.00000000000E+00 0. -1.
         21    1    1    2  504  502  0.21250520718E+02  0.98455711036E+01  0.84940992073E+01  0.24913241910E+02  0.00000000000E+00 0. -1.
</event>
<event>
 4    1  0.1589319E+006  0.2230632E+02  0.7546771E-02  0.1501397E+00
         21   -1    0    0  502  501  0.00000000000E+00  0.00000000000E+00  0.87297859448E+02  0.87297859448E+02  0.00000000000E+00 0. -1.
         21   -1    0    0  503  502 -0.00000000000E+00 -0.00000000000E+00 -0.16830510667E+02  0.16830510667E+02  0.00000000000E+00 0.  1.
         21    1    1    2  503  504 -0.21725956643E+02  0.50551618379E+01 -0.71066100727E+01  0.23411017919E+02  0.00000000000E+00 0.  1.
         21    1    1    2  504  501  0.21725956643E+02 -0.50551618379E+01  0.77573958854E+02  0.80717352196E+02  0.00000000000E+00 0. -1.
</event>
<event>
 4    1  0.1589319E+006  0.3195964E+02  0.7546771E-02  0.1403298E+00
         21   -1    0    0  502  501  0.00000000000E+00  0.00000000000E+00  0.93452075661E+03  0.93452075661E+03  0.00000000000E+00 0.  1.
         21   -1    0    0  504  502 -0.00000000000E+00 -0.00000000000E+00 -0.81429548444E+01  0.81429548444E+01  0.00000000000E+00 0. -1.
         21    1    1    2  503  501  0.31900951925E+02 -0.19359135897E+01  0.90174925208E+03  0.90231542828E+03  0.00000000000E+00 0.  1.
         21    1    1    2  504  503 -0.31900951925E+02  0.19359135897E+01  0.24628549688E+02  0.40348283172E+02  0.00000000000E+00 0. -1.
</event>
<event>
 4    1  0.1589319E+006  0.3105211E+02  0.7546771E-02  0.1410669E+00
         21   -1    0    0  503  501  0.00000000000E+00  0.00000000000E+00  0.24307629020E+02  0.24307629020E+02  0.00000000000E+00 0.  1.
         21   -1    0    0  501  502 -0.00000000000E+00 -0.00000000000E+00 -0.51534770021E+02  0.51534770021E+02  0.00000000000E+00 0.  1.
         21    1    1    2  503  504 -0.25033558674E+02  0.18372652511E+02  0.45834116268E+01  0.31388550178E+02  0.00000000000E+00 0.  1.
         21    1    1    2  504  502  0.25033558674E+02 -0.18372652511E+02 -0.31810552628E+02  0.44453848862E+02  0.00000000000E+00 0.  1.
</event>
<event>
 4    1  0.1589319E+006  0.2265207E+02  0.7546771E-02  0.1496914E+00
         21   -1    0    0  503  501  0.00000000000E+00  0.00000000000E+00  0.15432761088E+02  0.15432761088E+02  0.00000000000E+00 0. -1.
         21   -1    0    0  504  502 -0.00000000000E+00 -0.00000000000E+00 -0.44960529187E+02  0.44960529187E+02  0.00000000000E+00 0. -1.
         21    1    1    2  503  502  0.11630439953E+02  0.19438340868E+02  0.64811503273E+00  0.22661338934E+02  0.00000000000E+00 0. -1.
         21    1    1    2  504  501 -0.11630439953E+02 -0.19438340868E+02 -0.30175883131E+02  0.37731951340E+02  0.00000000000E+00 0. -1.
</event>
<event>
 4    1  0.1589319E+006  0.2745280E+02  0.7546771E-02  0.1443112E+00
         21   -1    0    0  502  501  0.00000000000E+00  0.00000000000E+00  0.27906185344E+03  0.27906185344E+03  0.00000000000E+00 0.  1.
         21   -1    0    0  504  502 -0.00000000000E+00 -0.00000000000E+00 -0.81612678843E+02  0.81612678843E+02  0.00000000000E+00 0. -1.
         21    1    1    2  503  501  0.10050773221E+02  0.25546783062E+02  0.27605294542E+03  0.27741464425E+03  0.00000000000E+00 0.  1.
         21    1    1    2  504  503 -0.10050773221E+02 -0.25546783062E+02 -0.78603770827E+02  0.83259888034E+02  0.00000000000E+00 0. -1.
</event>
<event>
 4    1  0.1589319E+006  0.2084527E+02  0.7546771E-02  0.1521486E+00
         21   -1    0    0  504  501  0.00000000000E+00  0.00000000000E+00  0.55110724317E+01  0.55110724317E+01  0.00000000000E+00 0. -1.
         21   -1    0    0  503  502 -0.00000000000E+00 -0.00000000000E+00 -0.84565685704E+02  0.84565685704E+02  0.00000000000E+00 0. -1.
         21    1    1    2  503  501  0.81909077376E+01  0.19168572515E+02 -0.51240566422E+02  0.55318358518E+02  0.00000000000E+00 0. -1.
         21    1    1    2  504  502 -0.81909077376E+01 -0.19168572515E+02 -0.27814046850E+02  0.34758399618E+02  0.00000000000E+00 0. -1.
</event>
<event>
 4    1  0.1589319E+006  0.2173521E+02  0.7546771E-02  0.1509022E+00
         21   -1    0    0  502  501  0.00000000000E+00  0.00000000000E+00  0.22545912442E+03  0.22545912442E+03  0.00000000000E+00 0.  1.
         21   -1    0    0  503  502 -0.00000000000E+00 -0.00000000000E+00 -0.35928190424E+03  0.35928190424E+03  0.00000000000E+00 0.  1.
         21    1    1    2  503  504  0.64707974912E+01  0.20749656209E+02 -0.35842809118E+03  0.35908650212E+03  0.00000000000E+00 0.  1.
         21    1    1    2  504  501 -0.64707974912E+01 -0.20749656209E+02  0.22460531137E+03  0.22565452654E+03  0.00000000000E+00 0.  1.
</event>
<event>
 4    1  0.1589319E+006  0.2041653E+02  0.7546771E-02  0.1527761E+00
         21   -1    0    0  503  501  0.00000000000E+00  0.00000000000E+00  0.62513037498E+01  0.62513037498E+01  0.00000000000E+00 0. -1.
         21   -1    0    0  501  502 -0.00000000000E+00 -0.00000000000E+00 -0.70180191854E+02  0.70180191854E+02  0.00000000000E+00 0. -1.
         21    1    1    2  503  504  0.15749535848E+02 -0.12991803269E+02 -0.23429476479E+02  0.31076923910E+02  0.00000000000E+00 0. -1.
         21    1    1    2  504  502 -0.15749535848E+02  0.12991803269E+02 -0.40499411625E+02  0.45354571695E+02  0.00000000000E+00 0. -1.
</event>
<event>
 4    1  0.1589319E+006  0.2174304E+02  0.7546771E-02  0.1508915E+00
         21   -1    0    0  502  501  0.00000000000E+00  0.00000000000E+00  0.12271024798E+03  0.12271024798E+03  0.00000000000E+00 0. -1.
         21   -1    0    0  504  502 -0.00000000000E+00 -0.00000000000E+00 -0.89535381298E+01  0.89535381298E+01  0.00000000000E+00 0. -1.
         21    1    1    2  503  501 -0.35297803733E+01  0.21454616588E+02  0.10656753156E+03  0.10876303925E+03  0.00000000000E+00 0. -1.
         21    1    1    2  504  503  0.35297803733E+01 -0.21454616588E+02  0.71891782842E+01  0.22900746862E+02  0.00000000000E+00 0. -1.
</event>
<event>
 4    1  0.1589319E+006  0.3848013E+02  0.7546771E-02  0.1357630E+00
         21   -1    0    0  503  501  0.00000000000E+00  0.00000000000E+00  0.53668249810E+02  0.53668249810E+02  0.00000000000E+00 0. -1.
         21   -1    0    0  504  502 -0.00000000000E+00 -0.00000000000E+00 -0.17961391698E+03  0.17961391698E+03  0.00000000000E+00 0.  1.
         21    1    1    2  503  502  0.23489695426E+02  0.30478754650E+02  0.44336416265E+02  0.58706371745E+02  0.00000000000E+00 0. -1.
         21    1    1    2  504  501 -0.23489695426E+02 -0.30478754650E+02 -0.17028208343E+03  0.17457579504E+03  0.00000000000E+00 0.  1.
</event>
<event>
 4    1  0.1589319E+006  0.2077248E+02  0.7546771E-02  0.1522538E+00
         21   -1    0    0  502  501  0.00000000000E+00  0.00000000000E+00  0.25330671733E+01  0.25330671733E+01  0.00000000000E+00 0.  1.
         21   -1    0    0  503  502 -0.00000000000E+00 -0.00000000000E+00 -0.27542990021E+03  0.27542990021E+03  0.00000000000E+00 0.  1.
         21    1    1    2  503  504  0.60592374420E+01  0.19869111869E+02 -0.22229460935E+03  0.22326304959E+03  0.00000000000E+00 0.  1.
         21    1    1    2  504  501 -0.60592374420E+01 -0.19869111869E+02 -0.50602223681E+02  0.54699917791E+02  0.00000000000E+00 0.  1.
</event>
<event>
 4    1  0.1589319E+006  0.4598379E+02  0.7546771E-02  0.1316592E+00
         21   -1    0    0  503  501  0.00000000000E+00  0.00000000000E+00  0.24437360855E+03  0.24437360855E+03  0.00000000000E+00 0. -1.
         21   -1    0    0  501  502 -0.00000000000E+00 -0.00000000000E+00 -0.20618089859E+02  0.20618089859E+02  0.00000000000E+00 0.  1.
         21    1    1    2  503  504  0.45857092904E+02  0.34111606645E+01  0.21281238782E+03  0.21772372722E+03  0.00000000000E+00 0. -1.
         21    1    1    2  504  502 -0.45857092904E+02 -0.34111606645E+01  0.10943130870E+02  0.47267971184E+02  0.00000000000E+00 0.  1.
</event>
<event>
 4    1  0.1589319E+006  0.2144640E+02  0.7546771E-02  0.1512986E+00
         21   -1    0    0  504  501  0.00000000000E+00  0.00000000000E+00  0.17837095412E+03  0.17837095412E+03  0.00000000000E+00 0. -1.
         21   -1    0    0  503  502 -0.00000000000E+00 -0.00000000000E+00 -0.12426566524E+03  0.12426566524E+03  0.00000000000E+00 0.  1.
         21    1    1    2  503  501 -0.49378768169E+01  0.20870205490E+02  0.17679274062E+03  0.17808880156E+03  0.00000000000E+00 0. -1.
         21    1    1    2  504  502  0.49378768169E+01 -0.20870205490E+02 -0.12268745174E+03  0.12454781781E+03  0.00000000000E+00 0.  1.
</event>
<event>
 4    1  0.1589319E+006  0.2074196E+02  0.7546771E-02  0.1522981E+00
         21   -1    0    0  502  501  0.00000000000E+00  0.00000000000E+00  0.56733412736E+01  0.56733412736E+01  0.00000000000E+00 0.  1.
         21   -1    0    0  504  502 -0.00000000000E+00 -0.00000000000E+00 -0.34463935733E+03  0.34463935733E+03  0.00000000000E+00 0.  1.
         21    1    1    2  503  501 -0.49671246590E+01 -0.20138433653E+02 -0.14792779032E+02  0.25476560774E+02  0.00000000000E+00 0.  1.
         21    1    1    2  504  503  0.49671246590E+01  0.20138433653E+02 -0.32417323703E+03  0.32483613783E+03  0.00000000000E+00 0.  1.
</event>
<event>
 4    1  0.1589319E+006  0.2318329E+02  0.7546771E-02  0.1490209E+00
         21   -1    0    0  503  501  0.00000000000E+00  0.00000000000E+00  0.20720078779E+03  0.20720078779E+03  0.00000000000E+00 0. -1.
         21   -1    0    0  501  502 -0.00000000000E+00 -0.00000000000E+00 -0.17340047397E+02  0.17340047397E+02  0.00000000000E+00 0. -1.
         21    1    1    2  503  504  0.84748657426E+01  0.21578726341E+02  0.19846342067E+03  0.19981289779E+03  0.00000000000E+00 0. -1.
         21    1    1    2  504  502 -0.84748657426E+01 -0.21578726341E+02 -0.86026802778E+01  0.24727937395E+02  0.00000000000E+00 0. -1.
</event>
<event>
 4    1  0.1589319E+006  0.2085247E+02  0.7546771E-02  0.1521382E+00
         21   -1    0    0  503  501  0.00000000000E+00  0.00000000000E+00  0.12040660380E+01  0.12040660380E+01  0.00000000000E+00 0. -1.
         21   -1    0    0  504  502 -0.00000000000E+00 -0.00000000000E+00 -0.42854894243E+03  0.42854894243E+03  0.00000000000E+00 0. -1.
         21    1    1    2  503  502  0.15253188469E+02 -0.14218494703E+02 -0.12844546644E+03  0.13012710401E+03  0.00000000000E+00 0. -1.
         21    1    1    2  504  501 -0.15253188469E+02  0.14218494703E+02 -0.29889940996E+03  0.29962590446E+03  0.00000000000E+00 0. -1.
</event>
<event>
 4    1  0.1589319E+006  0.2104159E+02  0.7546771E-02  0.1518672E+00
         21   -1    0    0  504  501  0.00000000000E+00  0.00000000000E+00  0.36591220142E+01  0.36591220142E+01  0.00000000000E+00 0.  1.
         21   -1    0    0  503  502 -0.00000000000E+00 -0.00000000000E+00 -0.35035373980E+03  0.35035373980E+03  0.00000000000E+00 0.  1.
         21    1    1    2  503  501  0.17306437607E+02  0.11968105255E+02 -0.31656279663E+03  0.31726133161E+03  0.00000000000E+00 0.  1.
         21    1    1    2  504  502 -0.17306437607E+02 -0.11968105255E+02 -0.30131821155E+02  0.36751530202E+02  0.00000000000E+00 0.  1.
</event>
<event>
 4    1  0.1589319E+006  0.2384276E+02  0.7546771E-02  0.1482178E+00
         21   -1    0    0  502  501  0.00000000000E+00  0.00000000000E+00  0.34286327367E+02  0.34286327367E+02  0.00000000000E+00 0. -1.
         21   -1    0    0  504  502 -0.00000000000E+00 -0.00000000000E+00 -0.27322626723E+02  0.27322626723E+02  0.00000000000E+00 0.  1.
         21    1    1    2  503  501 -0.22274630322E+01 -0.23738487768E+02  0.22797170550E+02  0.32987700408E+02  0.00000000000E+00 0. -1.
         21    1    1    2  504  503  0.22274630322E+01  0.23738487768E+02 -0.15833469906E+02  0.28621253682E+02  0.00000000000E+00 0.  1.
</event>
<event>
 4    1  0.1589319E+006  0.2039633E+02  0.7546771E-02  0.1528061E+00
         21   -1    0    0  504  501  0.00000000000E+00  0.00000000000E+00  0.25984921870E+02  0.25984921870E+02  0.00000000000E+00 0.  1.
         21   -1    0    0  503  502 -0.00000000000E+00 -0.00000000000E+00 -0.75619128908E+03  0.75619128908E+03  0.00000000000E+00 0.  1.
         21    1    1    2  503  501  0.13137460521E+02  0.15601842750E+02 -0.75202918621E+03  0.75230572727E+03  0.00000000000E+00 0.  1.
         21    1    1    2  504  502 -0.13137460521E+02 -0.15601842750E+02  0.21822819002E+02  0.29870483681E+02  0.00000000000E+00 0.  1.
</event>
<event>
 4    1  0.1589319E+006  0.2926758E+02  0.7546771E-02  0.1426070E+00
         21   -1    0    0  504  501  0.00000000000E+00  0.00000000000E+00  0.32382081173E+03  0.32382081173E+03  0.00000000000E+00 0.  1.
         21   -1    0    0  503  502 -0.00000000000E+00 -0.00000000000E+00 -0.42568849612E+02  0.42568849612E+02  0.00000000000E+00 0. -1.
         21    1    1    2  503  501  0.16499785048E+02  0.24173293275E+02 -0.36785628541E+02  0.47008227807E+02  0.00000000000E+00 0. -1.
         21    1    1    2  504  502 -0.16499785048E+02 -0.24173293275E+02  0.31803759066E+03  0.31938143353E+03  0.00000000000E+00 0.  1.
</event>
<event>
 4    1  0.1589319E+006  0.2681926E+02  0.7546771E-02  0.1449432E+00
         21   -1    0    0  504  501  0.00000000000E+00  0.00000000000E+00  0.14445805475E+03  0.14445805475E+03  0.00000000000E+00 0. -1.
         21   -1    0    0  503  502 -0.00000000000E+00 -0.00000000000E+00 -0.15213129641E+02  0.15213129641E+02  0.00000000000E+00 0.  1.
         21    1    1    2  503  501  0.21696279403E+02  0.15765289393E+02  0.13010271430E+03  0.13283820670E+03  0.00000000000E+00 0. -1.
         21    1    1    2  504  502 -0.21696279403E+02 -0.15765289393E+02 -0.85778919378E+00  0.26832977693E+02  0.00000000000E+00 0.  1.
</event>
<event>
 4    1  0.1589319E+006  0.2346244E+02  0.7546771E-02  0.1486772E+00
         21   -1    0    0  504  501  0.00000000000E+00  0.00000000000E+00  0.14209712830E+03  0.14209712830E+03  0.00000000000E+00 0.  1.
         21   -1    0    0  501  502 -0.00000000000E+00 -0.00000000000E+00 -0.78270824629E+01  0.78270824629E+01  0.00000000000E+00 0.  1.
         21    1    1    2  503  502  0.13255686169E+02  0.19359049478E+02  0.13861785921E+02  0.27251332470E+02  0.00000000000E+00 0.  1.
         21    1    1    2  504  503 -0.13255686169E+02 -0.19359049478E+02  0.12040825992E+03  0.12267287829E+03  0.00000000000E+00 0.  1.
</event>
<event>
 4    1  0.1589319E+006  0.3396874E+02  0.7546771E-02  0.1387962E+00
         21   -1    0    0  504  501  0.00000000000E+00  0.00000000000E+00  0.25964648492E+01  0.25964648492E+01  0.00000000000E+00 0. -1.
         21   -1    0    0  503  502 -0.00000000000E+00 -0.00000000000E+00 -0.51620800459E+03  0.51620800459E+03  0.00000000000E+00 0. -1.
         21    1    1    2  503  501  0.23848707425E+02 -0.24189144233E+02 -0.16005818590E+03  0.16362303755E+03  0.00000000000E+00 0. -1.
         21    1    1    2  504  502 -0.23848707425E+02  0.24189144233E+02 -0.35355335384E+03  0.35518143189E+03  0.00000000000E+00 0. -1.
</event>
<event>
 4    1  0.1589319E+006  0.2326424E+02  0.7546771E-02  0.1489206E+00
         21   -1    0    0  503  501  0.00000000000E+00  0.00000000000E+00  0.83713281888E+02  0.83713281888E+02  0.00000000000E+00 0.  1.
         21   -1    0    0  504  502 -0.00000000000E+00 -0.00000000000E+00 -0.21048263113E+02  0.21048263113E+02  0.00000000000E+00 0. -1.
         21    1    1    2  503  502 -0.84459341104E+01 -0.21676973058E+02 -0.12267623701E+02  0.26300561880E+02  0.00000000000E+00 0. -1.
         21    1    1    2  504  501  0.84459341104E+01  0.21676973058E+02  0.74932642475E+02  0.78460983121E+02  0.00000000000E+00 0.  1.
</event>
<event>
 4    1  0.1589319E+006  0.3636473E+02  0.7546771E-02  0.1371214E+00
         21   -1    0    0  504  501  0.00000000000E+00  0.00000000000E+00  0.76567480238E+02  0.76567480238E+02  0.00000000000E+00 0. -1.
         21   -1    0    0  503  502 -0.00000000000E+00 -0.00000000000E+00 -0.47423943061E+02  0.47423943061E+02  0.00000000000E+00 0. -1.
         21    1    1    2  503  501 -0.31905862112E+02  0.17447329450E+02 -0.34862488590E+02  0.50376447400E+02  0.00000000000E+00 0. -1.
         21    1    1    2  504  502  0.31905862112E+02 -0.17447329450E+02  0.64006025767E+02  0.73614975899E+02  0.00000000000E+00 0. -1.
</event>
<event>
 4    1  0.1589319E+006  0.2363515E+02  0.7546771E-02  0.1484673E+00
         21   -1    0    0  504  501  0.00000000000E+00  0.00000000000E+00  0.28689209180E+01  0.28689209180E+01  0.00000000000E+00 0. -1.
         21   -1    0    0  501  502 -0.00000000000E+00 -0.00000000000E+00 -0.40789945541E+03  0.40789945541E+03  0.00000000000E+00 0. -1.
         21    1    1    2  503  502 -0.23089366309E+02  0.50499064168E+01 -0.35099554071E+03  0.35179040634E+03  0.00000000000E+00 0. -1.
         21    1    1    2  504  503  0.23089366309E+02 -0.50499064168E+01 -0.54034993777E+02  0.58977969987E+02  0.00000000000E+00 0. -1.
</event>
<event>
 4    1  0.1589319E+006  0.2225673E+02  0.7546771E-02  0.1502048E+00
         21   -1    0    0  504  501  0.00000000000E+00  0.00000000000E+00  0.23442186777E+02  0.23442186777E+02  0.00000000000E+00 0. -1.
         21   -1    0    0  503  502 -0.00000000000E+00 -0.00000000000E+00 -0.30682630699E+02  0.30682630699E+02  0.00000000000E+00 0. -1.
         21    1    1    2  503  501  0.21535177189E+02 -0.56212202682E+01  0.11478978249E+02  0.25042542113E+02  0.00000000000E+00 0. -1.
         21    1    1    2  504  502 -0.21535177189E+02  0.56212202682E+01 -0.18719422170E+02  0.29082275363E+02  0.00000000000E+00 0. -1.
</event>
<event>
 4    1  0.1589319E+006  0.3073166E+02  0.7546771E-02  0.1413343E+00
         21   -1    0    0  504  501  0.00000000000E+00  0.00000000000E+00  0.51073712817E+02  0.51073712817E+02  0.00000000000E+00 0. -1.
         21   -1    0    0  503  502 -0.00000000000E+00 -0.00000000000E+00 -0.14474597015E+03  0.14474597015E+03  0.00000000000E+00 0. -1.
         21    1    1    2  503  501  0.30197980225E+02  0.57023578180E+01 -0.13827825345E+03  0.14165207472E+03  0.00000000000E+00 0. -1.
         21    1    1    2  504  502 -0.30197980225E+02 -0.57023578180E+01  0.44605996115E+02  0.54167608252E+02  0.00000000000E+00 0. -1.
</event>
<event>
 4    1  0.1589319E+006  0.2071381E+02  0.7546771E-02  0.1523390E+00
         21   -1    0    0  504  501  0.00000000000E+00  0.00000000000E+00  0.14449506295E+01  0.14449506295E+01  0.00000000000E+00 0. -1.
         21   -1    0    0  503  502 -0.00000000000E+00 -0.00000000000E+00 -0.70578946729E+03  0.70578946729E+03  0.00000000000E+00 0. -1.
         21    1    1    2  503  501 -0.30788520690E+01 -0.20483715549E+02 -0.62131219826E+03  0.62165738928E+03  0.00000000000E+00 0. -1.
         21    1    1    2  504  502  0.30788520690E+01  0.20483715549E+02 -0.83032318395E+02  0.85577028640E+02  0.00000000000E+00 0. -1.
</event>
<event>
 4    1  0.1589319E+006  0.2372379E+02  0.7546771E-02  0.1483604E+00
         21   -1    0    0  503  501  0.00000000000E+00  0.00000000000E+00  0.19853885502E+03  0.19853885502E+03  0.00000000000E+00 0. -1.
         21   -1    0    0  504  502 -0.00000000000E+00 -0.00000000000E+00 -0.57093663748E+01  0.57093663748E+01  0.00000000000E+00 0.  1.
         21    1    1    2  503  502  0.14615577760E+02 -0.18686979713E+02  0.16887841974E+03  0.17053662063E+03  0.00000000000E+00 0. -1.
         21    1    1    2  504  501 -0.14615577760E+02  0.18686979713E+02  0.23951068907E+02  0.33711600761E+02  0.00000000000E+00 0.  1.
</event>
<event>
 4    1  0.1589319E+006  0.3424859E+02  0.7546771E-02  0.1385924E+00
         21   -1    0    0  503  501  0.00000000000E+00  0.00000000000E+00  0.38738761625E+03  0.38738761625E+03  0.00000000000E+00 0.  1.
         21   -1    0    0  504  502 -0.00000000000E+00 -0.00000000000E+00 -0.23368267292E+02  0.23368267292E+02  0.00000000000E+00 0. -1.
         21    1    1    2  503  502  0.34234659312E+02 -0.97656529399E+00 -0.96011701345E+01  0.35568919662E+02  0.00000000000E+00 0. -1.
         21    1    1    2  504  501 -0.34234659312E+02  0.97656529399E+00  0.37362051910E+03  0.37518696388E+03  0.00000000000E+00 0.  1.
</event>
<event>
 4    1  0.1589319E+006  0.2097249E+02  0.7546771E-02  0.1519658E+00
         21   -1    0    0  504  501  0.00000000000E+00  0.00000000000E+00  0.36238843880E+03  0.36238843880E+03  0.00000000000E+00 0.  1.
         21   -1    0    0  503  502 -0.00000000000E+00 -0.00000000000E+00 -0.12808094842E+01  0.12808094842E+01  0.00000000000E+00 0. -1.
         21    1    1    2  503  501 -0.18944390074E+02 -0.89975230267E+01  0.22216373350E+03  0.22315145041E+03  0.00000000000E+00 0. -1.
         21    1    1    2  504  502  0.18944390074E+02  0.89975230267E+01  0.13894389582E+03  0.14051779788E+03  0.00000000000E+00 0.  1.
</event>
<event>
 4    1  0.1589319E+006  0.2460853E+02  0.7546771E-02  0.1473231E+00
         21   -1    0    0  503  501  0.00000000000E+00  0.00000000000E+00  0.49743287494E+03  0.49743287494E+03  0.00000000000E+00 0. -1.
         21   -1    0    0  504  502 -0.00000000000E+00 -0.00000000000E+00 -0.12483235045E+01  0.12483235045E+01  0.00000000000E+00 0. -1.
         21    1    1    2  503  502  0.11007220512E+01 -0.24583904965E+02  0.28732970036E+03  0.28838158173E+03  0.00000000000E+00 0. -1.
         21    1    1    2  504  501 -0.11007220512E+01  0.24583904965E+02  0.20885485108E+03  0.21029961672E+03  0.00000000000E+00 0. -1.
</event>
<event>
 4    1  0.1589319E+006  0.3515506E+02  0.7546771E-02  0.1379476E+00
         21   -1    0    0  504  501  0.00000000000E+00  0.00000000000E+00  0.78222903817E+01  0.78222903817E+01  0.00000000000E+00 0.  1.
         21   -1    0    0  503  502 -0.00000000000E+00 -0.00000000000E+00 -0.28847682966E+03  0.28847682966E+03  0.00000000000E+00 0.  1.
         21    1    1    2  503  501  0.34990858786E+02 -0.33938540461E+01 -0.40690225108E+02  0.53773347145E+02  0.00000000000E+00 0.  1.
         21    1    1    2  504  502 -0.34990858786E+02  0.33938540461E+01 -0.23996431417E+03  0.24252577289E+03  0.00000000000E+00 0.  1.
</event>
<event>
 4    1  0.1589319E+006  0.2877701E+02  0.7546771E-02  0.1430530E+00
         21   -1    0    0  503  501  0.00000000000E+00  0.00000000000E+00  0.35890614421E+03  0.35890614421E+03  0.00000000000E+00 0.  1.
         21   -1    0    0  501  502 -0.00000000000E+00 -0.00000000000E+00 -0.33532415837E+02  0.33532415837E+02  0.00000000000E+00 0.  1.
         21    1    1    2  503  504  0.25050350098E+02  0.14163198070E+02  0.35203500770E+03  0.35320923384E+03  0.00000000000E+00 0.  1.
         21    1    1    2  504  502 -0.25050350098E+02 -0.14163198070E+02 -0.26661279328E+02  0.39229326211E+02  0.00000000000E+00 0.  1.
</event>
<event>
 4    1  0.1589319E+006  0.2186831E+02  0.7546771E-02  0.1507220E+00
         21   -1    0    0  503  501  0.00000000000E+00  0.00000000000E+00  0.15273419014E+02  0.15273419014E+02  0.00000000000E+00 0.  1.
         21   -1    0    0  504  502 -0.00000000000E+00 -0.00000000000E+00 -0.11431109851E+03  0.11431109851E+03  0.00000000000E+00 0. -1.
         21    1    1    2  503  502 -0.21634707735E+02  0.31878373197E+01 -0.10472896884E+03  0.10698775537E+03  0.00000000000E+00 0. -1.
         21    1    1    2  504  501  0.21634707735E+02 -0.31878373197E+01  0.56912893393E+01  0.22596762155E+02  0.00000000000E+00 0.  1.
</event>
<event>
 4    1  0.1589319E+006  0.2600087E+02  0.7546771E-02  0.1457911E+00
         21   -1    0    0  504  501  0.00000000000E+00  0.00000000000E+00  0.40674903861E+02  0.40674903861E+02  0.00000000000E+00 0. -1.
         21   -1    0    0  503  502 -0.00000000000E+00 -0.00000000000E+00 -0.50610556826E+02  0.50610556826E+02  0.00000000000E+00 0. -1.
         21    1    1    2  503  501  0.18641919127E+01 -0.25933952859E+02  0.32436838168E+02  0.41571547875E+02  0.00000000000E+00 0. -1.
         21    1    1    2  504  502 -0.18641919127E+01  0.25933952859E+02 -0.42372491132E+02  0.49713912813E+02  0.00000000000E+00 0. -1.
</event>
<event>
 4    1  0.1589319E+006  0.2337103E+02  0.7546771E-02  0.1487891E+00
         21   -1    0    0  504  501  0.00000000000E+00  0.00000000000E+00  0.15708128044E+03  0.15708128044E+03  0.00000000000E+00 0. -1.
         21   -1    0    0  503  502 -0.00000000000E+00 -0.00000000000E+00 -0.39979845462E+01  0.39979845462E+01  0.00000000000E+00 0.  1.
         21    1    1    2  503  501  0.21255102027E+02  0.97172938867E+01  0.47473827637E+02  0.52914737769E+02  0.00000000000E+00 0.  1.
         21    1    1    2  504  502 -0.21255102027E+02 -0.97172938867E+01  0.10560946825E+03  0.10816452721E+03  0.00000000000E+00 0. -1.
</event>
<event>
 4    1  0.1589319E+006  0.2851847E+02  0.7546771E-02  0.1432923E+00
         21   -1    0    0  502  501  0.00000000000E+00  0.00000000000E+00  0.99841531180E+02  0.99841531180E+02  0.00000000000E+00 0.  1.
         21   -1    0    0  504  502 -0.00000000000E+00 -0.00000000000E+00 -0.70547768229E+02  0.70547768229E+02  0.00000000000E+00 0.  1.
         21    1    1    2  503  501 -0.83364356087E+01  0.27272829737E+02  0.94772118823E+02  0.98969984878E+02  0.00000000000E+00 0.  1.
         21    1    1    2  504  503  0.83364356087E+01 -0.27272829737E+02 -0.65478355871E+02  0.71419314531E+02  0.00000000000E+00 0.  1.
</event>
<event>
 4    1  0.1589319E+006  0.2275660E+02  0.7546771E-02  0.1495577E+00
         21   -1    0    0  503  501  0.00000000000E+00  0.00000000000E+00  0.51150123572E+02  0.51150123572E+02  0.00000000000E+00 0.  1.
         21   -1    0    0  504  502 -0.00000000000E+00 -0.00000000000E+00 -0.10534485392E+02  0.10534485392E+02  0.00000000000E+00 0.  1.
         21    1    1    2  503  502  0.19872759335E+02  0.11087671670E+02  0.26393239733E+02  0.34849191243E+02  0.00000000000E+00 0.  1.
         21    1    1    2  504  501 -0.19872759335E+02 -0.11087671670E+02  0.14222398447E+02  0.26835417721E+02  0.00000000000E+00 0.  1.
</event>
<event>
 4    1  0.1589319E+006  0.2046279E+02  0.7546771E-02  0.1527075E+00
         21   -1    0    0  504  501  0.00000000000E+00  0.00000000000E+00  0.39048036985E+02  0.39048036985E+02  0.00000000000E+00 0.  1.
         21   -1    0    0  503  502 -0.00000000000E+00 -0.00000000000E+00 -0.28800777154E+02  0.28800777154E+02  0.00000000000E+00 0.  1.
         21    1    1    2  503  501 -0.20096706256E+02  0.38533070100E+01  0.32000490031E+02  0.37983640419E+02  0.00000000000E+00 0.  1.
         21    1    1    2  504  502  0.20096706256E+02 -0.38533070100E+01 -0.21753230200E+02  0.29865173721E+02  0.00000000000E+00 0.  1.
</event>
<event>
 4    1  0.1589319E+006  0.3458318E+02  0.7546771E-02  0.1383517E+00
         21   -1    0    0  502  501  0.00000000000E+00  0.00000000000E+00  0.43886906563E+02  0.43886906563E+02  0.00000000000E+00 0. -1.
         21   -1    0    0  503  502 -0.00000000000E+00 -0.00000000000E+00 -0.49650015279E+03  0.49650015279E+03  0.00000000000E+00 0.  1.
         21    1    1    2  503  504 -0.26385468048E+01 -0.34482381542E+02 -0.48898035035E+03  0.49020177437E+03  0.00000000000E+00 0.  1.
         21    1    1    2  504  501  0.26385468048E+01  0.34482381542E+02  0.36367104126E+02  0.50185284981E+02  0.00000000000E+00 0. -1.
</event>
<event>
 4    1  0.1589319E+006  0.2027683E+02  0.7546771E-02  0.1529845E+00
         21   -1    0    0  504  501  0.00000000000E+00  0.00000000000E+00  0.96880285188E+01  0.96880285188E+01  0.00000000000E+00 0. -1.
         21   -1    0    0  503  502 -0.00000000000E+00 -0.00000000000E+00 -0.46476265148E+02  0.46476265148E+02  0.00000000000E+00 0. -1.
         21    1    1    2  503  501  0.61452422617E+01 -0.19323193919E+02 -0.10117352929E+02  0.22660773508E+02  0.00000000000E+00 0. -1.
         21    1    1    2  504  502 -0.61452422617E+01  0.19323193919E+02 -0.26670883700E+02  0.33503520159E+02  0.00000000000E+00 0. -1.
</event>
<event>
 4    1  0.1589319E+006  0.2199160E+02  0.7546771E-02  0.1505564E+00
         21   -1    0    0  504  501  0.00000000000E+00  0.00000000000E+00  0.12249481610E+03  0.12249481610E+03  0.00000000000E+00 0.  1.
         21   -1    0    0  503  502 -0.00000000000E+00 -0.00000000000E+00 -0.58464873120E+01  0.58464873120E+01  0.00000000000E+00 0. -1.
         21    1    1    2  503  501 -0.21940562327E+02  0.14973782562E+01  0.21758514772E+02  0.30936441003E+02  0.00000000000E+00 0. -1.
         21    1    1    2  504  502  0.21940562327E+02 -0.14973782562E+01  0.94889814018E+02  0.97404862411E+02  0.00000000000E+00 0.  1.
</event>
<event>
 4    1  0.1589319E+006  0.2537450E+02  0.7546771E-02  0.1464657E+00
         21   -1    0    0  502  501  0.00000000000E+00  0.00000000000E+00  0.14094301521E+02  0.14094301521E+02  0.00000000000E+00 0.  1.
         21   -1    0    0  503  502 -0.00000000000E+00 -0.00000000000E+00 -0.22413410531E+03  0.22413410531E+03  0.00000000000E+00 0.  1.
         21    1    1    2  503  504  0.25163553540E+02 -0.32650798881E+01 -0.21130432353E+03  0.21282241967E+03  0.00000000000E+00 0.  1.
         21    1    1    2  504  501 -0.25163553540E+02  0.32650798881E+01  0.12645197365E+01  0.25405987161E+02  0.00000000000E+00 0.  1.
</event>
<event>
 4    1  0.1589319E+006  0.2113050E+02  0.7546771E-02  0.1517410E+00
         21   -1    0    0  503  501  0.00000000000E+00  0.00000000000E+00  0.13858826263E+04  0.13858826263E+04  0.00000000000E+00 0. -1.
         21   -1    0    0  501  502 -0.00000000000E+00 -0.00000000000E+00 -0.11053683657E+01  0.11053683657E+01  0.00000000000E+00 0. -1.
         21    1    1    2  503  504  0.60884269504E+01 -0.20234355177E+02  0.12761339642E+04  0.12763088939E+04  0.00000000000E+00 0. -1.
         21    1    1    2  504  502 -0.60884269504E+01  0.20234355177E+02  0.10864329375E+03  0.11067910077E+03  0.00000000000E+00 0. -1.
</event>
<event>
 4    1  0.1589319E+006  0.2384192E+02  0.7546771E-02  0.1482188E+00
         21   -1    0    0  502  501  0.00000000000E+00  0.00000000000E+00  0.85864298643E+02  0.85864298643E+02  0.00000000000E+00 0. -1.
         21   -1    0    0  503  502 -0.00000000000E+00 -0.00000000000E+00 -0.12535296905E+03  0.12535296905E+03  0.00000000000E+00 0.  1.
         21    1    1    2  503  504 -0.19901324216E+02 -0.13129141170E+02 -0.12252642608E+03  0.12482452540E+03  0.00000000000E+00 0.  1.
         21    1    1    2  504  501  0.19901324216E+02  0.13129141170E+02  0.83037755674E+02  0.86392742293E+02  0.00000000000E+00 0. -1.
</event>
<event>
 4    1  0.1589319E+006  0.3715254E+02  0.7546771E-02  0.1366031E+00
         21   -1    0    0  504  501  0.00000000000E+00  0.00000000000E+00  0.26884901839E+02  0.26884901839E+02  0.00000000000E+00 0. -1.
         21   -1    0    0  501  502 -0.00000000000E+00 -0.00000000000E+00 -0.10839140072E+03  0.10839140072E+03  0.00000000000E+00 0. -1.
         21    1    1    2  503  502 -0.34729845530E+02 -0.13196568681E+02 -0.89823887280E+02  0.97204127081E+02  0.00000000000E+00 0. -1.
         21    1    1    2  504  503  0.34729845530E+02  0.13196568681E+02  0.83173884037E+01  0.38072175474E+02  0.00000000000E+00 0. -1.
</event>
<event>
 4    1  0.1589319E+006  0.2111072E+02  0.7546771E-02  0.1517690E+00
         21   -1    0    0  502  501  0.00000000000E+00  0.00000000000E+00  0.52465358146E+02  0.52465358146E+02  0.00000000000E+00 0. -1.
         21   -1    0    0  504  502 -0.00000000000E+00 -0.00000000000E+00 -0.30527912480E+02  0.30527912480E+02  0.00000000000E+00 0. -1.
         21    1    1    2  503  501 -0.10096397963E+02 -0.18539823497E+02  0.46222535400E+02  0.50815205263E+02  0.00000000000E+00 0. -1.
         21    1    1    2  504  503  0.10096397963E+02  0.18539823497E+02 -0.24285089734E+02  0.32178065363E+02  0.00000000000E+00 0. -1.
</event>
<event>
 4    1  0.1589319E+006  0.2496761E+02  0.7546771E-02  0.1469166E+00
         21   -1    0    0  502  501  0.00000000000E+00  0.00000000000E+00  0.60897472006E+00  0.60897472006E+00  0.00000000000E+00 0.  1.
         21   -1    0    0  504  502 -0.00000000000E+00 -0.00000000000E+00 -0.16522662772E+04  0.16522662772E+04  0.00000000000E+00 0.  1.
         21    1    1    2  503  501 -0.24506021094E+02 -0.47787493469E+01 -0.31607505757E+03  0.31705965296E+03  0.00000000000E+00 0.  1.
         21    1    1    2  504  503  0.24506021094E+02  0.47787493469E+01 -0.13355822449E+04  0.13358155989E+04  0.00000000000E+00 0.  1.
</event>
<event>
 4    1  0.1589319E+006  0.2133110E+02  0.7546771E-02  0.1514590E+00
         21   -1    0    0  503  501  0.00000000000E+00  0.00000000000E+00  0.10188399722E+03  0.10188399722E+03  0.00000000000E+00 0. -1.
         21   -1    0    0  501  502 -0.00000000000E+00 -0.00000000000E+00 -0.69118619257E+01  0.69118619257E+01  0.00000000000E+00 0. -1.
         21    1    1    2  503  504 -0.10278283287E+02  0.18691517589E+02  0.79845363602E+02  0.82645617100E+02  0.00000000000E+00 0. -1.
         21    1    1    2  504  502  0.10278283287E+02 -0.18691517589E+02  0.15126771688E+02  0.26150242042E+02  0.00000000000E+00 0. -1.
</event>
<event>
 4    1  0.1589319E+006  0.2093645E+02  0.7546771E-02  0.1520174E+00
         21   -1    0    0  502  501  0.00000000000E+00  0.00000000000E+00  0.85096223528E+03  0.85096223528E+03  0.00000000000E+00 0.  1.
         21   -1    0    0  503  502 -0.00000000000E+00 -0.00000000000E+00 -0.97139128456E+01  0.97139128456E+01  0.00000000000E+00 0.  1.
         21    1    1    2  503  504 -0.85173605238E+01 -0.19125626469E+02  0.18513852479E+01  0.21018150381E+02  0.00000000000E+00 0.  1.
         21    1    1    2  504  501  0.85173605238E+01  0.19125626469E+02  0.83939693719E+03  0.83965799774E+03  0.00000000000E+00 0.  1.
</event>
<event>
 4    1  0.1589319E+006  0.2247695E+02  0.7546771E-02  0.1499173E+00
         21   -1    0    0  503  501  0.00000000000E+00  0.00000000000E+00  0.15244181552E+03  0.15244181552E+03  0.00000000000E+00 0.  1.
         21   -1    0    0  504  502 -0.00000000000E+00 -0.00000000000E+00 -0.92120862374E+01  0.92120862374E+01  0.00000000000E+00 0. -1.
         21    1    1    2  503  502  0.18693188495E+02  0.12481099897E+02  0.69411670115E+01  0.23524305520E+02  0.00000000000E+00 0. -1.
         21    1    1    2  504  501 -0.18693188495E+02 -0.12481099897E+02  0.13628856228E+03  0.13812959624E+03  0.00000000000E+00 0.  1.
</event>
<event>
 4    1  0.1589319E+006  0.2008627E+02  0.7546771E-02  0.1532721E+00
         21   -1    0    0  502  501  0.00000000000E+00  0.00000000000E+00  0.38123282567E+02  0.38123282567E+02  0.00000000000E+00 0.  1.
         21   -1    0    0  504  502 -0.00000000000E+00 -0.00000000000E+00 -0.54835687536E+02  0.54835687536E+02  0.00000000000E+00 0. -1.
         21    1    1    2  503  501  0.17629620707E+02 -0.96257282702E+01  0.33397938657E+02  0.38972817162E+02  0.00000000000E+00 0.  1.
         21    1    1    2  504  503 -0.17629620707E+02  0.96257282702E+01 -0.50110343626E+02  0.53986152941E+02  0.00000000000E+00 0. -1.
</event>
<event>
 4    1  0.1589319E+006  0.2787445E+02  0.7546771E-02  0.1439016E+00
         21   -1    0    0  504  501  0.00000000000E+00  0.00000000000E+00  0.17805554484E+02  0.17805554484E+02  0.00000000000E+00 0. -1.
         21   -1    0    0  503  502 -0.00000000000E+00 -0.00000000000E+00 -0.44135429347E+02  0.44135429347E+02  0.00000000000E+00 0. -1.
         21    1    1    2  503  501 -0.25809034850E+02 -0.10529902805E+02 -0.16455382276E+02  0.32369194287E+02  0.00000000000E+00 0. -1.
         21    1    1    2  504  502  0.25809034850E+02  0.10529902805E+02 -0.98744925876E+01  0.29571789544E+02  0.00000000000E+00 0. -1.
</event>
<event>
 4    1  0.1589319E+006  0.2155211E+02  0.7546771E-02  0.1511526E+00
         21   -1    0    0  502  501  0.00000000000E+00  0.00000000000E+00  0.17085401998E+03  0.17085401998E+03  0.00000000000E+00 0.  1.
         21   -1    0    0  504  502 -0.00000000000E+00 -0.00000000000E+00 -0.72183476143E+01  0.72183476143E+01  0.00000000000E+00 0.  1.
         21    1    1    2  503  501  0.20587624736E+02 -0.63751889843E+01  0.15211519538E+03  0.15363439066E+03  0.00000000000E+00 0.  1.
         21    1    1    2  504  503 -0.20587624736E+02  0.63751889843E+01  0.11520476986E+02  0.24437976938E+02  0.00000000000E+00 0.  1.
</event>
<event>
 4    1  0.1589319E+006  0.2112121E+02  0.7546771E-02  0.1517541E+00
         21   -1    0    0  502  501  0.00000000000E+00  0.00000000000E+00  0.11150497654E+02  0.11150497654E+02  0.00000000000E+00 0.  1.
         21   -1    0    0  503  502 -0.00000000000E+00 -0.00000000000E+00 -0.76920928495E+02  0.76920928495E+02  0.00000000000E+00 0.  1.
         21    1    1    2  503  504 -0.19235096170E+02 -0.87244877442E+01 -0.63390415026E+02  0.66816542325E+02  0.00000000000E+00 0.  1.
         21    1    1    2  504  501  0.19235096170E+02  0.87244877442E+01 -0.23800158152E+01  0.21254883823E+02  0.00000000000E+00 0.  1.
</event>
<event>
 4    1  0.1589319E+006  0.2448207E+02  0.7546771E-02  0.1474682E+00
         21   -1    0    0  503  501  0.00000000000E+00  0.00000000000E+00  0.29076966127E+02  0.29076966127E+02  0.00000000000E+00 0. -1.
         21   -1    0    0  504  502 -0.00000000000E+00 -0.00000000000E+00 -0.61749406589E+02  0.61749406589E+02  0.00000000000E+00 0. -1.
         21    1    1    2  503  502 -0.24439191210E+02  0.14484060922E+01  0.20729907960E+02  0.32079604599E+02  0.00000000000E+00 0. -1.
         21    1    1    2  504  501  0.24439191210E+02 -0.14484060922E+01 -0.53402348422E+02  0.58746768117E+02  0.00000000000E+00 0. -1.
</event>
<event>
 4    1  0.1589319E+006  0.2263203E+02  0.7546771E-02  0.1497171E+00
         21   -1    0    0  504  501  0.00000000000E+00  0.00000000000E+00  0.26417520465E+02  0.26417520465E+02  0.00000000000E+00 0. -1.
         21   -1    0    0  503  502 -0.00000000000E+00 -0.00000000000E+00 -0.10225838453E+03  0.10225838453E+03  0.00000000000E+00 0. -1.
         21    1    1    2  503  501 -0.11629601178E+02 -0.19415484983E+02 -0.95838609928E+02  0.98474605019E+02  0.00000000000E+00 0. -1.
         21    1    1    2  504  502  0.11629601178E+02  0.19415484983E+02  0.19997745863E+02  0.30201299977E+02  0.00000000000E+00 0. -1.
</event>
<event>
 4    1  0.1589319E+006  0.2500010E+02  0.7546771E-02  0.1468802E+00
         21   -1    0    0  504  501  0.00000000000E+00  0.00000000000E+00  0.17553106733E+02  0.17553106733E+02  0.00000000000E+00 0.  1.
         21   -1    0    0  503  502 -0.00000000000E+00 -0.00000000000E+00 -0.36485244203E+02  0.36485244203E+02  0.00000000000E+00 0.  1.
         21    1    1    2  503  501 -0.11293295324E+02 -0.22303951435E+02 -0.52728872651E+01  0.25550109765E+02  0.00000000000E+00 0.  1.
         21    1    1    2  504  502  0.11293295324E+02  0.22303951435E+02 -0.13659250205E+02  0.28488241171E+02  0.00000000000E+00 0.  1.
</event>
<event>
 4    1  0.1589319E+006  0.7301361E+02  0.7546771E-02  0.1221067E+00
         21   -1    0    0  504  501  0.00000000000E+00  0.00000000000E+00  0.32463937297E+02  0.32463937297E+02  0.00000000000E+00 0.  1.
         21   -1    0    0  501  502 -0.00000000000E+00 -0.00000000000E+00 -0.18293755512E+03  0.18293755512E+03  0.00000000000E+00 0.  1.
         21    1    1    2  503  502  0.70241215486E+02  0.19928840527E+02 -0.10969383984E+03  0.13177148985E+03  0.00000000000E+00 0.  1.
         21    1    1    2  504  503 -0.70241215486E+02 -0.19928840527E+02 -0.40779777987E+02  0.83630002573E+02  0.00000000000E+00 0.  1.
</event>
<event>
 4    1  0.1589319E+006  0.2251690E+02  0.7546771E-02  0.1498655E+00
         21   -1    0    0  504  501  0.00000000000E+00  0.00000000000E+00  0.43533855739E+02  0.43533855739E+02  0.00000000000E+00 0.  1.
         21   -1    0    0  503  502 -0.00000000000E+00 -0.00000000000E+00 -0.33140114800E+02  0.33140114800E+02  0.00000000000E+00 0.  1.
         21    1    1    2  503  501  0.16632042770E+02  0.15178471002E+02  0.36071171079E+02  0.42522231970E+02  0.00000000000E+00 0.  1.
         21    1    1    2  504  502 -0.16632042770E+02 -0.15178471002E+02 -0.25677430140E+02  0.34151738569E+02  0.00000000000E+00 0.  1.
</event>
<event>
 4    1  0.1589319E+006  0.3206566E+02  0.7546771E-02  0.1402456E+00
         21   -1    0    0  503  501  0.00000000000E+00  0.00000000000E+00  0.76031584879E+02  0.76031584879E+02  0.00000000000E+00 0. -1.
         21   -1    0    0  504  502 -0.00000000000E+00 -0.00000000000E+00 -0.13523448242E+02  0.13523448242E+02  0.00000000000E+00 0. -1.
         21    1    1    2  503  502  0.25325949387E+02 -0.19667311355E+02  0.31321829261E+02  0.44824812733E+02  0.00000000000E+00 0. -1.
         21    1    1    2  504  501 -0.25325949387E+02  0.19667311355E+02  0.31186307376E+02  0.44730220389E+02  0.00000000000E+00 0. -1.
</event>
<event>
 4    1  0.1589319E+006  0.3129239E+02  0.7546771E-02  0.1408688E+00
         21   -1    0    0  504  501  0.00000000000E+00  0.00000000000E+00  0.13920686510E+02  0.13920686510E+02  0.00000000000E+00 0.  1.
         21   -1    0    0  503  502 -0.00000000000E+00 -0.00000000000E+00 -0.73222903657E+02  0.73222903657E+02  0.00000000000E+00 0. -1.
         21    1    1    2  503  501 -0.29896958707E+02 -0.92404351974E+01 -0.38293224207E+02  0.49452854344E+02  0.00000000000E+00 0. -1.
         21    1    1    2  504  502  0.29896958707E+02  0.92404351974E+01 -0.21008992940E+02  0.37690735824E+02  0.00000000000E+00 0.  1.
</event>
<event>
 4    1  0.1589319E+006  0.2124483E+02  0.7546771E-02  0.1515798E+00
         21   -1    0    0  502  501  0.00000000000E+00  0.00000000000E+00  0.19216342076E+02  0.19216342076E+02  0.00000000000E+00 0.  1.
         21   -1    0    0  504  502 -0.00000000000E+00 -0.00000000000E+00 -0.12718881305E+03  0.12718881305E+03  0.00000000000E+00 0. -1.
         21    1    1    2  503  501 -0.19491432662E+02 -0.84514286375E+01  0.12112656453E+02  0.24455245645E+02  0.00000000000E+00 0.  1.
         21    1    1    2  504  503  0.19491432662E+02  0.84514286375E+01 -0.12008512743E+03  0.12194990948E+03  0.00000000000E+00 0. -1.
</event>
<event>
 4    1  0.1589319E+006  0.2329274E+02  0.7546771E-02  0.1488855E+00
         21   -1    0    0  503  501  0.00000000000E+00  0.00000000000E+00  0.15249242733E+04  0.15249242733E+04  0.00000000000E+00 0.  1.
         21   -1    0    0  504  502 -0.00000000000E+00 -0.00000000000E+00 -0.85519787351E+01  0.85519787351E+01  0.00000000000E+00 0. -1.
         21    1    1    2  503  502 -0.23292476540E+02 -0.11088101626E+00  0.15088054810E+04  0.15089852654E+04  0.00000000000E+00 0.  1.
         21    1    1    2  504  501  0.23292476540E+02  0.11088101626E+00  0.75668135678E+01  0.24490986618E+02  0.00000000000E+00 0. -1.
</event>
<event>
 4    1  0.1589319E+006  0.2720146E+02  0.7546771E-02  0.1445595E+00
         21   -1    0    0  504  501  0.00000000000E+00  0.00000000000E+00  0.15408329616E+02  0.15408329616E+02  0.00000000000E+00 0.  1.
         21   -1    0    0  503  502 -0.00000000000E+00 -0.00000000000E+00 -0.47278193961E+03  0.47278193961E+03  0.00000000000E+00 0.  1.
         21    1    1    2  503  501  0.15022739305E+02  0.22676788824E+02 -0.46005363773E+03  0.46085710262E+03  0.00000000000E+00 0.  1.
         21    1    1    2  504  502 -0.15022739305E+02 -0.22676788824E+02  0.26800277417E+01  0.27333166599E+02  0.00000000000E+00 0.  1.
</event>
<event>
 4    1  0.1589319E+006  0.2281463E+02  0.7546771E-02  0.1494839E+00
         21   -1    0    0  502  501  0.00000000000E+00  0.00000000000E+00  0.97389212181E+01  0.97389212181E+01  0.00000000000E+00 0. -1.
         21   -1    0    0  504  502 -0.00000000000E+00 -0.00000000000E+00 -0.63207095846E+02  0.63207095846E+02  0.00000000000E+00 0. -1.
         21    1    1    2  503  501  0.22204574732E+02  0.52406174546E+01 -0.12401121343E+02  0.25967191240E+02  0.00000000000E+00 0. -1.
         21    1    1    2  504  503 -0.22204574732E+02 -0.52406174546E+01 -0.41067053284E+02  0.46978825824E+02  0.00000000000E+00 0. -1.
</event>
<event>
 4    1  0.1589319E+006  0.2207190E+02  0.7546771E-02  0.1504493E+00
         21   -1    0    0  504  501  0.00000000000E+00  0.00000000000E+00  0.17002224807E+00  0.17002224807E+00  0.00000000000E+00 0.  1.
         21   -1    0    0  503  502 -0.00000000000E+00 -0.00000000000E+00 -0.28722944420E+04  0.28722944420E+04  0.00000000000E+00 0. -1.
         21    1    1    2  503  501  0.10020131825E+02  0.19666364033E+02 -0.15068118449E+04  0.15069734917E+04  0.00000000000E+00 0. -1.
         21    1    1    2  504  502 -0.10020131825E+02 -0.19666364033E+02 -0.13653125749E+04  0.13654909726E+04  0.00000000000E+00 0.  1.
</event>
<event>
 4    1  0.1589319E+006  0.3364181E+02  0.7546771E-02  0.1390372E+00
         21   -1    0    0  502  501  0.00000000000E+00  0.00000000000E+00  0.29622071627E+02  0.29622071627E+02  0.00000000000E+00 0. -1.
         21   -1    0    0  503  502 -0.00000000000E+00 -0.00000000000E+00 -0.98747702154E+02  0.98747702154E+02  0.00000000000E+00 0. -1.
         21    1    1    2  503  504  0.31283512491E+02  0.12373882995E+02 -0.84819395113E+02  0.91247470768E+02  0.00000000000E+00 0. -1.
         21    1    1    2  504  501 -0.31283512491E+02 -0.12373882995E+02  0.15693764585E+02  0.37122303013E+02  0.00000000000E+00 0. -1.
</event>
<event>
 4    1  0.1589319E+006  0.2147438E+02  0.7546771E-02  0.1512599E+00
         21   -1    0    0  502  501  0.00000000000E+00  0.00000000000E+00  0.17413911721E+02  0.17413911721E+02  0.00000000000E+00 0. -1.
         21   -1    0    0  504  502 -0.00000000000E+00 -0.00000000000E+00 -0.28930808146E+02  0.28930808146E+02  0.00000000000E+00 0. -1.
         21    1    1    2  503  501  0.75283265156E+01 -0.20111523789E+02  0.98370365123E+00  0.21496901221E+02  0.00000000000E+00 0. -1.
         21    1    1    2  504  503 -0.75283265156E+01  0.20111523789E+02 -0.12500600076E+02  0.24847818647E+02  0.00000000000E+00 0. -1.
</event>
<event>
 4    1  0.1589319E+006  0.2255831E+02  0.7546771E-02  0.1498120E+00
         21   -1    0    0  504  501  0.00000000000E+00  0.00000000000E+00  0.56772062737E+02  0.56772062737E+02  0.00000000000E+00 0. -1.
         21   -1    0    0  503  502 -0.00000000000E+00 -0.00000000000E+00 -0.96587293801E+02  0.96587293801E+02  0.00000000000E+00 0. -1.
         21    1    1    2  503  501  0.46629845029E+01  0.22071112311E+02  0.53127423204E+02  0.57718285833E+02  0.00000000000E+00 0. -1.
         21    1    1    2  504  502 -0.46629845029E+01 -0.22071112311E+02 -0.92942654269E+02  0.95641070705E+02  0.00000000000E+00 0. -1.
</event>
<event>
 4    1  0.1589319E+006  0.2473177E+02  0.7546771E-02  0.1471826E+00
         21   -1    0    0  503  501  0.00000000000E+00  0.00000000000E+00  0.88970431592E+01  0.88970431592E+01  0.00000000000E+00 0.  1.
         21   -1    0    0  504  502 -0.00000000000E+00 -0.00000000000E+00 -0.12925648607E+03  0.12925648607E+03  0.00000000000E+00 0. -1.
         21    1    1    2  503  502 -0.13522272064E+02 -0.20707699531E+02 -0.12917814491E+02  0.27902161079E+02  0.00000000000E+00 0.  1.
         21    1    1    2  504  501  0.13522272064E+02  0.20707699531E+02 -0.10744162842E+03  0.11025136815E+03  0.00000000000E+00 0. -1.
</event>
<event>
 4    1  0.1589319E+006  0.2703555E+02  0.7546771E-02  0.1447251E+00
         21   -1    0    0  504  501  0.00000000000E+00  0.00000000000E+00  0.21573098933E+02  0.21573098933E+02  0.00000000000E+00 0.  1.
         21   -1    0    0  503  502 -0.00000000000E+00 -0.00000000000E+00 -0.41368386244E+02  0.41368386244E+02  0.00000000000E+00 0.  1.
         21    1    1    2  503  501  0.88738648471E+01  0.25537723752E+02 -0.23286215740E+02  0.35681488972E+02  0.00000000000E+00 0.  1.
         21    1    1    2  504  502 -0.88738648471E+01 -0.25537723752E+02  0.34909284299E+01  0.27259996205E+02  0.00000000000E+00 0.  1.
</event>
<event>
 4    1  0.1589319E+006  0.2236298E+02  0.7546771E-02  0.1500656E+00
         21   -1    0    0  503  501  0.00000000000E+00  0.00000000000E+00  0.33861404124E+02  0.33861404124E+02  0.00000000000E+00 0.  1.
         21   -1    0    0  504  502 -0.00000000000E+00 -0.00000000000E+00 -0.36275285754E+02  0.36275285754E+02  0.00000000000E+00 0.  1.
         21    1    1    2  503  502 -0.17651715296E+02 -0.13730256186E+02 -0.28208658275E+02  0.35997658111E+02  0.00000000000E+00 0.  1.
         21    1    1    2  504  501  0.17651715296E+02  0.13730256186E+02  0.25794776645E+02  0.34139031767E+02  0.00000000000E+00 0.  1.
</event>
<event>
 4    1  0.1589319E+006  0.2181629E+02  0.7546771E-02  0.1507922E+00
         21   -1    0    0  504  501  0.00000000000E+00  0.00000000000E+00  0.64838710907E+00  0.64838710907E+00  0.00000000000E+00 0.  1.
         21   -1    0    0  503  502 -0.00000000000E+00 -0.00000000000E+00 -0.15369490768E+04  0.15369490768E+04  0.00000000000E+00 0. -1.
         21    1    1    2  503  501  0.20531627242E+02 -0.73758279823E+01 -0.21248595588E+03  0.21360297751E+03  0.00000000000E+00 0.  1.
         21    1    1    2  504  502 -0.20531627242E+02  0.73758279823E+01 -0.13238147339E+04  0.13239944864E+04  0.00000000000E+00 0. -1.
</event>
<event>
 4    1  0.1589319E+006  0.2138289E+02  0.7546771E-02  0.1513868E+00
         21   -1    0    0  504  501  0.00000000000E+00  0.00000000000E+00  0.17850950634E+01  0.17850950634E+01  0.00000000000E+00 0.  1.
         21   -1    0    0  503  502 -0.00000000000E+00 -0.00000000000E+00 -0.28695621134E+03  0.28695621134E+03  0.00000000000E+00 0.  1.
         21    1    1    2  503  501  0.20792664384E+02 -0.49893045474E+01 -0.18989907068E+03  0.19109914991E+03  0.00000000000E+00 0.  1.
         21    1    1    2  504  502 -0.20792664384E+02  0.49893045474E+01 -0.95272045591E+02  0.97642156486E+02  0.00000000000E+00 0.  1.
</event>
<event>
 4    1  0.1589319E+006  0.2147866E+02  0.7546771E-02  0.1512539E+00
         21   -1    0    0  502  501  0.00000000000E+00  0.00000000000E+00  0.23321899294E+02  0.23321899294E+02  0.00000000000E+00 0.  1.
         21   -1    0    0  503  502 -0.00000000000E+00 -0.00000000000E+00 -0.62107484767E+02  0.62107484767E+02  0.00000000000E+00 0. -1.
         21    1    1    2  503  504  0.12808545273E+02  0.17241633712E+02 -0.54655114911E+02  0.58724052577E+02  0.00000000000E+00 0. -1.
         21    1    1    2  504  501 -0.12808545273E+02 -0.17241633712E+02  0.15869529439E+02  0.26705331484E+02  0.00000000000E+00 0.  1.
</event>
<event>
 4    1  0.1589319E+006  0.2331262E+02  0.7546771E-02  0.1488609E+00
         21   -1    0    0  503  501  0.00000000000E+00  0.00000000000E+00  0.23021366615E+01  0.23021366615E+01  0.00000000000E+00 0.  1.
         21   -1    0    0  504  502 -0.00000000000E+00 -0.00000000000E+00 -0.26503726520E+03  0.26503726520E+03  0.00000000000E+00 0.  1.
         21    1    1    2  503  502  0.10945301124E+02 -0.20583458971E+02 -0.87180929843E+02  0.90244074200E+02  0.00000000000E+00 0.  1.
         21    1    1    2  504  501 -0.10945301124E+02  0.20583458971E+02 -0.17555419869E+03  0.17709532766E+03  0.00000000000E+00 0.  1.
</event>
<event>
 4    1  0.1589319E+006  0.2351473E+02  0.7546771E-02  0.1486134E+00
         21   -1    0    0  503  501  0.00000000000E+00  0.00000000000E+00  0.22272872923E+02  0.22272872923E+02  0.00000000000E+00 0.  1.
         21   -1    0    0  501  502 -0.00000000000E+00 -0.00000000000E+00 -0.26547189352E+02  0.26547189352E+02  0.00000000000E+00 0.  1.
         21    1    1    2  503  504 -0.45778559145E+01  0.23064812030E+02  0.40786295846E+01  0.23865823640E+02  0.00000000000E+00 0.  1.
         21    1    1    2  504  502  0.45778559145E+01 -0.23064812030E+02 -0.83529460137E+01  0.24954238635E+02  0.00000000000E+00 0.  1.
</event>
<event>
 4    1  0.1589319E+006  0.2139024E+02  0.7546771E-02  0.1513766E+00
         21   -1    0    0  502  501  0.00000000000E+00  0.00000000000E+00  0.88835461792E+02  0.88835461792E+02  0.00000000000E+00 0. -1.
         21   -1    0    0  503  502 -0.00000000000E+00 -0.00000000000E+00 -0.86741369615E+02  0.86741369615E+02  0.00000000000E+00 0. -1.
         21    1    1    2  503  504  0.20487443292E+02 -0.61487387916E+01 -0.84095179129E+02  0.86772930538E+02  0.00000000000E+00 0. -1.
         21    1    1    2  504  501 -0.20487443292E+02  0.61487387916E+01  0.86189271306E+02  0.88803900870E+02  0.00000000000E+00 0. -1.
</event>
<event>
 4    1  0.1589319E+006  0.2072792E+02  0.7546771E-02  0.1523185E+00
         21   -1    0    0  504  501  0.00000000000E+00  0.00000000000E+00  0.48769882211E+02  0.48769882211E+02  0.00000000000E+00 0.  1.
         21   -1    0    0  503  502 -0.00000000000E+00 -0.00000000000E+00 -0.24520976175E+02  0.24520976175E+02  0.00000000000E+00 0. -1.
         21    1    1    2  503  501  0.20419553241E+02 -0.35620869885E+01 -0.17208586457E+02  0.26940342725E+02  0.00000000000E+00 0. -1.
         21    1    1    2  504  502 -0.20419553241E+02  0.35620869885E+01  0.41457492493E+02  0.46350515662E+02  0.00000000000E+00 0.  1.
</event>
<event>
 4    1  0.1589319E+006  0.2047201E+02  0.7546771E-02  0.1526938E+00
         21   -1    0    0  503  501  0.00000000000E+00  0.00000000000E+00  0.77979228524E+02  0.77979228524E+02  0.00000000000E+00 0.  1.
         21   -1    0    0  504  502 -0.00000000000E+00 -0.00000000000E+00 -0.10654014289E+02  0.10654014289E+02  0.00000000000E+00 0.  1.
         21    1    1    2  503  502  0.15577800526E+02  0.13282903109E+02  0.24661791096E+01  0.20620024821E+02  0.00000000000E+00 0.  1.
         21    1    1    2  504  501 -0.15577800526E+02 -0.13282903109E+02  0.64859035125E+02  0.68013217992E+02  0.00000000000E+00 0.  1.
</event>
<event>
 4    1  0.1589319E+006  0.3755219E+02  0.7546771E-02  0.1363459E+00
         21   -1    0    0  503  501  0.00000000000E+00  0.00000000000E+00  0.41053137559E+02  0.41053137559E+02  0.00000000000E+00 0. -1.
         21   -1    0    0  504  502 -0.00000000000E+00 -0.00000000000E+00 -0.37859198461E+02  0.37859198461E+02  0.00000000000E+00 0. -1.
         21    1    1    2  503  502 -0.10711000496E+02 -0.35992239023E+02  0.13609816218E+02  0.39942382240E+02  0.00000000000E+00 0. -1.
         21    1    1    2  504  501  0.10711000496E+02  0.35992239023E+02 -0.10415877121E+02  0.38969953781E+02  0.00000000000E+00 0. -1.
</event>
<event>
 4    1  0.1589319E+006  0.3039819E+02  0.7546771E-02  0.1416167E+00
         21   -1    0    0  503  501  0.00000000000E+00  0.00000000000E+00  0.83761215445E+03  0.83761215445E+03  0.00000000000E+00 0. -1.
         21   -1    0    0  501  502 -0.00000000000E+00 -0.00000000000E+00 -0.58534687589E+01  0.58534687589E+01  0.00000000000E+00 0. -1.
         21    1    1    2  503  504  0.62236228452E+01 -0.29754267146E+02  0.79579749035E+03  0.79637785978E+03  0.00000000000E+00 0. -1.
         21    1    1    2  504  502 -0.62236228452E+01  0.29754267146E+02  0.35961195341E+02  0.47087763433E+02  0.00000000000E+00 0. -1.
</event>
<event>
 4    1  0.1589319E+006  0.2783050E+02  0.7546771E-02  0.1439439E+00
         21   -1    0    0  503  501  0.00000000000E+00  0.00000000000E+00  0.90077591964E+02  0.90077591964E+02  0.00000000000E+00 0. -1.
         21   -1    0    0  504  502 -0.00000000000E+00 -0.00000000000E+00 -0.10175252658E+02  0.10175252658E+02  0.00000000000E+00 0. -1.
         21    1    1    2  503  502 -0.43246451109E+01  0.27492437313E+02  0.59683075225E+02  0.65852912867E+02  0.00000000000E+00 0. -1.
         21    1    1    2  504  501  0.43246451109E+01 -0.27492437313E+02  0.20219264081E+02  0.34399931754E+02  0.00000000000E+00 0. -1.
</event>
<event>
 4    1  0.1589319E+006  0.4167718E+02  0.7546771E-02  0.1338928E+00
         21   -1    0    0  504  501  0.00000000000E+00  0.00000000000E+00  0.57070136850E+02  0.57070136850E+02  0.00000000000E+00 0. -1.
         21   -1    0    0  503  502 -0.00000000000E+00 -0.00000000000E+00 -0.74270957174E+02  0.74270957174E+02  0.00000000000E+00 0. -1.
         21    1    1    2  503  501  0.41389789528E+02 -0.48859449089E+01  0.41850775557E+02  0.59063309673E+02  0.00000000000E+00 0. -1.
         21    1    1    2  504  502 -0.41389789528E+02  0.48859449089E+01 -0.59051595880E+02  0.72277784352E+02  0.00000000000E+00 0. -1.
</event>
<event>
 4    1  0.1589319E+006  0.2035913E+02  0.7546771E-02  0.1528615E+00
         21   -1    0    0  504  501  0.00000000000E+00  0.00000000000E+00  0.65157947992E+03  0.65157947992E+03  0.00000000000E+00 0. -1.
         21   -1    0    0  501  502 -0.00000000000E+00 -0.00000000000E+00 -0.10269979910E+03  0.10269979910E+03  0.00000000000E+00 0.  1.
         21    1    1    2  503  502  0.19687324808E+02  0.51868605158E+01 -0.10152995544E+03  0.10355107982E+03  0.00000000000E+00 0.  1.
         21    1    1    2  504  503 -0.19687324808E+02 -0.51868605158E+01  0.65040963627E+03  0.65072819919E+03  0.00000000000E+00 0. -1.
</event>
<event>
 4    1  0.1589319E+006  0.2108195E+02  0.7546771E-02  0.1518098E+00
         21   -1    0    0  504  501  0.00000000000E+00  0.00000000000E+00  0.27399822344E+02  0.27399822344E+02  0.00000000000E+00 0. -1.
         21   -1    0    0  503  502 -0.00000000000E+00 -0.00000000000E+00 -0.26735763537E+03  0.26735763537E+03  0.00000000000E+00 0.  1.
         21    1    1    2  503  501  0.18450052966E+02 -0.10200207509E+02 -0.26281687581E+03  0.26366106822E+03  0.00000000000E+00 0.  1.
         21    1    1    2  504  502 -0.18450052966E+02  0.10200207509E+02  0.22859062785E+02  0.31096389487E+02  0.00000000000E+00 0. -1.
</event>
<event>
 4    1  0.1589319E+006  0.2395335E+02  0.7546771E-02  0.1480862E+00
         21   -1    0    0  502  501  0.00000000000E+00  0.00000000000E+00  0.19506185592E+01  0.19506185592E+01  0.00000000000E+00 0. -1.
         21   -1    0    0  504  502 -0.00000000000E+00 -0.00000000000E+00 -0.29420915870E+03  0.29420915870E+03  0.00000000000E+00 0. -1.
         21    1    1    2  503  501 -0.22099430053E+02 -0.92400317832E+01 -0.14392773441E+03  0.14590735323E+03  0.00000000000E+00 0. -1.
         21    1    1    2  504  503  0.22099430053E+02  0.92400317832E+01 -0.14833080573E+03  0.15025242402E+03  0.00000000000E+00 0. -1.
</event>
<event>
 4    1  0.1589319E+006  0.3890705E+02  0.7546771E-02  0.1355012E+00
         21   -1    0    0  504  501  0.00000000000E+00  0.00000000000E+00  0.27770788581E+03  0.27770788581E+03  0.00000000000E+00 0. -1.
         21   -1    0    0  503  502 -0.00000000000E+00 -0.00000000000E+00 -0.24306261592E+02  0.24306261592E+02  0.00000000000E+00 0.  1.
         21    1    1    2  503  501 -0.34255918197E+02  0.18446965190E+02 -0.63004058576E+01  0.39413875351E+02  0.00000000000E+00 0.  1.
         21    1    1    2  504  502  0.34255918197E+02 -0.18446965190E+02  0.25970203008E+03  0.26260027205E+03  0.00000000000E+00 0. -1.
</event>
<event>
 4    1  0.1589319E+006  0.2207987E+02  0.7546771E-02  0.1504387E+00
         21   -1    0    0  504  501  0.00000000000E+00  0.00000000000E+00  0.23182160651E+01  0.23182160651E+01  0.00000000000E+00 0.  1.
         21   -1    0    0  503  502 -0.00000000000E+00 -0.00000000000E+00 -0.21944105996E+03  0.21944105996E+03  0.00000000000E+00 0.  1.
         21    1    1    2  503  501  0.32142756111E+01 -0.21844663052E+02 -0.85931096824E+02  0.88722456419E+02  0.00000000000E+00 0.  1.
         21    1    1    2  504  502 -0.32142756111E+01  0.21844663052E+02 -0.13119174707E+03  0.13303681961E+03  0.00000000000E+00 0.  1.
</event>
<event>
 4    1  0.1589319E+006  0.2063361E+02  0.7546771E-02  0.1524561E+00
         21   -1    0    0  504  501  0.00000000000E+00  0.00000000000E+00  0.36935376300E+03  0.36935376300E+03  0.00000000000E+00 0.  1.
         21   -1    0    0  503  502 -0.00000000000E+00 -0.00000000000E+00 -0.14411091481E+01  0.14411091481E+01  0.00000000000E+00 0. -1.
         21    1    1    2  503  501  0.20190789710E+02  0.42517871634E+01  0.10101386476E+03  0.10309969232E+03  0.00000000000E+00 0. -1.
         21    1    1    2  504  502 -0.20190789710E+02 -0.42517871634E+01  0.26689878910E+03  0.26769517983E+03  0.00000000000E+00 0.  1.
</event>
<event>
 4    1  0.1589319E+006  0.2281921E+02  0.7546771E-02  0.1494781E+00
         21   -1    0    0  503  501  0.00000000000E+00  0.00000000000E+00  0.90592063563E+03  0.90592063563E+03  0.00000000000E+00 0.  1.
         21   -1    0    0  504  502 -0.00000000000E+00 -0.00000000000E+00 -0.75486438642E+01  0.75486438642E+01  0.00000000000E+00 0.  1.
         21    1    1    2  503  502 -0.22727446245E+02 -0.20444013140E+01  0.10184676115E+02  0.24988877868E+02  0.00000000000E+00 0.  1.
         21    1    1    2  504  501  0.22727446245E+02  0.20444013140E+01  0.88818731565E+03  0.88848040162E+03  0.00000000000E+00 0.  1.
</event>
<event>
 4    1  0.1589319E+006  0.2375742E+02  0.7546771E-02  0.1483200E+00
         21   -1    0    0  504  501  0.00000000000E+00  0.00000000000E+00  0.56614554547E+01  0.56614554547E+01  0.00000000000E+00 0. -1.
         21   -1    0    0  501  502 -0.00000000000E+00 -0.00000000000E+00 -0.13487780547E+03  0.13487780547E+03  0.00000000000E+00 0. -1.
         21    1    1    2  503  502 -0.23756948022E+02  0.15023024911E+00 -0.10049761155E+03  0.10326754125E+03  0.00000000000E+00 0. -1.
         21    1    1    2  504  503  0.23756948022E+02 -0.15023024911E+00 -0.28718738461E+02  0.37271719672E+02  0.00000000000E+00 0. -1.
</event>
<event>
 4    1  0.1589319E+006  0.2648711E+02  0.7546771E-02  0.1452829E+00
         21   -1    0    0  504  501  0.00000000000E+00  0.00000000000E+00  0.62097941586E+01  0.62097941586E+01  0.00000000000E+00 0. -1.
         21   -1    0    0  503  502 -0.00000000000E+00 -0.00000000000E+00 -0.12799493002E+03  0.12799493002E+03  0.00000000000E+00 0. -1.
         21    1    1    2  503  501  0.24552540502E+02  0.99367880848E+01 -0.83877290845E+02  0.87960030253E+02  0.00000000000E+00 0. -1.
         21    1    1    2  504  502 -0.24552540502E+02 -0.99367880848E+01 -0.37907845019E+02  0.46244693928E+02  0.00000000000E+00 0. -1.
</event>
<event>
 4    1  0.1589319E+006  0.2023114E+02  0.7546771E-02  0.1530531E+00
         21   -1    0    0  503  501  0.00000000000E+00  0.00000000000E+00  0.12940219597E+03  0.12940219597E+03  0.00000000000E+00 0.  1.
         21   -1    0    0  504  502 -0.00000000000E+00 -0.00000000000E+00 -0.35918096996E+01  0.35918096996E+01  0.00000000000E+00 0.  1.
         21    1    1    2  503  502  0.97190568764E+01 -0.17743705245E+02  0.39929018395E+02  0.44761877221E+02  0.00000000000E+00 0.  1.
         21    1    1    2  504  501 -0.97190568764E+01  0.17743705245E+02  0.85881367879E+02  0.88232128452E+02  0.00000000000E+00 0.  1.
</event>
<event>
 4    1  0.1589319E+006  0.4166741E+02  0.7546771E-02  0.1338982E+00
         21   -1    0    0  504  501  0.00000000000E+00  0.00000000000E+00  0.78136685681E+02  0.78136685681E+02  0.00000000000E+00 0.  1.
         21   -1    0    0  503  502 -0.00000000000E+00 -0.00000000000E+00 -0.15092038466E+03  0.15092038466E+03  0.00000000000E+00 0.  1.
         21    1    1    2  503  501  0.14621696629E+02 -0.39017675171E+02 -0.14215398192E+03  0.14813482900E+03  0.00000000000E+00 0.  1.
         21    1    1    2  504  502 -0.14621696629E+02  0.39017675171E+02  0.69370282940E+02  0.80922241339E+02  0.00000000000E+00 0.  1.
</event>
<event>
 4    1  0.1589319E+006  0.2261449E+02  0.7546771E-02  0.1497397E+00
         21   -1    0    0  502  501  0.00000000000E+00  0.00000000000E+00  0.82362496368E+03  0.82362496368E+03  0.00000000000E+00 0. -1.
         21   -1    0    0  503  502 -0.00000000000E+00 -0.00000000000E+00 -0.66987602324E+01  0.66987602324E+01  0.00000000000E+00 0. -1.
         21    1    1    2  503  504 -0.18265648491E+02  0.13333460707E+02  0.13010492215E+02  0.26089998024E+02  0.00000000000E+00 0. -1.
         21    1    1    2  504  501  0.18265648491E+02 -0.13333460707E+02  0.80391571123E+03  0.80423372589E+03  0.00000000000E+00 0. -1.
</event>
<event>
 4    1  0.1589319E+006  0.2310623E+02  0.7546771E-02  0.1491168E+00
         21   -1    0    0  504  501  0.00000000000E+00  0.00000000000E+00  0.37022030845E+02  0.37022030845E+02  0.00000000000E+00 0. -1.
         21   -1    0    0  503  502 -0.00000000000E+00 -0.00000000000E+00 -0.14427023582E+02  0.14427023582E+02  0.00000000000E+00 0. -1.
         21    1    1    2  503  501 -0.22350086022E+02 -0.58627407832E+01  0.11819157004E+02  0.25953623003E+02  0.00000000000E+00 0. -1.
         21    1    1    2  504  502  0.22350086022E+02  0.58627407832E+01  0.10775850259E+02  0.25495431424E+02  0.00000000000E+00 0. -1.
</event>
<event>
 4    1  0.1589319E+006  0.2486117E+02  0.7546771E-02  0.1470362E+00
         21   -1    0    0  503  501  0.00000000000E+00  0.00000000000E+00  0.45613093378E+03  0.45613093378E+03  0.00000000000E+00 0.  1.
         21   -1    0    0  501  502 -0.00000000000E+00 -0.00000000000E+00 -0.13331508732E+02  0.13331508732E+02  0.00000000000E+00 0. -1.
         21    1    1    2  503  504 -0.21099559915E+02 -0.13148627718E+02  0.44388203705E+03  0.44457771048E+03  0.00000000000E+00 0.  1.
         21    1    1    2  504  502  0.21099559915E+02  0.13148627718E+02 -0.10826120031E+01  0.24884732030E+02  0.00000000000E+00 0. -1.
</event>
<event>
 4    1  0.1589319E+006  0.2531852E+02  0.7546771E-02  0.1465271E+00
         21   -1    0    0  504  501  0.00000000000E+00  0.00000000000E+00  0.57495931844E+02  0.57495931844E+02  0.00000000000E+00 0. -1.
         21   -1    0    0  501  502 -0.00000000000E+00 -0.00000000000E+00 -0.42237000653E+02  0.42237000653E+02  0.00000000000E+00 0.  1.
         21    1    1    2  503  502 -0.14720651021E+02  0.20599268135E+02 -0.35152212352E+02  0.43320958524E+02  0.00000000000E+00 0.  1.
         21    1    1    2  504  503  0.14720651021E+02 -0.20599268135E+02  0.50411143543E+02  0.56411973973E+02  0.00000000000E+00 0. -1.
</event>
<event>
 4    1  0.1589319E+006  0.2007409E+02  0.7546771E-02  0.1532906E+00
         21   -1    0    0  504  501  0.00000000000E+00  0.00000000000E+00  0.71349630176E+02  0.71349630176E+02  0.00000000000E+00 0. -1.
         21   -1    0    0  503  502 -0.00000000000E+00 -0.00000000000E+00 -0.56562432429E+01  0.56562432429E+01  0.00000000000E+00 0. -1.
         21    1    1    2  503  501  0.94831635706E+01  0.17692894281E+02  0.34333721980E+02  0.39771514484E+02  0.00000000000E+00 0. -1.
         21    1    1    2  504  502 -0.94831635706E+01 -0.17692894281E+02  0.31359664953E+02  0.37234358935E+02  0.00000000000E+00 0. -1.
</event>
<event>
 4    1  0.1589319E+006  0.2003037E+02  0.7546771E-02  0.1533572E+00
         21   -1    0    0  502  501  0.00000000000E+00  0.00000000000E+00  0.12281235135E+02  0.12281235135E+02  0.00000000000E+00 0.  1.
         21   -1    0    0  504  502 -0.00000000000E+00 -0.00000000000E+00 -0.64051547347E+03  0.64051547347E+03  0.00000000000E+00 0. -1.
         21    1    1    2  503  501 -0.15624852320E+02 -0.12533141884E+02  0.38484526081E+01  0.20396721378E+02  0.00000000000E+00 0.  1.
         21    1    1    2  504  503  0.15624852320E+02  0.12533141884E+02 -0.63208269094E+03  0.63239998723E+03  0.00000000000E+00 0. -1.
</event>
<event>
 4    1  0.1589319E+006  0.3200082E+02  0.7546771E-02  0.1402971E+00
         21   -1    0    0  504  501  0.00000000000E+00  0.00000000000E+00  0.23967815110E+02  0.23967815110E+02  0.00000000000E+00 0.  1.
         21   -1    0    0  503  502 -0.00000000000E+00 -0.00000000000E+00 -0.93533340147E+02  0.93533340147E+02  0.00000000000E+00 0.  1.
         21    1    1    2  503  501 -0.35892557400E+00 -0.31998804506E+02  0.85176001416E+01  0.33114978930E+02  0.00000000000E+00 0.  1.
         21    1    1    2  504  502  0.35892557400E+00  0.31998804506E+02 -0.78083125179E+02  0.84386176327E+02  0.00000000000E+00 0.  1.
</event>
<event>
 4    1  0.1589319E+006  0.2085604E+02  0.7546771E-02  0.1521330E+00
         21   -1    0    0  502  501  0.00000000000E+00  0.00000000000E+00  0.12609625059E+03  0.12609625059E+03  0.00000000000E+00 0.  1.
         21   -1    0    0  504  502 -0.00000000000E+00 -0.00000000000E+00 -0.34536990015E+01  0.34536990015E+01  0.00000000000E+00 0.  1.
         21    1    1    2  503  501  0.16637828082E+02  0.12576053689E+02  0.63568250788E+02  0.66902144643E+02  0.00000000000E+00 0.  1.
         21    1    1    2  504  503 -0.16637828082E+02 -0.12576053689E+02  0.59074300798E+02  0.62647804945E+02  0.00000000000E+00 0.  1.
</event>
<event>
 4    1  0.1589319E+006  0.4039461E+02  0.7546771E-02  0.1346189E+00
         21   -1    0    0  503  501  0.00000000000E+00  0.00000000000E+00  0.28382909044E+03  0.28382909044E+03  0.00000000000E+00 0.  1.
         21   -1    0    0  504  502 -0.00000000000E+00 -0.00000000000E+00 -0.24091695984E+02  0.24091695984E+02  0.00000000000E+00 0.  1.
         21    1    1    2  503  502  0.34467082772E+02  0.21065254435E+02  0.26420929348E+03  0.26727939595E+03  0.00000000000E+00 0.  1.
         21    1    1    2  504  501 -0.34467082772E+02 -0.21065254435E+02 -0.44718990171E+01  0.40641390478E+02  0.00000000000E+00 0.  1.
</event>
<event>
 4    1  0.1589319E+006  0.2885713E+02  0.7546771E-02  0.1429795E+00
         21   -1    0    0  502  501  0.00000000000E+00  0.00000000000E+00  0.11970269897E+01  0.11970269897E+01  0.00000000000E+00 0.  1.
         21   -1    0    0  504  502 -0.00000000000E+00 -0.00000000000E+00 -0.99532334945E+03  0.99532334945E+03  0.00000000000E+00 0.  1.
         21    1    1    2  503  501 -0.34834239352E+01  0.28646109321E+02 -0.22367176882E+03  0.22552559497E+03  0.00000000000E+00 0.  1.
         21    1    1    2  504  503  0.34834239352E+01 -0.28646109321E+02 -0.77045455364E+03  0.77099478147E+03  0.00000000000E+00 0.  1.
</event>
<event>
 4    1  0.1589319E+006  0.2845173E+02  0.7546771E-02  0.1433546E+00
         21   -1    0    0  504  501  0.00000000000E+00  0.00000000000E+00  0.99041865041E+02  0.99041865041E+02  0.00000000000E+00 0.  1.
         21   -1    0    0  503  502 -0.00000000000E+00 -0.00000000000E+00 -0.82396001652E+01  0.82396001652E+01  0.00000000000E+00 0.  1.
         21    1    1    2  503  501 -0.24271444406E+02 -0.14845803826E+02  0.40590171606E+02  0.49568769763E+02  0.00000000000E+00 0.  1.
         21    1    1    2  504  502  0.24271444406E+02  0.14845803826E+02  0.50212093270E+02  0.57712695443E+02  0.00000000000E+00 0.  1.
</event>
<event>
 4    1  0.1589319E+006  0.2101882E+02  0.7546771E-02  0.1518996E+00
         21   -1    0    0  504  501  0.00000000000E+00  0.00000000000E+00  0.22618719819E+02  0.22618719819E+02  0.00000000000E+00 0. -1.
         21   -1    0    0  503  502 -0.00000000000E+00 -0.00000000000E+00 -0.22671694965E+02  0.22671694965E+02  0.00000000000E+00 0. -1.
         21    1    1    2  503  501 -0.31887738056E+01 -0.20775526046E+02  0.84004960241E+01  0.22635350545E+02  0.00000000000E+00 0. -1.
         21    1    1    2  504  502  0.31887738056E+01  0.20775526046E+02 -0.84534711702E+01  0.22655064239E+02  0.00000000000E+00 0. -1.
</event>
<event>
 4    1  0.1589319E+006  0.3842142E+02  0.7546771E-02  0.1357993E+00
         21   -1    0    0  504  501  0.00000000000E+00  0.00000000000E+00  0.14784504151E+02  0.14784504151E+02  0.00000000000E+00 0. -1.
         21   -1    0    0  503  502 -0.00000000000E+00 -0.00000000000E+00 -0.99852298912E+02  0.99852298912E+02  0.00000000000E+00 0. -1.
         21    1    1    2  503  501 -0.38298932783E+02 -0.30655396547E+01 -0.42165624067E+02  0.57045119323E+02  0.00000000000E+00 0. -1.
         21    1    1    2  504  502  0.38298932783E+02  0.30655396547E+01 -0.42902170695E+02  0.57591683740E+02  0.00000000000E+00 0. -1.
</event>
<event>
 4    1  0.1589319E+006  0.2032733E+02  0.7546771E-02  0.1529089E+00
         21   -1    0    0  504  501  0.00000000000E+00  0.00000000000E+00  0.61570361932E+03  0.61570361932E+03  0.00000000000E+00 0. -1.
         21   -1    0    0  503  502 -0.00000000000E+00 -0.00000000000E+00 -0.95908009745E+00  0.95908009745E+00  0.00000000000E+00 0. -1.
         21    1    1    2  503  501 -0.11129673835E+02 -0.17009721367E+02  0.13841784517E+03  0.13990246647E+03  0.00000000000E+00 0. -1.
         21    1    1    2  504  502  0.11129673835E+02  0.17009721367E+02  0.47632669405E+03  0.47676023295E+03  0.00000000000E+00 0. -1.
</event>
<event>
 4    1  0.1589319E+006  0.2788093E+02  0.7546771E-02  0.1438954E+00
         21   -1    0    0  503  501  0.00000000000E+00  0.00000000000E+00  0.80371873583E+02  0.80371873583E+02  0.00000000000E+00 0.  1.
         21   -1    0    0  504  502 -0.00000000000E+00 -0.00000000000E+00 -0.99721896099E+01  0.99721896099E+01  0.00000000000E+00 0. -1.
         21    1    1    2  503  502 -0.18303495789E+02 -0.21031605617E+02  0.43038929009E+02  0.51280559700E+02  0.00000000000E+00 0.  1.
         21    1    1    2  504  501  0.18303495789E+02  0.21031605617E+02  0.27360754964E+02  0.39063503493E+02  0.00000000000E+00 0. -1.
</event>
<event>
 4    1  0.1589319E+006  0.2144486E+02  0.7546771E-02  0.1513007E+00
         21   -1    0    0  503  501  0.00000000000E+00  0.00000000000E+00  0.15080765636E+01  0.15080765636E+01  0.00000000000E+00 0.  1.
         21   -1    0    0  501  502 -0.00000000000E+00 -0.00000000000E+00 -0.35428795964E+03  0.35428795964E+03  0.00000000000E+00 0.  1.
         21    1    1    2  503  504 -0.58326019985E+01  0.20636440019E+02 -0.11000017399E+03  0.11207104969E+03  0.00000000000E+00 0.  1.
         21    1    1    2  504  502  0.58326019985E+01 -0.20636440019E+02 -0.24277970909E+03  0.24372498651E+03  0.00000000000E+00 0.  1.
</event>
<event>
 4    1  0.1589319E+006  0.2486355E+02  0.7546771E-02  0.1470336E+00
         21   -1    0    0  503  501  0.00000000000E+00  0.00000000000E+00  0.62321881269E+02  0.62321881269E+02  0.00000000000E+00 0. -1.
         21   -1    0    0  501  502 -0.00000000000E+00 -0.00000000000E+00 -0.94223986196E+02  0.94223986196E+02  0.00000000000E+00 0.  1.
         21    1    1    2  503  504  0.67218826202E+01  0.23937674099E+02  0.58087251943E+02  0.63184846170E+02  0.00000000000E+00 0. -1.
         21    1    1    2  504  502 -0.67218826202E+01 -0.23937674099E+02 -0.89989356871E+02  0.93361021295E+02  0.00000000000E+00 0.  1.
</event>
<event>
 4    1  0.1589319E+006  0.2054341E+02  0.7546771E-02  0.1525885E+00
         21   -1    0    0  504  501  0.00000000000E+00  0.00000000000E+00  0.16737776472E+02  0.16737776472E+02  0.00000000000E+00 0.  1.
         21   -1    0    0  503  502 -0.00000000000E+00 -0.00000000000E+00 -0.89066815382E+03  0.89066815382E+03  0.00000000000E+00 0.  1.
         21    1    1    2  503  501  0.17029237597E+02 -0.11490732316E+02  0.10269627891E+02  0.22967305443E+02  0.00000000000E+00 0.  1.
         21    1    1    2  504  502 -0.17029237597E+02  0.11490732316E+02 -0.88420000524E+03  0.88443862485E+03  0.00000000000E+00 0.  1.
</event>
<event>
 4    1  0.1589319E+006  0.2500045E+02  0.7546771E-02  0.1468798E+00
         21   -1    0    0  503  501  0.00000000000E+00  0.00000000000E+00  0.21974874638E+02  0.21974874638E+02  0.00000000000E+00 0.  1.
         21   -1    0    0  504  502 -0.00000000000E+00 -0.00000000000E+00 -0.38782588294E+02  0.38782588294E+02  0.00000000000E+00 0.  1.
         21    1    1    2  503  502 -0.24919342866E+02 -0.20121900970E+01 -0.24089823017E+02  0.34718037543E+02  0.00000000000E+00 0.  1.
         21    1    1    2  504  501  0.24919342866E+02  0.20121900970E+01  0.72821093609E+01  0.26039425389E+02  0.00000000000E+00 0.  1.
</event>
<event>
 4    1  0.1589319E+006  0.2493261E+02  0.7546771E-02  0.1469559E+00
         21   -1    0    0  503  501  0.00000000000E+00  0.00000000000E+00  0.39415108782E+02  0.39415108782E+02  0.00000000000E+00 0. -1.
         21   -1    0    0  504  502 -0.00000000000E+00 -0.00000000000E+00 -0.11689548171E+03  0.11689548171E+03  0.00000000000E+00 0. -1.
         21    1    1    2  503  502 -0.15570340632E+02  0.19473047429E+02  0.33951817714E+02  0.42123164763E+02  0.00000000000E+00 0. -1.
         21    1    1    2  504  501  0.15570340632E+02 -0.19473047429E+02 -0.11143219064E+03  0.11418742573E+03  0.00000000000E+00 0. -1.
</event>
<event>
 4    1  0.1589319E+006  0.5068217E+02  0.7546771E-02  0.1295242E+00
         21   -1    0    0  504  501  0.00000000000E+00  0.00000000000E+00  0.78795157754E+02  0.78795157754E+02  0.00000000000E+00 0.  1.
         21   -1    0    0  503  502 -0.00000000000E+00 -0.00000000000E+00 -0.32700929418E+02  0.32700929418E+02  0.00000000000E+00 0.  1.
         21    1    1    2  503  501  0.50061354829E+02 -0.79084244277E+01  0.26151961638E+02  0.57031636148E+02  0.00000000000E+00 0.  1.
         21    1    1    2  504  502 -0.50061354829E+02  0.79084244277E+01  0.19942266698E+02  0.54464451023E+02  0.00000000000E+00 0.  1.
</event>
<event>
 4    1  0.1589319E+006  0.3885155E+02  0.7546771E-02  0.1355350E+00
         21   -1    0    0  503  501  0.00000000000E+00  0.00000000000E+00  0.48603071520E+02  0.48603071520E+02  0.00000000000E+00 0. -1.
         21   -1    0    0  504  502 -0.00000000000E+00 -0.00000000000E+00 -0.14769259852E+03  0.14769259852E+03  0.00000000000E+00 0. -1.
         21    1    1    2  503  502  0.16954457956E+02  0.34956958061E+02  0.37675581818E+02  0.54119238971E+02  0.00000000000E+00 0. -1.
         21    1    1    2  504  501 -0.16954457956E+02 -0.34956958061E+02 -0.13676510882E+03  0.14217643107E+03  0.00000000000E+00 0. -1.
</event>
<event>
 4    1  0.1589319E+006  0.3121499E+02  0.7546771E-02  0.1409324E+00
         21   -1    0    0  504  501  0.00000000000E+00  0.00000000000E+00  0.70949046084E+02  0.70949046084E+02  0.00000000000E+00 0. -1.
         21   -1    0    0  503  502 -0.00000000000E+00 -0.00000000000E+00 -0.30816907903E+02  0.30816907903E+02  0.00000000000E+00 0.  1.
         21    1    1    2  503  501  0.30635192201E+02 -0.59883865099E+01 -0.17818797844E+02  0.35942806384E+02  0.00000000000E+00 0.  1.
         21    1    1    2  504  502 -0.30635192201E+02  0.59883865099E+01  0.57950936025E+02  0.65823147603E+02  0.00000000000E+00 0. -1.
</event>
<event>
 4    1  0.1589319E+006  0.2168915E+02  0.7546771E-02  0.1509649E+00
         21   -1    0    0  502  501  0.00000000000E+00  0.00000000000E+00  0.83592441585E+01  0.83592441585E+01  0.00000000000E+00 0. -1.
         21   -1    0    0  503  502 -0.00000000000E+00 -0.00000000000E+00 -0.10719497677E+03  0.10719497677E+03  0.00000000000E+00 0. -1.
         21    1    1    2  503  504  0.14121321337E+02  0.16462301671E+02 -0.89238792667E+02  0.91836709486E+02  0.00000000000E+00 0. -1.
         21    1    1    2  504  501 -0.14121321337E+02 -0.16462301671E+02 -0.95969399399E+01  0.23717511438E+02  0.00000000000E+00 0. -1.
</event>
<event>
 4    1  0.1589319E+006  0.2340951E+02  0.7546771E-02  0.1487419E+00
         21   -1    0    0  502  501  0.00000000000E+00  0.00000000000E+00  0.10306503573E+02  0.10306503573E+02  0.00000000000E+00 0. -1.
         21   -1    0    0  503  502 -0.00000000000E+00 -0.00000000000E+00 -0.81304219128E+02  0.81304219128E+02  0.00000000000E+00 0. -1.
         21    1    1    2  503  504 -0.23389054835E+02 -0.97843703042E+00 -0.62443405102E+02  0.66687210661E+02  0.00000000000E+00 0. -1.
         21    1    1    2  504  501  0.23389054835E+02  0.97843703042E+00 -0.85543104533E+01  0.24923512040E+02  0.00000000000E+00 0. -1.
</event>
<event>
 4    1  0.1589319E+006  0.3853762E+02  0.7546771E-02  0.1357275E+00
         21   -1    0    0  504  501  0.00000000000E+00  0.00000000000E+00  0.19117430303E+02  0.19117430303E+02  0.00000000000E+00 0. -1.
         21   -1    0    0  503  502 -0.00000000000E+00 -0.00000000000E+00 -0.18662667451E+03  0.18662667451E+03  0.00000000000E+00 0. -1.
         21    1    1    2  503  501 -0.99276741980E+01  0.37236934422E+02 -0.16235171481E+03  0.16686289972E+03  0.00000000000E+00 0. -1.
         21    1    1    2  504  502  0.99276741980E+01 -0.37236934422E+02 -0.51575293944E+01  0.38881205094E+02  0.00000000000E+00 0. -1.
</event>
<event>
 4    1  0.1589319E+006  0.2855444E+02  0.7546771E-02  0.1432589E+00
         21   -1    0    0  504  501  0.00000000000E+00  0.00000000000E+00  0.37497970654E+03  0.37497970654E+03  0.00000000000E+00 0.  1.
         21   -1    0    0  503  502 -0.00000000000E+00 -0.00000000000E+00 -0.23290936128E+01  0.23290936128E+01  0.00000000000E+00 0.  1.
         21    1    1    2  503  501  0.82360925003E+01 -0.27340864897E+02  0.23494461330E+03  0.23667346161E+03  0.00000000000E+00 0.  1.
         21    1    1    2  504  502 -0.82360925003E+01  0.27340864897E+02  0.13770599963E+03  0.14063533854E+03  0.00000000000E+00 0.  1.
</event>
<event>
 4    1  0.1589319E+006  0.2119040E+02  0.7546771E-02  0.1516564E+00
         21   -1    0    0  504  501  0.00000000000E+00  0.00000000000E+00  0.14845585632E+03  0.14845585632E+03  0.00000000000E+00 0.  1.
         21   -1    0    0  503  502 -0.00000000000E+00 -0.00000000000E+00 -0.28976771900E+02  0.28976771900E+02  0.00000000000E+00 0. -1.
         21    1    1    2  503  501  0.20337296241E+02  0.59521116188E+01 -0.24218938885E+02  0.32180588121E+02  0.00000000000E+00 0. -1.
         21    1    1    2  504  502 -0.20337296241E+02 -0.59521116188E+01  0.14369802331E+03  0.14525204010E+03  0.00000000000E+00 0.  1.
</event>
<event>
 4    1  0.1589319E+006  0.2334199E+02  0.7546771E-02  0.1488248E+00
         21   -1    0    0  503  501  0.00000000000E+00  0.00000000000E+00  0.75201330011E+03  0.75201330011E+03  0.00000000000E+00 0. -1.
         21   -1    0    0  504  502 -0.00000000000E+00 -0.00000000000E+00 -0.13795380783E+02  0.13795380783E+02  0.00000000000E+00 0. -1.
         21    1    1    2  503  502 -0.13823752025E+02  0.18808302189E+02 -0.36049018685E+01  0.23618714376E+02  0.00000000000E+00 0. -1.
         21    1    1    2  504  501  0.13823752025E+02 -0.18808302189E+02  0.74182282119E+03  0.74218996652E+03  0.00000000000E+00 0. -1.
</event>
<event>
 4    1  0.1589319E+006  0.2568026E+02  0.7546771E-02  0.1461335E+00
         21   -1    0    0  502  501  0.00000000000E+00  0.00000000000E+00  0.18593760865E+01  0.18593760865E+01  0.00000000000E+00 0. -1.
         21   -1    0    0  503  502 -0.00000000000E+00 -0.00000000000E+00 -0.17071000368E+04  0.17071000368E+04  0.00000000000E+00 0.  1.
         21    1    1    2  503  504 -0.24414546108E+02 -0.79627637185E+01 -0.16131720321E+04  0.16133764226E+04  0.00000000000E+00 0.  1.
         21    1    1    2  504  501  0.24414546108E+02  0.79627637185E+01 -0.92068628536E+02  0.95582990266E+02  0.00000000000E+00 0. -1.
</event>
<event>
 4    1  0.1589319E+006  0.4869608E+02  0.7546771E-02  0.1303927E+00
         21   -1    0    0  504  501  0.00000000000E+00  0.00000000000E+00  0.19399217517E+03  0.19399217517E+03  0.00000000000E+00 0.  1.
         21   -1    0    0  503  502 -0.00000000000E+00 -0.00000000000E+00 -0.14459486226E+02  0.14459486226E+02  0.00000000000E+00 0.  1.
         21    1    1    2  503  501 -0.33354028878E+02 -0.35479815762E+02  0.48782673188E+02  0.68927917220E+02  0.00000000000E+00 0.  1.
         21    1    1    2  504  502  0.33354028878E+02  0.35479815762E+02  0.13075001575E+03  0.13952374417E+03  0.00000000000E+00 0.  1.
</event>
<event>
 4    1  0.1589319E+006  0.2566339E+02  0.7546771E-02  0.1461517E+00
         21   -1    0    0  503  501  0.00000000000E+00  0.00000000000E+00  0.58650964589E+02  0.58650964589E+02  0.00000000000E+00 0. -1.
         21   -1    0    0  504  502 -0.00000000000E+00 -0.00000000000E+00 -0.14962000948E+02  0.14962000948E+02  0.00000000000E+00 0. -1.
         21    1    1    2  503  502 -0.25164765790E+02  0.50343001815E+01  0.40228512734E+02  0.47717322351E+02  0.00000000000E+00 0. -1.
         21    1    1    2  504  501  0.25164765790E+02 -0.50343001815E+01  0.34604509070E+01  0.25895643187E+02  0.00000000000E+00 0. -1.
</event>
<event>
 4    1  0.1589319E+006  0.5114018E+02  0.7546771E-02  0.1293303E+00
         21   -1    0    0  504  501  0.00000000000E+00  0.00000000000E+00  0.42632279485E+01  0.42632279485E+01  0.00000000000E+00 0.  1.
         21   -1    0    0  503  502 -0.00000000000E+00 -0.00000000000E+00 -0.14507448745E+04  0.14507448745E+04  0.00000000000E+00 0. -1.
         21    1    1    2  503  501 -0.24078191347E+02 -0.45117163700E+02 -0.17055714184E+03  0.17805913734E+03  0.00000000000E+00 0.  1.
         21    1    1    2  504  502  0.24078191347E+02  0.45117163700E+02 -0.12759245047E+04  0.12769489651E+04  0.00000000000E+00 0. -1.
</event>
<event>
 4    1  0.1589319E+006  0.2549541E+02  0.7546771E-02  0.1463337E+00
         21   -1    0    0  503  501  0.00000000000E+00  0.00000000000E+00  0.96101698921E+01  0.96101698921E+01  0.00000000000E+00 0. -1.
         21   -1    0    0  504  502 -0.00000000000E+00 -0.00000000000E+00 -0.99916912160E+02  0.99916912160E+02  0.00000000000E+00 0. -1.
         21    1    1    2  503  502 -0.20841207518E+02 -0.14685359394E+02 -0.76279802854E+02  0.80427756619E+02  0.00000000000E+00 0. -1.
         21    1    1    2  504  501  0.20841207518E+02  0.14685359394E+02 -0.14026939414E+02  0.29099325433E+02  0.00000000000E+00 0. -1.
</event>
<event>
 4    1  0.1589319E+006  0.3876058E+02  0.7546771E-02  0.1355906E+00
         21   -1    0    0  502  501  0.00000000000E+00  0.00000000000E+00  0.21402890909E+03  0.21402890909E+03  0.00000000000E+00 0. -1.
         21   -1    0    0  503  502 -0.00000000000E+00 -0.00000000000E+00 -0.28408250959E+03  0.28408250959E+03  0.00000000000E+00 0.  1.
         21    1    1    2  503  504 -0.98006603713E+01 -0.37501057312E+02 -0.28098624535E+03  0.28364705590E+03  0.00000000000E+00 0.  1.
         21    1    1    2  504  501  0.98006603713E+01  0.37501057312E+02  0.21093264485E+03  0.21446436279E+03  0.00000000000E+00 0. -1.
</event>
<event>
 4    1  0.1589319E+006  0.2286153E+02  0.7546771E-02  0.1494244E+00
         21   -1    0    0  502  501  0.00000000000E+00  0.00000000000E+00  0.56967153951E+02  0.56967153951E+02  0.00000000000E+00 0. -1.
         21   -1    0    0  504  502 -0.00000000000E+00 -0.00000000000E+00 -0.22390971992E+02  0.22390971992E+02  0.00000000000E+00 0. -1.
         21    1    1    2  503  501 -0.63836774686E+01 -0.21952181788E+02  0.47772755165E+02  0.52961172186E+02  0.00000000000E+00 0. -1.
         21    1    1    2  504  503  0.63836774686E+01  0.21952181788E+02 -0.13196573205E+02  0.26396953757E+02  0.00000000000E+00 0. -1.
</event>
<event>
 4    1  0.1589319E+006  0.3469299E+02  0.7546771E-02  0.1382734E+00
         21   -1    0    0  503  501  0.00000000000E+00  0.00000000000E+00  0.15023101814E+01  0.15023101814E+01  0.00000000000E+00 0. -1.
         21   -1    0    0  504  502 -0.00000000000E+00 -0.00000000000E+00 -0.81135437467E+03  0.81135437467E+03  0.00000000000E+00 0. -1.
         21    1    1    2  503  502  0.29081486381E+02 -0.18917472715E+02 -0.35938766659E+03  0.36105830350E+03  0.00000000000E+00 0. -1.
         21    1    1    2  504  501 -0.29081486381E+02  0.18917472715E+02 -0.45046439789E+03  0.45179838135E+03  0.00000000000E+00 0. -1.
</event>
<event>
 4    1  0.1589319E+006  0.2603968E+02  0.7546771E-02  0.1457501E+00
         21   -1    0    0  503  501  0.00000000000E+00  0.00000000000E+00  0.45023294308E+02  0.45023294308E+02  0.00000000000E+00 0.  1.
         21   -1    0    0  504  502 -0.00000000000E+00 -0.00000000000E+00 -0.35139668280E+02  0.35139668280E+02  0.00000000000E+00 0.  1.
         21    1    1    2  503  502 -0.24779152017E+02  0.80036461130E+01 -0.25356598486E+02  0.36345863762E+02  0.00000000000E+00 0.  1.
         21    1    1    2  504  501  0.24779152017E+02 -0.80036461130E+01  0.35240224514E+02  0.43817098827E+02  0.00000000000E+00 0.  1.
</event>
<event>
 4    1  0.1589319E+006  0.2196223E+02  0.7546771E-02  0.1505957E+00
         21   -1    0    0  503  501  0.00000000000E+00  0.00000000000E+00  0.61771538594E+02  0.61771538594E+02  0.00000000000E+00 0.  1.
         21   -1    0    0  501  502 -0.00000000000E+00 -0.00000000000E+00 -0.20018217575E+03  0.20018217575E+03  0.00000000000E+00 0. -1.
         21    1    1    2  503  504 -0.36628896877E+01  0.21654623918E+02  0.59191643802E+02  0.63134698810E+02  0.00000000000E+00 0.  1.
         21    1    1    2  504  502  0.36628896877E+01 -0.21654623918E+02 -0.19760228095E+03  0.19881901553E+03  0.00000000000E+00 0. -1.
</event>
<event>
 4    1  0.1589319E+006  0.2029638E+02  0.7546771E-02  0.1529552E+00
         21   -1    0    0  503  501  0.00000000000E+00  0.00000000000E+00  0.64202878533E+01  0.64202878533E+01  0.00000000000E+00 0. -1.
         21   -1    0    0  504  502 -0.00000000000E+00 -0.00000000000E+00 -0.77637094044E+03  0.77637094044E+03  0.00000000000E+00 0. -1.
         21    1    1    2  503  502  0.20243985713E+02  0.14573632140E+01 -0.10101755690E+02  0.22671310793E+02  0.00000000000E+00 0. -1.
         21    1    1    2  504  501 -0.20243985713E+02 -0.14573632140E+01 -0.75984889690E+03  0.76011991750E+03  0.00000000000E+00 0. -1.
</event>
<event>
 4    1  0.1589319E+006  0.3711268E+02  0.7546771E-02  0.1366290E+00
         21   -1    0    0  502  501  0.00000000000E+00  0.00000000000E+00  0.47056498170E+02  0.47056498170E+02  0.00000000000E+00 0. -1.
         21   -1    0    0  504  502 -0.00000000000E+00 -0.00000000000E+00 -0.53662033968E+02  0.53662033968E+02  0.00000000000E+00 0.  1.
         21    1    1    2  503  501  0.33057127485E+02  0.16869424326E+02  0.30649471560E+02  0.48132538491E+02  0.00000000000E+00 0. -1.
         21    1    1    2  504  503 -0.33057127485E+02 -0.16869424326E+02 -0.37255007358E+02  0.52585993648E+02  0.00000000000E+00 0.  1.
</event>
<event>
 4    1  0.1589319E+006  0.2549444E+02  0.7546771E-02  0.1463347E+00
         21   -1    0    0  503  501  0.00000000000E+00  0.00000000000E+00  0.20615872666E+02  0.20615872666E+02  0.00000000000E+00 0. -1.
         21   -1    0    0  504  502 -0.00000000000E+00 -0.00000000000E+00 -0.46706489321E+02  0.46706489321E+02  0.00000000000E+00 0. -1.
         21    1    1    2  503  502 -0.17377895073E+02 -0.18654093310E+02 -0.32234757342E+02  0.41098005003E+02  0.00000000000E+00 0. -1.
         21    1    1    2  504  501  0.17377895073E+02  0.18654093310E+02  0.61441406866E+01  0.26224356983E+02  0.00000000000E+00 0. -1.
</event>
<event>
 4    1  0.1589319E+006  0.2591100E+02  0.7546771E-02  0.1458865E+00
         21   -1    0    0  504  501  0.00000000000E+00  0.00000000000E+00  0.57320003799E+03  0.57320003799E+03  0.00000000000E+00 0. -1.
         21   -1    0    0  503  502 -0.00000000000E+00 -0.00000000000E+00 -0.12054826979E+02  0.12054826979E+02  0.00000000000E+00 0.  1.
         21    1    1    2  503  501  0.23237405883E+02  0.11463110546E+02  0.55862055575E+03  0.55922115951E+03  0.00000000000E+00 0. -1.
         21    1    1    2  504  502 -0.23237405883E+02 -0.11463110546E+02  0.25246552553E+01  0.26033705455E+02  0.00000000000E+00 0.  1.
</event>
<event>
 4    1  0.1589319E+006  0.2123446E+02  0.7546771E-02  0.1515944E+00
         21   -1    0    0  503  501  0.00000000000E+00  0.00000000000E+00  0.33630732908E+01  0.33630732908E+01  0.00000000000E+00 0. -1.
         21   -1    0    0  504  502 -0.00000000000E+00 -0.00000000000E+00 -0.19723608792E+03  0.19723608792E+03  0.00000000000E+00 0. -1.
         21    1    1    2  503  502 -0.79000580115E+01 -0.19710187367E+02 -0.40177810743E+02  0.45444019175E+02  0.00000000000E+00 0. -1.
         21    1    1    2  504  501  0.79000580115E+01  0.19710187367E+02 -0.15369520388E+03  0.15515514203E+03  0.00000000000E+00 0. -1.
</event>
<event>
 4    1  0.1589319E+006  0.2817964E+02  0.7546771E-02  0.1436105E+00
         21   -1    0    0  503  501  0.00000000000E+00  0.00000000000E+00  0.36641030154E+01  0.36641030154E+01  0.00000000000E+00 0.  1.
         21   -1    0    0  504  502 -0.00000000000E+00 -0.00000000000E+00 -0.27461850399E+03  0.27461850399E+03  0.00000000000E+00 0.  1.
         21    1    1    2  503  502  0.25250180275E+02  0.12510804417E+02 -0.19936489844E+03  0.20134660305E+03  0.00000000000E+00 0.  1.
         21    1    1    2  504  501 -0.25250180275E+02 -0.12510804417E+02 -0.71589502543E+02  0.76936003961E+02  0.00000000000E+00 0.  1.
</event>
<event>
 4    1  0.1589319E+006  0.3453642E+02  0.7546771E-02  0.1383852E+00
         21   -1    0    0  504  501  0.00000000000E+00  0.00000000000E+00  0.12047702500E+03  0.12047702500E+03  0.00000000000E+00 0. -1.
         21   -1    0    0  503  502 -0.00000000000E+00 -0.00000000000E+00 -0.35586304415E+02  0.35586304415E+02  0.00000000000E+00 0.  1.
         21    1    1    2  503  501  0.22106571093E+02  0.26534198476E+02 -0.23849112165E+02  0.41970755596E+02  0.00000000000E+00 0.  1.
         21    1    1    2  504  502 -0.22106571093E+02 -0.26534198476E+02  0.10873983275E+03  0.11409257382E+03  0.00000000000E+00 0. -1.
</event>
<event>
 4    1  0.1589319E+006  0.2489486E+02  0.7546771E-02  0.1469983E+00
         21   -1    0    0  503  501  0.00000000000E+00  0.00000000000E+00  0.22283729463E+02  0.22283729463E+02  0.00000000000E+00 0. -1.
         21   -1    0    0  501  502 -0.00000000000E+00 -0.00000000000E+00 -0.26999686165E+03  0.26999686165E+03  0.00000000000E+00 0.  1.
         21    1    1    2  503  504  0.15766089174E+02 -0.19266148682E+02  0.14552379850E+02  0.28836189280E+02  0.00000000000E+00 0. -1.
         21    1    1    2  504  502 -0.15766089174E+02  0.19266148682E+02 -0.26226551204E+03  0.26344440183E+03  0.00000000000E+00 0.  1.
</event>
<event>
 4    1  0.1589319E+006  0.3494764E+02  0.7546771E-02  0.1380932E+00
         21   -1    0    0  504  501  0.00000000000E+00  0.00000000000E+00  0.12879930175E+03  0.12879930175E+03  0.00000000000E+00 0. -1.
         21   -1    0    0  501  502 -0.00000000000E+00 -0.00000000000E+00 -0.95708666430E+01  0.95708666430E+01  0.00000000000E+00 0. -1.
         21    1    1    2  503  502 -0.33112668901E+02  0.11175374753E+02  0.52965921856E+02  0.63456494708E+02  0.00000000000E+00 0. -1.
         21    1    1    2  504  503  0.33112668901E+02 -0.11175374753E+02  0.66262513253E+02  0.74913673687E+02  0.00000000000E+00 0. -1.
</event>
<event>
 4    1  0.1589319E+006  0.2162112E+02  0.7546771E-02  0.1510579E+00
         21   -1    0    0  503  501  0.00000000000E+00  0.00000000000E+00  0.12941675268E+01  0.12941675268E+01  0.00000000000E+00 0.  1.
         21   -1    0    0  504  502 -0.00000000000E+00 -0.00000000000E+00 -0.69179345485E+03  0.69179345485E+03  0.00000000000E+00 0. -1.
         21    1    1    2  503  502 -0.16065663993E+02 -0.14469522034E+02 -0.10569353806E+03  0.10788232763E+03  0.00000000000E+00 0.  1.
         21    1    1    2  504  501  0.16065663993E+02  0.14469522034E+02 -0.58480574926E+03  0.58520529474E+03  0.00000000000E+00 0. -1.
</event>
<event>
 4    1  0.1589319E+006  0.2120875E+02  0.7546771E-02  0.1516305E+00
         21   -1    0    0  503  501  0.00000000000E+00  0.00000000000E+00  0.16946460909E+02  0.16946460909E+02  0.00000000000E+00 0. -1.
         21   -1    0    0  504  502 -0.00000000000E+00 -0.00000000000E+00 -0.31040137986E+02  0.31040137986E+02  0.00000000000E+00 0. -1.
         21    1    1    2  503  502 -0.15712089272E+02  0.14245749326E+02  0.20857272203E+01  0.21311062414E+02  0.00000000000E+00 0. -1.
         21    1    1    2  504  501  0.15712089272E+02 -0.14245749326E+02 -0.16179404297E+02  0.26675536482E+02  0.00000000000E+00 0. -1.
</event>
<event>
 4    1  0.1589319E+006  0.2071212E+02  0.7546771E-02  0.1523415E+00
         21   -1    0    0  502  501  0.00000000000E+00  0.00000000000E+00  0.70778093911E+02  0.70778093911E+02  0.00000000000E+00 0. -1.
         21   -1    0    0  504  502 -0.00000000000E+00 -0.00000000000E+00 -0.10350637589E+02  0.10350637589E+02  0.00000000000E+00 0.  1.
         21    1    1    2  503  501 -0.14586219341E+02  0.14704904676E+02  0.56327352741E+02  0.60014687227E+02  0.00000000000E+00 0. -1.
         21    1    1    2  504  503  0.14586219341E+02 -0.14704904676E+02  0.41001035806E+01  0.21114044273E+02  0.00000000000E+00 0.  1.
</event>
<event>
 4    1  0.1589319E+006  0.2221350E+02  0.7546771E-02  0.1502618E+00
         21   -1    0    0  504  501  0.00000000000E+00  0.00000000000E+00  0.28207896960E+02  0.28207896960E+02  0.00000000000E+00 0. -1.
         21   -1    0    0  501  502 -0.00000000000E+00 -0.00000000000E+00 -0.36965957539E+02  0.36965957539E+02  0.00000000000E+00 0. -1.
         21    1    1    2  503  502  0.22061031012E+02  0.25981364765E+01 -0.28030542781E+02  0.35765216776E+02  0.00000000000E+00 0. -1.
         21    1    1    2  504  503 -0.22061031012E+02 -0.25981364765E+01  0.19272482202E+02  0.29408637722E+02  0.00000000000E+00 0. -1.
</event>
<event>
 4    1  0.1589319E+006  0.2542234E+02  0.7546771E-02  0.1464134E+00
         21   -1    0    0  503  501  0.00000000000E+00  0.00000000000E+00  0.68490934456E+01  0.68490934456E+01  0.00000000000E+00 0. -1.
         21   -1    0    0  501  502 -0.00000000000E+00 -0.00000000000E+00 -0.12089174667E+03  0.12089174667E+03  0.00000000000E+00 0.  1.
         21    1    1    2  503  504 -0.15612600523E+02  0.20063454380E+02 -0.27100995517E+02  0.37158571753E+02  0.00000000000E+00 0. -1.
         21    1    1    2  504  502  0.15612600523E+02 -0.20063454380E+02 -0.86941657705E+02  0.90582268360E+02  0.00000000000E+00 0.  1.
</event>
<event>
 4    1  0.1589319E+006  0.3486217E+02  0.7546771E-02  0.1381535E+00
         21   -1    0    0  503  501  0.00000000000E+00  0.00000000000E+00  0.75017520390E+01  0.75017520390E+01  0.00000000000E+00 0.  1.
         21   -1    0    0  504  502 -0.00000000000E+00 -0.00000000000E+00 -0.27963527969E+03  0.27963527969E+03  0.00000000000E+00 0.  1.
         21    1    1    2  503  502 -0.15346391171E+02  0.31302702920E+02 -0.22917982193E+03  0.23181622401E+03  0.00000000000E+00 0.  1.
         21    1    1    2  504  501  0.15346391171E+02 -0.31302702920E+02 -0.42953705722E+02  0.55320807725E+02  0.00000000000E+00 0.  1.
</event>
<event>
 4    1  0.1589319E+006  0.3275891E+02  0.7546771E-02  0.1397042E+00
         21   -1    0    0  503  501  0.00000000000E+00  0.00000000000E+00  0.68259930771E+03  0.68259930771E+03  0.00000000000E+00 0. -1.
         21   -1    0    0  504  502 -0.00000000000E+00 -0.00000000000E+00 -0.16853760904E+01  0.16853760904E+01  0.00000000000E+00 0. -1.
         21    1    1    2  503  502 -0.32574827654E+02  0.34679482898E+01  0.42913958665E+03  0.43038811658E+03  0.00000000000E+00 0. -1.
         21    1    1    2  504  501  0.32574827654E+02 -0.34679482898E+01  0.25177434496E+03  0.25389656721E+03  0.00000000000E+00 0. -1.
</event>
<event>
 4    1  0.1589319E+006  0.2529421E+02  0.7546771E-02  0.1465539E+00
         21   -1    0    0  504  501  0.00000000000E+00  0.00000000000E+00  0.37471461035E+02  0.37471461035E+02  0.00000000000E+00 0.  1.
         21   -1    0    0  503  502 -0.00000000000E+00 -0.00000000000E+00 -0.54191250966E+02  0.54191250966E+02  0.00000000000E+00 0.  1.
         21    1    1    2  503  501 -0.24779702446E+02 -0.50757727299E+01 -0.46290044354E+02  0.52750026809E+02  0.00000000000E+00 0.  1.
         21    1    1    2  504  502  0.24779702446E+02  0.50757727299E+01  0.29570254424E+02  0.38912685191E+02  0.00000000000E+00 0.  1.
</event>
<event>
 4    1  0.1589319E+006  0.2775960E+02  0.7546771E-02  0.1440123E+00
         21   -1    0    0  502  501  0.00000000000E+00  0.00000000000E+00  0.79906318226E+01  0.79906318226E+01  0.00000000000E+00 0. -1.
         21   -1    0    0  503  502 -0.00000000000E+00 -0.00000000000E+00 -0.10189079679E+03  0.10189079679E+03  0.00000000000E+00 0. -1.
         21    1    1    2  503  504  0.20665288479E+02 -0.18534869646E+02 -0.59660547825E+02  0.65802556998E+02  0.00000000000E+00 0. -1.
         21    1    1    2  504  501 -0.20665288479E+02  0.18534869646E+02 -0.34239617140E+02  0.44078871612E+02  0.00000000000E+00 0. -1.
</event>
<event>
 4    1  0.1589319E+006  0.2998921E+02  0.7546771E-02  0.1419690E+00
         21   -1    0    0  504  501  0.00000000000E+00  0.00000000000E+00  0.13398217759E+03  0.13398217759E+03  0.00000000000E+00 0. -1.
         21   -1    0    0  503  502 -0.00000000000E+00 -0.00000000000E+00 -0.17487775267E+02  0.17487775267E+02  0.00000000000E+00 0. -1.
         21    1    1    2  503  501 -0.27861152802E+02 -0.11095431966E+02  0.11769610332E+03  0.12145668027E+03  0.00000000000E+00 0. -1.
         21    1    1    2  504  502  0.27861152802E+02  0.11095431966E+02 -0.12017009966E+01  0.30013272585E+02  0.00000000000E+00 0. -1.
</event>
<event>
 4    1  0.1589319E+006  0.2515562E+02  0.7546771E-02  0.1467070E+00
         21   -1    0    0  502  501  0.00000000000E+00  0.00000000000E+00  0.15508573753E+01  0.15508573753E+01  0.00000000000E+00 0.  1.
         21   -1    0    0  504  502 -0.00000000000E+00 -0.00000000000E+00 -0.48997308416E+03  0.48997308416E+03  0.00000000000E+00 0. -1.
         21    1    1    2  503  501 -0.24560996757E+02 -0.54371704951E+01 -0.14371037375E+03  0.14589543141E+03  0.00000000000E+00 0.  1.
         21    1    1    2  504  503  0.24560996757E+02  0.54371704951E+01 -0.34471185303E+03  0.34562851012E+03  0.00000000000E+00 0. -1.
</event>
<event>
 4    1  0.1589319E+006  0.2908655E+02  0.7546771E-02  0.1427704E+00
         21   -1    0    0  504  501  0.00000000000E+00  0.00000000000E+00  0.48145082541E+01  0.48145082541E+01  0.00000000000E+00 0.  1.
         21   -1    0    0  503  502 -0.00000000000E+00 -0.00000000000E+00 -0.69704773017E+03  0.69704773017E+03  0.00000000000E+00 0.  1.
         21    1    1    2  503  501 -0.10056250702E+02  0.27292838172E+02 -0.64960644604E+03  0.65025730440E+03  0.00000000000E+00 0.  1.
         21    1    1    2  504  502  0.10056250702E+02 -0.27292838172E+02 -0.42626775876E+02  0.51604934021E+02  0.00000000000E+00 0.  1.
</event>
<event>
 4    1  0.1589319E+006  0.2254030E+02  0.7546771E-02  0.1498353E+00
         21   -1    0    0  502  501  0.00000000000E+00  0.00000000000E+00  0.15732818042E+02  0.15732818042E+02  0.00000000000E+00 0. -1.
         21   -1    0    0  503  502 -0.00000000000E+00 -0.00000000000E+00 -0.65245088382E+02  0.65245088382E+02  0.00000000000E+00 0.  1.
         21    1    1    2  503  504 -0.21715319710E+02 -0.60423414647E+01 -0.53530249808E+02  0.58082292009E+02  0.00000000000E+00 0.  1.
         21    1    1    2  504  501  0.21715319710E+02  0.60423414647E+01  0.40179794674E+01  0.22895614416E+02  0.00000000000E+00 0. -1.
</event>
<event>
 4    1  0.1589319E+006  0.5339097E+02  0.7546771E-02  0.1284104E+00
         21   -1    0    0  502  501  0.00000000000E+00  0.00000000000E+00  0.39107041613E+02  0.39107041613E+02  0.00000000000E+00 0. -1.
         21   -1    0    0  503  502 -0.00000000000E+00 -0.00000000000E+00 -0.29948901112E+03  0.29948901112E+03  0.00000000000E+00 0.  1.
         21    1    1    2  503  504  0.16885938546E+02 -0.50650374941E+02 -0.27745221258E+03  0.28254260859E+03  0.00000000000E+00 0.  1.
         21    1    1    2  504  501 -0.16885938546E+02  0.50650374941E+02  0.17070243071E+02  0.56053444147E+02  0.00000000000E+00 0. -1.
</event>
<event>
 4    1  0.1589319E+006  0.3286154E+02  0.7546771E-02  0.1396254E+00
         21   -1    0    0  503  501  0.00000000000E+00  0.00000000000E+00  0.25126604220E+03  0.25126604220E+03  0.00000000000E+00 0.  1.
         21   -1    0    0  501  502 -0.00000000000E+00 -0.00000000000E+00 -0.12727401045E+02  0.12727401045E+02  0.00000000000E+00 0. -1.
         21    1    1    2  503  504  0.27064091509E+02  0.18639094479E+02  0.22669246165E+03  0.22906189788E+03  0.00000000000E+00 0.  1.
         21    1    1    2  504  502 -0.27064091509E+02 -0.18639094479E+02  0.11846179498E+02  0.34931545356E+02  0.00000000000E+00 0. -1.
</event>
<event>
 4    1  0.1589319E+006  0.2161866E+02  0.7546771E-02  0.1510612E+00
         21   -1    0    0  504  501  0.00000000000E+00  0.00000000000E+00  0.19859357397E+02  0.19859357397E+02  0.00000000000E+00 0. -1.
         21   -1    0    0  503  502 -0.00000000000E+00 -0.00000000000E+00 -0.59742631575E+03  0.59742631575E+03  0.00000000000E+00 0. -1.
         21    1    1    2  503  501 -0.21169808173E+02 -0.43824179452E+01 -0.59128621285E+03  0.59168129248E+03  0.00000000000E+00 0. -1.
         21    1    1    2  504  502  0.21169808173E+02  0.43824179452E+01  0.13719254500E+02  0.25604380663E+02  0.00000000000E+00 0. -1.
</event>
<event>
 4    1  0.1589319E+006  0.2082704E+02  0.7546771E-02  0.1521749E+00
         21   -1    0    0  503  501  0.00000000000E+00  0.00000000000E+00  0.50922465968E+01  0.50922465968E+01  0.00000000000E+00 0. -1.
         21   -1    0    0  504  502 -0.00000000000E+00 -0.00000000000E+00 -0.14443574729E+03  0.14443574729E+03  0.00000000000E+00 0.  1.
         21    1    1    2  503  502 -0.17000048873E+01  0.20757542092E+02 -0.11755842099E+03  0.11938906113E+03  0.00000000000E+00 0.  1.
         21    1    1    2  504  501  0.17000048873E+01 -0.20757542092E+02 -0.21785079698E+02  0.30138932758E+02  0.00000000000E+00 0. -1.
</event>
<event>
 4    1  0.1589319E+006  0.2114050E+02  0.7546771E-02  0.1517268E+00
         21   -1    0    0  504  501  0.00000000000E+00  0.00000000000E+00  0.10597502508E+03  0.10597502508E+03  0.00000000000E+00 0.  1.
         21   -1    0    0  503  502 -0.00000000000E+00 -0.00000000000E+00 -0.18549078804E+02  0.18549078804E+02  0.00000000000E+00 0. -1.
         21    1    1    2  503  501 -0.12021194226E+02  0.17389991326E+02  0.98441453100E+02  0.10068585103E+03  0.00000000000E+00 0.  1.
         21    1    1    2  504  502  0.12021194226E+02 -0.17389991326E+02 -0.11015506819E+02  0.23838252860E+02  0.00000000000E+00 0. -1.
</event>
<event>
 4    1  0.1589319E+006  0.2174710E+02  0.7546771E-02  0.1508860E+00
         21   -1    0    0  502  501  0.00000000000E+00  0.00000000000E+00  0.12183531009E+02  0.12183531009E+02  0.00000000000E+00 0. -1.
         21   -1    0    0  504  502 -0.00000000000E+00 -0.00000000000E+00 -0.96947579145E+03  0.96947579145E+03  0.00000000000E+00 0.  1.
         21    1    1    2  503  501 -0.11334518002E+02  0.18559770972E+02  0.22567729128E+01  0.21863883938E+02  0.00000000000E+00 0. -1.
         21    1    1    2  504  503  0.11334518002E+02 -0.18559770972E+02 -0.95954903335E+03  0.95979543852E+03  0.00000000000E+00 0.  1.
</event>
<event>
 4    1  0.1589319E+006  0.2096280E+02  0.7546771E-02  0.1519797E+00
         21   -1    0    0  503  501  0.00000000000E+00  0.00000000000E+00  0.76966544662E+01  0.76966544662E+01  0.00000000000E+00 0.  1.
         21   -1    0    0  504  502 -0.00000000000E+00 -0.00000000000E+00 -0.98638003026E+02  0.98638003026E+02  0.00000000000E+00 0.  1.
         21    1    1    2  503  502  0.69500203685E+01  0.19777165700E+02 -0.10966422549E+02  0.23658011112E+02  0.00000000000E+00 0.  1.
         21    1    1    2  504  501 -0.69500203685E+01 -0.19777165700E+02 -0.79974926011E+02  0.82676646381E+02  0.00000000000E+00 0.  1.
</event>
<event>
 4    1  0.1589319E+006  0.2223527E+02  0.7546771E-02  0.1502331E+00
         21   -1    0    0  504  501  0.00000000000E+00  0.00000000000E+00  0.51759637718E+02  0.51759637718E+02  0.00000000000E+00 0. -1.
         21   -1    0    0  503  502 -0.00000000000E+00 -0.00000000000E+00 -0.50337398831E+02  0.50337398831E+02  0.00000000000E+00 0. -1.
         21    1    1    2  503  501  0.12758769598E+02  0.18210469069E+02 -0.45239374277E+02  0.50408415670E+02  0.00000000000E+00 0. -1.
         21    1    1    2  504  502 -0.12758769598E+02 -0.18210469069E+02  0.46661613163E+02  0.51688620879E+02  0.00000000000E+00 0. -1.
</event>
<event>
 4    1  0.1589319E+006  0.2298276E+02  0.7546771E-02  0.1492715E+00
         21   -1    0    0  504  501  0.00000000000E+00  0.00000000000E+00  0.59244822944E+03  0.59244822944E+03  0.00000000000E+00 0. -1.
         21   -1    0    0  503  502 -0.00000000000E+00 -0.00000000000E+00 -0.95492403523E+00  0.95492403523E+00  0.00000000000E+00 0.  1.
         21    1    1    2  503  501  0.18656985899E+02  0.13421032906E+02  0.37217124256E+03  0.37288019662E+03  0.00000000000E+00 0.  1.
         21    1    1    2  504  502 -0.18656985899E+02 -0.13421032906E+02  0.21932206284E+03  0.22052295685E+03  0.00000000000E+00 0. -1.
</event>
<event>
 4    1  0.1589319E+006  0.2932407E+02  0.7546771E-02  0.1425563E+00
         21   -1    0    0  503  501  0.00000000000E+00  0.00000000000E+00  0.78296911323E+02  0.78296911323E+02  0.00000000000E+00 0. -1.
         21   -1    0    0  504  502 -0.00000000000E+00 -0.00000000000E+00 -0.16301956826E+02  0.16301956826E+02  0.00000000000E+00 0. -1.
         21    1    1    2  503  502  0.35220944346E+01  0.29111786425E+02  0.58016329018E+02  0.65006120410E+02  0.00000000000E+00 0. -1.
         21    1    1    2  504  501 -0.35220944346E+01 -0.29111786425E+02  0.39786254785E+01  0.29592747739E+02  0.00000000000E+00 0. -1.
</event>
<event>
 4    1  0.1589319E+006  0.2075733E+02  0.7546771E-02  0.1522758E+00
         21   -1    0    0  502  501  0.00000000000E+00  0.00000000000E+00  0.74481750759E+01  0.74481750759E+01  0.00000000000E+00 0. -1.
         21   -1    0    0  503  502 -0.00000000000E+00 -0.00000000000E+00 -0.44778712779E+03  0.44778712779E+03  0.00000000000E+00 0. -1.
         21    1    1    2  503  504  0.29268840286E+01 -0.20549946444E+02 -0.43257615878E+03  0.43307389680E+03  0.00000000000E+00 0. -1.
         21    1    1    2  504  501 -0.29268840286E+01  0.20549946444E+02 -0.77627939349E+01  0.22161406062E+02  0.00000000000E+00 0. -1.
</event>
<event>
 4    1  0.1589319E+006  0.4388332E+02  0.7546771E-02  0.1327118E+00
         21   -1    0    0  504  501  0.00000000000E+00  0.00000000000E+00  0.18579188898E+03  0.18579188898E+03  0.00000000000E+00 0. -1.
         21   -1    0    0  501  502 -0.00000000000E+00 -0.00000000000E+00 -0.65324882232E+02  0.65324882232E+02  0.00000000000E+00 0. -1.
         21    1    1    2  503  502 -0.92295019189E+01 -0.42901772182E+02 -0.54933755215E+02  0.70309766206E+02  0.00000000000E+00 0. -1.
         21    1    1    2  504  503  0.92295019189E+01  0.42901772182E+02  0.17540076196E+03  0.18080700501E+03  0.00000000000E+00 0. -1.
</event>
<event>
 4    1  0.1589319E+006  0.2515249E+02  0.7546771E-02  0.1467105E+00
         21   -1    0    0  504  501  0.00000000000E+00  0.00000000000E+00  0.16348098133E+03  0.16348098133E+03  0.00000000000E+00 0. -1.
         21   -1    0    0  501  502 -0.00000000000E+00 -0.00000000000E+00 -0.57326185069E+01  0.57326185069E+01  0.00000000000E+00 0.  1.
         21    1    1    2  503  502  0.22381618973E+02  0.11476535500E+02  0.30645256721E+02  0.39645674347E+02  0.00000000000E+00 0.  1.
         21    1    1    2  504  503 -0.22381618973E+02 -0.11476535500E+02  0.12710310610E+03  0.12956792549E+03  0.00000000000E+00 0. -1.
</event>
<event>
 4    1  0.1589319E+006  0.2035421E+02  0.7546771E-02  0.1528688E+00
         21   -1    0    0  502  501  0.00000000000E+00  0.00000000000E+00  0.43967457936E+03  0.43967457936E+03  0.00000000000E+00 0. -1.
         21   -1    0    0  503  502 -0.00000000000E+00 -0.00000000000E+00 -0.94819904538E+00  0.94819904538E+00  0.00000000000E+00 0. -1.
         21    1    1    2  503  504 -0.20173658423E+02  0.27050685171E+01  0.20194769099E+03  0.20297084467E+03  0.00000000000E+00 0. -1.
         21    1    1    2  504  501  0.20173658423E+02 -0.27050685171E+01  0.23677868932E+03  0.23765193373E+03  0.00000000000E+00 0. -1.
</event>
<event>
 4    1  0.1589319E+006  0.2335363E+02  0.7546771E-02  0.1488105E+00
         21   -1    0    0  502  501  0.00000000000E+00  0.00000000000E+00  0.16998690202E+02  0.16998690202E+02  0.00000000000E+00 0.  1.
         21   -1    0    0  504  502 -0.00000000000E+00 -0.00000000000E+00 -0.10997955918E+03  0.10997955918E+03  0.00000000000E+00 0.  1.
         21    1    1    2  503  501  0.13546293586E+02  0.19023410906E+02  0.69412266267E+01  0.24363350745E+02  0.00000000000E+00 0.  1.
         21    1    1    2  504  503 -0.13546293586E+02 -0.19023410906E+02 -0.99922095607E+02  0.10261489864E+03  0.00000000000E+00 0.  1.
</event>
<event>
 4    1  0.1589319E+006  0.2541248E+02  0.7546771E-02  0.1464241E+00
         21   -1    0    0  504  501  0.00000000000E+00  0.00000000000E+00  0.37870588986E+01  0.37870588986E+01  0.00000000000E+00 0. -1.
         21   -1    0    0  501  502 -0.00000000000E+00 -0.00000000000E+00 -0.70549502139E+03  0.70549502139E+03  0.00000000000E+00 0. -1.
         21    1    1    2  503  502  0.24884474975E+02 -0.51533636919E+01 -0.65967445977E+03  0.66016375781E+03  0.00000000000E+00 0. -1.
         21    1    1    2  504  503 -0.24884474975E+02  0.51533636919E+01 -0.42033502720E+02  0.49118322478E+02  0.00000000000E+00 0. -1.
</event>
<event>
 4    1  0.1589319E+006  0.6682576E+02  0.7546771E-02  0.1238253E+00
         21   -1    0    0  503  501  0.00000000000E+00  0.00000000000E+00  0.33080949220E+02  0.33080949220E+02  0.00000000000E+00 0.  1.
         21   -1    0    0  504  502 -0.00000000000E+00 -0.00000000000E+00 -0.27811114837E+03  0.27811114837E+03  0.00000000000E+00 0. -1.
         21    1    1    2  503  502  0.34624384880E+02 -0.57156230709E+02 -0.23413390091E+03  0.24348381115E+03  0.00000000000E+00 0. -1.
         21    1    1    2  504  501 -0.34624384880E+02  0.57156230709E+02 -0.10896298240E+02  0.67708286440E+02  0.00000000000E+00 0.  1.
</event>
<event>
 4    1  0.1589319E+006  0.2267024E+02  0.7546771E-02  0.1496681E+00
         21   -1    0    0  504  501  0.00000000000E+00  0.00000000000E+00  0.13840485279E+03  0.13840485279E+03  0.00000000000E+00 0. -1.
         21   -1    0    0  503  502 -0.00000000000E+00 -0.00000000000E+00 -0.16556850797E+02  0.16556850797E+02  0.00000000000E+00 0.  1.
         21    1    1    2  503  501 -0.22341488334E+02  0.38468043383E+01 -0.73173974881E+01  0.23821929195E+02  0.00000000000E+00 0.  1.
         21    1    1    2  504  502  0.22341488334E+02 -0.38468043383E+01  0.12916539948E+03  0.13113977439E+03  0.00000000000E+00 0. -1.
</event>
<event>
 4    1  0.1589319E+006  0.2207653E+02  0.7546771E-02  0.1504432E+00
         21   -1    0    0  503  501  0.00000000000E+00  0.00000000000E+00  0.30089220337E+01  0.30089220337E+01  0.00000000000E+00 0.  1.
         21   -1    0    0  504  502 -0.00000000000E+00 -0.00000000000E+00 -0.41004772619E+03  0.41004772619E+03  0.00000000000E+00 0.  1.
         21    1    1    2  503  502 -0.21397642264E+02  0.54326757328E+01 -0.36415843428E+03  0.36482699779E+03  0.00000000000E+00 0.  1.
         21    1    1    2  504  501  0.21397642264E+02 -0.54326757328E+01 -0.42880369871E+02  0.48229650428E+02  0.00000000000E+00 0.  1.
</event>
<event>
 4    1  0.1589319E+006  0.2049863E+02  0.7546771E-02  0.1526545E+00
         21   -1    0    0  504  501  0.00000000000E+00  0.00000000000E+00  0.39383754518E+03  0.39383754518E+03  0.00000000000E+00 0. -1.
         21   -1    0    0  503  502 -0.00000000000E+00 -0.00000000000E+00 -0.75024017094E+02  0.75024017094E+02  0.00000000000E+00 0. -1.
         21    1    1    2  503  501 -0.89669637927E+00 -0.20479003941E+02  0.39216464879E+03  0.39270001964E+03  0.00000000000E+00 0. -1.
         21    1    1    2  504  502  0.89669637927E+00  0.20479003941E+02 -0.73351120707E+02  0.76161542630E+02  0.00000000000E+00 0. -1.
</event>
<event>
 4    1  0.1589319E+006  0.5166023E+02  0.7546771E-02  0.1291130E+00
         21   -1    0    0  504  501  0.00000000000E+00  0.00000000000E+00  0.11411117798E+03  0.11411117798E+03  0.00000000000E+00 0.  1.
         21   -1    0    0  503  502 -0.00000000000E+00 -0.00000000000E+00 -0.50079537737E+02  0.50079537737E+02  0.00000000000E+00 0.  1.
         21    1    1    2  503  501 -0.46871801071E+02  0.21721262787E+02  0.91950616956E+02  0.10546892884E+03  0.00000000000E+00 0.  1.
         21    1    1    2  504  502  0.46871801071E+02 -0.21721262787E+02 -0.27918976715E+02  0.58721786873E+02  0.00000000000E+00 0.  1.
</event>
<event>
 4    1  0.1589319E+006  0.2336822E+02  0.7546771E-02  0.1487925E+00
         21   -1    0    0  504  501  0.00000000000E+00  0.00000000000E+00  0.14566884988E+02  0.14566884988E+02  0.00000000000E+00 0.  1.
         21   -1    0    0  503  502 -0.00000000000E+00 -0.00000000000E+00 -0.76722979019E+02  0.76722979019E+02  0.00000000000E+00 0.  1.
         21    1    1    2  503  501 -0.18553029636E+01  0.23294456366E+02  0.15634577896E+01  0.23420466407E+02  0.00000000000E+00 0.  1.
         21    1    1    2  504  502  0.18553029636E+01 -0.23294456366E+02 -0.63719551820E+02  0.67869397600E+02  0.00000000000E+00 0.  1.
</event>
<event>
 4    1  0.1589319E+006  0.2827615E+02  0.7546771E-02  0.1435194E+00
         21   -1    0    0  504  501  0.00000000000E+00  0.00000000000E+00  0.38799502469E+01  0.38799502469E+01  0.00000000000E+00 0.  1.
         21   -1    0    0  503  502 -0.00000000000E+00 -0.00000000000E+00 -0.28505704330E+03  0.28505704330E+03  0.00000000000E+00 0.  1.
         21    1    1    2  503  501 -0.27783517687E+02 -0.52551719938E+01 -0.64540920398E+02  0.70463260594E+02  0.00000000000E+00 0.  1.
         21    1    1    2  504  502  0.27783517687E+02  0.52551719938E+01 -0.21663617266E+03  0.21847373296E+03  0.00000000000E+00 0.  1.
</event>
<event>
 4    1  0.1589319E+006  0.2429128E+02  0.7546771E-02  0.1476890E+00
         21   -1    0    0  503  501  0.00000000000E+00  0.00000000000E+00  0.22003384776E+02  0.22003384776E+02  0.00000000000E+00 0.  1.
         21   -1    0    0  504  502 -0.00000000000E+00 -0.00000000000E+00 -0.31119938569E+02  0.31119938569E+02  0.00000000000E+00 0.  1.
         21    1    1    2  503  502 -0.22068675899E+02  0.10150851541E+02 -0.14435049814E+02  0.28256625879E+02  0.00000000000E+00 0.  1.
         21    1    1    2  504  501  0.22068675899E+02 -0.10150851541E+02  0.53184960201E+01  0.24866697466E+02  0.00000000000E+00 0.  1.
</event>
<event>
 4    1  0.1589319E+006  0.2015012E+02  0.7546771E-02  0.1531753E+00
         21   -1    0    0  502  501  0.00000000000E+00  0.00000000000E+00  0.79494104085E+01  0.79494104085E+01  0.00000000000E+00 0.  1.
         21   -1    0    0  503  502 -0.00000000000E+00 -0.00000000000E+00 -0.13943639266E+03  0.13943639266E+03  0.00000000000E+00 0. -1.
         21    1    1    2  503  504 -0.20072554537E+02  0.17663764435E+01 -0.12440663589E+03  0.12602792780E+03  0.00000000000E+00 0. -1.
         21    1    1    2  504  501  0.20072554537E+02 -0.17663764435E+01 -0.70803463575E+01  0.21357875267E+02  0.00000000000E+00 0.  1.
</event>
<event>
 4    1  0.1589319E+006  0.2230355E+02  0.7546771E-02  0.1501434E+00
         21   -1    0    0  503  501  0.00000000000E+00  0.00000000000E+00  0.29880317592E+03  0.29880317592E+03  0.00000000000E+00 0. -1.
         21   -1    0    0  504  502 -0.00000000000E+00 -0.00000000000E+00 -0.17133314583E+01  0.17133314583E+01  0.00000000000E+00 0. -1.
         21    1    1    2  503  502  0.15242655850E+02 -0.16282190648E+02  0.17383312103E+03  0.17525810183E+03  0.00000000000E+00 0. -1.
         21    1    1    2  504  501 -0.15242655850E+02  0.16282190648E+02  0.12325672343E+03  0.12525840555E+03  0.00000000000E+00 0. -1.
</event>
<event>
 4    1  0.1589319E+006  0.2204130E+02  0.7546771E-02  0.1504901E+00
         21   -1    0    0  502  501  0.00000000000E+00  0.00000000000E+00  0.15165780308E+03  0.15165780308E+03  0.00000000000E+00 0.  1.
         21   -1    0    0  503  502 -0.00000000000E+00 -0.00000000000E+00 -0.17991487811E+02  0.17991487811E+02  0.00000000000E+00 0. -1.
         21    1    1    2  503  504  0.11886949299E+02 -0.18561236488E+02 -0.10070088726E+02  0.24232741293E+02  0.00000000000E+00 0. -1.
         21    1    1    2  504  501 -0.11886949299E+02  0.18561236488E+02  0.14373640399E+03  0.14541654960E+03  0.00000000000E+00 0.  1.
</event>
<event>
 4    1  0.1589319E+006  0.3766022E+02  0.7546771E-02  0.1362771E+00
         21   -1    0    0  502  501  0.00000000000E+00  0.00000000000E+00  0.83694489248E+02  0.83694489248E+02  0.00000000000E+00 0.  1.
         21   -1    0    0  504  502 -0.00000000000E+00 -0.00000000000E+00 -0.10652955800E+03  0.10652955800E+03  0.00000000000E+00 0.  1.
         21    1    1    2  503  501  0.30179208341E+02  0.22527933091E+02  0.75802118061E+02  0.84641913305E+02  0.00000000000E+00 0.  1.
         21    1    1    2  504  503 -0.30179208341E+02 -0.22527933091E+02 -0.98637186809E+02  0.10558213394E+03  0.00000000000E+00 0.  1.
</event>
<event>
 4    1  0.1589319E+006  0.5730719E+02  0.7546771E-02  0.1269267E+00
         21   -1    0    0  504  501  0.00000000000E+00  0.00000000000E+00  0.13025290536E+03  0.13025290536E+03  0.00000000000E+00 0. -1.
         21   -1    0    0  503  502 -0.00000000000E+00 -0.00000000000E+00 -0.33221604525E+02  0.33221604525E+02  0.00000000000E+00 0. -1.
         21    1    1    2  503  501 -0.94269917243E+00 -0.57299439492E+02  0.83848160201E+01  0.57917351351E+02  0.00000000000E+00 0. -1.
         21    1    1    2  504  502  0.94269917243E+00  0.57299439492E+02  0.88646484817E+02  0.10555715854E+03  0.00000000000E+00 0. -1.
</event>
<event>
 4    1  0.1589319E+006  0.2936315E+02  0.7546771E-02  0.1425213E+00
         21   -1    0    0  502  501  0.00000000000E+00  0.00000000000E+00  0.11812706605E+03  0.11812706605E+03  0.00000000000E+00 0. -1.
         21   -1    0    0  503  502 -0.00000000000E+00 -0.00000000000E+00 -0.99416674329E+01  0.99416674329E+01  0.00000000000E+00 0. -1.
         21    1    1    2  503  504 -0.33025826235E+01  0.29176831315E+02  0.21077407798E+02  0.36144870411E+02  0.00000000000E+00 0. -1.
         21    1    1    2  504  501  0.33025826235E+01 -0.29176831315E+02  0.87107990820E+02  0.91923863073E+02  0.00000000000E+00 0. -1.
</event>
<event>
 4    1  0.1589319E+006  0.2313950E+02  0.7546771E-02  0.1490754E+00
         21   -1    0    0  504  501  0.00000000000E+00  0.00000000000E+00  0.72706873614E+02  0.72706873614E+02  0.00000000000E+00 0. -1.
         21   -1    0    0  503  502 -0.00000000000E+00 -0.00000000000E+00 -0.30151530100E+02  0.30151530100E+02  0.00000000000E+00 0.  1.
         21    1    1    2  503  501 -0.18851483318E+02 -0.13418563301E+02  0.65987267141E+02  0.69926788065E+02  0.00000000000E+00 0. -1.
         21    1    1    2  504  502  0.18851483318E+02  0.13418563301E+02 -0.23431923627E+02  0.32931615648E+02  0.00000000000E+00 0.  1.
</event>
<event>
 4    1  0.1589319E+006  0.2081673E+02  0.7546771E-02  0.1521898E+00
         21   -1    0    0  504  501  0.00000000000E+00  0.00000000000E+00  0.33563175062E+02  0.33563175062E+02  0.00000000000E+00 0. -1.
         21   -1    0    0  501  502 -0.00000000000E+00 -0.00000000000E+00 -0.14324061318E+03  0.14324061318E+03  0.00000000000E+00 0. -1.
         21    1    1    2  503  502  0.83241766674E+01 -0.19079942111E+02 -0.13916247464E+03  0.14071080434E+03  0.00000000000E+00 0. -1.
         21    1    1    2  504  503 -0.83241766674E+01  0.19079942111E+02  0.29485036526E+02  0.36092983904E+02  0.00000000000E+00 0. -1.
</event>
<event>
 4    1  0.1589319E+006  0.3168388E+02  0.7546771E-02  0.1405507E+00
         21   -1    0    0  502  501  0.00000000000E+00  0.00000000000E+00  0.82673705452E+03  0.82673705452E+03  0.00000000000E+00 0. -1.
         21   -1    0    0  503  502 -0.00000000000E+00 -0.00000000000E+00 -0.82095533733E+01  0.82095533733E+01  0.00000000000E+00 0.  1.
         21    1    1    2  503  504 -0.10888948049E+02  0.29753976683E+02  0.23898887806E+02  0.39686586606E+02  0.00000000000E+00 0.  1.
         21    1    1    2  504  501  0.10888948049E+02 -0.29753976683E+02  0.79462861334E+03  0.79526002129E+03  0.00000000000E+00 0. -1.
</event>
<event>
 4    1  0.1589319E+006  0.2220648E+02  0.7546771E-02  0.1502710E+00
         21   -1    0    0  503  501  0.00000000000E+00  0.00000000000E+00  0.28706206702E+03  0.28706206702E+03  0.00000000000E+00 0. -1.
         21   -1    0    0  504  502 -0.00000000000E+00 -0.00000000000E+00 -0.17295217443E+02  0.17295217443E+02  0.00000000000E+00 0.  1.
         21    1    1    2  503  502 -0.22149364032E+02  0.15917056198E+01  0.27930690537E+03  0.28018828534E+03  0.00000000000E+00 0. -1.
         21    1    1    2  504  501  0.22149364032E+02 -0.15917056198E+01 -0.95400557983E+01  0.24168999119E+02  0.00000000000E+00 0.  1.
</event>
<event>
 4    1  0.1589319E+006  0.2151450E+02  0.7546771E-02  0.1512044E+00
         21   -1    0    0  503  501  0.00000000000E+00  0.00000000000E+00  0.10761065554E+03  0.10761065554E+03  0.00000000000E+00 0. -1.
         21   -1    0    0  504  502 -0.00000000000E+00 -0.00000000000E+00 -0.53483356008E+01  0.53483356008E+01  0.00000000000E+00 0.  1.
         21    1    1    2  503  502  0.14460227181E+01 -0.21465848416E+02  0.76120049042E+02  0.79102057471E+02  0.00000000000E+00 0. -1.
         21    1    1    2  504  501 -0.14460227181E+01  0.21465848416E+02  0.26142270899E+02  0.33856933672E+02  0.00000000000E+00 0.  1.
</event>
<event>
 4    1  0.1589319E+006  0.2166012E+02  0.7546771E-02  0.1510045E+00
         21   -1    0    0  503  501  0.00000000000E+00  0.00000000000E+00  0.50932426387E+02  0.50932426387E+02  0.00000000000E+00 0.  1.
         21   -1    0    0  504  502 -0.00000000000E+00 -0.00000000000E+00 -0.30671962305E+02  0.30671962305E+02  0.00000000000E+00 0. -1.
         21    1    1    2  503  502  0.21580980385E+02 -0.18499399168E+01 -0.23999500314E+02  0.32328578802E+02  0.00000000000E+00 0. -1.
         21    1    1    2  504  501 -0.21580980385E+02  0.18499399168E+01  0.44259964395E+02  0.49275809890E+02  0.00000000000E+00 0.  1.
</event>
<event>
 4    1  0.1589319E+006  0.2233154E+02  0.7546771E-02  0.1501067E+00
         21   -1    0    0  502  501  0.00000000000E+00  0.00000000000E+00  0.22611661079E+02  0.22611661079E+02  0.00000000000E+00 0.  1.
         21   -1    0    0  503  502 -0.00000000000E+00 -0.00000000000E+00 -0.52927686958E+02  0.52927686958E+02  0.00000000000E+00 0.  1.
         21    1    1    2  503  504 -0.22056616976E+02  0.34933535641E+01 -0.44004286210E+02  0.49346479878E+02  0.00000000000E+00 0.  1.
         21    1    1    2  504  501  0.22056616976E+02 -0.34933535641E+01  0.13688260330E+02  0.26192868159E+02  0.00000000000E+00 0.  1.
</event>
<event>
 4    1  0.1589319E+006  0.3349571E+02  0.7546771E-02  0.1391459E+00
         21   -1    0    0  504  501  0.00000000000E+00  0.00000000000E+00  0.23922037009E+02  0.23922037009E+02  0.00000000000E+00 0. -1.
         21   -1    0    0  503  502 -0.00000000000E+00 -0.00000000000E+00 -0.18094941033E+03  0.18094941033E+03  0.00000000000E+00 0. -1.
         21    1    1    2  503  501 -0.20151317341E+02 -0.26756063870E+02 -0.16668027190E+03  0.17001257479E+03  0.00000000000E+00 0. -1.
         21    1    1    2  504  502  0.20151317341E+02  0.26756063870E+02  0.96528985829E+01  0.34858872550E+02  0.00000000000E+00 0. -1.
</event>
<event>
 4    1  0.1589319E+006  0.3681831E+02  0.7546771E-02  0.1368212E+00
         21   -1    0    0  504  501  0.00000000000E+00  0.00000000000E+00  0.22746212664E+02  0.22746212664E+02  0.00000000000E+00 0.  1.
         21   -1    0    0  501  502 -0.00000000000E+00 -0.00000000000E+00 -0.27990726024E+03  0.27990726024E+03  0.00000000000E+00 0.  1.
         21    1    1    2  503  502 -0.27884180456E+02 -0.24042889346E+02 -0.26283436661E+03  0.26540062608E+03  0.00000000000E+00 0.  1.
         21    1    1    2  504  503  0.27884180456E+02  0.24042889346E+02  0.56733190399E+01  0.37252846827E+02  0.00000000000E+00 0.  1.
</event>
<event>
 4    1  0.1589319E+006  0.6189137E+02  0.7546771E-02  0.1253538E+00
         21   -1    0    0  504  501  0.00000000000E+00  0.00000000000E+00  0.13093110946E+03  0.13093110946E+03  0.00000000000E+00 0.  1.
         21   -1    0    0  503  502 -0.00000000000E+00 -0.00000000000E+00 -0.30206141665E+02  0.30206141665E+02  0.00000000000E+00 0. -1.
         21    1    1    2  503  501  0.44486690830E+02 -0.43028783437E+02  0.64650610173E+02  0.89499962350E+02  0.00000000000E+00 0.  1.
         21    1    1    2  504  502 -0.44486690830E+02  0.43028783437E+02  0.36074357621E+02  0.71637288773E+02  0.00000000000E+00 0. -1.
</event>
<event>
 4    1  0.1589319E+006  0.2582166E+02  0.7546771E-02  0.1459818E+00
         21   -1    0    0  504  501  0.00000000000E+00  0.00000000000E+00  0.31190342035E+03  0.31190342035E+03  0.00000000000E+00 0. -1.
         21   -1    0    0  503  502 -0.00000000000E+00 -0.00000000000E+00 -0.21110959133E+02  0.21110959133E+02  0.00000000000E+00 0.  1.
         21    1    1    2  503  501 -0.19545762867E+02  0.16873685007E+02  0.30324816151E+03  0.30434553644E+03  0.00000000000E+00 0. -1.
         21    1    1    2  504  502  0.19545762867E+02 -0.16873685007E+02 -0.12455700291E+02  0.28668843045E+02  0.00000000000E+00 0.  1.
</event>
<event>
 4    1  0.1589319E+006  0.2114334E+02  0.7546771E-02  0.1517228E+00
         21   -1    0    0  503  501  0.00000000000E+00  0.00000000000E+00  0.14810999889E+03  0.14810999889E+03  0.00000000000E+00 0.  1.
         21   -1    0    0  504  502 -0.00000000000E+00 -0.00000000000E+00 -0.14890767171E+02  0.14890767171E+02  0.00000000000E+00 0. -1.
         21    1    1    2  503  502  0.47993436187E+01  0.20591433315E+02  0.13938282899E+03  0.14097735223E+03  0.00000000000E+00 0.  1.
         21    1    1    2  504  501 -0.47993436187E+01 -0.20591433315E+02 -0.61635972746E+01  0.22023413825E+02  0.00000000000E+00 0. -1.
</event>
<event>
 4    1  0.1589319E+006  0.2816969E+02  0.7546771E-02  0.1436199E+00
         21   -1    0    0  504  501  0.00000000000E+00  0.00000000000E+00  0.75048632675E+02  0.75048632675E+02  0.00000000000E+00 0.  1.
         21   -1    0    0  503  502 -0.00000000000E+00 -0.00000000000E+00 -0.50766949345E+02  0.50766949345E+02  0.00000000000E+00 0.  1.
         21    1    1    2  503  501 -0.24963451841E+02 -0.13052114177E+02 -0.43833782817E+02  0.52105010588E+02  0.00000000000E+00 0.  1.
         21    1    1    2  504  502  0.24963451841E+02  0.13052114177E+02  0.68115466148E+02  0.73710571432E+02  0.00000000000E+00 0.  1.
</event>
<event>
 4    1  0.1589319E+006  0.2170473E+02  0.7546771E-02  0.1509437E+00
         21   -1    0    0  504  501  0.00000000000E+00  0.00000000000E+00  0.44807075925E+03  0.44807075925E+03  0.00000000000E+00 0.  1.
         21   -1    0    0  503  502 -0.00000000000E+00 -0.00000000000E+00 -0.17422031652E+03  0.17422031652E+03  0.00000000000E+00 0.  1.
         21    1    1    2  503  501  0.48171011666E+01 -0.21163426933E+02 -0.17328004457E+03  0.17463410019E+03  0.00000000000E+00 0.  1.
         21    1    1    2  504  502 -0.48171011666E+01  0.21163426933E+02  0.44713048730E+03  0.44765697557E+03  0.00000000000E+00 0.  1.
</event>
<event>
 4    1  0.1589319E+006  0.2671874E+02  0.7546771E-02  0.1450454E+00
         21   -1    0    0  504  501  0.00000000000E+00  0.00000000000E+00  0.59688709348E+02  0.59688709348E+02  0.00000000000E+00 0. -1.
         21   -1    0    0  503  502 -0.00000000000E+00 -0.00000000000E+00 -0.15813210440E+03  0.15813210440E+03  0.00000000000E+00 0. -1.
         21    1    1    2  503  501  0.51621269069E+01  0.26215327559E+02  0.55489049224E+02  0.61586731826E+02  0.00000000000E+00 0. -1.
         21    1    1    2  504  502 -0.51621269069E+01 -0.26215327559E+02 -0.15393244428E+03  0.15623408192E+03  0.00000000000E+00 0. -1.
</event>
<event>
 4    1  0.1589319E+006  0.2190302E+02  0.7546771E-02  0.1506752E+00
         21   -1    0    0  504  501  0.00000000000E+00  0.00000000000E+00  0.32733549889E+02  0.32733549889E+02  0.00000000000E+00 0.  1.
         21   -1    0    0  503  502 -0.00000000000E+00 -0.00000000000E+00 -0.14718047011E+02  0.14718047011E+02  0.00000000000E+00 0.  1.
         21    1    1    2  503  501 -0.20581073007E+02  0.74941194692E+01  0.10548426908E+02  0.24310732259E+02  0.00000000000E+00 0.  1.
         21    1    1    2  504  502  0.20581073007E+02 -0.74941194692E+01  0.74670759696E+01  0.23140864640E+02  0.00000000000E+00 0.  1.
</event>
<event>
 4    1  0.1589319E+006  0.2748510E+02  0.7546771E-02  0.1442795E+00
         21   -1    0    0  504  501  0.00000000000E+00  0.00000000000E+00  0.37139719300E+03  0.37139719300E+03  0.00000000000E+00 0.  1.
         21   -1    0    0  503  502 -0.00000000000E+00 -0.00000000000E+00 -0.21086750344E+01  0.21086750344E+01  0.00000000000E+00 0.  1.
         21    1    1    2  503  501 -0.14484998315E+02  0.23358411415E+02  0.14950582259E+03  0.15201125468E+03  0.00000000000E+00 0.  1.
         21    1    1    2  504  502  0.14484998315E+02 -0.23358411415E+02  0.21978269538E+03  0.22149461336E+03  0.00000000000E+00 0.  1.
</event>
<event>
 4    1  0.1589319E+006  0.2465157E+02  0.7546771E-02  0.1472739E+00
         21   -1    0    0  503  501  0.00000000000E+00  0.00000000000E+00  0.31650418474E+03  0.31650418474E+03  0.00000000000E+00 0.  1.
         21   -1    0    0  504  502 -0.00000000000E+00 -0.00000000000E+00 -0.13295713277E+02  0.13295713277E+02  0.00000000000E+00 0. -1.
         21    1    1    2  503  502  0.13343369116E+02  0.20728105820E+02  0.30413354574E+03  0.30513097764E+03  0.00000000000E+00 0.  1.
         21    1    1    2  504  501 -0.13343369116E+02 -0.20728105820E+02 -0.92507427567E+00  0.24668920379E+02  0.00000000000E+00 0. -1.
</event>
<event>
 4    1  0.1589319E+006  0.4397706E+02  0.7546771E-02  0.1326634E+00
         21   -1    0    0  504  501  0.00000000000E+00  0.00000000000E+00  0.56390718055E+02  0.56390718055E+02  0.00000000000E+00 0.  1.
         21   -1    0    0  503  502 -0.00000000000E+00 -0.00000000000E+00 -0.34962304722E+02  0.34962304722E+02  0.00000000000E+00 0. -1.
         21    1    1    2  503  501  0.43940452550E+02  0.17938947808E+01  0.17019399196E+02  0.47155502095E+02  0.00000000000E+00 0. -1.
         21    1    1    2  504  502 -0.43940452550E+02 -0.17938947808E+01  0.44090141366E+01  0.44197520682E+02  0.00000000000E+00 0.  1.
</event>
<event>
 4    1  0.1589319E+006  0.2384369E+02  0.7546771E-02  0.1482167E+00
         21   -1    0    0  502  501  0.00000000000E+00  0.00000000000E+00  0.65336695475E+01  0.65336695475E+01  0.00000000000E+00 0.  1.
         21   -1    0    0  503  502 -0.00000000000E+00 -0.00000000000E+00 -0.12308691376E+03  0.12308691376E+03  0.00000000000E+00 0.  1.
         21    1    1    2  503  504  0.38924873223E+01  0.23523820812E+02 -0.93362135397E+02  0.96358756370E+02  0.00000000000E+00 0.  1.
         21    1    1    2  504  501 -0.38924873223E+01 -0.23523820812E+02 -0.23191108813E+02  0.33261826936E+02  0.00000000000E+00 0.  1.
</event>
<event>
 4    1  0.1589319E+006  0.4475981E+02  0.7546771E-02  0.1322645E+00
         21   -1    0    0  503  501  0.00000000000E+00  0.00000000000E+00  0.11292682219E+03  0.11292682219E+03  0.00000000000E+00 0.  1.
         21   -1    0    0  504  502 -0.00000000000E+00 -0.00000000000E+00 -0.10806906332E+03  0.10806906332E+03  0.00000000000E+00 0.  1.
         21    1    1    2  503  502 -0.44711581043E+02 -0.20773572200E+01 -0.98592831013E+02  0.10827736245E+03  0.00000000000E+00 0.  1.
         21    1    1    2  504  501  0.44711581043E+02  0.20773572200E+01  0.10345058988E+03  0.11271852305E+03  0.00000000000E+00 0.  1.
</event>
<event>
 4    1  0.1589319E+006  0.7354458E+02  0.7546771E-02  0.1219683E+00
         21   -1    0    0  502  501  0.00000000000E+00  0.00000000000E+00  0.24665051286E+02  0.24665051286E+02  0.00000000000E+00 0.  1.
         21   -1    0    0  504  502 -0.00000000000E+00 -0.00000000000E+00 -0.35566982317E+03  0.35566982317E+03  0.00000000000E+00 0. -1.
         21    1    1    2  503  501 -0.64703320556E+02  0.34961196315E+02 -0.47745224421E+02  0.87683586798E+02  0.00000000000E+00 0.  1.
         21    1    1    2  504  503  0.64703320556E+02 -0.34961196315E+02 -0.28325954746E+03  0.29265128766E+03  0.00000000000E+00 0. -1.
</event>
<event>
 4    1  0.1589319E+006  0.2067041E+02  0.7546771E-02  0.1524023E+00
         21   -1    0    0  503  501  0.00000000000E+00  0.00000000000E+00  0.71179354299E+02  0.71179354299E+02  0.00000000000E+00 0.  1.
         21   -1    0    0  501  502 -0.00000000000E+00 -0.00000000000E+00 -0.43681671186E+03  0.43681671186E+03  0.00000000000E+00 0. -1.
         21    1    1    2  503  504 -0.47001376056E+01 -0.20128944530E+02  0.69428117605E+02  0.72439831692E+02  0.00000000000E+00 0.  1.
         21    1    1    2  504  502  0.47001376056E+01  0.20128944530E+02 -0.43506547516E+03  0.43555623446E+03  0.00000000000E+00 0. -1.
</event>
<event>
 4    1  0.1589319E+006  0.2670118E+02  0.7546771E-02  0.1450633E+00
         21   -1    0    0  502  501  0.00000000000E+00  0.00000000000E+00  0.20308532591E+03  0.20308532591E+03  0.00000000000E+00 0.  1.
         21   -1    0    0  504  502 -0.00000000000E+00 -0.00000000000E+00 -0.40726722125E+01  0.40726722125E+01  0.00000000000E+00 0.  1.
         21    1    1    2  503  501  0.15623106567E+02  0.21653447051E+02  0.13798538709E+03  0.14054508273E+03  0.00000000000E+00 0.  1.
         21    1    1    2  504  503 -0.15623106567E+02 -0.21653447051E+02  0.61027266603E+02  0.66612915392E+02  0.00000000000E+00 0.  1.
</event>
<event>
 4    1  0.1589319E+006  0.2596241E+02  0.7546771E-02  0.1458319E+00
         21   -1    0    0  503  501  0.00000000000E+00  0.00000000000E+00  0.27470392575E+01  0.27470392575E+01  0.00000000000E+00 0.  1.
         21   -1    0    0  504  502 -0.00000000000E+00 -0.00000000000E+00 -0.24977132943E+03  0.24977132943E+03  0.00000000000E+00 0.  1.
         21    1    1    2  503  502 -0.14062638663E+02 -0.21824042451E+02 -0.10675566472E+03  0.10986727714E+03  0.00000000000E+00 0.  1.
         21    1    1    2  504  501  0.14062638663E+02  0.21824042451E+02 -0.14026862545E+03  0.14265109156E+03  0.00000000000E+00 0.  1.
</event>
<event>
 4    1  0.1589319E+006  0.3348337E+02  0.7546771E-02  0.1391551E+00
         21   -1    0    0  503  501  0.00000000000E+00  0.00000000000E+00  0.16787391242E+02  0.16787391242E+02  0.00000000000E+00 0. -1.
         21   -1    0    0  501  502 -0.00000000000E+00 -0.00000000000E+00 -0.11054740838E+03  0.11054740838E+03  0.00000000000E+00 0. -1.
         21    1    1    2  503  504 -0.31653696650E+02 -0.10916950872E+02 -0.68213617840E+01  0.34171147252E+02  0.00000000000E+00 0. -1.
         21    1    1    2  504  502  0.31653696650E+02  0.10916950872E+02 -0.86938655354E+02  0.93163652369E+02  0.00000000000E+00 0. -1.
</event>
<event>
 4    1  0.1589319E+006  0.2002195E+02  0.7546771E-02  0.1533700E+00
         21   -1    0    0  503  501  0.00000000000E+00  0.00000000000E+00  0.48748121193E+03  0.48748121193E+03  0.00000000000E+00 0. -1.
         21   -1    0    0  501  502 -0.00000000000E+00 -0.00000000000E+00 -0.43479805282E+03  0.43479805282E+03  0.00000000000E+00 0.  1.
         21    1    1    2  503  504  0.11585124467E+00 -0.20021617828E+02  0.48704492184E+03  0.48745628982E+03  0.00000000000E+00 0. -1.
         21    1    1    2  504  502 -0.11585124467E+00  0.20021617828E+02 -0.43436176273E+03  0.43482297492E+03  0.00000000000E+00 0.  1.
</event>
<event>
 4    1  0.1589319E+006  0.3845855E+02  0.7546771E-02  0.1357763E+00
         21   -1    0    0  503  501  0.00000000000E+00  0.00000000000E+00  0.77765118087E+01  0.77765118087E+01  0.00000000000E+00 0. -1.
         21   -1    0    0  504  502 -0.00000000000E+00 -0.00000000000E+00 -0.37220007193E+03  0.37220007193E+03  0.00000000000E+00 0. -1.
         21    1    1    2  503  502 -0.37803872558E+02  0.70659462056E+01 -0.49356344602E+02  0.62570832890E+02  0.00000000000E+00 0. -1.
         21    1    1    2  504  501  0.37803872558E+02 -0.70659462056E+01 -0.31506721552E+03  0.31740575085E+03  0.00000000000E+00 0. -1.
</event>
<event>
 4    1  0.1589319E+006  0.2724854E+02  0.7546771E-02  0.1445127E+00
         21   -1    0    0  504  501  0.00000000000E+00  0.00000000000E+00  0.35212895538E+03  0.35212895538E+03  0.00000000000E+00 0.  1.
         21   -1    0    0  503  502 -0.00000000000E+00 -0.00000000000E+00 -0.26708211473E+01  0.26708211473E+01  0.00000000000E+00 0. -1.
         21    1    1    2  503  501  0.19748997150E+02 -0.18773913651E+02  0.93333171286E+02  0.97229437849E+02  0.00000000000E+00 0. -1.
         21    1    1    2  504  502 -0.19748997150E+02  0.18773913651E+02  0.25612496294E+03  0.25757033867E+03  0.00000000000E+00 0.  1.
</event>
<event>
 4    1  0.1589319E+006  0.2354679E+02  0.7546771E-02  0.1485744E+00
         21   -1    0    0  503  501  0.00000000000E+00  0.00000000000E+00  0.31030361440E+02  0.31030361440E+02  0.00000000000E+00 0. -1.
         21   -1    0    0  504  502 -0.00000000000E+00 -0.00000000000E+00 -0.17944397533E+02  0.17944397533E+02  0.00000000000E+00 0. -1.
         21    1    1    2  503  502 -0.18499138095E+02  0.14568231351E+02  0.81404348228E+01  0.24914215903E+02  0.00000000000E+00 0. -1.
         21    1    1    2  504  501  0.18499138095E+02 -0.14568231351E+02  0.49455290843E+01  0.24060543071E+02  0.00000000000E+00 0. -1.
</event>
<event>
 4    1  0.1589319E+006  0.7637894E+02  0.7546771E-02  0.1212513E+00
         21   -1    0    0  503  501  0.00000000000E+00  0.00000000000E+00  0.68266710873E+03  0.68266710873E+03  0.00000000000E+00 0. -1.
         21   -1    0    0  504  502 -0.00000000000E+00 -0.00000000000E+00 -0.10443215047E+02  0.10443215047E+02  0.00000000000E+00 0.  1.
         21    1    1    2  503  502 -0.72292293720E+02 -0.24648860025E+02  0.18838182935E+03  0.20327679568E+03  0.00000000000E+00 0.  1.
         21    1    1    2  504  501  0.72292293720E+02  0.24648860025E+02  0.48384206434E+03  0.48983352810E+03  0.00000000000E+00 0. -1.
</event>
<event>
 4    1  0.1589319E+006  0.2011794E+02  0.7546771E-02  0.1532240E+00
         21   -1    0    0  503  501  0.00000000000E+00  0.00000000000E+00  0.32124234270E+02  0.32124234270E+02  0.00000000000E+00 0.  1.
         21   -1    0    0  504  502 -0.00000000000E+00 -0.00000000000E+00 -0.36545483859E+02  0.36545483859E+02  0.00000000000E+00 0.  1.
         21    1    1    2  503  502  0.19351682545E+02 -0.54994603278E+01 -0.30003899772E+02  0.36124308751E+02  0.00000000000E+00 0.  1.
         21    1    1    2  504  501 -0.19351682545E+02  0.54994603278E+01  0.25582650182E+02  0.32545409378E+02  0.00000000000E+00 0.  1.
</event>
<event>
 4    1  0.1589319E+006  0.2719126E+02  0.7546771E-02  0.1445696E+00
         21   -1    0    0  502  501  0.00000000000E+00  0.00000000000E+00  0.30369243167E+02  0.30369243167E+02  0.00000000000E+00 0.  1.
         21   -1    0    0  504  502 -0.00000000000E+00 -0.00000000000E+00 -0.14566796745E+03  0.14566796745E+03  0.00000000000E+00 0. -1.
         21    1    1    2  503  501 -0.23985409642E+02  0.12808778629E+02  0.22677807380E+02  0.35406886805E+02  0.00000000000E+00 0.  1.
         21    1    1    2  504  503  0.23985409642E+02 -0.12808778629E+02 -0.13797653166E+03  0.14063032381E+03  0.00000000000E+00 0. -1.
</event>
<event>
 4    1  0.1589319E+006  0.2050525E+02  0.7546771E-02  0.1526447E+00
         21   -1    0    0  503  501  0.00000000000E+00  0.00000000000E+00  0.16579840523E+03  0.16579840523E+03  0.00000000000E+00 0.  1.
         21   -1    0    0  504  502 -0.00000000000E+00 -0.00000000000E+00 -0.84041978110E+02  0.84041978110E+02  0.00000000000E+00 0.  1.
         21    1    1    2  503  502  0.20348181167E+02  0.25331550410E+01 -0.82142780265E+02  0.84663461427E+02  0.00000000000E+00 0.  1.
         21    1    1    2  504  501 -0.20348181167E+02 -0.25331550410E+01  0.16389920739E+03  0.16517692192E+03  0.00000000000E+00 0.  1.
</event>
<event>
 4    1  0.1589319E+006  0.3937581E+02  0.7546771E-02  0.1352183E+00
         21   -1    0    0  503  501  0.00000000000E+00  0.00000000000E+00  0.72921760367E+02  0.72921760367E+02  0.00000000000E+00 0.  1.
         21   -1    0    0  504  502 -0.00000000000E+00 -0.00000000000E+00 -0.59480502051E+02  0.59480502051E+02  0.00000000000E+00 0.  1.
         21    1    1    2  503  502  0.39312233325E+02  0.22366031261E+01 -0.46345276638E+02  0.60813968372E+02  0.00000000000E+00 0.  1.
         21    1    1    2  504  501 -0.39312233325E+02 -0.22366031261E+01  0.59786534954E+02  0.71588294046E+02  0.00000000000E+00 0.  1.
</event>
<event>
 4    1  0.1589319E+006  0.2826433E+02  0.7546771E-02  0.1435305E+00
         21   -1    0    0  504  501  0.00000000000E+00  0.00000000000E+00  0.11960253114E+03  0.11960253114E+03  0.00000000000E+00 0. -1.
         21   -1    0    0  503  502 -0.00000000000E+00 -0.00000000000E+00 -0.45049275837E+02  0.45049275837E+02  0.00000000000E+00 0. -1.
         21    1    1    2  503  501  0.14526204094E+02 -0.24245856298E+02 -0.38701369760E+02  0.47923565960E+02  0.00000000000E+00 0. -1.
         21    1    1    2  504  502 -0.14526204094E+02  0.24245856298E+02  0.11325462506E+03  0.11672824102E+03  0.00000000000E+00 0. -1.
</event>
<event>
 4    1  0.1589319E+006  0.2169456E+02  0.7546771E-02  0.1509575E+00
         21   -1    0    0  502  501  0.00000000000E+00  0.00000000000E+00  0.10187580546E+03  0.10187580546E+03  0.00000000000E+00 0. -1.
         21   -1    0    0  503  502 -0.00000000000E+00 -0.00000000000E+00 -0.98669868049E+01  0.98669868049E+01  0.00000000000E+00 0. -1.
         21    1    1    2  503  504 -0.20603615805E+02  0.67930041894E+01  0.52610114257E+01  0.22323353946E+02  0.00000000000E+00 0. -1.
         21    1    1    2  504  501  0.20603615805E+02 -0.67930041894E+01  0.86747807227E+02  0.89419438316E+02  0.00000000000E+00 0. -1.
</event>
<event>
 4    1  0.1589319E+006  0.2636571E+02  0.7546771E-02  0.1454086E+00
         21   -1    0    0  503  501  0.00000000000E+00  0.00000000000E+00  0.65333858022E+01  0.65333858022E+01  0.00000000000E+00 0.  1.
         21   -1    0    0  504  502 -0.00000000000E+00 -0.00000000000E+00 -0.11675414069E+03  0.11675414069E+03  0.00000000000E+00 0.  1.
         21    1    1    2  503  502 -0.13833086135E+02  0.22445406724E+02 -0.36752795839E+02  0.45231831237E+02  0.00000000000E+00 0.  1.
         21    1    1    2  504  501  0.13833086135E+02 -0.22445406724E+02 -0.73467959044E+02  0.78055695251E+02  0.00000000000E+00 0.  1.
</event>
<event>
 4    1  0.1589319E+006  0.3316477E+02  0.7546771E-02  0.1393946E+00
         21   -1    0    0  503  501  0.00000000000E+00  0.00000000000E+00  0.46727534460E+01  0.46727534460E+01  0.00000000000E+00 0.  1.
         21   -1    0    0  504  502 -0.00000000000E+00 -0.00000000000E+00 -0.49801774765E+03  0.49801774765E+03  0.00000000000E+00 0. -1.
         21    1    1    2  503  502  0.32752388524E+02  0.52137321848E+01 -0.64147785821E+02  0.72213851740E+02  0.00000000000E+00 0.  1.
         21    1    1    2  504  501 -0.32752388524E+02 -0.52137321848E+01 -0.42919720838E+03  0.43047664935E+03  0.00000000000E+00 0. -1.
</event>
<event>
 4    1  0.1589319E+006  0.2128278E+02  0.7546771E-02  0.1515266E+00
         21   -1    0    0  503  501  0.00000000000E+00  0.00000000000E+00  0.87932208261E+00  0.87932208261E+00  0.00000000000E+00 0. -1.
         21   -1    0    0  504  502 -0.00000000000E+00 -0.00000000000E+00 -0.61558985259E+03  0.61558985259E+03  0.00000000000E+00 0. -1.
         21    1    1    2  503  502  0.23641758258E+01  0.21151061584E+02 -0.18283137360E+03  0.18406593358E+03  0.00000000000E+00 0. -1.
         21    1    1    2  504  501 -0.23641758258E+01 -0.21151061584E+02 -0.43187915691E+03  0.43240324109E+03  0.00000000000E+00 0. -1.
</event>
<event>
 4    1  0.1589319E+006  0.2273432E+02  0.7546771E-02  0.1495861E+00
         21   -1    0    0  504  501  0.00000000000E+00  0.00000000000E+00  0.57006260389E+02  0.57006260389E+02  0.00000000000E+00 0. -1.
         21   -1    0    0  503  502 -0.00000000000E+00 -0.00000000000E+00 -0.93653998723E+01  0.93653998723E+01  0.00000000000E+00 0. -1.
         21    1    1    2  503  501  0.10696536769E+02  0.20060747894E+02  0.29748642923E+02  0.37441037121E+02  0.00000000000E+00 0. -1.
         21    1    1    2  504  502 -0.10696536769E+02 -0.20060747894E+02  0.17892217594E+02  0.28930623141E+02  0.00000000000E+00 0. -1.
</event>
<event>
 4    1  0.1589319E+006  0.3079616E+02  0.7546771E-02  0.1412801E+00
         21   -1    0    0  504  501  0.00000000000E+00  0.00000000000E+00  0.18455597573E+01  0.18455597573E+01  0.00000000000E+00 0. -1.
         21   -1    0    0  503  502 -0.00000000000E+00 -0.00000000000E+00 -0.51629936445E+03  0.51629936445E+03  0.00000000000E+00 0. -1.
         21    1    1    2  503  501  0.19840050237E+02  0.23553678441E+02 -0.23950644667E+03  0.24147824199E+03  0.00000000000E+00 0. -1.
         21    1    1    2  504  502 -0.19840050237E+02 -0.23553678441E+02 -0.27494735803E+03  0.27666668222E+03  0.00000000000E+00 0. -1.
</event>
<event>
 4    1  0.1589319E+006  0.3222664E+02  0.7546771E-02  0.1401185E+00
         21   -1    0    0  504  501  0.00000000000E+00  0.00000000000E+00  0.14968395625E+01  0.14968395625E+01  0.00000000000E+00 0. -1.
         21   -1    0    0  501  502 -0.00000000000E+00 -0.00000000000E+00 -0.12081985316E+04  0.12081985316E+04  0.00000000000E+00 0. -1.
         21    1    1    2  503  502 -0.26693513255E+02  0.18055827589E+02 -0.99800150795E+03  0.99852169051E+03  0.00000000000E+00 0. -1.
         21    1    1    2  504  503  0.26693513255E+02 -0.18055827589E+02 -0.20870018409E+03  0.21117368065E+03  0.00000000000E+00 0. -1.
</event>
<event>
 4    1  0.1589319E+006  0.2107553E+02  0.7546771E-02  0.1518189E+00
         21   -1    0    0  504  501  0.00000000000E+00  0.00000000000E+00  0.29709213235E+02  0.29709213235E+02  0.00000000000E+00 0. -1.
         21   -1    0    0  503  502 -0.00000000000E+00 -0.00000000000E+00 -0.29370675086E+03  0.29370675086E+03  0.00000000000E+00 0.  1.
         21    1    1    2  503  501  0.19806058633E+02  0.72040250544E+01  0.25539667099E+02  0.33112724610E+02  0.00000000000E+00 0. -1.
         21    1    1    2  504  502 -0.19806058633E+02 -0.72040250544E+01 -0.28953720472E+03  0.29030323948E+03  0.00000000000E+00 0.  1.
</event>
<event>
 4    1  0.1589319E+006  0.2976097E+02  0.7546771E-02  0.1421685E+00
         21   -1    0    0  503  501  0.00000000000E+00  0.00000000000E+00  0.55187369160E+02  0.55187369160E+02  0.00000000000E+00 0.  1.
         21   -1    0    0  504  502 -0.00000000000E+00 -0.00000000000E+00 -0.46754878490E+03  0.46754878490E+03  0.00000000000E+00 0. -1.
         21    1    1    2  503  502  0.41389564320E+01 -0.29471759303E+02  0.50662291442E+02  0.58756985380E+02  0.00000000000E+00 0.  1.
         21    1    1    2  504  501 -0.41389564320E+01  0.29471759303E+02 -0.46302370718E+03  0.46397916868E+03  0.00000000000E+00 0. -1.
</event>
<event>
 4    1  0.1589319E+006  0.2870170E+02  0.7546771E-02  0.1431224E+00
         21   -1    0    0  504  501  0.00000000000E+00  0.00000000000E+00  0.20338737646E+03  0.20338737646E+03  0.00000000000E+00 0.  1.
         21   -1    0    0  503  502 -0.00000000000E+00 -0.00000000000E+00 -0.43492508599E+01  0.43492508599E+01  0.00000000000E+00 0.  1.
         21    1    1    2  503  501  0.26001523624E+02  0.12153530401E+02  0.12674911442E+03  0.12995816842E+03  0.00000000000E+00 0.  1.
         21    1    1    2  504  502 -0.26001523624E+02 -0.12153530401E+02  0.72289011182E+02  0.77778458905E+02  0.00000000000E+00 0.  1.
</event>
<event>
 4    1  0.1589319E+006  0.5206884E+02  0.7546771E-02  0.1289443E+00
         21   -1    0    0  504  501  0.00000000000E+00  0.00000000000E+00  0.10874669658E+02  0.10874669658E+02  0.00000000000E+00 0. -1.
         21   -1    0    0  503  502 -0.00000000000E+00 -0.00000000000E+00 -0.25825494002E+03  0.25825494002E+03  0.00000000000E+00 0. -1.
         21    1    1    2  503  501 -0.24942239865E+02 -0.45706116856E+02 -0.14873361326E+03  0.15758442868E+03  0.00000000000E+00 0. -1.
         21    1    1    2  504  502  0.24942239865E+02  0.45706116856E+02 -0.98646657105E+02  0.11154518100E+03  0.00000000000E+00 0. -1.
</event>
<event>
 4    1  0.1589319E+006  0.3243396E+02  0.7546771E-02  0.1399560E+00
         21   -1    0    0  504  501  0.00000000000E+00  0.00000000000E+00  0.10054192184E+04  0.10054192184E+04  0.00000000000E+00 0. -1.
         21   -1    0    0  503  502 -0.00000000000E+00 -0.00000000000E+00 -0.26111433914E+01  0.26111433914E+01  0.00000000000E+00 0. -1.
         21    1    1    2  503  501 -0.10371874562E+02  0.30730866698E+02  0.11122419828E+03  0.11585674012E+03  0.00000000000E+00 0. -1.
         21    1    1    2  504  502  0.10371874562E+02 -0.30730866698E+02  0.89158387674E+03  0.89217362167E+03  0.00000000000E+00 0. -1.
</event>
<event>
 4    1  0.1589319E+006  0.4145116E+02  0.7546771E-02  0.1340186E+00
         21   -1    0    0  503  501  0.00000000000E+00  0.00000000000E+00  0.14486492132E+03  0.14486492132E+03  0.00000000000E+00 0.  1.
         21   -1    0    0  501  502 -0.00000000000E+00 -0.00000000000E+00 -0.62339969432E+02  0.62339969432E+02  0.00000000000E+00 0.  1.
         21    1    1    2  503  504  0.40360432221E+02  0.94463643639E+01  0.13448981242E+03  0.14073275359E+03  0.00000000000E+00 0.  1.
         21    1    1    2  504  502 -0.40360432221E+02 -0.94463643639E+01 -0.51964860532E+02  0.66472137161E+02  0.00000000000E+00 0.  1.
</event>
<event>
 4    1  0.1589319E+006  0.2499008E+02  0.7546771E-02  0.1468914E+00
         21   -1    0    0  503  501  0.00000000000E+00  0.00000000000E+00  0.17873004704E+02  0.17873004704E+02  0.00000000000E+00 0.  1.
         21   -1    0    0  504  502 -0.00000000000E+00 -0.00000000000E+00 -0.10902929478E+03  0.10902929478E+03  0.00000000000E+00 0.  1.
         21    1    1    2  503  502  0.19885936704E+02  0.15134514386E+02  0.67267271507E+01  0.25879583892E+02  0.00000000000E+00 0.  1.
         21    1    1    2  504  501 -0.19885936704E+02 -0.15134514386E+02 -0.97883017228E+02  0.10102271559E+03  0.00000000000E+00 0.  1.
</event>
<event>
 4    1  0.1589319E+006  0.2059773E+02  0.7546771E-02  0.1525086E+00
         21   -1    0    0  502  501  0.00000000000E+00  0.00000000000E+00  0.10927033588E+02  0.10927033588E+02  0.00000000000E+00 0.  1.
         21   -1    0    0  504  502 -0.00000000000E+00 -0.00000000000E+00 -0.10787630567E+03  0.10787630567E+03  0.00000000000E+00 0.  1.
         21    1    1    2  503  501  0.18030134648E+02 -0.99589588438E+01 -0.95046994632E+00  0.20619651059E+02  0.00000000000E+00 0.  1.
         21    1    1    2  504  503 -0.18030134648E+02  0.99589588438E+01 -0.95998802136E+02  0.98183688198E+02  0.00000000000E+00 0.  1.
</event>
<event>
 4    1  0.1589319E+006  0.2148147E+02  0.7546771E-02  0.1512501E+00
         21   -1    0    0  504  501  0.00000000000E+00  0.00000000000E+00  0.61393386696E+02  0.61393386696E+02  0.00000000000E+00 0. -1.
         21   -1    0    0  503  502 -0.00000000000E+00 -0.00000000000E+00 -0.75744131874E+01  0.75744131874E+01  0.00000000000E+00 0. -1.
         21    1    1    2  503  501  0.98063592437E+01  0.19112526515E+02  0.29929041544E+02  0.36840207371E+02  0.00000000000E+00 0. -1.
         21    1    1    2  504  502 -0.98063592437E+01 -0.19112526515E+02  0.23889931965E+02  0.32127592513E+02  0.00000000000E+00 0. -1.
</event>
<event>
 4    1  0.1589319E+006  0.4397882E+02  0.7546771E-02  0.1326625E+00
         21   -1    0    0  504  501  0.00000000000E+00  0.00000000000E+00  0.17677412503E+02  0.17677412503E+02  0.00000000000E+00 0.  1.
         21   -1    0    0  503  502 -0.00000000000E+00 -0.00000000000E+00 -0.87771600092E+03  0.87771600092E+03  0.00000000000E+00 0. -1.
         21    1    1    2  503  501 -0.35993652051E+02  0.25270405783E+02 -0.11155141620E+02  0.45371506268E+02  0.00000000000E+00 0.  1.
         21    1    1    2  504  502  0.35993652051E+02 -0.25270405783E+02 -0.84888344680E+03  0.85002190716E+03  0.00000000000E+00 0. -1.
</event>
<event>
 4    1  0.1589319E+006  0.2153623E+02  0.7546771E-02  0.1511745E+00
         21   -1    0    0  503  501  0.00000000000E+00  0.00000000000E+00  0.21060511283E+02  0.21060511283E+02  0.00000000000E+00 0. -1.
         21   -1    0    0  504  502 -0.00000000000E+00 -0.00000000000E+00 -0.24636621614E+02  0.24636621614E+02  0.00000000000E+00 0. -1.
         21    1    1    2  503  502  0.20387595900E+02  0.69393806642E+01  0.56543901327E+01  0.22266144668E+02  0.00000000000E+00 0. -1.
         21    1    1    2  504  501 -0.20387595900E+02 -0.69393806642E+01 -0.92305004639E+01  0.23430988229E+02  0.00000000000E+00 0. -1.
</event>
<event>
 4    1  0.1589319E+006  0.2319332E+02  0.7546771E-02  0.1490085E+00
         21   -1    0    0  504  501  0.00000000000E+00  0.00000000000E+00  0.63347667257E+02  0.63347667257E+02  0.00000000000E+00 0.  1.
         21   -1    0    0  503  502 -0.00000000000E+00 -0.00000000000E+00 -0.62254540564E+02  0.62254540564E+02  0.00000000000E+00 0.  1.
         21    1    1    2  503  501 -0.64680559678E+01  0.22273178574E+02 -0.57814448233E+02  0.62293183065E+02  0.00000000000E+00 0.  1.
         21    1    1    2  504  502  0.64680559678E+01 -0.22273178574E+02  0.58907574926E+02  0.63309024756E+02  0.00000000000E+00 0.  1.
</event>
<event>
 4    1  0.1589319E+006  0.2571293E+02  0.7546771E-02  0.1460984E+00
         21   -1    0    0  504  501  0.00000000000E+00  0.00000000000E+00  0.13534425914E+02  0.13534425914E+02  0.00000000000E+00 0.  1.
         21   -1    0    0  503  502 -0.00000000000E+00 -0.00000000000E+00 -0.76218837535E+02  0.76218837535E+02  0.00000000000E+00 0.  1.
         21    1    1    2  503  501 -0.25507069497E+02  0.32472000880E+01 -0.58233910000E+02  0.63658017379E+02  0.00000000000E+00 0.  1.
         21    1    1    2  504  502  0.25507069497E+02 -0.32472000880E+01 -0.44505016214E+01  0.26095246070E+02  0.00000000000E+00 0.  1.
</event>
<event>
 4    1  0.1589319E+006  0.2162500E+02  0.7546771E-02  0.1510525E+00
         21   -1    0    0  504  501  0.00000000000E+00  0.00000000000E+00  0.32596369996E+03  0.32596369996E+03  0.00000000000E+00 0. -1.
         21   -1    0    0  503  502 -0.00000000000E+00 -0.00000000000E+00 -0.16989861466E+01  0.16989861466E+01  0.00000000000E+00 0.  1.
         21    1    1    2  503  501 -0.14604575047E+02  0.15948266301E+02  0.22675547964E+03  0.22778430226E+03  0.00000000000E+00 0. -1.
         21    1    1    2  504  502  0.14604575047E+02 -0.15948266301E+02  0.97509234178E+02  0.99878383849E+02  0.00000000000E+00 0.  1.
</event>
<event>
 4    1  0.1589319E+006  0.2245301E+02  0.7546771E-02  0.1499483E+00
         21   -1    0    0  504  501  0.00000000000E+00  0.00000000000E+00  0.99350370065E+01  0.99350370065E+01  0.00000000000E+00 0. -1.
         21   -1    0    0  503  502 -0.00000000000E+00 -0.00000000000E+00 -0.65908104066E+02  0.65908104066E+02  0.00000000000E+00 0. -1.
         21    1    1    2  503  501  0.12958388140E+02  0.18336238491E+02 -0.97964787045E+01  0.24497111262E+02  0.00000000000E+00 0. -1.
         21    1    1    2  504  502 -0.12958388140E+02 -0.18336238491E+02 -0.46176588355E+02  0.51346029810E+02  0.00000000000E+00 0. -1.
</event>
<event>
 4    1  0.1589319E+006  0.2891169E+02  0.7546771E-02  0.1429295E+00
         21   -1    0    0  504  501  0.00000000000E+00  0.00000000000E+00  0.45577504719E+02  0.45577504719E+02  0.00000000000E+00 0.  1.
         21   -1    0    0  501  502 -0.00000000000E+00 -0.00000000000E+00 -0.15980923744E+03  0.15980923744E+03  0.00000000000E+00 0.  1.
         21    1    1    2  503  502  0.23009801417E+02 -0.17505286782E+02 -0.15373711808E+03  0.15643205394E+03  0.00000000000E+00 0.  1.
         21    1    1    2  504  503 -0.23009801417E+02  0.17505286782E+02  0.39505385353E+02  0.48954688218E+02  0.00000000000E+00 0.  1.
</event>
<event>
 4    1  0.1589319E+006  0.2051643E+02  0.7546771E-02  0.1526282E+00
         21   -1    0    0  503  501  0.00000000000E+00  0.00000000000E+00  0.40972914171E+02  0.40972914171E+02  0.00000000000E+00 0.  1.
         21   -1    0    0  504  502 -0.00000000000E+00 -0.00000000000E+00 -0.87126303938E+02  0.87126303938E+02  0.00000000000E+00 0.  1.
         21    1    1    2  503  502 -0.19122326593E+02  0.74337341871E+01 -0.83231799494E+02  0.85723137047E+02  0.00000000000E+00 0.  1.
         21    1    1    2  504  501  0.19122326593E+02 -0.74337341871E+01  0.37078409726E+02  0.42376081062E+02  0.00000000000E+00 0.  1.
</event>
<event>
 4    1  0.1589319E+006  0.2852562E+02  0.7546771E-02  0.1432857E+00
         21   -1    0    0  502  501  0.00000000000E+00  0.00000000000E+00  0.16445251523E+03  0.16445251523E+03  0.00000000000E+00 0.  1.
         21   -1    0    0  503  502 -0.00000000000E+00 -0.00000000000E+00 -0.24041036609E+02  0.24041036609E+02  0.00000000000E+00 0.  1.
         21    1    1    2  503  504  0.21492701540E+02 -0.18755653012E+02 -0.13784231686E+02  0.31681473807E+02  0.00000000000E+00 0.  1.
         21    1    1    2  504  501 -0.21492701540E+02  0.18755653012E+02  0.15419571030E+03  0.15681207803E+03  0.00000000000E+00 0.  1.
</event>
<event>
 4    1  0.1589319E+006  0.4342883E+02  0.7546771E-02  0.1329485E+00
         21   -1    0    0  504  501  0.00000000000E+00  0.00000000000E+00  0.70073095000E+02  0.70073095000E+02  0.00000000000E+00 0.  1.
         21   -1    0    0  503  502 -0.00000000000E+00 -0.00000000000E+00 -0.27457331291E+02  0.27457331291E+02  0.00000000000E+00 0.  1.
         21    1    1    2  503  501 -0.41155230603E+02 -0.13867586200E+02  0.14458481112E+02  0.45772378451E+02  0.00000000000E+00 0.  1.
         21    1    1    2  504  502  0.41155230603E+02  0.13867586200E+02  0.28157282597E+02  0.51758047840E+02  0.00000000000E+00 0.  1.
</event>
<event>
 4    1  0.1589319E+006  0.2389179E+02  0.7546771E-02  0.1481594E+00
         21   -1    0    0  504  501  0.00000000000E+00  0.00000000000E+00  0.19326585456E+01  0.19326585456E+01  0.00000000000E+00 0.  1.
         21   -1    0    0  503  502 -0.00000000000E+00 -0.00000000000E+00 -0.31596500322E+03  0.31596500322E+03  0.00000000000E+00 0.  1.
         21    1    1    2  503  501  0.12637186641E+02 -0.20276070102E+02 -0.11641931026E+03  0.11884558598E+03  0.00000000000E+00 0.  1.
         21    1    1    2  504  502 -0.12637186641E+02  0.20276070102E+02 -0.19761303441E+03  0.19905207578E+03  0.00000000000E+00 0.  1.
</event>
<event>
 4    1  0.1589319E+006  0.2060837E+02  0.7546771E-02  0.1524930E+00
         21   -1    0    0  503  501  0.00000000000E+00  0.00000000000E+00  0.39791113833E+02  0.39791113833E+02  0.00000000000E+00 0. -1.
         21   -1    0    0  501  502 -0.00000000000E+00 -0.00000000000E+00 -0.21344227262E+02  0.21344227262E+02  0.00000000000E+00 0.  1.
         21    1    1    2  503  504  0.19903704369E+02 -0.53429679305E+01  0.30836791499E+02  0.37089249977E+02  0.00000000000E+00 0. -1.
         21    1    1    2  504  502 -0.19903704369E+02  0.53429679305E+01 -0.12389904928E+02  0.24046091118E+02  0.00000000000E+00 0.  1.
</event>
<event>
 4    1  0.1589319E+006  0.2559922E+02  0.7546771E-02  0.1462210E+00
         21   -1    0    0  503  501  0.00000000000E+00  0.00000000000E+00  0.11246923280E+03  0.11246923280E+03  0.00000000000E+00 0.  1.
         21   -1    0    0  504  502 -0.00000000000E+00 -0.00000000000E+00 -0.11203273547E+02  0.11203273547E+02  0.00000000000E+00 0.  1.
         21    1    1    2  503  502  0.14034815579E+02 -0.21408974295E+02  0.77953907746E+01  0.26759827092E+02  0.00000000000E+00 0.  1.
         21    1    1    2  504  501 -0.14034815579E+02  0.21408974295E+02  0.93470568479E+02  0.96912679256E+02  0.00000000000E+00 0.  1.
</event>
<event>
 4    1  0.1589319E+006  0.2502347E+02  0.7546771E-02  0.1468541E+00
         21   -1    0    0  502  501  0.00000000000E+00  0.00000000000E+00  0.23620306248E+02  0.23620306248E+02  0.00000000000E+00 0. -1.
         21   -1    0    0  504  502 -0.00000000000E+00 -0.00000000000E+00 -0.26419895059E+03  0.26419895059E+03  0.00000000000E+00 0.  1.
         21    1    1    2  503  501  0.16146595679E+02 -0.19117045822E+02  0.16209472648E+02  0.29814778156E+02  0.00000000000E+00 0. -1.
         21    1    1    2  504  503 -0.16146595679E+02  0.19117045822E+02 -0.25678811699E+03  0.25800447868E+03  0.00000000000E+00 0.  1.
</event>
<event>
 4    1  0.1589319E+006  0.2501374E+02  0.7546771E-02  0.1468650E+00
         21   -1    0    0  504  501  0.00000000000E+00  0.00000000000E+00  0.24160592436E+02  0.24160592436E+02  0.00000000000E+00 0.  1.
         21   -1    0    0  503  502 -0.00000000000E+00 -0.00000000000E+00 -0.64888071984E+02  0.64888071984E+02  0.00000000000E+00 0.  1.
         21    1    1    2  503  501 -0.55992614948E+01 -0.24379001333E+02 -0.54877909866E+02  0.60309803735E+02  0.00000000000E+00 0.  1.
         21    1    1    2  504  502  0.55992614948E+01  0.24379001333E+02  0.14150430318E+02  0.28738860685E+02  0.00000000000E+00 0.  1.
</event>
<event>
 4    1  0.1589319E+006  0.2232540E+02  0.7546771E-02  0.1501147E+00
         21   -1    0    0  502  501  0.00000000000E+00  0.00000000000E+00  0.12684122382E+03  0.12684122382E+03  0.00000000000E+00 0.  1.
         21   -1    0    0  504  502 -0.00000000000E+00 -0.00000000000E+00 -0.99423442054E+01  0.99423442054E+01  0.00000000000E+00 0. -1.
         21    1    1    2  503  501 -0.18358637118E+02  0.12703702197E+02  0.11163567153E+03  0.11384615393E+03  0.00000000000E+00 0.  1.
         21    1    1    2  504  503  0.18358637118E+02 -0.12703702197E+02  0.52632080914E+01  0.22937414104E+02  0.00000000000E+00 0. -1.
</event>
<event>
 4    1  0.1589319E+006  0.2472137E+02  0.7546771E-02  0.1471945E+00
         21   -1    0    0  503  501  0.00000000000E+00  0.00000000000E+00  0.36018175876E+01  0.36018175876E+01  0.00000000000E+00 0. -1.
         21   -1    0    0  504  502 -0.00000000000E+00 -0.00000000000E+00 -0.17731011652E+03  0.17731011652E+03  0.00000000000E+00 0.  1.
         21    1    1    2  503  502  0.14458691883E+01  0.24679051033E+02 -0.10562212814E+03  0.10847663366E+03  0.00000000000E+00 0.  1.
         21    1    1    2  504  501 -0.14458691883E+01 -0.24679051033E+02 -0.68086170793E+02  0.72435300447E+02  0.00000000000E+00 0. -1.
</event>
<event>
 4    1  0.1589319E+006  0.4056341E+02  0.7546771E-02  0.1345215E+00
         21   -1    0    0  503  501  0.00000000000E+00  0.00000000000E+00  0.13239591542E+02  0.13239591542E+02  0.00000000000E+00 0. -1.
         21   -1    0    0  501  502 -0.00000000000E+00 -0.00000000000E+00 -0.29499501857E+03  0.29499501857E+03  0.00000000000E+00 0. -1.
         21    1    1    2  503  504  0.39924096273E+02 -0.71733602707E+01 -0.23635930152E+02  0.46947286982E+02  0.00000000000E+00 0. -1.
         21    1    1    2  504  502 -0.39924096273E+02  0.71733602707E+01 -0.25811949687E+03  0.26128732313E+03  0.00000000000E+00 0. -1.
</event>
<event>
 4    1  0.1589319E+006  0.2918128E+02  0.7546771E-02  0.1426847E+00
         21   -1    0    0  504  501  0.00000000000E+00  0.00000000000E+00  0.65155244411E+03  0.65155244411E+03  0.00000000000E+00 0.  1.
         21   -1    0    0  503  502 -0.00000000000E+00 -0.00000000000E+00 -0.28413199419E+01  0.28413199419E+01  0.00000000000E+00 0.  1.
         21    1    1    2  503  501 -0.27282420452E+02  0.10354533937E+02  0.56479961900E+03  0.56555296521E+03  0.00000000000E+00 0.  1.
         21    1    1    2  504  502  0.27282420452E+02 -0.10354533937E+02  0.83911505173E+02  0.88840798844E+02  0.00000000000E+00 0.  1.
</event>
<event>
 4    1  0.1589319E+006  0.2914789E+02  0.7546771E-02  0.1427148E+00
         21   -1    0    0  503  501  0.00000000000E+00  0.00000000000E+00  0.55471301017E+02  0.55471301017E+02  0.00000000000E+00 0. -1.
         21   -1    0    0  504  502 -0.00000000000E+00 -0.00000000000E+00 -0.15536107612E+02  0.15536107612E+02  0.00000000000E+00 0. -1.
         21    1    1    2  503  502  0.29102095841E+02 -0.16333195259E+01  0.15741907764E+02  0.33127139555E+02  0.00000000000E+00 0. -1.
         21    1    1    2  504  501 -0.29102095841E+02  0.16333195259E+01  0.24193285640E+02  0.37880269074E+02  0.00000000000E+00 0. -1.
</event>
<event>
 4    1  0.1589319E+006  0.4244572E+02  0.7546771E-02  0.1334721E+00
         21   -1    0    0  504  501  0.00000000000E+00  0.00000000000E+00  0.16663940321E+02  0.16663940321E+02  0.00000000000E+00 0.  1.
         21   -1    0    0  503  502 -0.00000000000E+00 -0.00000000000E+00 -0.49944329108E+03  0.49944329108E+03  0.00000000000E+00 0. -1.
         21    1    1    2  503  501 -0.35915047884E+02 -0.22621849733E+02 -0.12968206993E+02  0.44382577015E+02  0.00000000000E+00 0.  1.
         21    1    1    2  504  502  0.35915047884E+02  0.22621849733E+02 -0.46981114376E+03  0.47172465438E+03  0.00000000000E+00 0. -1.
</event>
<event>
 4    1  0.1589319E+006  0.2554509E+02  0.7546771E-02  0.1462797E+00
         21   -1    0    0  504  501  0.00000000000E+00  0.00000000000E+00  0.32966482147E+02  0.32966482147E+02  0.00000000000E+00 0. -1.
         21   -1    0    0  503  502 -0.00000000000E+00 -0.00000000000E+00 -0.20463781138E+02  0.20463781138E+02  0.00000000000E+00 0. -1.
         21    1    1    2  503  501 -0.92468247546E+01 -0.23812767786E+02  0.11083069503E+02  0.27845755643E+02  0.00000000000E+00 0. -1.
         21    1    1    2  504  502  0.92468247546E+01  0.23812767786E+02  0.14196315053E+01  0.25584507642E+02  0.00000000000E+00 0. -1.
</event>
<event>
 4    1  0.1589319E+006  0.2050492E+02  0.7546771E-02  0.1526452E+00
         21   -1    0    0  504  501  0.00000000000E+00  0.00000000000E+00  0.39806581950E+02  0.39806581950E+02  0.00000000000E+00 0.  1.
         21   -1    0    0  503  502 -0.00000000000E+00 -0.00000000000E+00 -0.10563763212E+02  0.10563763212E+02  0.00000000000E+00 0. -1.
         21    1    1    2  503  501 -0.16986755498E+02  0.11484845786E+02  0.14331392587E+02  0.25016801525E+02  0.00000000000E+00 0.  1.
         21    1    1    2  504  502  0.16986755498E+02 -0.11484845786E+02  0.14911426151E+02  0.25353543636E+02  0.00000000000E+00 0. -1.
</event>
<event>
 4    1  0.1589319E+006  0.2046969E+02  0.7546771E-02  0.1526973E+00
         21   -1    0    0  504  501  0.00000000000E+00  0.00000000000E+00  0.34957685523E+02  0.34957685523E+02  0.00000000000E+00 0. -1.
         21   -1    0    0  503  502 -0.00000000000E+00 -0.00000000000E+00 -0.11986499101E+02  0.11986499101E+02  0.00000000000E+00 0. -1.
         21    1    1    2  503  501 -0.19626802331E+02  0.58134937499E+01  0.11612177220E+02  0.23534033634E+02  0.00000000000E+00 0. -1.
         21    1    1    2  504  502  0.19626802331E+02 -0.58134937499E+01  0.11359009201E+02  0.23410150989E+02  0.00000000000E+00 0. -1.
</event>
<event>
 4    1  0.1589319E+006  0.2567291E+02  0.7546771E-02  0.1461415E+00
         21   -1    0    0  503  501  0.00000000000E+00  0.00000000000E+00  0.19679737269E+02  0.19679737269E+02  0.00000000000E+00 0.  1.
         21   -1    0    0  504  502 -0.00000000000E+00 -0.00000000000E+00 -0.28520252080E+03  0.28520252080E+03  0.00000000000E+00 0. -1.
         21    1    1    2  503  502 -0.26969774910E+01  0.25530854647E+02  0.10449761419E+02  0.27718148212E+02  0.00000000000E+00 0.  1.
         21    1    1    2  504  501  0.26969774910E+01 -0.25530854647E+02 -0.27597254495E+03  0.27716410986E+03  0.00000000000E+00 0. -1.
</event>
<event>
 4    1  0.1589319E+006  0.2749965E+02  0.7546771E-02  0.1442653E+00
         21   -1    0    0  503  501  0.00000000000E+00  0.00000000000E+00  0.83576924826E+01  0.83576924826E+01  0.00000000000E+00 0.  1.
         21   -1    0    0  504  502 -0.00000000000E+00 -0.00000000000E+00 -0.49971388537E+03  0.49971388537E+03  0.00000000000E+00 0.  1.
         21    1    1    2  503  502  0.17773323613E+02 -0.20984276971E+02 -0.47556714466E+03  0.47636156435E+03  0.00000000000E+00 0.  1.
         21    1    1    2  504  501 -0.17773323613E+02  0.20984276971E+02 -0.15789048227E+02  0.31710013500E+02  0.00000000000E+00 0.  1.
</event>
<event>
 4    1  0.1589319E+006  0.5304888E+02  0.7546771E-02  0.1285468E+00
         21   -1    0    0  502  501  0.00000000000E+00  0.00000000000E+00  0.16455227333E+03  0.16455227333E+03  0.00000000000E+00 0.  1.
         21   -1    0    0  504  502 -0.00000000000E+00 -0.00000000000E+00 -0.24970478780E+02  0.24970478780E+02  0.00000000000E+00 0. -1.
         21    1    1    2  503  501  0.48911710238E+02  0.20538458360E+02  0.12298475896E+03  0.13393817457E+03  0.00000000000E+00 0.  1.
         21    1    1    2  504  503 -0.48911710238E+02 -0.20538458360E+02  0.16597035591E+02  0.55584577543E+02  0.00000000000E+00 0. -1.
</event>
<event>
 4    1  0.1589319E+006  0.2409204E+02  0.7546771E-02  0.1479222E+00
         21   -1    0    0  502  501  0.00000000000E+00  0.00000000000E+00  0.87302496720E+01  0.87302496720E+01  0.00000000000E+00 0.  1.
         21   -1    0    0  503  502 -0.00000000000E+00 -0.00000000000E+00 -0.45368173672E+03  0.45368173672E+03  0.00000000000E+00 0.  1.
         21    1    1    2  503  504  0.20915847150E+02  0.11956322237E+02 -0.43606999609E+03  0.43673500867E+03  0.00000000000E+00 0.  1.
         21    1    1    2  504  501 -0.20915847150E+02 -0.11956322237E+02 -0.88814909545E+01  0.25676977724E+02  0.00000000000E+00 0.  1.
</event>
<event>
 4    1  0.1589319E+006  0.2349659E+02  0.7546771E-02  0.1486355E+00
         21   -1    0    0  503  501  0.00000000000E+00  0.00000000000E+00  0.47909985695E+01  0.47909985695E+01  0.00000000000E+00 0. -1.
         21   -1    0    0  504  502 -0.00000000000E+00 -0.00000000000E+00 -0.15377972554E+03  0.15377972554E+03  0.00000000000E+00 0. -1.
         21    1    1    2  503  502  0.23242763294E+02 -0.34444034739E+01 -0.11418854439E+03  0.11658093168E+03  0.00000000000E+00 0. -1.
         21    1    1    2  504  501 -0.23242763294E+02  0.34444034739E+01 -0.34800182575E+02  0.41989792427E+02  0.00000000000E+00 0. -1.
</event>
