<event>
 4    1  0.2229986E+005  0.2221031E+02  0.7546771E-02  0.1502660E+00
          2   -1    0    0  502    0  0.00000000000E+00  0.00000000000E+00  0.99383821338E+02  0.99383821338E+02  0.00000000000E+00 0. -1.
         21   -1    0    0  503  502 -0.00000000000E+00 -0.00000000000E+00 -0.14019296182E+02  0.14019296182E+02  0.00000000000E+00 0.  1.
          2    1    1    2  501    0 -0.20862799386E+02  0.76184926630E+01  0.88253802972E+02  0.91005667778E+02  0.00000000000E+00 0. -1.
         21    1    1    2  503  501  0.20862799386E+02 -0.76184926630E+01 -0.28892778160E+01  0.22397449743E+02  0.00000000000E+00 0.  1.
</event>
<event>
 4    1  0.2229986E+005  0.2074999E+02  0.7546771E-02  0.1522864E+00
          2   -1    0    0  502    0  0.00000000000E+00  0.00000000000E+00  0.98103588090E+03  0.98103588090E+03  0.00000000000E+00 0.  1.
         21   -1    0    0  503  502 -0.00000000000E+00 -0.00000000000E+00 -0.13582229431E+01  0.13582229431E+01  0.00000000000E+00 0.  1.
          2    1    1    2  501    0  0.20223404869E+02  0.46450054208E+01  0.89395641798E+03  0.89419720388E+03  0.00000000000E+00 0.  1.
         21    1    1    2  503  501 -0.20223404869E+02 -0.46450054208E+01  0.85721239975E+02  0.88196899961E+02  0.00000000000E+00 0.  1.
</event>
<event>
 4    1  0.2229986E+005  0.2345504E+02  0.7546771E-02  0.1486862E+00
          2   -1    0    0  503    0  0.00000000000E+00  0.00000000000E+00  0.73471804659E+03  0.73471804659E+03  0.00000000000E+00 0. -1.
         21   -1    0    0  501  502 -0.00000000000E+00 -0.00000000000E+00 -0.84310099403E+00  0.84310099403E+00  0.00000000000E+00 0. -1.
          2    1    1    2  501    0  0.66261209762E+00 -0.23445675473E+02  0.48995412506E+03  0.49051522241E+03  0.00000000000E+00 0. -1.
         21    1    1    2  503  502 -0.66261209762E+00  0.23445675473E+02  0.24392082054E+03  0.24504592518E+03  0.00000000000E+00 0. -1.
</event>
<event>
 4    1  0.2229986E+005  0.2199555E+02  0.7546771E-02  0.1505511E+00
          2   -1    0    0  502    0  0.00000000000E+00  0.00000000000E+00  0.52159862465E+03  0.52159862465E+03  0.00000000000E+00 0. -1.
         21   -1    0    0  503  502 -0.00000000000E+00 -0.00000000000E+00 -0.65129244596E+01  0.65129244596E+01  0.00000000000E+00 0.  1.
          2    1    1    2  501    0  0.16340304263E+02  0.14724089492E+02  0.50207396497E+03  0.50255553987E+03  0.00000000000E+00 0. -1.
         21    1    1    2  503  501 -0.16340304263E+02 -0.14724089492E+02  0.13011735222E+02  0.25556009240E+02  0.00000000000E+00 0.  1.
</event>
<event>
 4    1  0.2229986E+005  0.2307419E+02  0.7546771E-02  0.1491569E+00
          2   -1    0    0  503    0  0.00000000000E+00  0.00000000000E+00  0.94080152436E+02  0.94080152436E+02  0.00000000000E+00 0. -1.
         21   -1    0    0  501  502 -0.00000000000E+00 -0.00000000000E+00 -0.17261958450E+02  0.17261958450E+02  0.00000000000E+00 0. -1.
          2    1    1    2  501    0 -0.19250422733E+02 -0.12721614674E+02  0.84051139969E+02  0.87160842042E+02  0.00000000000E+00 0. -1.
         21    1    1    2  503  502  0.19250422733E+02  0.12721614674E+02 -0.72329459840E+01  0.24181268844E+02  0.00000000000E+00 0. -1.
</event>
<event>
 4    1  0.2229986E+005  0.3332956E+02  0.7546771E-02  0.1392703E+00
          2   -1    0    0  503    0  0.00000000000E+00  0.00000000000E+00  0.27622696994E+03  0.27622696994E+03  0.00000000000E+00 0. -1.
         21   -1    0    0  501  502 -0.00000000000E+00 -0.00000000000E+00 -0.28029061821E+02  0.28029061821E+02  0.00000000000E+00 0. -1.
          2    1    1    2  501    0  0.31630851214E+02 -0.10504691128E+02  0.26489113556E+03  0.26697972391E+03  0.00000000000E+00 0. -1.
         21    1    1    2  503  502 -0.31630851214E+02  0.10504691128E+02 -0.16693227440E+02  0.37276307845E+02  0.00000000000E+00 0. -1.
</event>
<event>
 4    1  0.2229986E+005  0.2606559E+02  0.7546771E-02  0.1457227E+00
          2   -1    0    0  503    0  0.00000000000E+00  0.00000000000E+00  0.66162129106E+03  0.66162129106E+03  0.00000000000E+00 0. -1.
         21   -1    0    0  501  502 -0.00000000000E+00 -0.00000000000E+00 -0.17465255773E+01  0.17465255773E+01  0.00000000000E+00 0. -1.
          2    1    1    2  501    0  0.91600396539E+01 -0.24403050408E+02  0.54284535010E+03  0.54347078056E+03  0.00000000000E+00 0. -1.
         21    1    1    2  503  502 -0.91600396539E+01  0.24403050408E+02  0.11702941538E+03  0.11989703608E+03  0.00000000000E+00 0. -1.
</event>
<event>
 4    1  0.2229986E+005  0.2527253E+02  0.7546771E-02  0.1465778E+00
          2   -1    0    0  502    0  0.00000000000E+00  0.00000000000E+00  0.14544184568E+04  0.14544184568E+04  0.00000000000E+00 0. -1.
         21   -1    0    0  503  502 -0.00000000000E+00 -0.00000000000E+00 -0.75551502160E+00  0.75551502160E+00  0.00000000000E+00 0.  1.
          2    1    1    2  501    0  0.25025594299E+02 -0.35242459766E+01  0.11976580719E+04  0.11979246879E+04  0.00000000000E+00 0. -1.
         21    1    1    2  503  501 -0.25025594299E+02  0.35242459766E+01  0.25600486994E+03  0.25724928399E+03  0.00000000000E+00 0.  1.
</event>
<event>
 4    1  0.2229986E+005  0.2182802E+02  0.7546771E-02  0.1507763E+00
          2   -1    0    0  503    0  0.00000000000E+00  0.00000000000E+00  0.16116411614E+02  0.16116411614E+02  0.00000000000E+00 0. -1.
         21   -1    0    0  501  502 -0.00000000000E+00 -0.00000000000E+00 -0.59562392668E+02  0.59562392668E+02  0.00000000000E+00 0. -1.
          2    1    1    2  501    0 -0.14655118922E+02 -0.16176838391E+02  0.51309813920E+01  0.22422969941E+02  0.00000000000E+00 0. -1.
         21    1    1    2  503  502  0.14655118922E+02  0.16176838391E+02 -0.48576962446E+02  0.53255834341E+02  0.00000000000E+00 0. -1.
</event>
<event>
 4    1  0.2229986E+005  0.2560883E+02  0.7546771E-02  0.1462106E+00
          2   -1    0    0  503    0  0.00000000000E+00  0.00000000000E+00  0.61186152468E+01  0.61186152468E+01  0.00000000000E+00 0.  1.
         21   -1    0    0  501  502 -0.00000000000E+00 -0.00000000000E+00 -0.30498220098E+03  0.30498220098E+03  0.00000000000E+00 0.  1.
          2    1    1    2  501    0 -0.23521032705E+02 -0.10127852326E+02 -0.24162096570E+02  0.35208227489E+02  0.00000000000E+00 0.  1.
         21    1    1    2  503  502  0.23521032705E+02  0.10127852326E+02 -0.27470148917E+03  0.27589258874E+03  0.00000000000E+00 0.  1.
</event>
<event>
 4    1  0.2229986E+005  0.4257674E+02  0.7546771E-02  0.1334014E+00
          2   -1    0    0  502    0  0.00000000000E+00  0.00000000000E+00  0.38048869557E+03  0.38048869557E+03  0.00000000000E+00 0.  1.
         21   -1    0    0  503  502 -0.00000000000E+00 -0.00000000000E+00 -0.15634875180E+03  0.15634875180E+03  0.00000000000E+00 0.  1.
          2    1    1    2  501    0 -0.23964391851E+02  0.35192135784E+02  0.37636735647E+03  0.37876795735E+03  0.00000000000E+00 0.  1.
         21    1    1    2  503  501  0.23964391851E+02 -0.35192135784E+02 -0.15222741270E+03  0.15806949002E+03  0.00000000000E+00 0.  1.
</event>
<event>
 4    1  0.2229986E+005  0.2325485E+02  0.7546771E-02  0.1489323E+00
          2   -1    0    0  503    0  0.00000000000E+00  0.00000000000E+00  0.18837104574E+04  0.18837104574E+04  0.00000000000E+00 0.  1.
         21   -1    0    0  501  502 -0.00000000000E+00 -0.00000000000E+00 -0.76917068900E+00  0.76917068900E+00  0.00000000000E+00 0. -1.
          2    1    1    2  501    0  0.50186295163E+01  0.22706861005E+02  0.16874236208E+04  0.16875838539E+04  0.00000000000E+00 0.  1.
         21    1    1    2  503  502 -0.50186295163E+01 -0.22706861005E+02  0.19551766594E+03  0.19689577414E+03  0.00000000000E+00 0. -1.
</event>
<event>
 4    1  0.2229986E+005  0.2469946E+02  0.7546771E-02  0.1472194E+00
          2   -1    0    0  503    0  0.00000000000E+00  0.00000000000E+00  0.54556097670E+03  0.54556097670E+03  0.00000000000E+00 0.  1.
         21   -1    0    0  501  502 -0.00000000000E+00 -0.00000000000E+00 -0.44814260162E+01  0.44814260162E+01  0.00000000000E+00 0.  1.
          2    1    1    2  501    0 -0.65959418159E+01  0.23802457399E+02  0.50879040521E+03  0.50938957573E+03  0.00000000000E+00 0.  1.
         21    1    1    2  503  502  0.65959418159E+01 -0.23802457399E+02  0.32289145471E+02  0.40652826985E+02  0.00000000000E+00 0.  1.
</event>
<event>
 4    1  0.2229986E+005  0.2562982E+02  0.7546771E-02  0.1461879E+00
          2   -1    0    0  503    0  0.00000000000E+00  0.00000000000E+00  0.21816093187E+04  0.21816093187E+04  0.00000000000E+00 0.  1.
         21   -1    0    0  501  502 -0.00000000000E+00 -0.00000000000E+00 -0.31211777729E+00  0.31211777729E+00  0.00000000000E+00 0.  1.
          2    1    1    2  501    0 -0.20156746940E+02  0.15830141482E+02  0.12955992621E+04  0.12958527447E+04  0.00000000000E+00 0.  1.
         21    1    1    2  503  502  0.20156746940E+02 -0.15830141482E+02  0.88569793881E+03  0.88606869182E+03  0.00000000000E+00 0.  1.
</event>
<event>
 4    1  0.2229986E+005  0.2779499E+02  0.7546771E-02  0.1439782E+00
          2   -1    0    0  502    0  0.00000000000E+00  0.00000000000E+00  0.68054523595E+02  0.68054523595E+02  0.00000000000E+00 0.  1.
         21   -1    0    0  503  502 -0.00000000000E+00 -0.00000000000E+00 -0.65663176488E+02  0.65663176488E+02  0.00000000000E+00 0. -1.
          2    1    1    2  501    0 -0.27485493957E+02  0.41362838263E+01  0.62001079944E+02  0.67946266536E+02  0.00000000000E+00 0.  1.
         21    1    1    2  503  501  0.27485493957E+02 -0.41362838263E+01 -0.59609732837E+02  0.65771433547E+02  0.00000000000E+00 0. -1.
</event>
<event>
 4    1  0.2229986E+005  0.2038423E+02  0.7546771E-02  0.1528241E+00
          2   -1    0    0  503    0  0.00000000000E+00  0.00000000000E+00  0.74864805500E+03  0.74864805500E+03  0.00000000000E+00 0.  1.
         21   -1    0    0  501  502 -0.00000000000E+00 -0.00000000000E+00 -0.11143973635E+02  0.11143973635E+02  0.00000000000E+00 0. -1.
          2    1    1    2  501    0  0.19810690168E+02  0.48013869259E+01  0.73906692180E+03  0.73934797739E+03  0.00000000000E+00 0.  1.
         21    1    1    2  503  502 -0.19810690168E+02 -0.48013869259E+01 -0.15628404353E+01  0.20444051251E+02  0.00000000000E+00 0. -1.
</event>
<event>
 4    1  0.2229986E+005  0.2325344E+02  0.7546771E-02  0.1489340E+00
          2   -1    0    0  503    0  0.00000000000E+00  0.00000000000E+00  0.13608392610E+04  0.13608392610E+04  0.00000000000E+00 0. -1.
         21   -1    0    0  501  502 -0.00000000000E+00 -0.00000000000E+00 -0.32510556842E+01  0.32510556842E+01  0.00000000000E+00 0. -1.
          2    1    1    2  501    0  0.95665642968E+00 -0.23233750403E+02  0.13178015433E+04  0.13180066881E+04  0.00000000000E+00 0. -1.
         21    1    1    2  503  502 -0.95665642968E+00  0.23233750403E+02  0.39786662024E+02  0.46083628593E+02  0.00000000000E+00 0. -1.
</event>
<event>
 4    1  0.2229986E+005  0.2579096E+02  0.7546771E-02  0.1460146E+00
          2   -1    0    0  503    0  0.00000000000E+00  0.00000000000E+00  0.68232057348E+03  0.68232057348E+03  0.00000000000E+00 0. -1.
         21   -1    0    0  501  502 -0.00000000000E+00 -0.00000000000E+00 -0.66938758261E+01  0.66938758261E+01  0.00000000000E+00 0.  1.
          2    1    1    2  501    0  0.18596542123E+02 -0.17870147663E+02  0.65624761426E+03  0.65675421946E+03  0.00000000000E+00 0. -1.
         21    1    1    2  503  502 -0.18596542123E+02  0.17870147663E+02  0.19379083390E+02  0.32260229842E+02  0.00000000000E+00 0.  1.
</event>
<event>
 4    1  0.2229986E+005  0.3307211E+02  0.7546771E-02  0.1394648E+00
          2   -1    0    0  502    0  0.00000000000E+00  0.00000000000E+00  0.56458230067E+03  0.56458230067E+03  0.00000000000E+00 0.  1.
         21   -1    0    0  503  502 -0.00000000000E+00 -0.00000000000E+00 -0.54957731443E+02  0.54957731443E+02  0.00000000000E+00 0.  1.
          2    1    1    2  501    0 -0.27944336127E+02 -0.17688373352E+02  0.55907351288E+03  0.56005085241E+03  0.00000000000E+00 0.  1.
         21    1    1    2  503  501  0.27944336127E+02  0.17688373352E+02 -0.49448943657E+02  0.59489179707E+02  0.00000000000E+00 0.  1.
</event>
<event>
 4    1  0.2229986E+005  0.2340341E+02  0.7546771E-02  0.1487494E+00
          2   -1    0    0  503    0  0.00000000000E+00  0.00000000000E+00  0.12538981228E+04  0.12538981228E+04  0.00000000000E+00 0.  1.
         21   -1    0    0  501  502 -0.00000000000E+00 -0.00000000000E+00 -0.12877886082E+01  0.12877886082E+01  0.00000000000E+00 0. -1.
          2    1    1    2  501    0  0.23471973035E+01  0.23285408137E+02  0.11364743385E+04  0.11367152861E+04  0.00000000000E+00 0.  1.
         21    1    1    2  503  502 -0.23471973035E+01 -0.23285408137E+02  0.11613599567E+03  0.11847062530E+03  0.00000000000E+00 0. -1.
</event>
<event>
 4    1  0.2229986E+005  0.2579927E+02  0.7546771E-02  0.1460057E+00
          2   -1    0    0  503    0  0.00000000000E+00  0.00000000000E+00  0.12415864571E+03  0.12415864571E+03  0.00000000000E+00 0.  1.
         21   -1    0    0  501  502 -0.00000000000E+00 -0.00000000000E+00 -0.58927572354E+01  0.58927572354E+01  0.00000000000E+00 0.  1.
          2    1    1    2  501    0  0.25363926638E+02  0.47194914635E+01  0.78668346207E+02  0.82790766810E+02  0.00000000000E+00 0.  1.
         21    1    1    2  503  502 -0.25363926638E+02 -0.47194914635E+01  0.39597542264E+02  0.47260636131E+02  0.00000000000E+00 0.  1.
</event>
<event>
 4    1  0.2229986E+005  0.2112124E+02  0.7546771E-02  0.1517541E+00
          2   -1    0    0  503    0  0.00000000000E+00  0.00000000000E+00  0.89377766628E+03  0.89377766628E+03  0.00000000000E+00 0. -1.
         21   -1    0    0  501  502 -0.00000000000E+00 -0.00000000000E+00 -0.53698828400E+00  0.53698828400E+00  0.00000000000E+00 0.  1.
          2    1    1    2  501    0  0.16153171112E+02  0.13608146614E+02  0.32788273469E+03  0.32856231417E+03  0.00000000000E+00 0. -1.
         21    1    1    2  503  502 -0.16153171112E+02 -0.13608146614E+02  0.56535794331E+03  0.56575234039E+03  0.00000000000E+00 0.  1.
</event>
<event>
 4    1  0.2229986E+005  0.2246868E+02  0.7546771E-02  0.1499280E+00
          2   -1    0    0  503    0  0.00000000000E+00  0.00000000000E+00  0.89076042864E+03  0.89076042864E+03  0.00000000000E+00 0. -1.
         21   -1    0    0  501  502 -0.00000000000E+00 -0.00000000000E+00 -0.47238074000E+01  0.47238074000E+01  0.00000000000E+00 0.  1.
          2    1    1    2  501    0 -0.19600610557E+01 -0.22383025077E+02  0.86304286768E+03  0.86333529587E+03  0.00000000000E+00 0. -1.
         21    1    1    2  503  502  0.19600610557E+01  0.22383025077E+02  0.22993753560E+02  0.32148940164E+02  0.00000000000E+00 0.  1.
</event>
<event>
 4    1  0.2229986E+005  0.2156910E+02  0.7546771E-02  0.1511293E+00
          2   -1    0    0  502    0  0.00000000000E+00  0.00000000000E+00  0.17657190178E+03  0.17657190178E+03  0.00000000000E+00 0.  1.
         21   -1    0    0  503  502 -0.00000000000E+00 -0.00000000000E+00 -0.12417796534E+03  0.12417796534E+03  0.00000000000E+00 0.  1.
          2    1    1    2  501    0 -0.19586677050E+01  0.21479980833E+02  0.17496804538E+03  0.17629249235E+03  0.00000000000E+00 0.  1.
         21    1    1    2  503  501  0.19586677050E+01 -0.21479980833E+02 -0.12257410893E+03  0.12445737477E+03  0.00000000000E+00 0.  1.
</event>
<event>
 4    1  0.2229986E+005  0.3493128E+02  0.7546771E-02  0.1381047E+00
          2   -1    0    0  503    0  0.00000000000E+00  0.00000000000E+00  0.12509584784E+04  0.12509584784E+04  0.00000000000E+00 0. -1.
         21   -1    0    0  501  502 -0.00000000000E+00 -0.00000000000E+00 -0.21824391667E+01  0.21824391667E+01  0.00000000000E+00 0.  1.
          2    1    1    2  501    0 -0.61473679793E+01  0.34386104999E+02  0.10903582417E+04  0.10909176364E+04  0.00000000000E+00 0. -1.
         21    1    1    2  503  502  0.61473679793E+01 -0.34386104999E+02  0.15841779757E+03  0.16222328112E+03  0.00000000000E+00 0.  1.
</event>
<event>
 4    1  0.2229986E+005  0.2191012E+02  0.7546771E-02  0.1506657E+00
          2   -1    0    0  503    0  0.00000000000E+00  0.00000000000E+00  0.37801678577E+02  0.37801678577E+02  0.00000000000E+00 0. -1.
         21   -1    0    0  501  502 -0.00000000000E+00 -0.00000000000E+00 -0.84293985293E+02  0.84293985293E+02  0.00000000000E+00 0.  1.
          2    1    1    2  501    0  0.14077845618E+02  0.16788910036E+02  0.33015497785E+02  0.39624188717E+02  0.00000000000E+00 0. -1.
         21    1    1    2  503  502 -0.14077845618E+02 -0.16788910036E+02 -0.79507804501E+02  0.82471475154E+02  0.00000000000E+00 0.  1.
</event>
<event>
 4    1  0.2229986E+005  0.2405696E+02  0.7546771E-02  0.1479636E+00
          2   -1    0    0  502    0  0.00000000000E+00  0.00000000000E+00  0.95936189105E+01  0.95936189105E+01  0.00000000000E+00 0.  1.
         21   -1    0    0  503  502 -0.00000000000E+00 -0.00000000000E+00 -0.20073544401E+03  0.20073544401E+03  0.00000000000E+00 0.  1.
          2    1    1    2  501    0  0.50418161395E+01  0.23522697291E+02 -0.76167046820E+01  0.25233933265E+02  0.00000000000E+00 0.  1.
         21    1    1    2  503  501 -0.50418161395E+01 -0.23522697291E+02 -0.18352512041E+03  0.18509512965E+03  0.00000000000E+00 0.  1.
</event>
<event>
 4    1  0.2229986E+005  0.2551328E+02  0.7546771E-02  0.1463143E+00
          2   -1    0    0  502    0  0.00000000000E+00  0.00000000000E+00  0.13991331206E+04  0.13991331206E+04  0.00000000000E+00 0. -1.
         21   -1    0    0  503  502 -0.00000000000E+00 -0.00000000000E+00 -0.57700658195E+02  0.57700658195E+02  0.00000000000E+00 0. -1.
          2    1    1    2  501    0 -0.23028552207E+02 -0.10982396376E+02  0.13961905917E+04  0.13964236806E+04  0.00000000000E+00 0. -1.
         21    1    1    2  503  501  0.23028552207E+02  0.10982396376E+02 -0.54758129291E+02  0.60410098249E+02  0.00000000000E+00 0. -1.
</event>
<event>
 4    1  0.2229986E+005  0.3982718E+02  0.7546771E-02  0.1349501E+00
          2   -1    0    0  503    0  0.00000000000E+00  0.00000000000E+00  0.63186079690E+03  0.63186079690E+03  0.00000000000E+00 0. -1.
         21   -1    0    0  501  502 -0.00000000000E+00 -0.00000000000E+00 -0.45737564762E+01  0.45737564762E+01  0.00000000000E+00 0.  1.
          2    1    1    2  501    0 -0.48011146072E+00  0.39824286859E+02  0.52737945036E+03  0.52888116718E+03  0.00000000000E+00 0. -1.
         21    1    1    2  503  502  0.48011146072E+00 -0.39824286859E+02  0.99907590061E+02  0.10755338620E+03  0.00000000000E+00 0.  1.
</event>
<event>
 4    1  0.2229986E+005  0.2175526E+02  0.7546771E-02  0.1508749E+00
          2   -1    0    0  503    0  0.00000000000E+00  0.00000000000E+00  0.51939398600E+03  0.51939398600E+03  0.00000000000E+00 0.  1.
         21   -1    0    0  501  502 -0.00000000000E+00 -0.00000000000E+00 -0.11637099094E+01  0.11637099094E+01  0.00000000000E+00 0.  1.
          2    1    1    2  501    0 -0.12616566691E+02  0.17723248945E+02  0.13788142106E+03  0.13958716840E+03  0.00000000000E+00 0.  1.
         21    1    1    2  503  502  0.12616566691E+02 -0.17723248945E+02  0.38034885504E+03  0.38097052752E+03  0.00000000000E+00 0.  1.
</event>
<event>
 4    1  0.2229986E+005  0.2083323E+02  0.7546771E-02  0.1521659E+00
          2   -1    0    0  502    0  0.00000000000E+00  0.00000000000E+00  0.17245192925E+01  0.17245192925E+01  0.00000000000E+00 0. -1.
         21   -1    0    0  503  502 -0.00000000000E+00 -0.00000000000E+00 -0.40799689071E+03  0.40799689071E+03  0.00000000000E+00 0. -1.
          2    1    1    2  501    0  0.25805050179E+01 -0.20672793782E+02 -0.76331268327E+02  0.79123232576E+02  0.00000000000E+00 0. -1.
         21    1    1    2  503  501 -0.25805050179E+01  0.20672793782E+02 -0.32994110309E+03  0.33059817742E+03  0.00000000000E+00 0. -1.
</event>
<event>
 4    1  0.2229986E+005  0.2723480E+02  0.7546771E-02  0.1445264E+00
          2   -1    0    0  503    0  0.00000000000E+00  0.00000000000E+00  0.31942981415E+03  0.31942981415E+03  0.00000000000E+00 0. -1.
         21   -1    0    0  501  502 -0.00000000000E+00 -0.00000000000E+00 -0.32437315893E+01  0.32437315893E+01  0.00000000000E+00 0. -1.
          2    1    1    2  501    0  0.23417652698E+02 -0.13904962643E+02  0.24409326168E+03  0.24560792911E+03  0.00000000000E+00 0. -1.
         21    1    1    2  503  502 -0.23417652698E+02  0.13904962643E+02  0.72092820881E+02  0.77065616630E+02  0.00000000000E+00 0. -1.
</event>
<event>
 4    1  0.2229986E+005  0.2268483E+02  0.7546771E-02  0.1496494E+00
          2   -1    0    0  503    0  0.00000000000E+00  0.00000000000E+00  0.24811617114E+03  0.24811617114E+03  0.00000000000E+00 0.  1.
         21   -1    0    0  501  502 -0.00000000000E+00 -0.00000000000E+00 -0.23692643861E+01  0.23692643861E+01  0.00000000000E+00 0.  1.
          2    1    1    2  501    0  0.15876132955E+02 -0.16203385234E+02  0.16708406234E+03  0.16861697773E+03  0.00000000000E+00 0.  1.
         21    1    1    2  503  502 -0.15876132955E+02  0.16203385234E+02  0.78662844412E+02  0.81868457794E+02  0.00000000000E+00 0.  1.
</event>
<event>
 4    1  0.2229986E+005  0.3666098E+02  0.7546771E-02  0.1369247E+00
          2   -1    0    0  502    0  0.00000000000E+00  0.00000000000E+00  0.46988395649E+03  0.46988395649E+03  0.00000000000E+00 0.  1.
         21   -1    0    0  503  502 -0.00000000000E+00 -0.00000000000E+00 -0.10343706998E+02  0.10343706998E+02  0.00000000000E+00 0.  1.
          2    1    1    2  501    0  0.29808961578E+02  0.21341353358E+02  0.43400392354E+03  0.43554957606E+03  0.00000000000E+00 0.  1.
         21    1    1    2  503  501 -0.29808961578E+02 -0.21341353358E+02  0.25536325949E+02  0.44678087431E+02  0.00000000000E+00 0.  1.
</event>
<event>
 4    1  0.2229986E+005  0.2307009E+02  0.7546771E-02  0.1491620E+00
          2   -1    0    0  502    0  0.00000000000E+00  0.00000000000E+00  0.43081906361E+03  0.43081906361E+03  0.00000000000E+00 0.  1.
         21   -1    0    0  503  502 -0.00000000000E+00 -0.00000000000E+00 -0.13303974889E+02  0.13303974889E+02  0.00000000000E+00 0. -1.
          2    1    1    2  501    0 -0.18536458951E+01 -0.22995500811E+02  0.42025775014E+03  0.42089049123E+03  0.00000000000E+00 0.  1.
         21    1    1    2  503  501  0.18536458951E+01  0.22995500811E+02 -0.27426614180E+01  0.23232547263E+02  0.00000000000E+00 0. -1.
</event>
<event>
 4    1  0.2229986E+005  0.4775300E+02  0.7546771E-02  0.1308220E+00
          2   -1    0    0  503    0  0.00000000000E+00  0.00000000000E+00  0.12372294316E+04  0.12372294316E+04  0.00000000000E+00 0.  1.
         21   -1    0    0  501  502 -0.00000000000E+00 -0.00000000000E+00 -0.21218304665E+02  0.21218304665E+02  0.00000000000E+00 0.  1.
          2    1    1    2  501    0  0.44145084219E+02 -0.18208798399E+02  0.12092802150E+04  0.12102227015E+04  0.00000000000E+00 0.  1.
         21    1    1    2  503  502 -0.44145084219E+02  0.18208798399E+02  0.67309118845E+01  0.48225034729E+02  0.00000000000E+00 0.  1.
</event>
<event>
 4    1  0.2229986E+005  0.2778994E+02  0.7546771E-02  0.1439830E+00
          2   -1    0    0  502    0  0.00000000000E+00  0.00000000000E+00  0.55031027133E+03  0.55031027133E+03  0.00000000000E+00 0.  1.
         21   -1    0    0  503  502 -0.00000000000E+00 -0.00000000000E+00 -0.16117170764E+02  0.16117170764E+02  0.00000000000E+00 0.  1.
          2    1    1    2  501    0 -0.17031595884E+02  0.21959178953E+02  0.53769950845E+03  0.53841716371E+03  0.00000000000E+00 0.  1.
         21    1    1    2  503  501  0.17031595884E+02 -0.21959178953E+02 -0.35064078814E+01  0.28010278379E+02  0.00000000000E+00 0.  1.
</event>
<event>
 4    1  0.2229986E+005  0.2160474E+02  0.7546771E-02  0.1510803E+00
          2   -1    0    0  503    0  0.00000000000E+00  0.00000000000E+00  0.13002704874E+04  0.13002704874E+04  0.00000000000E+00 0.  1.
         21   -1    0    0  501  502 -0.00000000000E+00 -0.00000000000E+00 -0.12783672840E+01  0.12783672840E+01  0.00000000000E+00 0.  1.
          2    1    1    2  501    0  0.20202388893E+00 -0.21603799776E+02  0.12013866804E+04  0.12015809256E+04  0.00000000000E+00 0.  1.
         21    1    1    2  503  502 -0.20202388893E+00  0.21603799776E+02  0.97605439677E+02  0.99967929022E+02  0.00000000000E+00 0.  1.
</event>
<event>
 4    1  0.2229986E+005  0.7101021E+02  0.7546771E-02  0.1226412E+00
          2   -1    0    0  503    0  0.00000000000E+00  0.00000000000E+00  0.38080755526E+03  0.38080755526E+03  0.00000000000E+00 0. -1.
         21   -1    0    0  501  502 -0.00000000000E+00 -0.00000000000E+00 -0.33964811927E+03  0.33964811927E+03  0.00000000000E+00 0.  1.
          2    1    1    2  501    0 -0.19676821219E+01  0.70982944929E+02  0.37371585751E+03  0.38040240851E+03  0.00000000000E+00 0. -1.
         21    1    1    2  503  502  0.19676821219E+01 -0.70982944929E+02 -0.33255642152E+03  0.34005326603E+03  0.00000000000E+00 0.  1.
</event>
<event>
 4    1  0.2229986E+005  0.2377041E+02  0.7546771E-02  0.1483044E+00
          2   -1    0    0  503    0  0.00000000000E+00  0.00000000000E+00  0.35962407548E+02  0.35962407548E+02  0.00000000000E+00 0. -1.
         21   -1    0    0  501  502 -0.00000000000E+00 -0.00000000000E+00 -0.16943167772E+03  0.16943167772E+03  0.00000000000E+00 0. -1.
          2    1    1    2  501    0 -0.16186176727E+02 -0.17408049563E+02  0.31084926418E+02  0.39131894371E+02  0.00000000000E+00 0. -1.
         21    1    1    2  503  502  0.16186176727E+02  0.17408049563E+02 -0.16455419659E+03  0.16626219090E+03  0.00000000000E+00 0. -1.
</event>
<event>
 4    1  0.2229986E+005  0.2165226E+02  0.7546771E-02  0.1510153E+00
          2   -1    0    0  502    0  0.00000000000E+00  0.00000000000E+00  0.31117285325E+02  0.31117285325E+02  0.00000000000E+00 0.  1.
         21   -1    0    0  503  502 -0.00000000000E+00 -0.00000000000E+00 -0.77731138798E+02  0.77731138798E+02  0.00000000000E+00 0. -1.
          2    1    1    2  501    0 -0.15602112011E+02  0.15013140916E+02  0.25559077398E+02  0.33497563147E+02  0.00000000000E+00 0.  1.
         21    1    1    2  503  501  0.15602112011E+02 -0.15013140916E+02 -0.72172930871E+02  0.75350860976E+02  0.00000000000E+00 0. -1.
</event>
<event>
 4    1  0.2229986E+005  0.2482413E+02  0.7546771E-02  0.1470780E+00
          2   -1    0    0  502    0  0.00000000000E+00  0.00000000000E+00  0.14120618728E+04  0.14120618728E+04  0.00000000000E+00 0.  1.
         21   -1    0    0  503  502 -0.00000000000E+00 -0.00000000000E+00 -0.46754901448E+00  0.46754901448E+00  0.00000000000E+00 0.  1.
          2    1    1    2  501    0  0.79814076187E+01  0.23506055939E+02  0.88806426223E+03  0.88841114996E+03  0.00000000000E+00 0.  1.
         21    1    1    2  503  501 -0.79814076187E+01 -0.23506055939E+02  0.52353006156E+03  0.52411827186E+03  0.00000000000E+00 0.  1.
</event>
<event>
 4    1  0.2229986E+005  0.3714516E+02  0.7546771E-02  0.1366079E+00
          2   -1    0    0  503    0  0.00000000000E+00  0.00000000000E+00  0.49994102071E+02  0.49994102071E+02  0.00000000000E+00 0. -1.
         21   -1    0    0  501  502 -0.00000000000E+00 -0.00000000000E+00 -0.21292700913E+03  0.21292700913E+03  0.00000000000E+00 0.  1.
          2    1    1    2  501    0 -0.88735543047E+01  0.36069690765E+02  0.41178926929E+02  0.55456889390E+02  0.00000000000E+00 0. -1.
         21    1    1    2  503  502  0.88735543047E+01 -0.36069690765E+02 -0.20411183399E+03  0.20746422181E+03  0.00000000000E+00 0.  1.
</event>
<event>
 4    1  0.2229986E+005  0.5128657E+02  0.7546771E-02  0.1292689E+00
          2   -1    0    0  502    0  0.00000000000E+00  0.00000000000E+00  0.41049835142E+02  0.41049835142E+02  0.00000000000E+00 0. -1.
         21   -1    0    0  503  502 -0.00000000000E+00 -0.00000000000E+00 -0.15112642279E+03  0.15112642279E+03  0.00000000000E+00 0.  1.
          2    1    1    2  501    0 -0.47580797660E+02 -0.19141066221E+02  0.17888104653E+02  0.54316636587E+02  0.00000000000E+00 0. -1.
         21    1    1    2  503  501  0.47580797660E+02  0.19141066221E+02 -0.12796469230E+03  0.13785962134E+03  0.00000000000E+00 0.  1.
</event>
<event>
 4    1  0.2229986E+005  0.2058809E+02  0.7546771E-02  0.1525228E+00
          2   -1    0    0  502    0  0.00000000000E+00  0.00000000000E+00  0.76941152693E+03  0.76941152693E+03  0.00000000000E+00 0.  1.
         21   -1    0    0  503  502 -0.00000000000E+00 -0.00000000000E+00 -0.22816685830E+01  0.22816685830E+01  0.00000000000E+00 0.  1.
          2    1    1    2  501    0 -0.13389323720E+02  0.15639552779E+02  0.71961792132E+03  0.71991237126E+03  0.00000000000E+00 0.  1.
         21    1    1    2  503  501  0.13389323720E+02 -0.15639552779E+02  0.47511937027E+02  0.51780824258E+02  0.00000000000E+00 0.  1.
</event>
<event>
 4    1  0.2229986E+005  0.2102264E+02  0.7546771E-02  0.1518942E+00
          2   -1    0    0  503    0  0.00000000000E+00  0.00000000000E+00  0.12249271313E+04  0.12249271313E+04  0.00000000000E+00 0. -1.
         21   -1    0    0  501  502 -0.00000000000E+00 -0.00000000000E+00 -0.23324040051E+01  0.23324040051E+01  0.00000000000E+00 0. -1.
          2    1    1    2  501    0  0.82607220347E+01  0.19331624667E+02  0.11754733514E+04  0.11756613250E+04  0.00000000000E+00 0. -1.
         21    1    1    2  503  502 -0.82607220347E+01 -0.19331624667E+02  0.47121375893E+02  0.51598210307E+02  0.00000000000E+00 0. -1.
</event>
<event>
 4    1  0.2229986E+005  0.2022431E+02  0.7546771E-02  0.1530634E+00
          2   -1    0    0  503    0  0.00000000000E+00  0.00000000000E+00  0.55741390445E+02  0.55741390445E+02  0.00000000000E+00 0. -1.
         21   -1    0    0  501  502 -0.00000000000E+00 -0.00000000000E+00 -0.44225380590E+03  0.44225380590E+03  0.00000000000E+00 0.  1.
          2    1    1    2  501    0  0.14671402681E+02  0.13920228882E+02  0.53667068808E+02  0.57351347876E+02  0.00000000000E+00 0. -1.
         21    1    1    2  503  502 -0.14671402681E+02 -0.13920228882E+02 -0.44017948427E+03  0.44064384847E+03  0.00000000000E+00 0.  1.
</event>
<event>
 4    1  0.2229986E+005  0.2932705E+02  0.7546771E-02  0.1425536E+00
          2   -1    0    0  503    0  0.00000000000E+00  0.00000000000E+00  0.12979405955E+04  0.12979405955E+04  0.00000000000E+00 0.  1.
         21   -1    0    0  501  502 -0.00000000000E+00 -0.00000000000E+00 -0.67241510617E+00  0.67241510617E+00  0.00000000000E+00 0.  1.
          2    1    1    2  501    0 -0.41307691601E+01  0.29034684021E+02  0.72689439739E+03  0.72748576693E+03  0.00000000000E+00 0.  1.
         21    1    1    2  503  502  0.41307691601E+01 -0.29034684021E+02  0.57037378299E+03  0.57112724367E+03  0.00000000000E+00 0.  1.
</event>
<event>
 4    1  0.2229986E+005  0.3823413E+02  0.7546771E-02  0.1359156E+00
          2   -1    0    0  502    0  0.00000000000E+00  0.00000000000E+00  0.23303764063E+04  0.23303764063E+04  0.00000000000E+00 0.  1.
         21   -1    0    0  503  502 -0.00000000000E+00 -0.00000000000E+00 -0.14571887839E+03  0.14571887839E+03  0.00000000000E+00 0. -1.
          2    1    1    2  501    0 -0.26911375037E+02 -0.27159280486E+02  0.23277087123E+04  0.23280227013E+04  0.00000000000E+00 0.  1.
         21    1    1    2  503  501  0.26911375037E+02  0.27159280486E+02 -0.14305118433E+03  0.14807258342E+03  0.00000000000E+00 0. -1.
</event>
<event>
 4    1  0.2229986E+005  0.2339707E+02  0.7546771E-02  0.1487571E+00
          2   -1    0    0  503    0  0.00000000000E+00  0.00000000000E+00  0.12825533040E+04  0.12825533040E+04  0.00000000000E+00 0.  1.
         21   -1    0    0  501  502 -0.00000000000E+00 -0.00000000000E+00 -0.42948725697E+00  0.42948725697E+00  0.00000000000E+00 0.  1.
          2    1    1    2  501    0 -0.21708898460E+02 -0.87262106827E+01  0.59053555436E+03  0.59099886970E+03  0.00000000000E+00 0.  1.
         21    1    1    2  503  502  0.21708898460E+02  0.87262106827E+01  0.69158826235E+03  0.69198392152E+03  0.00000000000E+00 0.  1.
</event>
<event>
 4    1  0.2229986E+005  0.2393450E+02  0.7546771E-02  0.1481085E+00
          2   -1    0    0  502    0  0.00000000000E+00  0.00000000000E+00  0.18284647782E+04  0.18284647782E+04  0.00000000000E+00 0.  1.
         21   -1    0    0  503  502 -0.00000000000E+00 -0.00000000000E+00 -0.89758950193E+00  0.89758950193E+00  0.00000000000E+00 0.  1.
          2    1    1    2  501    0 -0.20774570861E+02 -0.11886024891E+02  0.16517633076E+04  0.16519367073E+04  0.00000000000E+00 0.  1.
         21    1    1    2  503  501  0.20774570861E+02  0.11886024891E+02  0.17580388103E+03  0.17742566040E+03  0.00000000000E+00 0.  1.
</event>
<event>
 4    1  0.2229986E+005  0.2046007E+02  0.7546771E-02  0.1527115E+00
          2   -1    0    0  502    0  0.00000000000E+00  0.00000000000E+00  0.79129969752E+02  0.79129969752E+02  0.00000000000E+00 0. -1.
         21   -1    0    0  503  502 -0.00000000000E+00 -0.00000000000E+00 -0.14057935964E+02  0.14057935964E+02  0.00000000000E+00 0.  1.
          2    1    1    2  501    0 -0.96878390695E+01 -0.18021104499E+02  0.69332996573E+02  0.72288857004E+02  0.00000000000E+00 0. -1.
         21    1    1    2  503  501  0.96878390695E+01  0.18021104499E+02 -0.42609627852E+01  0.20899048712E+02  0.00000000000E+00 0.  1.
</event>
<event>
 4    1  0.2229986E+005  0.3651139E+02  0.7546771E-02  0.1370238E+00
          2   -1    0    0  502    0  0.00000000000E+00  0.00000000000E+00  0.17796600946E+04  0.17796600946E+04  0.00000000000E+00 0.  1.
         21   -1    0    0  503  502 -0.00000000000E+00 -0.00000000000E+00 -0.10964012623E+01  0.10964012623E+01  0.00000000000E+00 0. -1.
          2    1    1    2  501    0  0.29207194994E+02 -0.21909391093E+02  0.13904282774E+04  0.13909075729E+04  0.00000000000E+00 0.  1.
         21    1    1    2  503  501 -0.29207194994E+02  0.21909391093E+02  0.38813541587E+03  0.38984892293E+03  0.00000000000E+00 0. -1.
</event>
<event>
 4    1  0.2229986E+005  0.3111624E+02  0.7546771E-02  0.1410138E+00
          2   -1    0    0  503    0  0.00000000000E+00  0.00000000000E+00  0.71496951993E+03  0.71496951993E+03  0.00000000000E+00 0. -1.
         21   -1    0    0  501  502 -0.00000000000E+00 -0.00000000000E+00 -0.32423433129E+01  0.32423433129E+01  0.00000000000E+00 0.  1.
          2    1    1    2  501    0 -0.19803250931E+02 -0.24001072162E+02  0.62990058033E+03  0.63066866206E+03  0.00000000000E+00 0. -1.
         21    1    1    2  503  502  0.19803250931E+02  0.24001072162E+02  0.81826596288E+02  0.87543201178E+02  0.00000000000E+00 0.  1.
</event>
<event>
 4    1  0.2229986E+005  0.2909684E+02  0.7546771E-02  0.1427611E+00
          2   -1    0    0  503    0  0.00000000000E+00  0.00000000000E+00  0.22110276811E+03  0.22110276811E+03  0.00000000000E+00 0.  1.
         21   -1    0    0  501  502 -0.00000000000E+00 -0.00000000000E+00 -0.39041736838E+01  0.39041736838E+01  0.00000000000E+00 0.  1.
          2    1    1    2  501    0 -0.21127931311E+02  0.20005907628E+02  0.12419946834E+03  0.12756227403E+03  0.00000000000E+00 0.  1.
         21    1    1    2  503  502  0.21127931311E+02 -0.20005907628E+02  0.92999126090E+02  0.97444667761E+02  0.00000000000E+00 0.  1.
</event>
<event>
 4    1  0.2229986E+005  0.2820675E+02  0.7546771E-02  0.1435849E+00
          2   -1    0    0  502    0  0.00000000000E+00  0.00000000000E+00  0.10003346558E+04  0.10003346558E+04  0.00000000000E+00 0.  1.
         21   -1    0    0  503  502 -0.00000000000E+00 -0.00000000000E+00 -0.15012755392E+02  0.15012755392E+02  0.00000000000E+00 0.  1.
          2    1    1    2  501    0 -0.25842833928E+02 -0.11303488028E+02  0.98670374176E+03  0.98710683054E+03  0.00000000000E+00 0.  1.
         21    1    1    2  503  501  0.25842833928E+02  0.11303488028E+02 -0.13818413983E+01  0.28240580601E+02  0.00000000000E+00 0.  1.
</event>
<event>
 4    1  0.2229986E+005  0.2018186E+02  0.7546771E-02  0.1531274E+00
          2   -1    0    0  503    0  0.00000000000E+00  0.00000000000E+00  0.48552582987E+03  0.48552582987E+03  0.00000000000E+00 0.  1.
         21   -1    0    0  501  502 -0.00000000000E+00 -0.00000000000E+00 -0.78831410176E+02  0.78831410176E+02  0.00000000000E+00 0.  1.
          2    1    1    2  501    0 -0.19961276278E+02  0.29757098564E+01  0.48402038512E+03  0.48444095679E+03  0.00000000000E+00 0.  1.
         21    1    1    2  503  502  0.19961276278E+02 -0.29757098564E+01 -0.77325965430E+02  0.79916283257E+02  0.00000000000E+00 0.  1.
</event>
<event>
 4    1  0.2229986E+005  0.2562672E+02  0.7546771E-02  0.1461913E+00
          2   -1    0    0  503    0  0.00000000000E+00  0.00000000000E+00  0.50223329525E+03  0.50223329525E+03  0.00000000000E+00 0. -1.
         21   -1    0    0  501  502 -0.00000000000E+00 -0.00000000000E+00 -0.29495515049E+01  0.29495515049E+01  0.00000000000E+00 0. -1.
          2    1    1    2  501    0 -0.21556248864E+02 -0.13858457065E+02  0.43810159493E+03  0.43885047132E+03  0.00000000000E+00 0. -1.
         21    1    1    2  503  502  0.21556248864E+02  0.13858457065E+02  0.61182148820E+02  0.66332375440E+02  0.00000000000E+00 0. -1.
</event>
<event>
 4    1  0.2229986E+005  0.4937269E+02  0.7546771E-02  0.1300915E+00
          2   -1    0    0  503    0  0.00000000000E+00  0.00000000000E+00  0.53061996331E+03  0.53061996331E+03  0.00000000000E+00 0.  1.
         21   -1    0    0  501  502 -0.00000000000E+00 -0.00000000000E+00 -0.25187495603E+02  0.25187495603E+02  0.00000000000E+00 0. -1.
          2    1    1    2  501    0 -0.44157509327E+02 -0.22085675987E+02  0.50400149954E+03  0.50641403441E+03  0.00000000000E+00 0.  1.
         21    1    1    2  503  502  0.44157509327E+02  0.22085675987E+02  0.14309681674E+01  0.49393424499E+02  0.00000000000E+00 0. -1.
</event>
<event>
 4    1  0.2229986E+005  0.2078568E+02  0.7546771E-02  0.1522347E+00
          2   -1    0    0  503    0  0.00000000000E+00  0.00000000000E+00  0.38393351477E+03  0.38393351477E+03  0.00000000000E+00 0. -1.
         21   -1    0    0  501  502 -0.00000000000E+00 -0.00000000000E+00 -0.17965560249E+02  0.17965560249E+02  0.00000000000E+00 0.  1.
          2    1    1    2  501    0  0.15083517905E+02  0.14301467320E+02  0.37753830252E+03  0.37811005587E+03  0.00000000000E+00 0. -1.
         21    1    1    2  503  502 -0.15083517905E+02 -0.14301467320E+02 -0.11570347991E+02  0.23789019158E+02  0.00000000000E+00 0.  1.
</event>
<event>
 4    1  0.2229986E+005  0.4356608E+02  0.7546771E-02  0.1328767E+00
          2   -1    0    0  502    0  0.00000000000E+00  0.00000000000E+00  0.80810744527E+03  0.80810744527E+03  0.00000000000E+00 0.  1.
         21   -1    0    0  503  502 -0.00000000000E+00 -0.00000000000E+00 -0.40344385776E+01  0.40344385776E+01  0.00000000000E+00 0.  1.
          2    1    1    2  501    0 -0.28656011729E+02  0.32815183995E+02  0.66452196630E+03  0.66594853180E+03  0.00000000000E+00 0.  1.
         21    1    1    2  503  501  0.28656011729E+02 -0.32815183995E+02  0.13955104039E+03  0.14619335204E+03  0.00000000000E+00 0.  1.
</event>
<event>
 4    1  0.2229986E+005  0.2581784E+02  0.7546771E-02  0.1459859E+00
          2   -1    0    0  502    0  0.00000000000E+00  0.00000000000E+00  0.15497439977E+04  0.15497439977E+04  0.00000000000E+00 0.  1.
         21   -1    0    0  503  502 -0.00000000000E+00 -0.00000000000E+00 -0.27882340030E+01  0.27882340030E+01  0.00000000000E+00 0.  1.
          2    1    1    2  501    0 -0.21105184920E+02  0.14870507716E+02  0.14873646186E+04  0.14875886762E+04  0.00000000000E+00 0.  1.
         21    1    1    2  503  501  0.21105184920E+02 -0.14870507716E+02  0.59591145095E+02  0.64943555523E+02  0.00000000000E+00 0.  1.
</event>
<event>
 4    1  0.2229986E+005  0.3112524E+02  0.7546771E-02  0.1410064E+00
          2   -1    0    0  502    0  0.00000000000E+00  0.00000000000E+00  0.24543209341E+04  0.24543209341E+04  0.00000000000E+00 0. -1.
         21   -1    0    0  503  502 -0.00000000000E+00 -0.00000000000E+00 -0.76619743785E+00  0.76619743785E+00  0.00000000000E+00 0. -1.
          2    1    1    2  501    0  0.13336869227E+02 -0.28123092930E+02  0.20815098267E+04  0.20817425247E+04  0.00000000000E+00 0. -1.
         21    1    1    2  503  501 -0.13336869227E+02  0.28123092930E+02  0.37204490995E+03  0.37334460684E+03  0.00000000000E+00 0. -1.
</event>
<event>
 4    1  0.2229986E+005  0.3490371E+02  0.7546771E-02  0.1381241E+00
          2   -1    0    0  503    0  0.00000000000E+00  0.00000000000E+00  0.14093131280E+04  0.14093131280E+04  0.00000000000E+00 0.  1.
         21   -1    0    0  501  502 -0.00000000000E+00 -0.00000000000E+00 -0.15006949821E+01  0.15006949821E+01  0.00000000000E+00 0.  1.
          2    1    1    2  501    0 -0.13676508082E+02  0.32112647978E+02  0.11632189799E+04  0.11637425249E+04  0.00000000000E+00 0.  1.
         21    1    1    2  503  502  0.13676508082E+02 -0.32112647978E+02  0.24459345308E+03  0.24707129805E+03  0.00000000000E+00 0.  1.
</event>
<event>
 4    1  0.2229986E+005  0.2315446E+02  0.7546771E-02  0.1490568E+00
          2   -1    0    0  503    0  0.00000000000E+00  0.00000000000E+00  0.52128414463E+03  0.52128414463E+03  0.00000000000E+00 0. -1.
         21   -1    0    0  501  502 -0.00000000000E+00 -0.00000000000E+00 -0.30117563480E+01  0.30117563480E+01  0.00000000000E+00 0. -1.
          2    1    1    2  501    0  0.22705864405E+02 -0.45357090171E+01  0.47186605506E+03  0.47243380791E+03  0.00000000000E+00 0. -1.
         21    1    1    2  503  502 -0.22705864405E+02  0.45357090171E+01  0.46406333219E+02  0.51862093069E+02  0.00000000000E+00 0. -1.
</event>
<event>
 4    1  0.2229986E+005  0.2271188E+02  0.7546771E-02  0.1496148E+00
          2   -1    0    0  502    0  0.00000000000E+00  0.00000000000E+00  0.70102810274E+03  0.70102810274E+03  0.00000000000E+00 0.  1.
         21   -1    0    0  503  502 -0.00000000000E+00 -0.00000000000E+00 -0.55492043037E+01  0.55492043037E+01  0.00000000000E+00 0. -1.
          2    1    1    2  501    0 -0.22664567932E+02 -0.14652014028E+01  0.67677260907E+03  0.67715359693E+03  0.00000000000E+00 0.  1.
         21    1    1    2  503  501  0.22664567932E+02  0.14652014028E+01  0.18706289366E+02  0.29423710108E+02  0.00000000000E+00 0. -1.
</event>
<event>
 4    1  0.2229986E+005  0.2295138E+02  0.7546771E-02  0.1493110E+00
          2   -1    0    0  503    0  0.00000000000E+00  0.00000000000E+00  0.42807555041E+03  0.42807555041E+03  0.00000000000E+00 0.  1.
         21   -1    0    0  501  502 -0.00000000000E+00 -0.00000000000E+00 -0.38969554137E+01  0.38969554137E+01  0.00000000000E+00 0. -1.
          2    1    1    2  501    0  0.16256693441E+02 -0.16201419229E+02  0.39074912928E+03  0.39142259528E+03  0.00000000000E+00 0.  1.
         21    1    1    2  503  502 -0.16256693441E+02  0.16201419229E+02  0.33429465721E+02  0.40549910543E+02  0.00000000000E+00 0. -1.
</event>
<event>
 4    1  0.2229986E+005  0.2199679E+02  0.7546771E-02  0.1505495E+00
          2   -1    0    0  502    0  0.00000000000E+00  0.00000000000E+00  0.19685095248E+03  0.19685095248E+03  0.00000000000E+00 0. -1.
         21   -1    0    0  503  502 -0.00000000000E+00 -0.00000000000E+00 -0.35393956872E+01  0.35393956872E+01  0.00000000000E+00 0. -1.
          2    1    1    2  501    0  0.53229013382E+00 -0.21990350024E+02  0.15203864011E+03  0.15362163556E+03  0.00000000000E+00 0. -1.
         21    1    1    2  503  501 -0.53229013382E+00  0.21990350024E+02  0.41272916679E+02  0.46768712599E+02  0.00000000000E+00 0. -1.
</event>
<event>
 4    1  0.2229986E+005  0.2733363E+02  0.7546771E-02  0.1444285E+00
          2   -1    0    0  503    0  0.00000000000E+00  0.00000000000E+00  0.79411859655E+03  0.79411859655E+03  0.00000000000E+00 0.  1.
         21   -1    0    0  501  502 -0.00000000000E+00 -0.00000000000E+00 -0.23029234943E+01  0.23029234943E+01  0.00000000000E+00 0.  1.
          2    1    1    2  501    0  0.96976150351E+01 -0.25555496533E+02  0.70215874759E+03  0.70269056771E+03  0.00000000000E+00 0.  1.
         21    1    1    2  503  502 -0.96976150351E+01  0.25555496533E+02  0.89656925472E+02  0.93730952334E+02  0.00000000000E+00 0.  1.
</event>
<event>
 4    1  0.2229986E+005  0.2317087E+02  0.7546771E-02  0.1490364E+00
          2   -1    0    0  503    0  0.00000000000E+00  0.00000000000E+00  0.26530822056E+03  0.26530822056E+03  0.00000000000E+00 0.  1.
         21   -1    0    0  501  502 -0.00000000000E+00 -0.00000000000E+00 -0.20908732042E+02  0.20908732042E+02  0.00000000000E+00 0. -1.
          2    1    1    2  501    0 -0.14083825186E+02 -0.18399323477E+02  0.25820666961E+03  0.25924423517E+03  0.00000000000E+00 0.  1.
         21    1    1    2  503  502  0.14083825186E+02  0.18399323477E+02 -0.13807181090E+02  0.26972717437E+02  0.00000000000E+00 0. -1.
</event>
<event>
 4    1  0.2229986E+005  0.2162802E+02  0.7546771E-02  0.1510484E+00
          2   -1    0    0  502    0  0.00000000000E+00  0.00000000000E+00  0.11547795547E+04  0.11547795547E+04  0.00000000000E+00 0.  1.
         21   -1    0    0  503  502 -0.00000000000E+00 -0.00000000000E+00 -0.56880345059E+01  0.56880345059E+01  0.00000000000E+00 0.  1.
          2    1    1    2  501    0 -0.38014159152E+01 -0.21291326612E+02  0.11337372898E+04  0.11339435672E+04  0.00000000000E+00 0.  1.
         21    1    1    2  503  501  0.38014159152E+01  0.21291326612E+02  0.15354230414E+02  0.26524022008E+02  0.00000000000E+00 0.  1.
</event>
<event>
 4    1  0.2229986E+005  0.2217579E+02  0.7546771E-02  0.1503115E+00
          2   -1    0    0  503    0  0.00000000000E+00  0.00000000000E+00  0.15292974636E+04  0.15292974636E+04  0.00000000000E+00 0.  1.
         21   -1    0    0  501  502 -0.00000000000E+00 -0.00000000000E+00 -0.42731394401E+00  0.42731394401E+00  0.00000000000E+00 0. -1.
          2    1    1    2  501    0  0.52550943254E+01 -0.21544135574E+02  0.11449322862E+04  0.11451470237E+04  0.00000000000E+00 0.  1.
         21    1    1    2  503  502 -0.52550943254E+01  0.21544135574E+02  0.38393786338E+03  0.38457775382E+03  0.00000000000E+00 0. -1.
</event>
<event>
 4    1  0.2229986E+005  0.2530599E+02  0.7546771E-02  0.1465409E+00
          2   -1    0    0  502    0  0.00000000000E+00  0.00000000000E+00  0.66943593299E+02  0.66943593299E+02  0.00000000000E+00 0. -1.
         21   -1    0    0  503  502 -0.00000000000E+00 -0.00000000000E+00 -0.43656948451E+02  0.43656948451E+02  0.00000000000E+00 0. -1.
          2    1    1    2  501    0  0.24088397134E+02 -0.77551539516E+01  0.60510704968E+02  0.65589166064E+02  0.00000000000E+00 0. -1.
         21    1    1    2  503  501 -0.24088397134E+02  0.77551539516E+01 -0.37224060120E+02  0.45011375686E+02  0.00000000000E+00 0. -1.
</event>
<event>
 4    1  0.2229986E+005  0.2063154E+02  0.7546771E-02  0.1524591E+00
          2   -1    0    0  503    0  0.00000000000E+00  0.00000000000E+00  0.29074917569E+02  0.29074917569E+02  0.00000000000E+00 0.  1.
         21   -1    0    0  501  502 -0.00000000000E+00 -0.00000000000E+00 -0.26031968519E+03  0.26031968519E+03  0.00000000000E+00 0.  1.
          2    1    1    2  501    0  0.66703060338E+01  0.19523514411E+02  0.24947224331E+02  0.32373208049E+02  0.00000000000E+00 0.  1.
         21    1    1    2  503  502 -0.66703060338E+01 -0.19523514411E+02 -0.25619199195E+03  0.25702139471E+03  0.00000000000E+00 0.  1.
</event>
<event>
 4    1  0.2229986E+005  0.2213664E+02  0.7546771E-02  0.1503634E+00
          2   -1    0    0  503    0  0.00000000000E+00  0.00000000000E+00  0.81753688729E+03  0.81753688729E+03  0.00000000000E+00 0.  1.
         21   -1    0    0  501  502 -0.00000000000E+00 -0.00000000000E+00 -0.64835714227E+00  0.64835714227E+00  0.00000000000E+00 0.  1.
          2    1    1    2  501    0  0.43931575993E+01  0.21696340691E+02  0.52085962583E+03  0.52132981965E+03  0.00000000000E+00 0.  1.
         21    1    1    2  503  502 -0.43931575993E+01 -0.21696340691E+02  0.29602890432E+03  0.29685542479E+03  0.00000000000E+00 0.  1.
</event>
<event>
 4    1  0.2229986E+005  0.2961148E+02  0.7546771E-02  0.1423003E+00
          2   -1    0    0  503    0  0.00000000000E+00  0.00000000000E+00  0.19452856759E+03  0.19452856759E+03  0.00000000000E+00 0.  1.
         21   -1    0    0  501  502 -0.00000000000E+00 -0.00000000000E+00 -0.50923435239E+02  0.50923435239E+02  0.00000000000E+00 0. -1.
          2    1    1    2  501    0 -0.98300417341E+01  0.27932237603E+02  0.18897116606E+03  0.19127713198E+03  0.00000000000E+00 0.  1.
         21    1    1    2  503  502  0.98300417341E+01 -0.27932237603E+02 -0.45366033702E+02  0.54174870852E+02  0.00000000000E+00 0. -1.
</event>
<event>
 4    1  0.2229986E+005  0.3346824E+02  0.7546771E-02  0.1391664E+00
          2   -1    0    0  502    0  0.00000000000E+00  0.00000000000E+00  0.10048238488E+02  0.10048238488E+02  0.00000000000E+00 0. -1.
         21   -1    0    0  503  502 -0.00000000000E+00 -0.00000000000E+00 -0.11200320067E+03  0.11200320067E+03  0.00000000000E+00 0. -1.
          2    1    1    2  501    0 -0.23101902419E+02  0.24216213291E+02 -0.46784901064E+02  0.57523472158E+02  0.00000000000E+00 0. -1.
         21    1    1    2  503  501  0.23101902419E+02 -0.24216213291E+02 -0.55170061118E+02  0.64527967001E+02  0.00000000000E+00 0. -1.
</event>
<event>
 4    1  0.2229986E+005  0.2959291E+02  0.7546771E-02  0.1423168E+00
          2   -1    0    0  503    0  0.00000000000E+00  0.00000000000E+00  0.10720592854E+04  0.10720592854E+04  0.00000000000E+00 0.  1.
         21   -1    0    0  501  502 -0.00000000000E+00 -0.00000000000E+00 -0.83218849699E+00  0.83218849699E+00  0.00000000000E+00 0.  1.
          2    1    1    2  501    0 -0.26111612293E+02  0.13925651234E+02  0.60837989504E+03  0.60909920107E+03  0.00000000000E+00 0.  1.
         21    1    1    2  503  502  0.26111612293E+02 -0.13925651234E+02  0.46284720184E+03  0.46379227280E+03  0.00000000000E+00 0.  1.
</event>
<event>
 4    1  0.2229986E+005  0.2110925E+02  0.7546771E-02  0.1517711E+00
          2   -1    0    0  503    0  0.00000000000E+00  0.00000000000E+00  0.17169615041E+03  0.17169615041E+03  0.00000000000E+00 0.  1.
         21   -1    0    0  501  502 -0.00000000000E+00 -0.00000000000E+00 -0.26021999009E+01  0.26021999009E+01  0.00000000000E+00 0.  1.
          2    1    1    2  501    0 -0.13750363121E+02  0.16016491495E+02  0.89039373397E+02  0.91507434128E+02  0.00000000000E+00 0.  1.
         21    1    1    2  503  502  0.13750363121E+02 -0.16016491495E+02  0.80054577112E+02  0.82790916183E+02  0.00000000000E+00 0.  1.
</event>
<event>
 4    1  0.2229986E+005  0.2614801E+02  0.7546771E-02  0.1456359E+00
          2   -1    0    0  503    0  0.00000000000E+00  0.00000000000E+00  0.80775144745E+03  0.80775144745E+03  0.00000000000E+00 0.  1.
         21   -1    0    0  501  502 -0.00000000000E+00 -0.00000000000E+00 -0.30032808866E+01  0.30032808866E+01  0.00000000000E+00 0.  1.
          2    1    1    2  501    0  0.49927145863E+01 -0.25666926701E+02  0.74590824084E+03  0.74636641275E+03  0.00000000000E+00 0.  1.
         21    1    1    2  503  502 -0.49927145863E+01  0.25666926701E+02  0.58839925727E+02  0.64388315592E+02  0.00000000000E+00 0.  1.
</event>
<event>
 4    1  0.2229986E+005  0.2321331E+02  0.7546771E-02  0.1489837E+00
          2   -1    0    0  502    0  0.00000000000E+00  0.00000000000E+00  0.13780262382E+04  0.13780262382E+04  0.00000000000E+00 0. -1.
         21   -1    0    0  503  502 -0.00000000000E+00 -0.00000000000E+00 -0.62450680755E+02  0.62450680755E+02  0.00000000000E+00 0.  1.
          2    1    1    2  501    0  0.16650495438E+02  0.16174630048E+02  0.13757678056E+04  0.13759636305E+04  0.00000000000E+00 0. -1.
         21    1    1    2  503  501 -0.16650495438E+02 -0.16174630048E+02 -0.60192248107E+02  0.64513288458E+02  0.00000000000E+00 0.  1.
</event>
<event>
 4    1  0.2229986E+005  0.3373897E+02  0.7546771E-02  0.1389652E+00
          2   -1    0    0  503    0  0.00000000000E+00  0.00000000000E+00  0.23274836223E+01  0.23274836223E+01  0.00000000000E+00 0. -1.
         21   -1    0    0  501  502 -0.00000000000E+00 -0.00000000000E+00 -0.50123829880E+03  0.50123829880E+03  0.00000000000E+00 0. -1.
          2    1    1    2  501    0 -0.16528869429E+02 -0.29412827882E+02 -0.28867469883E+03  0.29063963892E+03  0.00000000000E+00 0. -1.
         21    1    1    2  503  502  0.16528869429E+02  0.29412827882E+02 -0.21023611635E+03  0.21292614350E+03  0.00000000000E+00 0. -1.
</event>
<event>
 4    1  0.2229986E+005  0.2011065E+02  0.7546771E-02  0.1532351E+00
          2   -1    0    0  503    0  0.00000000000E+00  0.00000000000E+00  0.78233851584E+03  0.78233851584E+03  0.00000000000E+00 0. -1.
         21   -1    0    0  501  502 -0.00000000000E+00 -0.00000000000E+00 -0.89305496445E+00  0.89305496445E+00  0.00000000000E+00 0.  1.
          2    1    1    2  501    0 -0.16899761067E+02 -0.10901198630E+02  0.64486072917E+03  0.64517423854E+03  0.00000000000E+00 0. -1.
         21    1    1    2  503  502  0.16899761067E+02  0.10901198630E+02  0.13658473170E+03  0.13805733226E+03  0.00000000000E+00 0.  1.
</event>
<event>
 4    1  0.2229986E+005  0.2087384E+02  0.7546771E-02  0.1521074E+00
          2   -1    0    0  503    0  0.00000000000E+00  0.00000000000E+00  0.11546426803E+04  0.11546426803E+04  0.00000000000E+00 0. -1.
         21   -1    0    0  501  502 -0.00000000000E+00 -0.00000000000E+00 -0.37948027843E+00  0.37948027843E+00  0.00000000000E+00 0. -1.
          2    1    1    2  501    0 -0.18945024603E+02 -0.87637551184E+01  0.62028728608E+03  0.62063840893E+03  0.00000000000E+00 0. -1.
         21    1    1    2  503  502  0.18945024603E+02  0.87637551184E+01  0.53397591389E+03  0.53438375160E+03  0.00000000000E+00 0. -1.
</event>
<event>
 4    1  0.2229986E+005  0.3149569E+02  0.7546771E-02  0.1407029E+00
          2   -1    0    0  502    0  0.00000000000E+00  0.00000000000E+00  0.20487146990E+04  0.20487146990E+04  0.00000000000E+00 0. -1.
         21   -1    0    0  503  502 -0.00000000000E+00 -0.00000000000E+00 -0.29162641392E+01  0.29162641392E+01  0.00000000000E+00 0. -1.
          2    1    1    2  501    0 -0.63713066279E+01  0.30844532999E+02  0.19596923967E+04  0.19599454759E+04  0.00000000000E+00 0. -1.
         21    1    1    2  503  501  0.63713066279E+01 -0.30844532999E+02  0.86106038076E+02  0.91685487168E+02  0.00000000000E+00 0. -1.
</event>
<event>
 4    1  0.2229986E+005  0.4213202E+02  0.7546771E-02  0.1336426E+00
          2   -1    0    0  502    0  0.00000000000E+00  0.00000000000E+00  0.79319076706E+03  0.79319076706E+03  0.00000000000E+00 0. -1.
         21   -1    0    0  503  502 -0.00000000000E+00 -0.00000000000E+00 -0.33048025245E+01  0.33048025245E+01  0.00000000000E+00 0. -1.
          2    1    1    2  501    0  0.22021786342E+02 -0.35918627221E+02  0.62121794774E+03  0.62264503969E+03  0.00000000000E+00 0. -1.
         21    1    1    2  503  501 -0.22021786342E+02  0.35918627221E+02  0.16866801679E+03  0.17385052989E+03  0.00000000000E+00 0. -1.
</event>
<event>
 4    1  0.2229986E+005  0.3140367E+02  0.7546771E-02  0.1407778E+00
          2   -1    0    0  503    0  0.00000000000E+00  0.00000000000E+00  0.33798437460E+03  0.33798437460E+03  0.00000000000E+00 0.  1.
         21   -1    0    0  501  502 -0.00000000000E+00 -0.00000000000E+00 -0.38565684900E+02  0.38565684900E+02  0.00000000000E+00 0. -1.
          2    1    1    2  501    0 -0.23037025919E+02 -0.21342116434E+02  0.33072191265E+03  0.33220953329E+03  0.00000000000E+00 0.  1.
         21    1    1    2  503  502  0.23037025919E+02  0.21342116434E+02 -0.31303222957E+02  0.44340526210E+02  0.00000000000E+00 0. -1.
</event>
<event>
 4    1  0.2229986E+005  0.2362804E+02  0.7546771E-02  0.1484759E+00
          2   -1    0    0  503    0  0.00000000000E+00  0.00000000000E+00  0.24821394002E+04  0.24821394002E+04  0.00000000000E+00 0.  1.
         21   -1    0    0  501  502 -0.00000000000E+00 -0.00000000000E+00 -0.22506499542E+00  0.22506499542E+00  0.00000000000E+00 0.  1.
          2    1    1    2  501    0  0.23083214551E+02  0.50447279377E+01  0.12095097497E+04  0.12097405171E+04  0.00000000000E+00 0.  1.
         21    1    1    2  503  502 -0.23083214551E+02 -0.50447279377E+01  0.12724045855E+04  0.12726239481E+04  0.00000000000E+00 0.  1.
</event>
<event>
 4    1  0.2229986E+005  0.3803461E+02  0.7546771E-02  0.1360404E+00
          2   -1    0    0  503    0  0.00000000000E+00  0.00000000000E+00  0.24640648520E+04  0.24640648520E+04  0.00000000000E+00 0. -1.
         21   -1    0    0  501  502 -0.00000000000E+00 -0.00000000000E+00 -0.27912154014E+03  0.27912154014E+03  0.00000000000E+00 0. -1.
          2    1    1    2  501    0 -0.36473402287E+02  0.10785280341E+02  0.24626216196E+04  0.24629153199E+04  0.00000000000E+00 0. -1.
         21    1    1    2  503  502  0.36473402287E+02 -0.10785280341E+02 -0.27767830778E+03  0.28027107228E+03  0.00000000000E+00 0. -1.
</event>
<event>
 4    1  0.2229986E+005  0.4691645E+02  0.7546771E-02  0.1312125E+00
          2   -1    0    0  503    0  0.00000000000E+00  0.00000000000E+00  0.23187066208E+04  0.23187066208E+04  0.00000000000E+00 0. -1.
         21   -1    0    0  501  502 -0.00000000000E+00 -0.00000000000E+00 -0.95428970234E+00  0.95428970234E+00  0.00000000000E+00 0. -1.
          2    1    1    2  501    0 -0.25070815687E+02  0.39656111513E+02  0.10750263920E+04  0.10760496720E+04  0.00000000000E+00 0. -1.
         21    1    1    2  503  502  0.25070815687E+02 -0.39656111513E+02  0.12427259390E+04  0.12436112385E+04  0.00000000000E+00 0. -1.
</event>
<event>
 4    1  0.2229986E+005  0.2040464E+02  0.7546771E-02  0.1527937E+00
          2   -1    0    0  503    0  0.00000000000E+00  0.00000000000E+00  0.90169302779E+02  0.90169302779E+02  0.00000000000E+00 0.  1.
         21   -1    0    0  501  502 -0.00000000000E+00 -0.00000000000E+00 -0.14959877710E+02  0.14959877710E+02  0.00000000000E+00 0.  1.
          2    1    1    2  501    0 -0.20182887924E+02  0.30000721917E+01  0.81310723665E+02  0.83831874493E+02  0.00000000000E+00 0.  1.
         21    1    1    2  503  502  0.20182887924E+02 -0.30000721917E+01 -0.61012985957E+01  0.21297305996E+02  0.00000000000E+00 0.  1.
</event>
<event>
 4    1  0.2229986E+005  0.2187102E+02  0.7546771E-02  0.1507183E+00
          2   -1    0    0  502    0  0.00000000000E+00  0.00000000000E+00  0.73146324239E+03  0.73146324239E+03  0.00000000000E+00 0. -1.
         21   -1    0    0  503  502 -0.00000000000E+00 -0.00000000000E+00 -0.22431528250E+02  0.22431528250E+02  0.00000000000E+00 0. -1.
          2    1    1    2  501    0 -0.14274831804E+02 -0.16570170038E+02  0.72592798592E+03  0.72625738007E+03  0.00000000000E+00 0. -1.
         21    1    1    2  503  501  0.14274831804E+02  0.16570170038E+02 -0.16896271775E+02  0.27637390579E+02  0.00000000000E+00 0. -1.
</event>
<event>
 4    1  0.2229986E+005  0.2923900E+02  0.7546771E-02  0.1426327E+00
          2   -1    0    0  502    0  0.00000000000E+00  0.00000000000E+00  0.19948105984E+04  0.19948105984E+04  0.00000000000E+00 0.  1.
         21   -1    0    0  503  502 -0.00000000000E+00 -0.00000000000E+00 -0.13195003416E+01  0.13195003416E+01  0.00000000000E+00 0.  1.
          2    1    1    2  501    0 -0.13378696086E+02 -0.25998645935E+02  0.18168621206E+04  0.18170973789E+04  0.00000000000E+00 0.  1.
         21    1    1    2  503  501  0.13378696086E+02  0.25998645935E+02  0.17662897748E+03  0.17903271987E+03  0.00000000000E+00 0.  1.
</event>
<event>
 4    1  0.2229986E+005  0.2034672E+02  0.7546771E-02  0.1528800E+00
          2   -1    0    0  502    0  0.00000000000E+00  0.00000000000E+00  0.20664804325E+03  0.20664804325E+03  0.00000000000E+00 0. -1.
         21   -1    0    0  503  502 -0.00000000000E+00 -0.00000000000E+00 -0.37090842341E+01  0.37090842341E+01  0.00000000000E+00 0. -1.
          2    1    1    2  501    0  0.19426967255E+02  0.60483168566E+01  0.17279567437E+03  0.17398946599E+03  0.00000000000E+00 0. -1.
         21    1    1    2  503  501 -0.19426967255E+02 -0.60483168566E+01  0.30143284646E+02  0.36367661497E+02  0.00000000000E+00 0. -1.
</event>
<event>
 4    1  0.2229986E+005  0.2064505E+02  0.7546771E-02  0.1524393E+00
          2   -1    0    0  503    0  0.00000000000E+00  0.00000000000E+00  0.13142833770E+04  0.13142833770E+04  0.00000000000E+00 0. -1.
         21   -1    0    0  501  502 -0.00000000000E+00 -0.00000000000E+00 -0.10405710980E+02  0.10405710980E+02  0.00000000000E+00 0.  1.
          2    1    1    2  501    0  0.72663670993E+01 -0.19324025786E+02  0.13038806065E+04  0.13040440384E+04  0.00000000000E+00 0. -1.
         21    1    1    2  503  502 -0.72663670993E+01  0.19324025786E+02 -0.29404890249E-02  0.20645049578E+02  0.00000000000E+00 0.  1.
</event>
<event>
 4    1  0.2229986E+005  0.2129632E+02  0.7546771E-02  0.1515076E+00
          2   -1    0    0  503    0  0.00000000000E+00  0.00000000000E+00  0.51926605086E+03  0.51926605086E+03  0.00000000000E+00 0. -1.
         21   -1    0    0  501  502 -0.00000000000E+00 -0.00000000000E+00 -0.74792229991E+01  0.74792229991E+01  0.00000000000E+00 0.  1.
          2    1    1    2  501    0 -0.20815829755E+02 -0.44982857027E+01  0.50341066536E+03  0.50386092460E+03  0.00000000000E+00 0. -1.
         21    1    1    2  503  502  0.20815829755E+02  0.44982857027E+01  0.83761624996E+01  0.22884349256E+02  0.00000000000E+00 0.  1.
</event>
<event>
 4    1  0.2229986E+005  0.2155702E+02  0.7546771E-02  0.1511459E+00
          2   -1    0    0  503    0  0.00000000000E+00  0.00000000000E+00  0.82971439340E+03  0.82971439340E+03  0.00000000000E+00 0. -1.
         21   -1    0    0  501  502 -0.00000000000E+00 -0.00000000000E+00 -0.23977418032E+01  0.23977418032E+01  0.00000000000E+00 0. -1.
          2    1    1    2  501    0 -0.13825004891E+02 -0.16540079196E+02  0.77789498522E+03  0.77819362180E+03  0.00000000000E+00 0. -1.
         21    1    1    2  503  502  0.13825004891E+02  0.16540079196E+02  0.49421666369E+02  0.53918513395E+02  0.00000000000E+00 0. -1.
</event>
<event>
 4    1  0.2229986E+005  0.3405486E+02  0.7546771E-02  0.1387332E+00
          2   -1    0    0  502    0  0.00000000000E+00  0.00000000000E+00  0.19741062093E+03  0.19741062093E+03  0.00000000000E+00 0. -1.
         21   -1    0    0  503  502 -0.00000000000E+00 -0.00000000000E+00 -0.86731956896E+01  0.86731956896E+01  0.00000000000E+00 0. -1.
          2    1    1    2  501    0 -0.33727014855E+02  0.47140336445E+01  0.15289951689E+03  0.15664608488E+03  0.00000000000E+00 0. -1.
         21    1    1    2  503  501  0.33727014855E+02 -0.47140336445E+01  0.35837908350E+02  0.49437731735E+02  0.00000000000E+00 0. -1.
</event>
<event>
 4    1  0.2229986E+005  0.3570184E+02  0.7546771E-02  0.1375695E+00
          2   -1    0    0  502    0  0.00000000000E+00  0.00000000000E+00  0.23686649736E+04  0.23686649736E+04  0.00000000000E+00 0.  1.
         21   -1    0    0  503  502 -0.00000000000E+00 -0.00000000000E+00 -0.42609604250E+01  0.42609604250E+01  0.00000000000E+00 0. -1.
          2    1    1    2  501    0 -0.19508276026E+02  0.29900649788E+02  0.22912178574E+04  0.22914959943E+04  0.00000000000E+00 0.  1.
         21    1    1    2  503  501  0.19508276026E+02 -0.29900649788E+02  0.73186155777E+02  0.81429939756E+02  0.00000000000E+00 0. -1.
</event>
<event>
 4    1  0.2229986E+005  0.2017771E+02  0.7546771E-02  0.1531336E+00
          2   -1    0    0  502    0  0.00000000000E+00  0.00000000000E+00  0.18178948564E+02  0.18178948564E+02  0.00000000000E+00 0.  1.
         21   -1    0    0  503  502 -0.00000000000E+00 -0.00000000000E+00 -0.97106568249E+02  0.97106568249E+02  0.00000000000E+00 0. -1.
          2    1    1    2  501    0 -0.20142668255E+02 -0.11886714628E+01  0.11096623265E+02  0.23027702277E+02  0.00000000000E+00 0.  1.
         21    1    1    2  503  501  0.20142668255E+02  0.11886714628E+01 -0.90024242950E+02  0.92257814536E+02  0.00000000000E+00 0. -1.
</event>
<event>
 4    1  0.2229986E+005  0.2114256E+02  0.7546771E-02  0.1517239E+00
          2   -1    0    0  503    0  0.00000000000E+00  0.00000000000E+00  0.59641787950E+03  0.59641787950E+03  0.00000000000E+00 0. -1.
         21   -1    0    0  501  502 -0.00000000000E+00 -0.00000000000E+00 -0.15287383652E+02  0.15287383652E+02  0.00000000000E+00 0. -1.
          2    1    1    2  501    0 -0.21073037449E+02 -0.17131396403E+01  0.58882621389E+03  0.58920566691E+03  0.00000000000E+00 0. -1.
         21    1    1    2  503  502  0.21073037449E+02  0.17131396403E+01 -0.76957180435E+01  0.22499596240E+02  0.00000000000E+00 0. -1.
</event>
<event>
 4    1  0.2229986E+005  0.2634630E+02  0.7546771E-02  0.1454287E+00
          2   -1    0    0  503    0  0.00000000000E+00  0.00000000000E+00  0.70699850409E+03  0.70699850409E+03  0.00000000000E+00 0.  1.
         21   -1    0    0  501  502 -0.00000000000E+00 -0.00000000000E+00 -0.10037678235E+01  0.10037678235E+01  0.00000000000E+00 0.  1.
          2    1    1    2  501    0 -0.16830289872E+02  0.20269899667E+02  0.40537338220E+03  0.40622863819E+03  0.00000000000E+00 0.  1.
         21    1    1    2  503  502  0.16830289872E+02 -0.20269899667E+02  0.30062135406E+03  0.30177363372E+03  0.00000000000E+00 0.  1.
</event>
<event>
 4    1  0.2229986E+005  0.5232229E+02  0.7546771E-02  0.1288406E+00
          2   -1    0    0  502    0  0.00000000000E+00  0.00000000000E+00  0.90195054523E+03  0.90195054523E+03  0.00000000000E+00 0.  1.
         21   -1    0    0  503  502 -0.00000000000E+00 -0.00000000000E+00 -0.10044267108E+02  0.10044267108E+02  0.00000000000E+00 0. -1.
          2    1    1    2  501    0 -0.18287177201E+01 -0.52290323398E+02  0.82687211197E+03  0.82852586664E+03  0.00000000000E+00 0.  1.
         21    1    1    2  503  501  0.18287177201E+01  0.52290323398E+02  0.65034166153E+02  0.83468945703E+02  0.00000000000E+00 0. -1.
</event>
<event>
 4    1  0.2229986E+005  0.2399196E+02  0.7546771E-02  0.1480404E+00
          2   -1    0    0  502    0  0.00000000000E+00  0.00000000000E+00  0.71041609081E+02  0.71041609081E+02  0.00000000000E+00 0. -1.
         21   -1    0    0  503  502 -0.00000000000E+00 -0.00000000000E+00 -0.38991251232E+02  0.38991251232E+02  0.00000000000E+00 0. -1.
          2    1    1    2  501    0  0.16474020856E+02  0.17441925546E+02  0.64992804614E+02  0.69279714069E+02  0.00000000000E+00 0. -1.
         21    1    1    2  503  501 -0.16474020856E+02 -0.17441925546E+02 -0.32942446765E+02  0.40753146244E+02  0.00000000000E+00 0. -1.
</event>
<event>
 4    1  0.2229986E+005  0.3482995E+02  0.7546771E-02  0.1381763E+00
          2   -1    0    0  502    0  0.00000000000E+00  0.00000000000E+00  0.17730561739E+04  0.17730561739E+04  0.00000000000E+00 0. -1.
         21   -1    0    0  503  502 -0.00000000000E+00 -0.00000000000E+00 -0.11566694103E+01  0.11566694103E+01  0.00000000000E+00 0. -1.
          2    1    1    2  501    0 -0.17735001704E+02  0.29976578450E+02  0.14529167949E+04  0.14533342143E+04  0.00000000000E+00 0. -1.
         21    1    1    2  503  501  0.17735001704E+02 -0.29976578450E+02  0.31898270962E+03  0.32087862905E+03  0.00000000000E+00 0. -1.
</event>
<event>
 4    1  0.2229986E+005  0.2258920E+02  0.7546771E-02  0.1497722E+00
          2   -1    0    0  502    0  0.00000000000E+00  0.00000000000E+00  0.48003617217E+02  0.48003617217E+02  0.00000000000E+00 0.  1.
         21   -1    0    0  503  502 -0.00000000000E+00 -0.00000000000E+00 -0.12781502997E+03  0.12781502997E+03  0.00000000000E+00 0. -1.
          2    1    1    2  501    0 -0.22576067710E+02 -0.77024959130E+00  0.44268743657E+02  0.49699032009E+02  0.00000000000E+00 0.  1.
         21    1    1    2  503  501  0.22576067710E+02  0.77024959130E+00 -0.12408015641E+03  0.12611961517E+03  0.00000000000E+00 0. -1.
</event>
<event>
 4    1  0.2229986E+005  0.2891135E+02  0.7546771E-02  0.1429299E+00
          2   -1    0    0  502    0  0.00000000000E+00  0.00000000000E+00  0.11667776528E+04  0.11667776528E+04  0.00000000000E+00 0. -1.
         21   -1    0    0  503  502 -0.00000000000E+00 -0.00000000000E+00 -0.75339902740E+01  0.75339902740E+01  0.00000000000E+00 0.  1.
          2    1    1    2  501    0  0.23762593243E+01  0.28813525755E+02  0.11381648970E+04  0.11385320367E+04  0.00000000000E+00 0. -1.
         21    1    1    2  503  501 -0.23762593243E+01 -0.28813525755E+02  0.21078765527E+02  0.35779606355E+02  0.00000000000E+00 0.  1.
</event>
<event>
 4    1  0.2229986E+005  0.4512589E+02  0.7546771E-02  0.1320811E+00
          2   -1    0    0  503    0  0.00000000000E+00  0.00000000000E+00  0.14156518646E+04  0.14156518646E+04  0.00000000000E+00 0.  1.
         21   -1    0    0  501  502 -0.00000000000E+00 -0.00000000000E+00 -0.50937366051E+02  0.50937366051E+02  0.00000000000E+00 0. -1.
          2    1    1    2  501    0  0.19020087913E+02  0.40921654968E+02  0.14052237427E+04  0.14059481187E+04  0.00000000000E+00 0.  1.
         21    1    1    2  503  502 -0.19020087913E+02 -0.40921654968E+02 -0.40509244153E+02  0.60641111891E+02  0.00000000000E+00 0. -1.
</event>
<event>
 4    1  0.2229986E+005  0.2128593E+02  0.7546771E-02  0.1515221E+00
          2   -1    0    0  502    0  0.00000000000E+00  0.00000000000E+00  0.91328538101E+02  0.91328538101E+02  0.00000000000E+00 0. -1.
         21   -1    0    0  503  502 -0.00000000000E+00 -0.00000000000E+00 -0.11347265353E+02  0.11347265353E+02  0.00000000000E+00 0.  1.
          2    1    1    2  501    0  0.20618966174E+02  0.52867058452E+01  0.78504067463E+02  0.81338672432E+02  0.00000000000E+00 0. -1.
         21    1    1    2  503  501 -0.20618966174E+02 -0.52867058452E+01  0.14772052852E+01  0.21337131022E+02  0.00000000000E+00 0.  1.
</event>
<event>
 4    1  0.2229986E+005  0.6101513E+02  0.7546771E-02  0.1256422E+00
          2   -1    0    0  502    0  0.00000000000E+00  0.00000000000E+00  0.12417606498E+03  0.12417606498E+03  0.00000000000E+00 0.  1.
         21   -1    0    0  503  502 -0.00000000000E+00 -0.00000000000E+00 -0.52939206900E+02  0.52939206900E+02  0.00000000000E+00 0.  1.
          2    1    1    2  501    0  0.42728776596E+02  0.43555684453E+02  0.93937704093E+02  0.11201400916E+03  0.00000000000E+00 0.  1.
         21    1    1    2  503  501 -0.42728776596E+02 -0.43555684453E+02 -0.22700846016E+02  0.65101262718E+02  0.00000000000E+00 0.  1.
</event>
<event>
 4    1  0.2229986E+005  0.2249821E+02  0.7546771E-02  0.1498897E+00
          2   -1    0    0  503    0  0.00000000000E+00  0.00000000000E+00  0.88394639999E+03  0.88394639999E+03  0.00000000000E+00 0. -1.
         21   -1    0    0  501  502 -0.00000000000E+00 -0.00000000000E+00 -0.50158694164E+01  0.50158694164E+01  0.00000000000E+00 0. -1.
          2    1    1    2  501    0  0.50849145688E+01  0.21916043033E+02  0.85780618999E+03  0.85810117637E+03  0.00000000000E+00 0. -1.
         21    1    1    2  503  502 -0.50849145688E+01 -0.21916043033E+02  0.21124340581E+02  0.30861093036E+02  0.00000000000E+00 0. -1.
</event>
<event>
 4    1  0.2229986E+005  0.2720646E+02  0.7546771E-02  0.1445545E+00
          2   -1    0    0  503    0  0.00000000000E+00  0.00000000000E+00  0.19027923104E+04  0.19027923104E+04  0.00000000000E+00 0. -1.
         21   -1    0    0  501  502 -0.00000000000E+00 -0.00000000000E+00 -0.39636680000E+00  0.39636680000E+00  0.00000000000E+00 0.  1.
          2    1    1    2  501    0  0.16729673075E+02  0.21454823267E+02  0.10809046032E+04  0.10812469434E+04  0.00000000000E+00 0. -1.
         21    1    1    2  503  502 -0.16729673075E+02 -0.21454823267E+02  0.82149134038E+03  0.82194173378E+03  0.00000000000E+00 0.  1.
</event>
<event>
 4    1  0.2229986E+005  0.2962849E+02  0.7546771E-02  0.1422853E+00
          2   -1    0    0  503    0  0.00000000000E+00  0.00000000000E+00  0.68543764517E+01  0.68543764517E+01  0.00000000000E+00 0. -1.
         21   -1    0    0  501  502 -0.00000000000E+00 -0.00000000000E+00 -0.39563007177E+03  0.39563007177E+03  0.00000000000E+00 0.  1.
          2    1    1    2  501    0  0.25930923044E+02  0.14332986178E+02 -0.28893085883E+02  0.41384268443E+02  0.00000000000E+00 0. -1.
         21    1    1    2  503  502 -0.25930923044E+02 -0.14332986178E+02 -0.35988260943E+03  0.36110017978E+03  0.00000000000E+00 0.  1.
</event>
<event>
 4    1  0.2229986E+005  0.2056293E+02  0.7546771E-02  0.1525598E+00
          2   -1    0    0  502    0  0.00000000000E+00  0.00000000000E+00  0.70842350058E+01  0.70842350058E+01  0.00000000000E+00 0.  1.
         21   -1    0    0  503  502 -0.00000000000E+00 -0.00000000000E+00 -0.60991195249E+02  0.60991195249E+02  0.00000000000E+00 0.  1.
          2    1    1    2  501    0 -0.19947954315E+02  0.49912992924E+01 -0.21975380604E+02  0.30095702395E+02  0.00000000000E+00 0.  1.
         21    1    1    2  503  501  0.19947954315E+02 -0.49912992924E+01 -0.31931579639E+02  0.37979727859E+02  0.00000000000E+00 0.  1.
</event>
<event>
 4    1  0.2229986E+005  0.2073511E+02  0.7546771E-02  0.1523081E+00
          2   -1    0    0  503    0  0.00000000000E+00  0.00000000000E+00  0.96497763828E+02  0.96497763828E+02  0.00000000000E+00 0. -1.
         21   -1    0    0  501  502 -0.00000000000E+00 -0.00000000000E+00 -0.68883117480E+01  0.68883117480E+01  0.00000000000E+00 0.  1.
          2    1    1    2  501    0 -0.71005486954E+01 -0.19481448739E+02  0.75525416576E+02  0.78320068857E+02  0.00000000000E+00 0. -1.
         21    1    1    2  503  502  0.71005486954E+01  0.19481448739E+02  0.14084035504E+02  0.25066006719E+02  0.00000000000E+00 0.  1.
</event>
<event>
 4    1  0.2229986E+005  0.2317865E+02  0.7546771E-02  0.1490267E+00
          2   -1    0    0  502    0  0.00000000000E+00  0.00000000000E+00  0.93515897041E+03  0.93515897041E+03  0.00000000000E+00 0.  1.
         21   -1    0    0  503  502 -0.00000000000E+00 -0.00000000000E+00 -0.18535912607E+01  0.18535912607E+01  0.00000000000E+00 0.  1.
          2    1    1    2  501    0 -0.21595245093E+02 -0.84199199566E+01  0.85584033492E+03  0.85615414998E+03  0.00000000000E+00 0.  1.
         21    1    1    2  503  501  0.21595245093E+02  0.84199199566E+01  0.77465044234E+02  0.80858411689E+02  0.00000000000E+00 0.  1.
</event>
<event>
 4    1  0.2229986E+005  0.2282600E+02  0.7546771E-02  0.1494695E+00
          2   -1    0    0  502    0  0.00000000000E+00  0.00000000000E+00  0.11772792976E+02  0.11772792976E+02  0.00000000000E+00 0. -1.
         21   -1    0    0  503  502 -0.00000000000E+00 -0.00000000000E+00 -0.48115173717E+02  0.48115173717E+02  0.00000000000E+00 0.  1.
          2    1    1    2  501    0 -0.49071470884E+01  0.22292285088E+02 -0.96916744918E+01  0.24798278598E+02  0.00000000000E+00 0. -1.
         21    1    1    2  503  501  0.49071470884E+01 -0.22292285088E+02 -0.26650706250E+02  0.35089688095E+02  0.00000000000E+00 0.  1.
</event>
<event>
 4    1  0.2229986E+005  0.2034668E+02  0.7546771E-02  0.1528800E+00
          2   -1    0    0  502    0  0.00000000000E+00  0.00000000000E+00  0.69565721666E+03  0.69565721666E+03  0.00000000000E+00 0.  1.
         21   -1    0    0  503  502 -0.00000000000E+00 -0.00000000000E+00 -0.89643918716E+01  0.89643918716E+01  0.00000000000E+00 0.  1.
          2    1    1    2  501    0  0.15362535985E+02  0.13340906439E+02  0.68376231436E+03  0.68406497486E+03  0.00000000000E+00 0.  1.
         21    1    1    2  503  501 -0.15362535985E+02 -0.13340906439E+02  0.29305104324E+01  0.20556633672E+02  0.00000000000E+00 0.  1.
</event>
<event>
 4    1  0.2229986E+005  0.2197528E+02  0.7546771E-02  0.1505783E+00
          2   -1    0    0  502    0  0.00000000000E+00  0.00000000000E+00  0.27492925173E+03  0.27492925173E+03  0.00000000000E+00 0.  1.
         21   -1    0    0  503  502 -0.00000000000E+00 -0.00000000000E+00 -0.17572904849E+01  0.17572904849E+01  0.00000000000E+00 0.  1.
          2    1    1    2  501    0 -0.32751239473E+01  0.21729847935E+02  0.13364843540E+03  0.13544303974E+03  0.00000000000E+00 0.  1.
         21    1    1    2  503  501  0.32751239473E+01 -0.21729847935E+02  0.13952352584E+03  0.14124350247E+03  0.00000000000E+00 0.  1.
</event>
<event>
 4    1  0.2229986E+005  0.3141802E+02  0.7546771E-02  0.1407661E+00
          2   -1    0    0  503    0  0.00000000000E+00  0.00000000000E+00  0.24281171074E+03  0.24281171074E+03  0.00000000000E+00 0. -1.
         21   -1    0    0  501  502 -0.00000000000E+00 -0.00000000000E+00 -0.87018352378E+02  0.87018352378E+02  0.00000000000E+00 0.  1.
          2    1    1    2  501    0  0.31060436310E+02  0.47266632793E+01  0.23891344972E+03  0.24097038927E+03  0.00000000000E+00 0. -1.
         21    1    1    2  503  502 -0.31060436310E+02 -0.47266632793E+01 -0.83120091355E+02  0.88859673848E+02  0.00000000000E+00 0.  1.
</event>
<event>
 4    1  0.2229986E+005  0.2134169E+02  0.7546771E-02  0.1514442E+00
          2   -1    0    0  502    0  0.00000000000E+00  0.00000000000E+00  0.15845359207E+04  0.15845359207E+04  0.00000000000E+00 0. -1.
         21   -1    0    0  503  502 -0.00000000000E+00 -0.00000000000E+00 -0.69632290050E+00  0.69632290050E+00  0.00000000000E+00 0. -1.
          2    1    1    2  501    0  0.10071820424E+02 -0.18815588325E+02  0.13992907896E+04  0.13994535297E+04  0.00000000000E+00 0. -1.
         21    1    1    2  503  501 -0.10071820424E+02  0.18815588325E+02  0.18454880822E+03  0.18577871392E+03  0.00000000000E+00 0. -1.
</event>
<event>
 4    1  0.2229986E+005  0.2733995E+02  0.7546771E-02  0.1444223E+00
          2   -1    0    0  502    0  0.00000000000E+00  0.00000000000E+00  0.47228359056E+02  0.47228359056E+02  0.00000000000E+00 0.  1.
         21   -1    0    0  503  502 -0.00000000000E+00 -0.00000000000E+00 -0.52596201424E+03  0.52596201424E+03  0.00000000000E+00 0. -1.
          2    1    1    2  501    0 -0.10307044097E+02 -0.25322668916E+02  0.42883440880E+02  0.50857273037E+02  0.00000000000E+00 0.  1.
         21    1    1    2  503  501  0.10307044097E+02  0.25322668916E+02 -0.52161709606E+03  0.52233310026E+03  0.00000000000E+00 0. -1.
</event>
<event>
 4    1  0.2229986E+005  0.2266539E+02  0.7546771E-02  0.1496743E+00
          2   -1    0    0  502    0  0.00000000000E+00  0.00000000000E+00  0.10523797376E+04  0.10523797376E+04  0.00000000000E+00 0. -1.
         21   -1    0    0  503  502 -0.00000000000E+00 -0.00000000000E+00 -0.96616760205E+00  0.96616760205E+00  0.00000000000E+00 0. -1.
          2    1    1    2  501    0  0.11975774856E+02  0.19243203609E+02  0.89616253206E+03  0.89644910839E+03  0.00000000000E+00 0. -1.
         21    1    1    2  503  501 -0.11975774856E+02 -0.19243203609E+02  0.15525103795E+03  0.15689679683E+03  0.00000000000E+00 0. -1.
</event>
<event>
 4    1  0.2229986E+005  0.2090318E+02  0.7546771E-02  0.1520652E+00
          2   -1    0    0  502    0  0.00000000000E+00  0.00000000000E+00  0.28129320895E+03  0.28129320895E+03  0.00000000000E+00 0. -1.
         21   -1    0    0  503  502 -0.00000000000E+00 -0.00000000000E+00 -0.69305156740E+01  0.69305156740E+01  0.00000000000E+00 0.  1.
          2    1    1    2  501    0  0.17581125491E+02 -0.11306949902E+02  0.26412009090E+03  0.26494596715E+03  0.00000000000E+00 0. -1.
         21    1    1    2  503  501 -0.17581125491E+02  0.11306949902E+02  0.10242602369E+02  0.23277757472E+02  0.00000000000E+00 0.  1.
</event>
<event>
 4    1  0.2229986E+005  0.2374662E+02  0.7546771E-02  0.1483330E+00
          2   -1    0    0  502    0  0.00000000000E+00  0.00000000000E+00  0.76302962683E+03  0.76302962683E+03  0.00000000000E+00 0.  1.
         21   -1    0    0  503  502 -0.00000000000E+00 -0.00000000000E+00 -0.65658854580E+01  0.65658854580E+01  0.00000000000E+00 0. -1.
          2    1    1    2  501    0 -0.21344220299E+02 -0.10407987965E+02  0.74072768323E+03  0.74110822601E+03  0.00000000000E+00 0.  1.
         21    1    1    2  503  501  0.21344220299E+02  0.10407987965E+02  0.15736058138E+02  0.28487286276E+02  0.00000000000E+00 0. -1.
</event>
<event>
 4    1  0.2229986E+005  0.3028795E+02  0.7546771E-02  0.1417110E+00
          2   -1    0    0  502    0  0.00000000000E+00  0.00000000000E+00  0.78698036728E+02  0.78698036728E+02  0.00000000000E+00 0.  1.
         21   -1    0    0  503  502 -0.00000000000E+00 -0.00000000000E+00 -0.31969638242E+02  0.31969638242E+02  0.00000000000E+00 0.  1.
          2    1    1    2  501    0  0.20275854215E+02  0.22499994549E+02  0.67471270362E+02  0.73957638842E+02  0.00000000000E+00 0.  1.
         21    1    1    2  503  501 -0.20275854215E+02 -0.22499994549E+02 -0.20742871876E+02  0.36710036128E+02  0.00000000000E+00 0.  1.
</event>
<event>
 4    1  0.2229986E+005  0.2416606E+02  0.7546771E-02  0.1478353E+00
          2   -1    0    0  503    0  0.00000000000E+00  0.00000000000E+00  0.32390978487E+03  0.32390978487E+03  0.00000000000E+00 0.  1.
         21   -1    0    0  501  502 -0.00000000000E+00 -0.00000000000E+00 -0.46416460948E+01  0.46416460948E+01  0.00000000000E+00 0.  1.
          2    1    1    2  501    0  0.21106597702E+02 -0.11769036140E+02  0.28810222793E+03  0.28911397824E+03  0.00000000000E+00 0.  1.
         21    1    1    2  503  502 -0.21106597702E+02  0.11769036140E+02  0.31165910844E+02  0.39437452719E+02  0.00000000000E+00 0.  1.
</event>
<event>
 4    1  0.2229986E+005  0.2053452E+02  0.7546771E-02  0.1526016E+00
          2   -1    0    0  502    0  0.00000000000E+00  0.00000000000E+00  0.67678319381E+03  0.67678319381E+03  0.00000000000E+00 0.  1.
         21   -1    0    0  503  502 -0.00000000000E+00 -0.00000000000E+00 -0.12857779531E+01  0.12857779531E+01  0.00000000000E+00 0. -1.
          2    1    1    2  501    0  0.13142374526E+02 -0.15777972600E+02  0.58115407535E+03  0.58151674587E+03  0.00000000000E+00 0.  1.
         21    1    1    2  503  501 -0.13142374526E+02  0.15777972600E+02  0.94343340502E+02  0.96552225892E+02  0.00000000000E+00 0. -1.
</event>
<event>
 4    1  0.2229986E+005  0.2587266E+02  0.7546771E-02  0.1459273E+00
          2   -1    0    0  502    0  0.00000000000E+00  0.00000000000E+00  0.45290777910E+03  0.45290777910E+03  0.00000000000E+00 0. -1.
         21   -1    0    0  503  502 -0.00000000000E+00 -0.00000000000E+00 -0.16304911990E+01  0.16304911990E+01  0.00000000000E+00 0. -1.
          2    1    1    2  501    0  0.25867781913E+02  0.50240112730E+00  0.29514323970E+03  0.29627508584E+03  0.00000000000E+00 0. -1.
         21    1    1    2  503  501 -0.25867781913E+02 -0.50240112730E+00  0.15613404820E+03  0.15826318446E+03  0.00000000000E+00 0. -1.
</event>
<event>
 4    1  0.2229986E+005  0.3931420E+02  0.7546771E-02  0.1352552E+00
          2   -1    0    0  502    0  0.00000000000E+00  0.00000000000E+00  0.23423189176E+03  0.23423189176E+03  0.00000000000E+00 0.  1.
         21   -1    0    0  503  502 -0.00000000000E+00 -0.00000000000E+00 -0.84412015099E+01  0.84412015099E+01  0.00000000000E+00 0.  1.
          2    1    1    2  501    0  0.24907799834E+02  0.30417232647E+02  0.16958492109E+03  0.17408231385E+03  0.00000000000E+00 0.  1.
         21    1    1    2  503  501 -0.24907799834E+02 -0.30417232647E+02  0.56205769161E+02  0.68590779420E+02  0.00000000000E+00 0.  1.
</event>
<event>
 4    1  0.2229986E+005  0.2120348E+02  0.7546771E-02  0.1516379E+00
          2   -1    0    0  502    0  0.00000000000E+00  0.00000000000E+00  0.86297267278E+02  0.86297267278E+02  0.00000000000E+00 0. -1.
         21   -1    0    0  503  502 -0.00000000000E+00 -0.00000000000E+00 -0.32984075703E+03  0.32984075703E+03  0.00000000000E+00 0.  1.
          2    1    1    2  501    0 -0.77431598687E+01 -0.19739073668E+02  0.84647527413E+02  0.87262772424E+02  0.00000000000E+00 0. -1.
         21    1    1    2  503  501  0.77431598687E+01  0.19739073668E+02 -0.32819101717E+03  0.32887525188E+03  0.00000000000E+00 0.  1.
</event>
<event>
 4    1  0.2229986E+005  0.2462981E+02  0.7546771E-02  0.1472988E+00
          2   -1    0    0  502    0  0.00000000000E+00  0.00000000000E+00  0.35063378634E+01  0.35063378634E+01  0.00000000000E+00 0. -1.
         21   -1    0    0  503  502 -0.00000000000E+00 -0.00000000000E+00 -0.28087492873E+03  0.28087492873E+03  0.00000000000E+00 0.  1.
          2    1    1    2  501    0  0.60800599362E+01 -0.23867558012E+02 -0.50567851548E+02  0.56247089386E+02  0.00000000000E+00 0. -1.
         21    1    1    2  503  501 -0.60800599362E+01  0.23867558012E+02 -0.22680073932E+03  0.22813417721E+03  0.00000000000E+00 0.  1.
</event>
<event>
 4    1  0.2229986E+005  0.3036163E+02  0.7546771E-02  0.1416479E+00
          2   -1    0    0  502    0  0.00000000000E+00  0.00000000000E+00  0.70991792735E+03  0.70991792735E+03  0.00000000000E+00 0.  1.
         21   -1    0    0  503  502 -0.00000000000E+00 -0.00000000000E+00 -0.66531483311E+01  0.66531483311E+01  0.00000000000E+00 0.  1.
          2    1    1    2  501    0 -0.21037422386E+02 -0.21891896957E+02  0.67305850500E+03  0.67374296245E+03  0.00000000000E+00 0.  1.
         21    1    1    2  503  501  0.21037422386E+02  0.21891896957E+02  0.30206274015E+02  0.42828113231E+02  0.00000000000E+00 0.  1.
</event>
<event>
 4    1  0.2229986E+005  0.2054276E+02  0.7546771E-02  0.1525894E+00
          2   -1    0    0  503    0  0.00000000000E+00  0.00000000000E+00  0.63400035032E+01  0.63400035032E+01  0.00000000000E+00 0. -1.
         21   -1    0    0  501  502 -0.00000000000E+00 -0.00000000000E+00 -0.10151609844E+03  0.10151609844E+03  0.00000000000E+00 0.  1.
          2    1    1    2  501    0 -0.20071415191E+02 -0.43753118686E+01 -0.15943812204E+02  0.26004042172E+02  0.00000000000E+00 0. -1.
         21    1    1    2  503  502  0.20071415191E+02  0.43753118686E+01 -0.79232282738E+02  0.81852059776E+02  0.00000000000E+00 0.  1.
</event>
<event>
 4    1  0.2229986E+005  0.2209634E+02  0.7546771E-02  0.1504168E+00
          2   -1    0    0  503    0  0.00000000000E+00  0.00000000000E+00  0.19327963025E+03  0.19327963025E+03  0.00000000000E+00 0. -1.
         21   -1    0    0  501  502 -0.00000000000E+00 -0.00000000000E+00 -0.12097224389E+02  0.12097224389E+02  0.00000000000E+00 0. -1.
          2    1    1    2  501    0 -0.21987622188E+02  0.21892275368E+01  0.18193090232E+03  0.18326784079E+03  0.00000000000E+00 0. -1.
         21    1    1    2  503  502  0.21987622188E+02 -0.21892275368E+01 -0.74849645903E+00  0.22109013855E+02  0.00000000000E+00 0. -1.
</event>
<event>
 4    1  0.2229986E+005  0.2215228E+02  0.7546771E-02  0.1503426E+00
          2   -1    0    0  502    0  0.00000000000E+00  0.00000000000E+00  0.37234809392E+03  0.37234809392E+03  0.00000000000E+00 0.  1.
         21   -1    0    0  503  502 -0.00000000000E+00 -0.00000000000E+00 -0.46538575411E+01  0.46538575411E+01  0.00000000000E+00 0. -1.
          2    1    1    2  501    0  0.21895915791E+02  0.33603847651E+01  0.34344102643E+03  0.34415470642E+03  0.00000000000E+00 0.  1.
         21    1    1    2  503  501 -0.21895915791E+02 -0.33603847651E+01  0.24253209948E+02  0.32847245042E+02  0.00000000000E+00 0. -1.
</event>
<event>
 4    1  0.2229986E+005  0.2111627E+02  0.7546771E-02  0.1517611E+00
          2   -1    0    0  503    0  0.00000000000E+00  0.00000000000E+00  0.95047563323E+00  0.95047563323E+00  0.00000000000E+00 0. -1.
         21   -1    0    0  501  502 -0.00000000000E+00 -0.00000000000E+00 -0.82040552854E+03  0.82040552854E+03  0.00000000000E+00 0.  1.
          2    1    1    2  501    0  0.21387459196E+01 -0.21007677539E+02 -0.14100069960E+03  0.14257311821E+03  0.00000000000E+00 0. -1.
         21    1    1    2  503  502 -0.21387459196E+01  0.21007677539E+02 -0.67845435331E+03  0.67878288596E+03  0.00000000000E+00 0.  1.
</event>
<event>
 4    1  0.2229986E+005  0.2107657E+02  0.7546771E-02  0.1518174E+00
          2   -1    0    0  502    0  0.00000000000E+00  0.00000000000E+00  0.20822272633E+03  0.20822272633E+03  0.00000000000E+00 0.  1.
         21   -1    0    0  503  502 -0.00000000000E+00 -0.00000000000E+00 -0.14823235827E+02  0.14823235827E+02  0.00000000000E+00 0. -1.
          2    1    1    2  501    0 -0.15265780828E+02 -0.14531949445E+02  0.19988578006E+03  0.20099389714E+03  0.00000000000E+00 0.  1.
         21    1    1    2  503  501  0.15265780828E+02  0.14531949445E+02 -0.64862895594E+01  0.22052065010E+02  0.00000000000E+00 0. -1.
</event>
<event>
 4    1  0.2229986E+005  0.2340436E+02  0.7546771E-02  0.1487482E+00
          2   -1    0    0  502    0  0.00000000000E+00  0.00000000000E+00  0.26821139194E+03  0.26821139194E+03  0.00000000000E+00 0. -1.
         21   -1    0    0  503  502 -0.00000000000E+00 -0.00000000000E+00 -0.72080469041E+02  0.72080469041E+02  0.00000000000E+00 0. -1.
          2    1    1    2  501    0 -0.78919811814E+01 -0.22033631002E+02  0.26578366459E+03  0.26681214482E+03  0.00000000000E+00 0. -1.
         21    1    1    2  503  501  0.78919811814E+01  0.22033631002E+02 -0.69652741689E+02  0.73479716159E+02  0.00000000000E+00 0. -1.
</event>
<event>
 4    1  0.2229986E+005  0.2208178E+02  0.7546771E-02  0.1504362E+00
          2   -1    0    0  502    0  0.00000000000E+00  0.00000000000E+00  0.14552109112E+04  0.14552109112E+04  0.00000000000E+00 0. -1.
         21   -1    0    0  503  502 -0.00000000000E+00 -0.00000000000E+00 -0.60099157660E+00  0.60099157660E+00  0.00000000000E+00 0. -1.
          2    1    1    2  501    0 -0.59357868064E+01  0.21269029936E+02  0.12114924415E+04  0.12116936663E+04  0.00000000000E+00 0. -1.
         21    1    1    2  503  501  0.59357868064E+01 -0.21269029936E+02  0.24311747814E+03  0.24411823647E+03  0.00000000000E+00 0. -1.
</event>
<event>
 4    1  0.2229986E+005  0.3996886E+02  0.7546771E-02  0.1348668E+00
          2   -1    0    0  502    0  0.00000000000E+00  0.00000000000E+00  0.31979712998E+03  0.31979712998E+03  0.00000000000E+00 0.  1.
         21   -1    0    0  503  502 -0.00000000000E+00 -0.00000000000E+00 -0.25158698480E+03  0.25158698480E+03  0.00000000000E+00 0.  1.
          2    1    1    2  501    0 -0.32815955159E+02  0.22817166431E+02  0.31694663003E+03  0.31945684573E+03  0.00000000000E+00 0.  1.
         21    1    1    2  503  501  0.32815955159E+02 -0.22817166431E+02 -0.24873648485E+03  0.25192726905E+03  0.00000000000E+00 0.  1.
</event>
<event>
 4    1  0.2229986E+005  0.2390415E+02  0.7546771E-02  0.1481446E+00
          2   -1    0    0  502    0  0.00000000000E+00  0.00000000000E+00  0.14479793474E+04  0.14479793474E+04  0.00000000000E+00 0. -1.
         21   -1    0    0  503  502 -0.00000000000E+00 -0.00000000000E+00 -0.54762071924E+00  0.54762071924E+00  0.00000000000E+00 0.  1.
          2    1    1    2  501    0 -0.15421612508E+02  0.18264239121E+02  0.11065375875E+04  0.11067957540E+04  0.00000000000E+00 0. -1.
         21    1    1    2  503  501  0.15421612508E+02 -0.18264239121E+02  0.34089413919E+03  0.34173121411E+03  0.00000000000E+00 0.  1.
</event>
<event>
 4    1  0.2229986E+005  0.3835825E+02  0.7546771E-02  0.1358384E+00
          2   -1    0    0  503    0  0.00000000000E+00  0.00000000000E+00  0.22800953401E+04  0.22800953401E+04  0.00000000000E+00 0. -1.
         21   -1    0    0  501  502 -0.00000000000E+00 -0.00000000000E+00 -0.17750007255E+02  0.17750007255E+02  0.00000000000E+00 0. -1.
          2    1    1    2  501    0  0.36961434232E+02  0.10257084894E+02  0.22590173599E+04  0.22593429992E+04  0.00000000000E+00 0. -1.
         21    1    1    2  503  502 -0.36961434232E+02 -0.10257084894E+02  0.33279728956E+01  0.38502348170E+02  0.00000000000E+00 0. -1.
</event>
<event>
 4    1  0.2229986E+005  0.2188017E+02  0.7546771E-02  0.1507060E+00
          2   -1    0    0  503    0  0.00000000000E+00  0.00000000000E+00  0.50016745780E+01  0.50016745780E+01  0.00000000000E+00 0. -1.
         21   -1    0    0  501  502 -0.00000000000E+00 -0.00000000000E+00 -0.15010142667E+03  0.15010142667E+03  0.00000000000E+00 0. -1.
          2    1    1    2  501    0 -0.16164463496E+02  0.14746257247E+02 -0.25869108366E+02  0.33881451423E+02  0.00000000000E+00 0. -1.
         21    1    1    2  503  502  0.16164463496E+02 -0.14746257247E+02 -0.11923064373E+03  0.12122164983E+03  0.00000000000E+00 0. -1.
</event>
<event>
 4    1  0.2229986E+005  0.4457009E+02  0.7546771E-02  0.1323603E+00
          2   -1    0    0  503    0  0.00000000000E+00  0.00000000000E+00  0.20523739972E+04  0.20523739972E+04  0.00000000000E+00 0. -1.
         21   -1    0    0  501  502 -0.00000000000E+00 -0.00000000000E+00 -0.56019936910E+01  0.56019936910E+01  0.00000000000E+00 0.  1.
          2    1    1    2  501    0 -0.57259855196E+01 -0.44200742022E+02  0.19592686860E+04  0.19597755678E+04  0.00000000000E+00 0. -1.
         21    1    1    2  503  502  0.57259855196E+01  0.44200742022E+02  0.87503317523E+02  0.98200423028E+02  0.00000000000E+00 0.  1.
</event>
<event>
 4    1  0.2229986E+005  0.2219827E+02  0.7546771E-02  0.1502819E+00
          2   -1    0    0  503    0  0.00000000000E+00  0.00000000000E+00  0.25501438860E+03  0.25501438860E+03  0.00000000000E+00 0.  1.
         21   -1    0    0  501  502 -0.00000000000E+00 -0.00000000000E+00 -0.48340131365E+02  0.48340131365E+02  0.00000000000E+00 0. -1.
          2    1    1    2  501    0  0.14473552416E+02 -0.16830908862E+02  0.25195198244E+03  0.25292798317E+03  0.00000000000E+00 0.  1.
         21    1    1    2  503  502 -0.14473552416E+02  0.16830908862E+02 -0.45277725212E+02  0.50426536794E+02  0.00000000000E+00 0. -1.
</event>
<event>
 4    1  0.2229986E+005  0.2899608E+02  0.7546771E-02  0.1428526E+00
          2   -1    0    0  502    0  0.00000000000E+00  0.00000000000E+00  0.36850718340E+03  0.36850718340E+03  0.00000000000E+00 0. -1.
         21   -1    0    0  503  502 -0.00000000000E+00 -0.00000000000E+00 -0.64014688541E+01  0.64014688541E+01  0.00000000000E+00 0. -1.
          2    1    1    2  501    0 -0.24324736985E+02 -0.15782260292E+02  0.33143603739E+03  0.33270199797E+03  0.00000000000E+00 0. -1.
         21    1    1    2  503  501  0.24324736985E+02  0.15782260292E+02  0.30669677152E+02  0.42206654285E+02  0.00000000000E+00 0. -1.
</event>
<event>
 4    1  0.2229986E+005  0.2092038E+02  0.7546771E-02  0.1520405E+00
          2   -1    0    0  503    0  0.00000000000E+00  0.00000000000E+00  0.76587577289E+03  0.76587577289E+03  0.00000000000E+00 0.  1.
         21   -1    0    0  501  502 -0.00000000000E+00 -0.00000000000E+00 -0.55246744463E+03  0.55246744463E+03  0.00000000000E+00 0.  1.
          2    1    1    2  501    0 -0.19870488023E+02  0.65441634213E+01  0.76553477238E+03  0.76582057304E+03  0.00000000000E+00 0.  1.
         21    1    1    2  503  502  0.19870488023E+02 -0.65441634213E+01 -0.55212644412E+03  0.55252264448E+03  0.00000000000E+00 0.  1.
</event>
<event>
 4    1  0.2229986E+005  0.2131020E+02  0.7546771E-02  0.1514882E+00
          2   -1    0    0  503    0  0.00000000000E+00  0.00000000000E+00  0.47421402176E+03  0.47421402176E+03  0.00000000000E+00 0. -1.
         21   -1    0    0  501  502 -0.00000000000E+00 -0.00000000000E+00 -0.19738865533E+01  0.19738865533E+01  0.00000000000E+00 0. -1.
          2    1    1    2  501    0  0.20648892126E+02  0.52676454297E+01  0.40695924977E+03  0.40751681659E+03  0.00000000000E+00 0. -1.
         21    1    1    2  503  502 -0.20648892126E+02 -0.52676454297E+01  0.65280885444E+02  0.68671091725E+02  0.00000000000E+00 0. -1.
</event>
<event>
 4    1  0.2229986E+005  0.2473996E+02  0.7546771E-02  0.1471734E+00
          2   -1    0    0  503    0  0.00000000000E+00  0.00000000000E+00  0.36288174181E+03  0.36288174181E+03  0.00000000000E+00 0. -1.
         21   -1    0    0  501  502 -0.00000000000E+00 -0.00000000000E+00 -0.17307941706E+01  0.17307941706E+01  0.00000000000E+00 0. -1.
          2    1    1    2  501    0  0.22567259679E+02  0.10138259657E+02  0.15147057982E+03  0.15347769242E+03  0.00000000000E+00 0. -1.
         21    1    1    2  503  502 -0.22567259679E+02 -0.10138259657E+02  0.20968036782E+03  0.21113484356E+03  0.00000000000E+00 0. -1.
</event>
<event>
 4    1  0.2229986E+005  0.3310848E+02  0.7546771E-02  0.1394372E+00
          2   -1    0    0  502    0  0.00000000000E+00  0.00000000000E+00  0.19215771720E+02  0.19215771720E+02  0.00000000000E+00 0. -1.
         21   -1    0    0  503  502 -0.00000000000E+00 -0.00000000000E+00 -0.11109600880E+04  0.11109600880E+04  0.00000000000E+00 0. -1.
          2    1    1    2  501    0 -0.32156587531E+02  0.78819529399E+01  0.45165711565E+01  0.33415127095E+02  0.00000000000E+00 0. -1.
         21    1    1    2  503  501  0.32156587531E+02 -0.78819529399E+01 -0.10962608875E+04  0.10967607327E+04  0.00000000000E+00 0. -1.
</event>
<event>
 4    1  0.2229986E+005  0.3151543E+02  0.7546771E-02  0.1406869E+00
          2   -1    0    0  503    0  0.00000000000E+00  0.00000000000E+00  0.35531160366E+03  0.35531160366E+03  0.00000000000E+00 0.  1.
         21   -1    0    0  501  502 -0.00000000000E+00 -0.00000000000E+00 -0.18538801839E+02  0.18538801839E+02  0.00000000000E+00 0.  1.
          2    1    1    2  501    0  0.28650856385E+02  0.13128236460E+02  0.34064342358E+03  0.34209817917E+03  0.00000000000E+00 0.  1.
         21    1    1    2  503  502 -0.28650856385E+02 -0.13128236460E+02 -0.38706217569E+01  0.31752226330E+02  0.00000000000E+00 0.  1.
</event>
<event>
 4    1  0.2229986E+005  0.2158959E+02  0.7546771E-02  0.1511011E+00
          2   -1    0    0  503    0  0.00000000000E+00  0.00000000000E+00  0.11370544823E+04  0.11370544823E+04  0.00000000000E+00 0.  1.
         21   -1    0    0  501  502 -0.00000000000E+00 -0.00000000000E+00 -0.15092413850E+04  0.15092413850E+04  0.00000000000E+00 0. -1.
          2    1    1    2  501    0 -0.66423687746E+01 -0.20542380346E+02  0.11368747788E+04  0.11370797567E+04  0.00000000000E+00 0.  1.
         21    1    1    2  503  502  0.66423687746E+01  0.20542380346E+02 -0.15090616815E+04  0.15092161107E+04  0.00000000000E+00 0. -1.
</event>
<event>
 4    1  0.2229986E+005  0.2984466E+02  0.7546771E-02  0.1420951E+00
          2   -1    0    0  503    0  0.00000000000E+00  0.00000000000E+00  0.11304351366E+04  0.11304351366E+04  0.00000000000E+00 0.  1.
         21   -1    0    0  501  502 -0.00000000000E+00 -0.00000000000E+00 -0.20251450811E+01  0.20251450811E+01  0.00000000000E+00 0. -1.
          2    1    1    2  501    0 -0.11620017323E+02  0.27489618353E+02  0.10067806195E+04  0.10072228749E+04  0.00000000000E+00 0.  1.
         21    1    1    2  503  502  0.11620017323E+02 -0.27489618353E+02  0.12162937202E+03  0.12523740679E+03  0.00000000000E+00 0. -1.
</event>
<event>
 4    1  0.2229986E+005  0.9446203E+02  0.7546771E-02  0.1173766E+00
          2   -1    0    0  503    0  0.00000000000E+00  0.00000000000E+00  0.64980858254E+03  0.64980858254E+03  0.00000000000E+00 0.  1.
         21   -1    0    0  501  502 -0.00000000000E+00 -0.00000000000E+00 -0.37905725478E+02  0.37905725478E+02  0.00000000000E+00 0. -1.
          2    1    1    2  501    0 -0.94308778085E+02 -0.53785848247E+01  0.58055032456E+03  0.58818513595E+03  0.00000000000E+00 0.  1.
         21    1    1    2  503  502  0.94308778085E+02  0.53785848247E+01  0.31352532495E+02  0.99529172068E+02  0.00000000000E+00 0. -1.
</event>
<event>
 4    1  0.2229986E+005  0.2590121E+02  0.7546771E-02  0.1458969E+00
          2   -1    0    0  502    0  0.00000000000E+00  0.00000000000E+00  0.18670764458E+03  0.18670764458E+03  0.00000000000E+00 0. -1.
         21   -1    0    0  503  502 -0.00000000000E+00 -0.00000000000E+00 -0.16178283160E+02  0.16178283160E+02  0.00000000000E+00 0. -1.
          2    1    1    2  501    0  0.10436236934E+02  0.23705644794E+02  0.17473608327E+03  0.17664532666E+03  0.00000000000E+00 0. -1.
         21    1    1    2  503  501 -0.10436236934E+02 -0.23705644794E+02 -0.42067218431E+01  0.26240601081E+02  0.00000000000E+00 0. -1.
</event>
<event>
 4    1  0.2229986E+005  0.5400844E+02  0.7546771E-02  0.1281670E+00
          2   -1    0    0  503    0  0.00000000000E+00  0.00000000000E+00  0.10209198831E+04  0.10209198831E+04  0.00000000000E+00 0.  1.
         21   -1    0    0  501  502 -0.00000000000E+00 -0.00000000000E+00 -0.98437901105E+01  0.98437901105E+01  0.00000000000E+00 0.  1.
          2    1    1    2  501    0 -0.53362275836E+02  0.83294385288E+01  0.93973063231E+03  0.94128134653E+03  0.00000000000E+00 0.  1.
         21    1    1    2  503  502  0.53362275836E+02 -0.83294385288E+01  0.71345460693E+02  0.89482326691E+02  0.00000000000E+00 0.  1.
</event>
<event>
 4    1  0.2229986E+005  0.2208801E+02  0.7546771E-02  0.1504279E+00
          2   -1    0    0  502    0  0.00000000000E+00  0.00000000000E+00  0.49560364007E+03  0.49560364007E+03  0.00000000000E+00 0. -1.
         21   -1    0    0  503  502 -0.00000000000E+00 -0.00000000000E+00 -0.11323618654E+01  0.11323618654E+01  0.00000000000E+00 0. -1.
          2    1    1    2  501    0 -0.21903278750E+02 -0.28507442826E+01  0.33701030934E+03  0.33773336964E+03  0.00000000000E+00 0. -1.
         21    1    1    2  503  501  0.21903278750E+02  0.28507442826E+01  0.15746096886E+03  0.15900263229E+03  0.00000000000E+00 0. -1.
</event>
<event>
 4    1  0.2229986E+005  0.2866862E+02  0.7546771E-02  0.1431530E+00
          2   -1    0    0  503    0  0.00000000000E+00  0.00000000000E+00  0.14243898600E+03  0.14243898600E+03  0.00000000000E+00 0. -1.
         21   -1    0    0  501  502 -0.00000000000E+00 -0.00000000000E+00 -0.39649174855E+02  0.39649174855E+02  0.00000000000E+00 0.  1.
          2    1    1    2  501    0  0.10471937253E+02 -0.26687607871E+02  0.13555385145E+03  0.13855228806E+03  0.00000000000E+00 0. -1.
         21    1    1    2  503  502 -0.10471937253E+02  0.26687607871E+02 -0.32764040299E+02  0.43535872800E+02  0.00000000000E+00 0.  1.
</event>
<event>
 4    1  0.2229986E+005  0.2702091E+02  0.7546771E-02  0.1447398E+00
          2   -1    0    0  503    0  0.00000000000E+00  0.00000000000E+00  0.10859350532E+04  0.10859350532E+04  0.00000000000E+00 0.  1.
         21   -1    0    0  501  502 -0.00000000000E+00 -0.00000000000E+00 -0.67998286176E+00  0.67998286176E+00  0.00000000000E+00 0.  1.
          2    1    1    2  501    0  0.11197143454E+02 -0.24591740801E+02  0.60018561038E+03  0.60079355576E+03  0.00000000000E+00 0.  1.
         21    1    1    2  503  502 -0.11197143454E+02  0.24591740801E+02  0.48506945996E+03  0.48582148031E+03  0.00000000000E+00 0.  1.
</event>
<event>
 4    1  0.2229986E+005  0.2256868E+02  0.7546771E-02  0.1497986E+00
          2   -1    0    0  503    0  0.00000000000E+00  0.00000000000E+00  0.93025952574E+03  0.93025952574E+03  0.00000000000E+00 0.  1.
         21   -1    0    0  501  502 -0.00000000000E+00 -0.00000000000E+00 -0.30939325477E+01  0.30939325477E+01  0.00000000000E+00 0.  1.
          2    1    1    2  501    0  0.51013781420E+01 -0.21984565408E+02  0.88695684990E+03  0.88724393420E+03  0.00000000000E+00 0.  1.
         21    1    1    2  503  502 -0.51013781420E+01  0.21984565408E+02  0.40208743283E+02  0.46109524087E+02  0.00000000000E+00 0.  1.
</event>
<event>
 4    1  0.2229986E+005  0.2067214E+02  0.7546771E-02  0.1523998E+00
          2   -1    0    0  502    0  0.00000000000E+00  0.00000000000E+00  0.32971611559E+03  0.32971611559E+03  0.00000000000E+00 0.  1.
         21   -1    0    0  503  502 -0.00000000000E+00 -0.00000000000E+00 -0.16594179824E+01  0.16594179824E+01  0.00000000000E+00 0.  1.
          2    1    1    2  501    0  0.17358610366E+02  0.11225679334E+02  0.24155842002E+03  0.24244134861E+03  0.00000000000E+00 0.  1.
         21    1    1    2  503  501 -0.17358610366E+02 -0.11225679334E+02  0.86498277581E+02  0.88934184962E+02  0.00000000000E+00 0.  1.
</event>
<event>
 4    1  0.2229986E+005  0.2331825E+02  0.7546771E-02  0.1488540E+00
          2   -1    0    0  503    0  0.00000000000E+00  0.00000000000E+00  0.84802997499E+03  0.84802997499E+03  0.00000000000E+00 0.  1.
         21   -1    0    0  501  502 -0.00000000000E+00 -0.00000000000E+00 -0.14467463366E+01  0.14467463366E+01  0.00000000000E+00 0. -1.
          2    1    1    2  501    0  0.20943269850E+02  0.10252810693E+02  0.74023061553E+03  0.74059780235E+03  0.00000000000E+00 0.  1.
         21    1    1    2  503  502 -0.20943269850E+02 -0.10252810693E+02  0.10635261312E+03  0.10887891898E+03  0.00000000000E+00 0. -1.
</event>
<event>
 4    1  0.2229986E+005  0.2187794E+02  0.7546771E-02  0.1507090E+00
          2   -1    0    0  502    0  0.00000000000E+00  0.00000000000E+00  0.16426130369E+02  0.16426130369E+02  0.00000000000E+00 0.  1.
         21   -1    0    0  503  502 -0.00000000000E+00 -0.00000000000E+00 -0.44046587483E+02  0.44046587483E+02  0.00000000000E+00 0. -1.
          2    1    1    2  501    0  0.33132031784E+01 -0.21625608786E+02  0.37801081610E+01  0.22202105494E+02  0.00000000000E+00 0.  1.
         21    1    1    2  503  501 -0.33132031784E+01  0.21625608786E+02 -0.31400565275E+02  0.38270612358E+02  0.00000000000E+00 0. -1.
</event>
<event>
 4    1  0.2229986E+005  0.2350302E+02  0.7546771E-02  0.1486276E+00
          2   -1    0    0  503    0  0.00000000000E+00  0.00000000000E+00  0.25629085313E+03  0.25629085313E+03  0.00000000000E+00 0. -1.
         21   -1    0    0  501  502 -0.00000000000E+00 -0.00000000000E+00 -0.79395774705E+01  0.79395774705E+01  0.00000000000E+00 0.  1.
          2    1    1    2  501    0 -0.17516106806E+02 -0.15670926854E+02  0.23694145956E+03  0.23810427800E+03  0.00000000000E+00 0. -1.
         21    1    1    2  503  502  0.17516106806E+02  0.15670926854E+02  0.11409816103E+02  0.26126152598E+02  0.00000000000E+00 0.  1.
</event>
<event>
 4    1  0.2229986E+005  0.2498374E+02  0.7546771E-02  0.1468985E+00
          2   -1    0    0  503    0  0.00000000000E+00  0.00000000000E+00  0.40903703977E+02  0.40903703977E+02  0.00000000000E+00 0. -1.
         21   -1    0    0  501  502 -0.00000000000E+00 -0.00000000000E+00 -0.19869932392E+02  0.19869932392E+02  0.00000000000E+00 0. -1.
          2    1    1    2  501    0  0.23326655374E+02  0.89473180833E+01  0.25153410231E+02  0.35452523155E+02  0.00000000000E+00 0. -1.
         21    1    1    2  503  502 -0.23326655374E+02 -0.89473180833E+01 -0.41196386457E+01  0.25321113214E+02  0.00000000000E+00 0. -1.
</event>
<event>
 4    1  0.2229986E+005  0.2063364E+02  0.7546771E-02  0.1524560E+00
          2   -1    0    0  503    0  0.00000000000E+00  0.00000000000E+00  0.50654002368E+02  0.50654002368E+02  0.00000000000E+00 0.  1.
         21   -1    0    0  501  502 -0.00000000000E+00 -0.00000000000E+00 -0.47512793149E+02  0.47512793149E+02  0.00000000000E+00 0. -1.
          2    1    1    2  501    0 -0.19478348375E+02  0.68074239917E+01  0.46101453270E+02  0.50508326744E+02  0.00000000000E+00 0.  1.
         21    1    1    2  503  502  0.19478348375E+02 -0.68074239917E+01 -0.42960244052E+02  0.47658468773E+02  0.00000000000E+00 0. -1.
</event>
<event>
 4    1  0.2229986E+005  0.4984191E+02  0.7546771E-02  0.1298859E+00
          2   -1    0    0  503    0  0.00000000000E+00  0.00000000000E+00  0.79002880286E+02  0.79002880286E+02  0.00000000000E+00 0.  1.
         21   -1    0    0  501  502 -0.00000000000E+00 -0.00000000000E+00 -0.26109248610E+03  0.26109248610E+03  0.00000000000E+00 0.  1.
          2    1    1    2  501    0 -0.90697565567E+01 -0.49009746637E+02  0.68434650036E+02  0.84661189898E+02  0.00000000000E+00 0.  1.
         21    1    1    2  503  502  0.90697565567E+01  0.49009746637E+02 -0.25052425585E+03  0.25543417649E+03  0.00000000000E+00 0.  1.
</event>
<event>
 4    1  0.2229986E+005  0.2098635E+02  0.7546771E-02  0.1519460E+00
          2   -1    0    0  502    0  0.00000000000E+00  0.00000000000E+00  0.97442755290E+03  0.97442755290E+03  0.00000000000E+00 0. -1.
         21   -1    0    0  503  502 -0.00000000000E+00 -0.00000000000E+00 -0.92102141628E+00  0.92102141628E+00  0.00000000000E+00 0.  1.
          2    1    1    2  501    0 -0.19123396912E+02 -0.86442232225E+01  0.83476841385E+03  0.83503217404E+03  0.00000000000E+00 0. -1.
         21    1    1    2  503  501  0.19123396912E+02  0.86442232225E+01  0.13873811763E+03  0.14031640028E+03  0.00000000000E+00 0.  1.
</event>
<event>
 4    1  0.2229986E+005  0.2116646E+02  0.7546771E-02  0.1516901E+00
          2   -1    0    0  503    0  0.00000000000E+00  0.00000000000E+00  0.10174501330E+04  0.10174501330E+04  0.00000000000E+00 0.  1.
         21   -1    0    0  501  502 -0.00000000000E+00 -0.00000000000E+00 -0.44176430445E+00  0.44176430445E+00  0.00000000000E+00 0.  1.
          2    1    1    2  501    0  0.17518095556E+02 -0.11880034897E+02  0.53745356091E+03  0.53787019720E+03  0.00000000000E+00 0.  1.
         21    1    1    2  503  502 -0.17518095556E+02  0.11880034897E+02  0.47955480784E+03  0.48002170016E+03  0.00000000000E+00 0.  1.
</event>
<event>
 4    1  0.2229986E+005  0.2460608E+02  0.7546771E-02  0.1473259E+00
          2   -1    0    0  502    0  0.00000000000E+00  0.00000000000E+00  0.11238222656E+03  0.11238222656E+03  0.00000000000E+00 0.  1.
         21   -1    0    0  503  502 -0.00000000000E+00 -0.00000000000E+00 -0.17316722192E+02  0.17316722192E+02  0.00000000000E+00 0. -1.
          2    1    1    2  501    0  0.99528668385E+01 -0.22503321253E+02  0.10135721635E+03  0.10430121922E+03  0.00000000000E+00 0.  1.
         21    1    1    2  503  501 -0.99528668385E+01  0.22503321253E+02 -0.62917119771E+01  0.25397729531E+02  0.00000000000E+00 0. -1.
</event>
<event>
 4    1  0.2229986E+005  0.2253511E+02  0.7546771E-02  0.1498420E+00
          2   -1    0    0  503    0  0.00000000000E+00  0.00000000000E+00  0.15802599693E+03  0.15802599693E+03  0.00000000000E+00 0. -1.
         21   -1    0    0  501  502 -0.00000000000E+00 -0.00000000000E+00 -0.42607246927E+01  0.42607246927E+01  0.00000000000E+00 0.  1.
          2    1    1    2  501    0 -0.15184587176E+01 -0.22483898222E+02  0.11710908531E+03  0.11925757526E+03  0.00000000000E+00 0. -1.
         21    1    1    2  503  502  0.15184587176E+01  0.22483898222E+02  0.36656186929E+02  0.43029146358E+02  0.00000000000E+00 0.  1.
</event>
<event>
 4    1  0.2229986E+005  0.3806514E+02  0.7546771E-02  0.1360213E+00
          2   -1    0    0  502    0  0.00000000000E+00  0.00000000000E+00  0.94089610842E+02  0.94089610842E+02  0.00000000000E+00 0.  1.
         21   -1    0    0  503  502 -0.00000000000E+00 -0.00000000000E+00 -0.15655771022E+02  0.15655771022E+02  0.00000000000E+00 0.  1.
          2    1    1    2  501    0  0.37192393169E+02 -0.81043733737E+01  0.46234226102E+02  0.59887883922E+02  0.00000000000E+00 0.  1.
         21    1    1    2  503  501 -0.37192393169E+02  0.81043733737E+01  0.32199613718E+02  0.49857497942E+02  0.00000000000E+00 0.  1.
</event>
<event>
 4    1  0.2229986E+005  0.2979318E+02  0.7546771E-02  0.1421402E+00
          2   -1    0    0  503    0  0.00000000000E+00  0.00000000000E+00  0.17798791537E+04  0.17798791537E+04  0.00000000000E+00 0.  1.
         21   -1    0    0  501  502 -0.00000000000E+00 -0.00000000000E+00 -0.14725967634E+02  0.14725967634E+02  0.00000000000E+00 0. -1.
          2    1    1    2  501    0  0.16364276540E+02 -0.24896668376E+02  0.17645544242E+04  0.17648059240E+04  0.00000000000E+00 0.  1.
         21    1    1    2  503  502 -0.16364276540E+02  0.24896668376E+02  0.59876187849E+00  0.29799197283E+02  0.00000000000E+00 0. -1.
</event>
<event>
 4    1  0.2229986E+005  0.2029879E+02  0.7546771E-02  0.1529516E+00
          2   -1    0    0  503    0  0.00000000000E+00  0.00000000000E+00  0.10409249601E+03  0.10409249601E+03  0.00000000000E+00 0. -1.
         21   -1    0    0  501  502 -0.00000000000E+00 -0.00000000000E+00 -0.10506550308E+03  0.10506550308E+03  0.00000000000E+00 0. -1.
          2    1    1    2  501    0 -0.49994169310E+01  0.19673504497E+02  0.10210354121E+03  0.10410174867E+03  0.00000000000E+00 0. -1.
         21    1    1    2  503  502  0.49994169310E+01 -0.19673504497E+02 -0.10307654827E+03  0.10505625042E+03  0.00000000000E+00 0. -1.
</event>
<event>
 4    1  0.2229986E+005  0.4572708E+02  0.7546771E-02  0.1317843E+00
          2   -1    0    0  502    0  0.00000000000E+00  0.00000000000E+00  0.75416878360E+03  0.75416878360E+03  0.00000000000E+00 0.  1.
         21   -1    0    0  503  502 -0.00000000000E+00 -0.00000000000E+00 -0.28600420962E+02  0.28600420962E+02  0.00000000000E+00 0.  1.
          2    1    1    2  501    0  0.82230031125E+01 -0.44981638900E+02  0.73471475782E+03  0.73613636031E+03  0.00000000000E+00 0.  1.
         21    1    1    2  503  501 -0.82230031125E+01  0.44981638900E+02 -0.91463951774E+01  0.46632844252E+02  0.00000000000E+00 0.  1.
</event>
<event>
 4    1  0.2229986E+005  0.3192275E+02  0.7546771E-02  0.1403592E+00
          2   -1    0    0  503    0  0.00000000000E+00  0.00000000000E+00  0.21832778052E+03  0.21832778052E+03  0.00000000000E+00 0. -1.
         21   -1    0    0  501  502 -0.00000000000E+00 -0.00000000000E+00 -0.19485157915E+02  0.19485157915E+02  0.00000000000E+00 0.  1.
          2    1    1    2  501    0 -0.30710242104E+02  0.87145388935E+01  0.20311256928E+03  0.20560588016E+03  0.00000000000E+00 0. -1.
         21    1    1    2  503  502  0.30710242104E+02 -0.87145388935E+01 -0.42699466702E+01  0.32207058276E+02  0.00000000000E+00 0.  1.
</event>
<event>
 4    1  0.2229986E+005  0.2471355E+02  0.7546771E-02  0.1472033E+00
          2   -1    0    0  502    0  0.00000000000E+00  0.00000000000E+00  0.43409757447E+03  0.43409757447E+03  0.00000000000E+00 0.  1.
         21   -1    0    0  503  502 -0.00000000000E+00 -0.00000000000E+00 -0.47800589375E+01  0.47800589375E+01  0.00000000000E+00 0.  1.
          2    1    1    2  501    0  0.21030540065E+02 -0.12979837399E+02  0.39899515258E+03  0.39975979235E+03  0.00000000000E+00 0.  1.
         21    1    1    2  503  501 -0.21030540065E+02  0.12979837399E+02  0.30322362954E+02  0.39117841063E+02  0.00000000000E+00 0.  1.
</event>
<event>
 4    1  0.2229986E+005  0.2002208E+02  0.7546771E-02  0.1533698E+00
          2   -1    0    0  503    0  0.00000000000E+00  0.00000000000E+00  0.13415826761E+04  0.13415826761E+04  0.00000000000E+00 0.  1.
         21   -1    0    0  501  502 -0.00000000000E+00 -0.00000000000E+00 -0.46178156590E+00  0.46178156590E+00  0.00000000000E+00 0.  1.
          2    1    1    2  501    0 -0.31990131655E+01  0.19764867588E+02  0.10691897411E+04  0.10693771954E+04  0.00000000000E+00 0.  1.
         21    1    1    2  503  502  0.31990131655E+01 -0.19764867588E+02  0.27193115340E+03  0.27266726218E+03  0.00000000000E+00 0.  1.
</event>
<event>
 4    1  0.2229986E+005  0.2799331E+02  0.7546771E-02  0.1437877E+00
          2   -1    0    0  503    0  0.00000000000E+00  0.00000000000E+00  0.11857404488E+03  0.11857404488E+03  0.00000000000E+00 0.  1.
         21   -1    0    0  501  502 -0.00000000000E+00 -0.00000000000E+00 -0.76122537463E+01  0.76122537463E+01  0.00000000000E+00 0. -1.
          2    1    1    2  501    0  0.16646159797E+02  0.22506234068E+02  0.78388882254E+02  0.83237263704E+02  0.00000000000E+00 0.  1.
         21    1    1    2  503  502 -0.16646159797E+02 -0.22506234068E+02  0.32572908883E+02  0.42949034925E+02  0.00000000000E+00 0. -1.
</event>
<event>
 4    1  0.2229986E+005  0.2803913E+02  0.7546771E-02  0.1437440E+00
          2   -1    0    0  503    0  0.00000000000E+00  0.00000000000E+00  0.15356644679E+04  0.15356644679E+04  0.00000000000E+00 0.  1.
         21   -1    0    0  501  502 -0.00000000000E+00 -0.00000000000E+00 -0.14985238972E+01  0.14985238972E+01  0.00000000000E+00 0. -1.
          2    1    1    2  501    0 -0.15683542544E+02 -0.23242614648E+02  0.13907051862E+04  0.13909878172E+04  0.00000000000E+00 0.  1.
         21    1    1    2  503  502  0.15683542544E+02  0.23242614648E+02  0.14346075776E+03  0.14617517457E+03  0.00000000000E+00 0. -1.
</event>
<event>
 4    1  0.2229986E+005  0.2250345E+02  0.7546771E-02  0.1498829E+00
          2   -1    0    0  502    0  0.00000000000E+00  0.00000000000E+00  0.12096756810E+02  0.12096756810E+02  0.00000000000E+00 0.  1.
         21   -1    0    0  503  502 -0.00000000000E+00 -0.00000000000E+00 -0.13720209912E+03  0.13720209912E+03  0.00000000000E+00 0. -1.
          2    1    1    2  501    0 -0.21770360572E+02  0.56970745185E+01 -0.32524075476E+00  0.22505800120E+02  0.00000000000E+00 0.  1.
         21    1    1    2  503  501  0.21770360572E+02 -0.56970745185E+01 -0.12478010156E+03  0.12679305581E+03  0.00000000000E+00 0. -1.
</event>
<event>
 4    1  0.2229986E+005  0.2052478E+02  0.7546771E-02  0.1526159E+00
          2   -1    0    0  502    0  0.00000000000E+00  0.00000000000E+00  0.34632400291E+02  0.34632400291E+02  0.00000000000E+00 0.  1.
         21   -1    0    0  503  502 -0.00000000000E+00 -0.00000000000E+00 -0.35766036119E+02  0.35766036119E+02  0.00000000000E+00 0. -1.
          2    1    1    2  501    0 -0.14648454511E+02 -0.14376696130E+02  0.28027046526E+02  0.34738767222E+02  0.00000000000E+00 0.  1.
         21    1    1    2  503  501  0.14648454511E+02  0.14376696130E+02 -0.29160682354E+02  0.35659669187E+02  0.00000000000E+00 0. -1.
</event>
<event>
 4    1  0.2229986E+005  0.2273801E+02  0.7546771E-02  0.1495814E+00
          2   -1    0    0  502    0  0.00000000000E+00  0.00000000000E+00  0.10438265458E+04  0.10438265458E+04  0.00000000000E+00 0. -1.
         21   -1    0    0  503  502 -0.00000000000E+00 -0.00000000000E+00 -0.49907747519E+00  0.49907747519E+00  0.00000000000E+00 0. -1.
          2    1    1    2  501    0  0.18210757062E+02  0.13615626024E+02  0.56703598333E+03  0.56749169450E+03  0.00000000000E+00 0. -1.
         21    1    1    2  503  501 -0.18210757062E+02 -0.13615626024E+02  0.47629148503E+03  0.47683392880E+03  0.00000000000E+00 0. -1.
</event>
<event>
 4    1  0.2229986E+005  0.2457263E+02  0.7546771E-02  0.1473642E+00
          2   -1    0    0  502    0  0.00000000000E+00  0.00000000000E+00  0.13932931728E+04  0.13932931728E+04  0.00000000000E+00 0. -1.
         21   -1    0    0  503  502 -0.00000000000E+00 -0.00000000000E+00 -0.83080337232E+00  0.83080337232E+00  0.00000000000E+00 0.  1.
          2    1    1    2  501    0 -0.24286091314E+02  0.37416224083E+01  0.11783493087E+04  0.11786054927E+04  0.00000000000E+00 0. -1.
         21    1    1    2  503  501  0.24286091314E+02 -0.37416224083E+01  0.21411306075E+03  0.21551848356E+03  0.00000000000E+00 0.  1.
</event>
<event>
 4    1  0.2229986E+005  0.2008454E+02  0.7546771E-02  0.1532747E+00
          2   -1    0    0  503    0  0.00000000000E+00  0.00000000000E+00  0.11762804172E+04  0.11762804172E+04  0.00000000000E+00 0.  1.
         21   -1    0    0  501  502 -0.00000000000E+00 -0.00000000000E+00 -0.24372833633E+01  0.24372833633E+01  0.00000000000E+00 0.  1.
          2    1    1    2  501    0  0.22994742197E+01  0.19952468348E+02  0.11332467042E+04  0.11334246694E+04  0.00000000000E+00 0.  1.
         21    1    1    2  503  502 -0.22994742197E+01 -0.19952468348E+02  0.40596429655E+02  0.45293031203E+02  0.00000000000E+00 0.  1.
</event>
<event>
 4    1  0.2229986E+005  0.3680839E+02  0.7546771E-02  0.1368277E+00
          2   -1    0    0  503    0  0.00000000000E+00  0.00000000000E+00  0.14002541578E+03  0.14002541578E+03  0.00000000000E+00 0.  1.
         21   -1    0    0  501  502 -0.00000000000E+00 -0.00000000000E+00 -0.33696474558E+03  0.33696474558E+03  0.00000000000E+00 0.  1.
          2    1    1    2  501    0  0.50529464921E+01  0.36459914951E+02  0.13657633372E+03  0.14144947013E+03  0.00000000000E+00 0.  1.
         21    1    1    2  503  502 -0.50529464921E+01 -0.36459914951E+02 -0.33351566351E+03  0.33554069123E+03  0.00000000000E+00 0.  1.
</event>
<event>
 4    1  0.2229986E+005  0.2830098E+02  0.7546771E-02  0.1434960E+00
          2   -1    0    0  502    0  0.00000000000E+00  0.00000000000E+00  0.17186374213E+04  0.17186374213E+04  0.00000000000E+00 0.  1.
         21   -1    0    0  503  502 -0.00000000000E+00 -0.00000000000E+00 -0.56412643231E+01  0.56412643231E+01  0.00000000000E+00 0.  1.
          2    1    1    2  501    0  0.26144939239E+02  0.10834569555E+02  0.16822584277E+04  0.16824964676E+04  0.00000000000E+00 0.  1.
         21    1    1    2  503  501 -0.26144939239E+02 -0.10834569555E+02  0.30737729235E+02  0.41782218033E+02  0.00000000000E+00 0.  1.
</event>
<event>
 4    1  0.2229986E+005  0.2662893E+02  0.7546771E-02  0.1451372E+00
          2   -1    0    0  502    0  0.00000000000E+00  0.00000000000E+00  0.10310441549E+04  0.10310441549E+04  0.00000000000E+00 0. -1.
         21   -1    0    0  503  502 -0.00000000000E+00 -0.00000000000E+00 -0.74464515778E+00  0.74464515778E+00  0.00000000000E+00 0. -1.
          2    1    1    2  501    0  0.19541252427E+02  0.18089763097E+02  0.65775181140E+03  0.65829062387E+03  0.00000000000E+00 0. -1.
         21    1    1    2  503  501 -0.19541252427E+02 -0.18089763097E+02  0.37254769830E+03  0.37349817615E+03  0.00000000000E+00 0. -1.
</event>
<event>
 4    1  0.2229986E+005  0.2424850E+02  0.7546771E-02  0.1477389E+00
          2   -1    0    0  502    0  0.00000000000E+00  0.00000000000E+00  0.13588139194E+03  0.13588139194E+03  0.00000000000E+00 0.  1.
         21   -1    0    0  503  502 -0.00000000000E+00 -0.00000000000E+00 -0.11997820630E+02  0.11997820630E+02  0.00000000000E+00 0. -1.
          2    1    1    2  501    0  0.42743009318E+01 -0.23868813681E+02  0.12106259614E+03  0.12346717013E+03  0.00000000000E+00 0.  1.
         21    1    1    2  503  501 -0.42743009318E+01  0.23868813681E+02  0.28209751615E+01  0.24412042435E+02  0.00000000000E+00 0. -1.
</event>
<event>
 4    1  0.2229986E+005  0.2377428E+02  0.7546771E-02  0.1482998E+00
          2   -1    0    0  502    0  0.00000000000E+00  0.00000000000E+00  0.13922226821E+04  0.13922226821E+04  0.00000000000E+00 0.  1.
         21   -1    0    0  503  502 -0.00000000000E+00 -0.00000000000E+00 -0.10623968264E+02  0.10623968264E+02  0.00000000000E+00 0.  1.
          2    1    1    2  501    0 -0.89843185917E+01 -0.22011326373E+02  0.13786901428E+04  0.13788951107E+04  0.00000000000E+00 0.  1.
         21    1    1    2  503  501  0.89843185917E+01  0.22011326373E+02  0.29085710995E+01  0.23951539723E+02  0.00000000000E+00 0.  1.
</event>
<event>
 4    1  0.2229986E+005  0.3058538E+02  0.7546771E-02  0.1414576E+00
          2   -1    0    0  502    0  0.00000000000E+00  0.00000000000E+00  0.22779771436E+02  0.22779771436E+02  0.00000000000E+00 0.  1.
         21   -1    0    0  503  502 -0.00000000000E+00 -0.00000000000E+00 -0.38754711182E+03  0.38754711182E+03  0.00000000000E+00 0.  1.
          2    1    1    2  501    0  0.19988946465E+01 -0.30519992102E+02  0.11605614701E+02  0.32713235706E+02  0.00000000000E+00 0.  1.
         21    1    1    2  503  501 -0.19988946465E+01  0.30519992102E+02 -0.37637295509E+03  0.37761364755E+03  0.00000000000E+00 0.  1.
</event>
<event>
 4    1  0.2229986E+005  0.2097601E+02  0.7546771E-02  0.1519608E+00
          2   -1    0    0  502    0  0.00000000000E+00  0.00000000000E+00  0.13478318994E+04  0.13478318994E+04  0.00000000000E+00 0.  1.
         21   -1    0    0  503  502 -0.00000000000E+00 -0.00000000000E+00 -0.21796317016E+03  0.21796317016E+03  0.00000000000E+00 0.  1.
          2    1    1    2  501    0  0.20877870251E+02  0.20266577786E+01  0.13472454043E+04  0.13474086879E+04  0.00000000000E+00 0.  1.
         21    1    1    2  503  501 -0.20877870251E+02 -0.20266577786E+01 -0.21737667509E+03  0.21838638163E+03  0.00000000000E+00 0.  1.
</event>
<event>
 4    1  0.2229986E+005  0.3294410E+02  0.7546771E-02  0.1395623E+00
          2   -1    0    0  502    0  0.00000000000E+00  0.00000000000E+00  0.10931797482E+04  0.10931797482E+04  0.00000000000E+00 0.  1.
         21   -1    0    0  503  502 -0.00000000000E+00 -0.00000000000E+00 -0.77259233236E+02  0.77259233236E+02  0.00000000000E+00 0.  1.
          2    1    1    2  501    0 -0.27711959533E+02  0.17814620403E+02  0.10894074679E+04  0.10899054750E+04  0.00000000000E+00 0.  1.
         21    1    1    2  503  501  0.27711959533E+02 -0.17814620403E+02 -0.73486952935E+02  0.80533506399E+02  0.00000000000E+00 0.  1.
</event>
<event>
 4    1  0.2229986E+005  0.2120831E+02  0.7546771E-02  0.1516311E+00
          2   -1    0    0  502    0  0.00000000000E+00  0.00000000000E+00  0.50015221530E+03  0.50015221530E+03  0.00000000000E+00 0. -1.
         21   -1    0    0  503  502 -0.00000000000E+00 -0.00000000000E+00 -0.22981824907E+01  0.22981824907E+01  0.00000000000E+00 0. -1.
          2    1    1    2  501    0  0.71325799932E+01 -0.19972944686E+02  0.44492874701E+03  0.44543392567E+03  0.00000000000E+00 0. -1.
         21    1    1    2  503  501 -0.71325799932E+01  0.19972944686E+02  0.52925285798E+02  0.57016472125E+02  0.00000000000E+00 0. -1.
</event>
<event>
 4    1  0.2229986E+005  0.2018498E+02  0.7546771E-02  0.1531227E+00
          2   -1    0    0  503    0  0.00000000000E+00  0.00000000000E+00  0.93843386045E+03  0.93843386045E+03  0.00000000000E+00 0. -1.
         21   -1    0    0  501  502 -0.00000000000E+00 -0.00000000000E+00 -0.82192061922E+00  0.82192061922E+00  0.00000000000E+00 0. -1.
          2    1    1    2  501    0 -0.15521868403E+02  0.12903684267E+02  0.79137226823E+03  0.79162964850E+03  0.00000000000E+00 0. -1.
         21    1    1    2  503  502  0.15521868403E+02 -0.12903684267E+02  0.14623967160E+03  0.14762613256E+03  0.00000000000E+00 0. -1.
</event>
<event>
 4    1  0.2229986E+005  0.2516149E+02  0.7546771E-02  0.1467005E+00
          2   -1    0    0  502    0  0.00000000000E+00  0.00000000000E+00  0.17359151264E+03  0.17359151264E+03  0.00000000000E+00 0.  1.
         21   -1    0    0  503  502 -0.00000000000E+00 -0.00000000000E+00 -0.11881982989E+03  0.11881982989E+03  0.00000000000E+00 0.  1.
          2    1    1    2  501    0  0.60356382707E+01  0.24426858813E+02  0.17133019813E+03  0.17316794493E+03  0.00000000000E+00 0.  1.
         21    1    1    2  503  501 -0.60356382707E+01 -0.24426858813E+02 -0.11655851539E+03  0.11924339760E+03  0.00000000000E+00 0.  1.
</event>
<event>
 4    1  0.2229986E+005  0.4929857E+02  0.7546771E-02  0.1301243E+00
          2   -1    0    0  503    0  0.00000000000E+00  0.00000000000E+00  0.34830628408E+03  0.34830628408E+03  0.00000000000E+00 0. -1.
         21   -1    0    0  501  502 -0.00000000000E+00 -0.00000000000E+00 -0.15554643060E+02  0.15554643060E+02  0.00000000000E+00 0. -1.
          2    1    1    2  501    0  0.43344736940E+02 -0.23485790931E+02  0.30147220047E+03  0.30547640867E+03  0.00000000000E+00 0. -1.
         21    1    1    2  503  502 -0.43344736940E+02  0.23485790931E+02  0.31279440547E+02  0.58384518470E+02  0.00000000000E+00 0. -1.
</event>
<event>
 4    1  0.2229986E+005  0.3494594E+02  0.7546771E-02  0.1380944E+00
          2   -1    0    0  502    0  0.00000000000E+00  0.00000000000E+00  0.94169224398E+03  0.94169224398E+03  0.00000000000E+00 0.  1.
         21   -1    0    0  503  502 -0.00000000000E+00 -0.00000000000E+00 -0.58983918196E+02  0.58983918196E+02  0.00000000000E+00 0. -1.
          2    1    1    2  501    0 -0.17223889516E+02  0.30406514850E+02  0.93616140034E+03  0.93681342113E+03  0.00000000000E+00 0.  1.
         21    1    1    2  503  501  0.17223889516E+02 -0.30406514850E+02 -0.53453074554E+02  0.63862741052E+02  0.00000000000E+00 0. -1.
</event>
<event>
 4    1  0.2229986E+005  0.2651055E+02  0.7546771E-02  0.1452588E+00
          2   -1    0    0  503    0  0.00000000000E+00  0.00000000000E+00  0.13422569256E+03  0.13422569256E+03  0.00000000000E+00 0. -1.
         21   -1    0    0  501  502 -0.00000000000E+00 -0.00000000000E+00 -0.64759202768E+01  0.64759202768E+01  0.00000000000E+00 0. -1.
          2    1    1    2  501    0  0.83971683843E+01 -0.25145517811E+02  0.94657839677E+02  0.98300132834E+02  0.00000000000E+00 0. -1.
         21    1    1    2  503  502 -0.83971683843E+01  0.25145517811E+02  0.33091932607E+02  0.42401480004E+02  0.00000000000E+00 0. -1.
</event>
<event>
 4    1  0.2229986E+005  0.2093168E+02  0.7546771E-02  0.1520243E+00
          2   -1    0    0  502    0  0.00000000000E+00  0.00000000000E+00  0.69776549650E+03  0.69776549650E+03  0.00000000000E+00 0.  1.
         21   -1    0    0  503  502 -0.00000000000E+00 -0.00000000000E+00 -0.44734389575E+01  0.44734389575E+01  0.00000000000E+00 0.  1.
          2    1    1    2  501    0 -0.40653353611E+01 -0.20533096969E+02  0.67219183613E+03  0.67251765745E+03  0.00000000000E+00 0.  1.
         21    1    1    2  503  501  0.40653353611E+01  0.20533096969E+02  0.21100221412E+02  0.29721278007E+02  0.00000000000E+00 0.  1.
</event>
<event>
 4    1  0.2229986E+005  0.3063520E+02  0.7546771E-02  0.1414155E+00
          2   -1    0    0  503    0  0.00000000000E+00  0.00000000000E+00  0.24478623248E+03  0.24478623248E+03  0.00000000000E+00 0. -1.
         21   -1    0    0  501  502 -0.00000000000E+00 -0.00000000000E+00 -0.96107230700E+01  0.96107230700E+01  0.00000000000E+00 0. -1.
          2    1    1    2  501    0  0.20158637784E+02 -0.23068263764E+02  0.21620295934E+03  0.21836262294E+03  0.00000000000E+00 0. -1.
         21    1    1    2  503  502 -0.20158637784E+02  0.23068263764E+02  0.18972550070E+02  0.36034332608E+02  0.00000000000E+00 0. -1.
</event>
<event>
 4    1  0.2229986E+005  0.2609412E+02  0.7546771E-02  0.1456926E+00
          2   -1    0    0  503    0  0.00000000000E+00  0.00000000000E+00  0.41491437328E+02  0.41491437328E+02  0.00000000000E+00 0. -1.
         21   -1    0    0  501  502 -0.00000000000E+00 -0.00000000000E+00 -0.26592251217E+03  0.26592251217E+03  0.00000000000E+00 0.  1.
          2    1    1    2  501    0 -0.24364393405E+02 -0.93423544744E+01  0.36673109620E+02  0.45009112659E+02  0.00000000000E+00 0. -1.
         21    1    1    2  503  502  0.24364393405E+02  0.93423544744E+01 -0.26110418446E+03  0.26240483684E+03  0.00000000000E+00 0.  1.
</event>
<event>
 4    1  0.2229986E+005  0.3246373E+02  0.7546771E-02  0.1399328E+00
          2   -1    0    0  503    0  0.00000000000E+00  0.00000000000E+00  0.22599512513E+04  0.22599512513E+04  0.00000000000E+00 0.  1.
         21   -1    0    0  501  502 -0.00000000000E+00 -0.00000000000E+00 -0.16268001572E+02  0.16268001572E+02  0.00000000000E+00 0.  1.
          2    1    1    2  501    0 -0.26841144001E+02  0.18260532838E+02  0.22435202461E+04  0.22437551089E+04  0.00000000000E+00 0.  1.
         21    1    1    2  503  502  0.26841144001E+02 -0.18260532838E+02  0.16300358893E+00  0.32464143928E+02  0.00000000000E+00 0.  1.
</event>
<event>
 4    1  0.2229986E+005  0.2331564E+02  0.7546771E-02  0.1488572E+00
          2   -1    0    0  502    0  0.00000000000E+00  0.00000000000E+00  0.65912214652E+03  0.65912214652E+03  0.00000000000E+00 0.  1.
         21   -1    0    0  503  502 -0.00000000000E+00 -0.00000000000E+00 -0.34103275783E+01  0.34103275783E+01  0.00000000000E+00 0.  1.
          2    1    1    2  501    0 -0.19152956843E+02  0.13295991438E+02  0.61629683038E+03  0.61673770947E+03  0.00000000000E+00 0.  1.
         21    1    1    2  503  501  0.19152956843E+02 -0.13295991438E+02  0.39414988558E+02  0.45794764627E+02  0.00000000000E+00 0.  1.
</event>
<event>
 4    1  0.2229986E+005  0.2511494E+02  0.7546771E-02  0.1467522E+00
          2   -1    0    0  503    0  0.00000000000E+00  0.00000000000E+00  0.30303539271E+03  0.30303539271E+03  0.00000000000E+00 0.  1.
         21   -1    0    0  501  502 -0.00000000000E+00 -0.00000000000E+00 -0.22734442312E+01  0.22734442312E+01  0.00000000000E+00 0.  1.
          2    1    1    2  501    0 -0.15592544493E+02 -0.19688385808E+02  0.10602160795E+03  0.10895568518E+03  0.00000000000E+00 0.  1.
         21    1    1    2  503  502  0.15592544493E+02  0.19688385808E+02  0.19474034052E+03  0.19635315176E+03  0.00000000000E+00 0.  1.
</event>
<event>
 4    1  0.2229986E+005  0.2313462E+02  0.7546771E-02  0.1490815E+00
          2   -1    0    0  503    0  0.00000000000E+00  0.00000000000E+00  0.33262917466E+03  0.33262917466E+03  0.00000000000E+00 0. -1.
         21   -1    0    0  501  502 -0.00000000000E+00 -0.00000000000E+00 -0.61072935360E+01  0.61072935360E+01  0.00000000000E+00 0. -1.
          2    1    1    2  501    0  0.23027247537E+02  0.22263396530E+01  0.30861593291E+03  0.30948183268E+03  0.00000000000E+00 0. -1.
         21    1    1    2  503  502 -0.23027247537E+02 -0.22263396530E+01  0.17905948217E+02  0.29254635512E+02  0.00000000000E+00 0. -1.
</event>
<event>
 4    1  0.2229986E+005  0.2351611E+02  0.7546771E-02  0.1486117E+00
          2   -1    0    0  503    0  0.00000000000E+00  0.00000000000E+00  0.40033675649E+02  0.40033675649E+02  0.00000000000E+00 0. -1.
         21   -1    0    0  501  502 -0.00000000000E+00 -0.00000000000E+00 -0.18409617401E+02  0.18409617401E+02  0.00000000000E+00 0. -1.
          2    1    1    2  501    0  0.19700632260E+02 -0.12841057241E+02  0.25412771127E+02  0.34623931014E+02  0.00000000000E+00 0. -1.
         21    1    1    2  503  502 -0.19700632260E+02  0.12841057241E+02 -0.37887128792E+01  0.23819362036E+02  0.00000000000E+00 0. -1.
</event>
<event>
 4    1  0.2229986E+005  0.2072006E+02  0.7546771E-02  0.1523299E+00
          2   -1    0    0  502    0  0.00000000000E+00  0.00000000000E+00  0.89613345977E+02  0.89613345977E+02  0.00000000000E+00 0. -1.
         21   -1    0    0  503  502 -0.00000000000E+00 -0.00000000000E+00 -0.50367335828E+02  0.50367335828E+02  0.00000000000E+00 0. -1.
          2    1    1    2  501    0  0.96070287844E+01 -0.18358270224E+02  0.86201534314E+02  0.88656785447E+02  0.00000000000E+00 0. -1.
         21    1    1    2  503  501 -0.96070287844E+01  0.18358270224E+02 -0.46955524165E+02  0.51323896358E+02  0.00000000000E+00 0. -1.
</event>
<event>
 4    1  0.2229986E+005  0.2215118E+02  0.7546771E-02  0.1503441E+00
          2   -1    0    0  503    0  0.00000000000E+00  0.00000000000E+00  0.86009478955E+03  0.86009478955E+03  0.00000000000E+00 0.  1.
         21   -1    0    0  501  502 -0.00000000000E+00 -0.00000000000E+00 -0.23170724995E+03  0.23170724995E+03  0.00000000000E+00 0.  1.
          2    1    1    2  501    0 -0.88385793224E+01 -0.20311432508E+02  0.85942234068E+03  0.85970776106E+03  0.00000000000E+00 0.  1.
         21    1    1    2  503  502  0.88385793224E+01  0.20311432508E+02 -0.23103480108E+03  0.23209427844E+03  0.00000000000E+00 0.  1.
</event>
<event>
 4    1  0.2229986E+005  0.3457235E+02  0.7546771E-02  0.1383595E+00
          2   -1    0    0  502    0  0.00000000000E+00  0.00000000000E+00  0.16494369872E+04  0.16494369872E+04  0.00000000000E+00 0.  1.
         21   -1    0    0  503  502 -0.00000000000E+00 -0.00000000000E+00 -0.12309504952E+02  0.12309504952E+02  0.00000000000E+00 0. -1.
          2    1    1    2  501    0  0.32496222273E+02  0.11800117447E+02  0.16246100211E+04  0.16249778361E+04  0.00000000000E+00 0.  1.
         21    1    1    2  503  501 -0.32496222273E+02 -0.11800117447E+02  0.12517461172E+02  0.36768656053E+02  0.00000000000E+00 0. -1.
</event>
<event>
 4    1  0.2229986E+005  0.3228608E+02  0.7546771E-02  0.1400717E+00
          2   -1    0    0  502    0  0.00000000000E+00  0.00000000000E+00  0.24029747748E+03  0.24029747748E+03  0.00000000000E+00 0.  1.
         21   -1    0    0  503  502 -0.00000000000E+00 -0.00000000000E+00 -0.72512073888E+01  0.72512073888E+01  0.00000000000E+00 0. -1.
          2    1    1    2  501    0  0.79863292126E+01  0.31282738391E+02  0.19497750643E+03  0.19763253576E+03  0.00000000000E+00 0.  1.
         21    1    1    2  503  501 -0.79863292126E+01 -0.31282738391E+02  0.38068763657E+02  0.49916149109E+02  0.00000000000E+00 0. -1.
</event>
<event>
 4    1  0.2229986E+005  0.2593159E+02  0.7546771E-02  0.1458646E+00
          2   -1    0    0  503    0  0.00000000000E+00  0.00000000000E+00  0.58778781981E+02  0.58778781981E+02  0.00000000000E+00 0.  1.
         21   -1    0    0  501  502 -0.00000000000E+00 -0.00000000000E+00 -0.16838636405E+02  0.16838636405E+02  0.00000000000E+00 0.  1.
          2    1    1    2  501    0 -0.25242154774E+02 -0.59397651373E+01  0.42377681897E+02  0.49682140759E+02  0.00000000000E+00 0.  1.
         21    1    1    2  503  502  0.25242154774E+02  0.59397651373E+01 -0.43753632059E+00  0.25935277626E+02  0.00000000000E+00 0.  1.
</event>
<event>
 4    1  0.2229986E+005  0.2900725E+02  0.7546771E-02  0.1428424E+00
          2   -1    0    0  502    0  0.00000000000E+00  0.00000000000E+00  0.98313793863E+03  0.98313793863E+03  0.00000000000E+00 0. -1.
         21   -1    0    0  503  502 -0.00000000000E+00 -0.00000000000E+00 -0.26359481869E+01  0.26359481869E+01  0.00000000000E+00 0. -1.
          2    1    1    2  501    0  0.26640757104E+02  0.11475647619E+02  0.89529352972E+03  0.89576331962E+03  0.00000000000E+00 0. -1.
         21    1    1    2  503  501 -0.26640757104E+02 -0.11475647619E+02  0.85208460721E+02  0.90010567190E+02  0.00000000000E+00 0. -1.
</event>
<event>
 4    1  0.2229986E+005  0.2891982E+02  0.7546771E-02  0.1429221E+00
          2   -1    0    0  503    0  0.00000000000E+00  0.00000000000E+00  0.73384085751E+01  0.73384085751E+01  0.00000000000E+00 0. -1.
         21   -1    0    0  501  502 -0.00000000000E+00 -0.00000000000E+00 -0.13066719767E+03  0.13066719767E+03  0.00000000000E+00 0. -1.
          2    1    1    2  501    0  0.83383952070E+01 -0.27691645711E+02 -0.86331000792E+02  0.91046129927E+02  0.00000000000E+00 0. -1.
         21    1    1    2  503  502 -0.83383952070E+01  0.27691645711E+02 -0.36997788301E+02  0.46959476317E+02  0.00000000000E+00 0. -1.
</event>
<event>
 4    1  0.2229986E+005  0.3444765E+02  0.7546771E-02  0.1384488E+00
          2   -1    0    0  502    0  0.00000000000E+00  0.00000000000E+00  0.32889695700E+02  0.32889695700E+02  0.00000000000E+00 0. -1.
         21   -1    0    0  503  502 -0.00000000000E+00 -0.00000000000E+00 -0.45195222439E+03  0.45195222439E+03  0.00000000000E+00 0. -1.
          2    1    1    2  501    0  0.30227669536E+02 -0.16520551447E+02  0.23012217838E+02  0.41427078047E+02  0.00000000000E+00 0. -1.
         21    1    1    2  503  501 -0.30227669536E+02  0.16520551447E+02 -0.44207474653E+03  0.44341484204E+03  0.00000000000E+00 0. -1.
</event>
<event>
 4    1  0.2229986E+005  0.2497274E+02  0.7546771E-02  0.1469109E+00
          2   -1    0    0  502    0  0.00000000000E+00  0.00000000000E+00  0.41819764168E+03  0.41819764168E+03  0.00000000000E+00 0. -1.
         21   -1    0    0  503  502 -0.00000000000E+00 -0.00000000000E+00 -0.22371896879E+01  0.22371896879E+01  0.00000000000E+00 0. -1.
          2    1    1    2  501    0 -0.15197724394E+02  0.19815819044E+02  0.32936632428E+03  0.33031169080E+03  0.00000000000E+00 0. -1.
         21    1    1    2  503  501  0.15197724394E+02 -0.19815819044E+02  0.86594127713E+02  0.90123140566E+02  0.00000000000E+00 0. -1.
</event>
<event>
 4    1  0.2229986E+005  0.2799551E+02  0.7546771E-02  0.1437856E+00
          2   -1    0    0  503    0  0.00000000000E+00  0.00000000000E+00  0.53402918882E+02  0.53402918882E+02  0.00000000000E+00 0. -1.
         21   -1    0    0  501  502 -0.00000000000E+00 -0.00000000000E+00 -0.28601546795E+02  0.28601546795E+02  0.00000000000E+00 0. -1.
          2    1    1    2  501    0 -0.27993715356E+02  0.31728547279E+00  0.41010608212E+02  0.49654997285E+02  0.00000000000E+00 0. -1.
         21    1    1    2  503  502  0.27993715356E+02 -0.31728547279E+00 -0.16209236124E+02  0.32349468392E+02  0.00000000000E+00 0. -1.
</event>
<event>
 4    1  0.2229986E+005  0.2060676E+02  0.7546771E-02  0.1524954E+00
          2   -1    0    0  503    0  0.00000000000E+00  0.00000000000E+00  0.64174041179E+03  0.64174041179E+03  0.00000000000E+00 0. -1.
         21   -1    0    0  501  502 -0.00000000000E+00 -0.00000000000E+00 -0.87422151542E+00  0.87422151542E+00  0.00000000000E+00 0.  1.
          2    1    1    2  501    0  0.18743429069E+02  0.85628461395E+01  0.47885424963E+03  0.47929743465E+03  0.00000000000E+00 0. -1.
         21    1    1    2  503  502 -0.18743429069E+02 -0.85628461395E+01  0.16201194064E+03  0.16331719865E+03  0.00000000000E+00 0.  1.
</event>
<event>
 4    1  0.2229986E+005  0.2232676E+02  0.7546771E-02  0.1501130E+00
          2   -1    0    0  503    0  0.00000000000E+00  0.00000000000E+00  0.49951166360E+03  0.49951166360E+03  0.00000000000E+00 0. -1.
         21   -1    0    0  501  502 -0.00000000000E+00 -0.00000000000E+00 -0.10084811576E+02  0.10084811576E+02  0.00000000000E+00 0. -1.
          2    1    1    2  501    0  0.16673557804E+02  0.14848455566E+02  0.48657654510E+03  0.48708851187E+03  0.00000000000E+00 0. -1.
         21    1    1    2  503  502 -0.16673557804E+02 -0.14848455566E+02  0.28503069318E+01  0.22507963305E+02  0.00000000000E+00 0. -1.
</event>
<event>
 4    1  0.2229986E+005  0.2037128E+02  0.7546771E-02  0.1528434E+00
          2   -1    0    0  502    0  0.00000000000E+00  0.00000000000E+00  0.15320484651E+04  0.15320484651E+04  0.00000000000E+00 0. -1.
         21   -1    0    0  503  502 -0.00000000000E+00 -0.00000000000E+00 -0.38951412503E+00  0.38951412503E+00  0.00000000000E+00 0. -1.
          2    1    1    2  501    0 -0.15965319370E+02  0.12652972131E+02  0.11887031515E+04  0.11888776941E+04  0.00000000000E+00 0. -1.
         21    1    1    2  503  501  0.15965319370E+02 -0.12652972131E+02  0.34295579949E+03  0.34356028514E+03  0.00000000000E+00 0. -1.
</event>
<event>
 4    1  0.2229986E+005  0.2166409E+02  0.7546771E-02  0.1509991E+00
          2   -1    0    0  502    0  0.00000000000E+00  0.00000000000E+00  0.99716769650E+03  0.99716769650E+03  0.00000000000E+00 0. -1.
         21   -1    0    0  503  502 -0.00000000000E+00 -0.00000000000E+00 -0.10665637327E+01  0.10665637327E+01  0.00000000000E+00 0.  1.
          2    1    1    2  501    0 -0.12507508704E+02 -0.17688834307E+02  0.87112461906E+03  0.87139396060E+03  0.00000000000E+00 0. -1.
         21    1    1    2  503  501  0.12507508704E+02  0.17688834307E+02  0.12497651370E+03  0.12684029963E+03  0.00000000000E+00 0.  1.
</event>
<event>
 4    1  0.2229986E+005  0.2136002E+02  0.7546771E-02  0.1514186E+00
          2   -1    0    0  503    0  0.00000000000E+00  0.00000000000E+00  0.36676692023E+03  0.36676692023E+03  0.00000000000E+00 0.  1.
         21   -1    0    0  501  502 -0.00000000000E+00 -0.00000000000E+00 -0.21733867012E+01  0.21733867012E+01  0.00000000000E+00 0. -1.
          2    1    1    2  501    0 -0.18476580351E+02  0.10717571157E+02  0.30292826889E+03  0.30368040182E+03  0.00000000000E+00 0.  1.
         21    1    1    2  503  502  0.18476580351E+02 -0.10717571157E+02  0.61665264637E+02  0.65259905115E+02  0.00000000000E+00 0. -1.
</event>
<event>
 4    1  0.2229986E+005  0.2779193E+02  0.7546771E-02  0.1439811E+00
          2   -1    0    0  502    0  0.00000000000E+00  0.00000000000E+00  0.12038921376E+04  0.12038921376E+04  0.00000000000E+00 0.  1.
         21   -1    0    0  503  502 -0.00000000000E+00 -0.00000000000E+00 -0.12920709127E+01  0.12920709127E+01  0.00000000000E+00 0.  1.
          2    1    1    2  501    0 -0.99207779957E+01  0.25960927548E+02  0.10288642005E+04  0.10292394933E+04  0.00000000000E+00 0.  1.
         21    1    1    2  503  501  0.99207779957E+01 -0.25960927548E+02  0.17373586628E+03  0.17594471526E+03  0.00000000000E+00 0.  1.
</event>
<event>
 4    1  0.2229986E+005  0.3457267E+02  0.7546771E-02  0.1383593E+00
          2   -1    0    0  503    0  0.00000000000E+00  0.00000000000E+00  0.10718563821E+04  0.10718563821E+04  0.00000000000E+00 0.  1.
         21   -1    0    0  501  502 -0.00000000000E+00 -0.00000000000E+00 -0.41317870447E+01  0.41317870447E+01  0.00000000000E+00 0.  1.
          2    1    1    2  501    0 -0.34319187513E+02  0.41788429112E+01  0.99355840203E+03  0.99415972942E+03  0.00000000000E+00 0.  1.
         21    1    1    2  503  502  0.34319187513E+02 -0.41788429112E+01  0.74166193029E+02  0.81828439726E+02  0.00000000000E+00 0.  1.
</event>
<event>
 4    1  0.2229986E+005  0.2797727E+02  0.7546771E-02  0.1438031E+00
          2   -1    0    0  503    0  0.00000000000E+00  0.00000000000E+00  0.14293849238E+03  0.14293849238E+03  0.00000000000E+00 0. -1.
         21   -1    0    0  501  502 -0.00000000000E+00 -0.00000000000E+00 -0.13005932509E+02  0.13005932509E+02  0.00000000000E+00 0. -1.
          2    1    1    2  501    0 -0.27936362588E+02 -0.15123050630E+01  0.12429505891E+03  0.12740482366E+03  0.00000000000E+00 0. -1.
         21    1    1    2  503  502  0.27936362588E+02  0.15123050630E+01  0.56375009552E+01  0.28539601228E+02  0.00000000000E+00 0. -1.
</event>
<event>
 4    1  0.2229986E+005  0.3730006E+02  0.7546771E-02  0.1365077E+00
          2   -1    0    0  503    0  0.00000000000E+00  0.00000000000E+00  0.24114909797E+03  0.24114909797E+03  0.00000000000E+00 0.  1.
         21   -1    0    0  501  502 -0.00000000000E+00 -0.00000000000E+00 -0.38260300198E+02  0.38260300198E+02  0.00000000000E+00 0.  1.
          2    1    1    2  501    0 -0.18073701624E+02  0.32628757015E+02  0.23018556953E+03  0.23318810196E+03  0.00000000000E+00 0.  1.
         21    1    1    2  503  502  0.18073701624E+02 -0.32628757015E+02 -0.27296771759E+02  0.46221296209E+02  0.00000000000E+00 0.  1.
</event>
<event>
 4    1  0.2229986E+005  0.2559455E+02  0.7546771E-02  0.1462261E+00
          2   -1    0    0  503    0  0.00000000000E+00  0.00000000000E+00  0.56198527654E+03  0.56198527654E+03  0.00000000000E+00 0.  1.
         21   -1    0    0  501  502 -0.00000000000E+00 -0.00000000000E+00 -0.26033846746E+02  0.26033846746E+02  0.00000000000E+00 0.  1.
          2    1    1    2  501    0  0.25485522037E+02 -0.23599573143E+01  0.55532781919E+03  0.55591732119E+03  0.00000000000E+00 0.  1.
         21    1    1    2  503  502 -0.25485522037E+02  0.23599573143E+01 -0.19376389395E+02  0.32101802099E+02  0.00000000000E+00 0.  1.
</event>
<event>
 4    1  0.2229986E+005  0.2290376E+02  0.7546771E-02  0.1493710E+00
          2   -1    0    0  503    0  0.00000000000E+00  0.00000000000E+00  0.12227209214E+04  0.12227209214E+04  0.00000000000E+00 0.  1.
         21   -1    0    0  501  502 -0.00000000000E+00 -0.00000000000E+00 -0.16109970273E+03  0.16109970273E+03  0.00000000000E+00 0. -1.
          2    1    1    2  501    0  0.21166597455E+02 -0.87497019790E+01  0.12217989857E+04  0.12220136429E+04  0.00000000000E+00 0.  1.
         21    1    1    2  503  502 -0.21166597455E+02  0.87497019790E+01 -0.16017776698E+03  0.16180698121E+03  0.00000000000E+00 0. -1.
</event>
<event>
 4    1  0.2229986E+005  0.2284233E+02  0.7546771E-02  0.1494488E+00
          2   -1    0    0  502    0  0.00000000000E+00  0.00000000000E+00  0.39667345296E+02  0.39667345296E+02  0.00000000000E+00 0. -1.
         21   -1    0    0  503  502 -0.00000000000E+00 -0.00000000000E+00 -0.17913490643E+02  0.17913490643E+02  0.00000000000E+00 0.  1.
          2    1    1    2  501    0 -0.22273367345E+02 -0.50664590569E+01  0.25717556496E+02  0.34397159946E+02  0.00000000000E+00 0. -1.
         21    1    1    2  503  501  0.22273367345E+02  0.50664590569E+01 -0.39637018435E+01  0.23183675993E+02  0.00000000000E+00 0.  1.
</event>
<event>
 4    1  0.2229986E+005  0.2414802E+02  0.7546771E-02  0.1478564E+00
          2   -1    0    0  503    0  0.00000000000E+00  0.00000000000E+00  0.33576656107E+03  0.33576656107E+03  0.00000000000E+00 0. -1.
         21   -1    0    0  501  502 -0.00000000000E+00 -0.00000000000E+00 -0.58850158656E+01  0.58850158656E+01  0.00000000000E+00 0. -1.
          2    1    1    2  501    0 -0.36839326893E+01  0.23865365272E+02  0.30836262633E+03  0.30930670270E+03  0.00000000000E+00 0. -1.
         21    1    1    2  503  502  0.36839326893E+01 -0.23865365272E+02  0.21518918875E+02  0.32344874234E+02  0.00000000000E+00 0. -1.
</event>
<event>
 4    1  0.2229986E+005  0.5339591E+02  0.7546771E-02  0.1284084E+00
          2   -1    0    0  502    0  0.00000000000E+00  0.00000000000E+00  0.92276541543E+03  0.92276541543E+03  0.00000000000E+00 0. -1.
         21   -1    0    0  503  502 -0.00000000000E+00 -0.00000000000E+00 -0.77342628880E+01  0.77342628880E+01  0.00000000000E+00 0. -1.
          2    1    1    2  501    0 -0.15244399803E+02  0.51173538030E+02  0.81804974783E+03  0.81979052974E+03  0.00000000000E+00 0. -1.
         21    1    1    2  503  501  0.15244399803E+02 -0.51173538030E+02  0.96981404713E+02  0.11070914858E+03  0.00000000000E+00 0. -1.
</event>
<event>
 4    1  0.2229986E+005  0.2765224E+02  0.7546771E-02  0.1441164E+00
          2   -1    0    0  503    0  0.00000000000E+00  0.00000000000E+00  0.20658042569E+03  0.20658042569E+03  0.00000000000E+00 0. -1.
         21   -1    0    0  501  502 -0.00000000000E+00 -0.00000000000E+00 -0.13004697194E+02  0.13004697194E+02  0.00000000000E+00 0.  1.
          2    1    1    2  501    0 -0.53770845179E+01  0.27124401267E+02  0.18965032354E+03  0.19165565841E+03  0.00000000000E+00 0. -1.
         21    1    1    2  503  502  0.53770845179E+01 -0.27124401267E+02  0.39254049614E+01  0.27929464480E+02  0.00000000000E+00 0.  1.
</event>
<event>
 4    1  0.2229986E+005  0.3195383E+02  0.7546771E-02  0.1403344E+00
          2   -1    0    0  502    0  0.00000000000E+00  0.00000000000E+00  0.24620957465E+03  0.24620957465E+03  0.00000000000E+00 0.  1.
         21   -1    0    0  503  502 -0.00000000000E+00 -0.00000000000E+00 -0.21158587565E+02  0.21158587565E+02  0.00000000000E+00 0.  1.
          2    1    1    2  501    0 -0.22777072007E+02  0.22410988723E+02  0.23239478414E+03  0.23458129320E+03  0.00000000000E+00 0.  1.
         21    1    1    2  503  501  0.22777072007E+02 -0.22410988723E+02 -0.73437970512E+01  0.32786869016E+02  0.00000000000E+00 0.  1.
</event>
<event>
 4    1  0.2229986E+005  0.2623641E+02  0.7546771E-02  0.1455433E+00
          2   -1    0    0  503    0  0.00000000000E+00  0.00000000000E+00  0.17539517546E+02  0.17539517546E+02  0.00000000000E+00 0. -1.
         21   -1    0    0  501  502 -0.00000000000E+00 -0.00000000000E+00 -0.28803915234E+03  0.28803915234E+03  0.00000000000E+00 0.  1.
          2    1    1    2  501    0  0.25907194674E+02 -0.41432589184E+01  0.67496832212E+01  0.27090728191E+02  0.00000000000E+00 0. -1.
         21    1    1    2  503  502 -0.25907194674E+02  0.41432589184E+01 -0.27724931801E+03  0.27848794169E+03  0.00000000000E+00 0.  1.
</event>
<event>
 4    1  0.2229986E+005  0.2213022E+02  0.7546771E-02  0.1503719E+00
          2   -1    0    0  503    0  0.00000000000E+00  0.00000000000E+00  0.15604962097E+04  0.15604962097E+04  0.00000000000E+00 0. -1.
         21   -1    0    0  501  502 -0.00000000000E+00 -0.00000000000E+00 -0.13492304787E+02  0.13492304787E+02  0.00000000000E+00 0. -1.
          2    1    1    2  501    0  0.13037992445E+02  0.17881759250E+02  0.15512893417E+04  0.15514471851E+04  0.00000000000E+00 0. -1.
         21    1    1    2  503  502 -0.13037992445E+02 -0.17881759250E+02 -0.42854367884E+01  0.22541329360E+02  0.00000000000E+00 0. -1.
</event>
<event>
 4    1  0.2229986E+005  0.3742544E+02  0.7546771E-02  0.1364271E+00
          2   -1    0    0  503    0  0.00000000000E+00  0.00000000000E+00  0.23150490458E+04  0.23150490458E+04  0.00000000000E+00 0. -1.
         21   -1    0    0  501  502 -0.00000000000E+00 -0.00000000000E+00 -0.11109547852E+01  0.11109547852E+01  0.00000000000E+00 0.  1.
          2    1    1    2  501    0 -0.11067629204E+02  0.35751515871E+02  0.19384805107E+04  0.19388417557E+04  0.00000000000E+00 0. -1.
         21    1    1    2  503  502  0.11067629204E+02 -0.35751515871E+02  0.37545758030E+03  0.37731824487E+03  0.00000000000E+00 0.  1.
</event>
<event>
 4    1  0.2229986E+005  0.2068493E+02  0.7546771E-02  0.1523811E+00
          2   -1    0    0  502    0  0.00000000000E+00  0.00000000000E+00  0.22136436056E+01  0.22136436056E+01  0.00000000000E+00 0.  1.
         21   -1    0    0  503  502 -0.00000000000E+00 -0.00000000000E+00 -0.30112958563E+03  0.30112958563E+03  0.00000000000E+00 0.  1.
          2    1    1    2  501    0  0.58273565831E+01 -0.19847124996E+02 -0.58691671196E+02  0.62230046787E+02  0.00000000000E+00 0.  1.
         21    1    1    2  503  501 -0.58273565831E+01  0.19847124996E+02 -0.24022427082E+03  0.24111318244E+03  0.00000000000E+00 0.  1.
</event>
<event>
 4    1  0.2229986E+005  0.3292240E+02  0.7546771E-02  0.1395789E+00
          2   -1    0    0  502    0  0.00000000000E+00  0.00000000000E+00  0.73715340470E+02  0.73715340470E+02  0.00000000000E+00 0.  1.
         21   -1    0    0  503  502 -0.00000000000E+00 -0.00000000000E+00 -0.63209351873E+02  0.63209351873E+02  0.00000000000E+00 0. -1.
          2    1    1    2  501    0 -0.14493265851E+00  0.32922076834E+02  0.65226237003E+02  0.73063986629E+02  0.00000000000E+00 0.  1.
         21    1    1    2  503  501  0.14493265851E+00 -0.32922076834E+02 -0.54720248406E+02  0.63860705713E+02  0.00000000000E+00 0. -1.
</event>
<event>
 4    1  0.2229986E+005  0.2124994E+02  0.7546771E-02  0.1515726E+00
          2   -1    0    0  502    0  0.00000000000E+00  0.00000000000E+00  0.13187649835E+04  0.13187649835E+04  0.00000000000E+00 0. -1.
         21   -1    0    0  503  502 -0.00000000000E+00 -0.00000000000E+00 -0.24579135920E+02  0.24579135920E+02  0.00000000000E+00 0.  1.
          2    1    1    2  501    0 -0.11571434823E+02  0.17823075519E+02  0.13140700510E+04  0.13142418571E+04  0.00000000000E+00 0. -1.
         21    1    1    2  503  501  0.11571434823E+02 -0.17823075519E+02 -0.19884203413E+02  0.29102262286E+02  0.00000000000E+00 0.  1.
</event>
<event>
 4    1  0.2229986E+005  0.2577287E+02  0.7546771E-02  0.1460340E+00
          2   -1    0    0  503    0  0.00000000000E+00  0.00000000000E+00  0.42474284991E+03  0.42474284991E+03  0.00000000000E+00 0.  1.
         21   -1    0    0  501  502 -0.00000000000E+00 -0.00000000000E+00 -0.16503112970E+02  0.16503112970E+02  0.00000000000E+00 0. -1.
          2    1    1    2  501    0 -0.17983462092E+02 -0.18461739321E+02  0.41402940627E+03  0.41483079681E+03  0.00000000000E+00 0.  1.
         21    1    1    2  503  502  0.17983462092E+02  0.18461739321E+02 -0.57896693269E+01  0.26415166070E+02  0.00000000000E+00 0. -1.
</event>
<event>
 4    1  0.2229986E+005  0.2176884E+02  0.7546771E-02  0.1508565E+00
          2   -1    0    0  503    0  0.00000000000E+00  0.00000000000E+00  0.48128939078E+03  0.48128939078E+03  0.00000000000E+00 0.  1.
         21   -1    0    0  501  502 -0.00000000000E+00 -0.00000000000E+00 -0.33759995226E+01  0.33759995226E+01  0.00000000000E+00 0.  1.
          2    1    1    2  501    0 -0.58348393703E+01  0.20972290350E+02  0.44291246348E+03  0.44344710239E+03  0.00000000000E+00 0.  1.
         21    1    1    2  503  502  0.58348393703E+01 -0.20972290350E+02  0.35000927771E+02  0.41218287905E+02  0.00000000000E+00 0.  1.
</event>
<event>
 4    1  0.2229986E+005  0.3008650E+02  0.7546771E-02  0.1418846E+00
          2   -1    0    0  502    0  0.00000000000E+00  0.00000000000E+00  0.84286171320E+02  0.84286171320E+02  0.00000000000E+00 0. -1.
         21   -1    0    0  503  502 -0.00000000000E+00 -0.00000000000E+00 -0.42012934690E+02  0.42012934690E+02  0.00000000000E+00 0. -1.
          2    1    1    2  501    0  0.16276171162E+02  0.25303833615E+02  0.75620248230E+02  0.81385623335E+02  0.00000000000E+00 0. -1.
         21    1    1    2  503  501 -0.16276171162E+02 -0.25303833615E+02 -0.33347011600E+02  0.44913482674E+02  0.00000000000E+00 0. -1.
</event>
<event>
 4    1  0.2229986E+005  0.2252257E+02  0.7546771E-02  0.1498582E+00
          2   -1    0    0  502    0  0.00000000000E+00  0.00000000000E+00  0.11339337480E+04  0.11339337480E+04  0.00000000000E+00 0.  1.
         21   -1    0    0  503  502 -0.00000000000E+00 -0.00000000000E+00 -0.40699164250E+01  0.40699164250E+01  0.00000000000E+00 0.  1.
          2    1    1    2  501    0 -0.15340620016E+02 -0.16490345959E+02  0.11017523662E+04  0.11019825509E+04  0.00000000000E+00 0.  1.
         21    1    1    2  503  501  0.15340620016E+02  0.16490345959E+02  0.28111465416E+02  0.36021113533E+02  0.00000000000E+00 0.  1.
</event>
<event>
 4    1  0.2229986E+005  0.2338581E+02  0.7546771E-02  0.1487709E+00
          2   -1    0    0  503    0  0.00000000000E+00  0.00000000000E+00  0.23402138917E+03  0.23402138917E+03  0.00000000000E+00 0. -1.
         21   -1    0    0  501  502 -0.00000000000E+00 -0.00000000000E+00 -0.24180776067E+01  0.24180776067E+01  0.00000000000E+00 0.  1.
          2    1    1    2  501    0 -0.76915361840E+01 -0.22084758673E+02  0.13745570332E+03  0.13943086699E+03  0.00000000000E+00 0. -1.
         21    1    1    2  503  502  0.76915361840E+01  0.22084758673E+02  0.94147608243E+02  0.97008599786E+02  0.00000000000E+00 0.  1.
</event>
<event>
 4    1  0.2229986E+005  0.2715952E+02  0.7546771E-02  0.1446012E+00
          2   -1    0    0  503    0  0.00000000000E+00  0.00000000000E+00  0.13997061511E+03  0.13997061511E+03  0.00000000000E+00 0.  1.
         21   -1    0    0  501  502 -0.00000000000E+00 -0.00000000000E+00 -0.13384836282E+02  0.13384836282E+02  0.00000000000E+00 0.  1.
          2    1    1    2  501    0  0.14071899458E+02 -0.23229751689E+02  0.12299691426E+03  0.12595983739E+03  0.00000000000E+00 0.  1.
         21    1    1    2  503  502 -0.14071899458E+02  0.23229751689E+02  0.35888645724E+01  0.27395614007E+02  0.00000000000E+00 0.  1.
</event>
<event>
 4    1  0.2229986E+005  0.2953665E+02  0.7546771E-02  0.1423666E+00
          2   -1    0    0  503    0  0.00000000000E+00  0.00000000000E+00  0.28887524449E+03  0.28887524449E+03  0.00000000000E+00 0. -1.
         21   -1    0    0  501  502 -0.00000000000E+00 -0.00000000000E+00 -0.99132306168E+02  0.99132306168E+02  0.00000000000E+00 0.  1.
          2    1    1    2  501    0  0.29483891455E+02 -0.17645664424E+01  0.28589725504E+03  0.28741895203E+03  0.00000000000E+00 0. -1.
         21    1    1    2  503  502 -0.29483891455E+02  0.17645664424E+01 -0.96154316716E+02  0.10058859862E+03  0.00000000000E+00 0.  1.
</event>
<event>
 4    1  0.2229986E+005  0.3047456E+02  0.7546771E-02  0.1415517E+00
          2   -1    0    0  503    0  0.00000000000E+00  0.00000000000E+00  0.66780879923E+02  0.66780879923E+02  0.00000000000E+00 0. -1.
         21   -1    0    0  501  502 -0.00000000000E+00 -0.00000000000E+00 -0.21941412574E+02  0.21941412574E+02  0.00000000000E+00 0.  1.
          2    1    1    2  501    0  0.23678643501E+02 -0.19183858410E+02  0.49264330587E+02  0.57928169743E+02  0.00000000000E+00 0. -1.
         21    1    1    2  503  502 -0.23678643501E+02  0.19183858410E+02 -0.44248632375E+01  0.30794122755E+02  0.00000000000E+00 0.  1.
</event>
<event>
 4    1  0.2229986E+005  0.2007999E+02  0.7546771E-02  0.1532816E+00
          2   -1    0    0  502    0  0.00000000000E+00  0.00000000000E+00  0.15312554081E+04  0.15312554081E+04  0.00000000000E+00 0.  1.
         21   -1    0    0  503  502 -0.00000000000E+00 -0.00000000000E+00 -0.28744646605E+00  0.28744646605E+00  0.00000000000E+00 0.  1.
          2    1    1    2  501    0 -0.98376497388E+01  0.17505042558E+02  0.98735104668E+03  0.98755521124E+03  0.00000000000E+00 0.  1.
         21    1    1    2  503  501  0.98376497388E+01 -0.17505042558E+02  0.54361691498E+03  0.54398764335E+03  0.00000000000E+00 0.  1.
</event>
<event>
 4    1  0.2229986E+005  0.4139551E+02  0.7546771E-02  0.1340497E+00
          2   -1    0    0  503    0  0.00000000000E+00  0.00000000000E+00  0.22582869427E+03  0.22582869427E+03  0.00000000000E+00 0. -1.
         21   -1    0    0  501  502 -0.00000000000E+00 -0.00000000000E+00 -0.76535767903E+01  0.76535767903E+01  0.00000000000E+00 0. -1.
          2    1    1    2  501    0  0.14148827502E+00  0.41395271288E+02  0.98281649473E+02  0.10664366426E+03  0.00000000000E+00 0. -1.
         21    1    1    2  503  502 -0.14148827502E+00 -0.41395271288E+02  0.11989346800E+03  0.12683860680E+03  0.00000000000E+00 0. -1.
</event>
<event>
 4    1  0.2229986E+005  0.2505268E+02  0.7546771E-02  0.1468215E+00
          2   -1    0    0  503    0  0.00000000000E+00  0.00000000000E+00  0.20204004982E+03  0.20204004982E+03  0.00000000000E+00 0. -1.
         21   -1    0    0  501  502 -0.00000000000E+00 -0.00000000000E+00 -0.36724572373E+01  0.36724572373E+01  0.00000000000E+00 0.  1.
          2    1    1    2  501    0  0.12451285544E+02 -0.21739418220E+02  0.13956183994E+03  0.14179260906E+03  0.00000000000E+00 0. -1.
         21    1    1    2  503  502 -0.12451285544E+02  0.21739418220E+02  0.58805752640E+02  0.63919897996E+02  0.00000000000E+00 0.  1.
</event>
<event>
 4    1  0.2229986E+005  0.2420887E+02  0.7546771E-02  0.1477852E+00
          2   -1    0    0  502    0  0.00000000000E+00  0.00000000000E+00  0.14192510344E+02  0.14192510344E+02  0.00000000000E+00 0.  1.
         21   -1    0    0  503  502 -0.00000000000E+00 -0.00000000000E+00 -0.49389199340E+02  0.49389199340E+02  0.00000000000E+00 0.  1.
          2    1    1    2  501    0 -0.12740485616E+02  0.20585172094E+02 -0.47279198283E+01  0.24666222041E+02  0.00000000000E+00 0.  1.
         21    1    1    2  503  501  0.12740485616E+02 -0.20585172094E+02 -0.30468769167E+02  0.38915487643E+02  0.00000000000E+00 0.  1.
</event>
<event>
 4    1  0.2229986E+005  0.2332376E+02  0.7546771E-02  0.1488472E+00
          2   -1    0    0  503    0  0.00000000000E+00  0.00000000000E+00  0.49027965740E+03  0.49027965740E+03  0.00000000000E+00 0. -1.
         21   -1    0    0  501  502 -0.00000000000E+00 -0.00000000000E+00 -0.18339965883E+02  0.18339965883E+02  0.00000000000E+00 0. -1.
          2    1    1    2  501    0 -0.22450060586E+02  0.63239495377E+01  0.48246678721E+03  0.48303022506E+03  0.00000000000E+00 0. -1.
         21    1    1    2  503  502  0.22450060586E+02 -0.63239495377E+01 -0.10527095690E+02  0.25589398229E+02  0.00000000000E+00 0. -1.
</event>
<event>
 4    1  0.2229986E+005  0.3133463E+02  0.7546771E-02  0.1408342E+00
          2   -1    0    0  502    0  0.00000000000E+00  0.00000000000E+00  0.95541833293E+03  0.95541833293E+03  0.00000000000E+00 0. -1.
         21   -1    0    0  503  502 -0.00000000000E+00 -0.00000000000E+00 -0.45608855898E+01  0.45608855898E+01  0.00000000000E+00 0.  1.
          2    1    1    2  501    0 -0.31075540516E+02 -0.40211516341E+01  0.89789500394E+03  0.89844159353E+03  0.00000000000E+00 0. -1.
         21    1    1    2  503  501  0.31075540516E+02  0.40211516341E+01  0.52962443398E+02  0.61537624991E+02  0.00000000000E+00 0.  1.
</event>
<event>
 4    1  0.2229986E+005  0.2346823E+02  0.7546771E-02  0.1486701E+00
          2   -1    0    0  502    0  0.00000000000E+00  0.00000000000E+00  0.17542787273E+03  0.17542787273E+03  0.00000000000E+00 0. -1.
         21   -1    0    0  503  502 -0.00000000000E+00 -0.00000000000E+00 -0.23584730108E+03  0.23584730108E+03  0.00000000000E+00 0. -1.
          2    1    1    2  501    0 -0.66735792343E+01  0.22499361967E+02  0.17405460147E+03  0.17562961664E+03  0.00000000000E+00 0. -1.
         21    1    1    2  503  501  0.66735792343E+01 -0.22499361967E+02 -0.23447402982E+03  0.23564555716E+03  0.00000000000E+00 0. -1.
</event>
<event>
 4    1  0.2229986E+005  0.2114768E+02  0.7546771E-02  0.1517167E+00
          2   -1    0    0  503    0  0.00000000000E+00  0.00000000000E+00  0.56956168639E+03  0.56956168639E+03  0.00000000000E+00 0. -1.
         21   -1    0    0  501  502 -0.00000000000E+00 -0.00000000000E+00 -0.25056830724E+01  0.25056830724E+01  0.00000000000E+00 0. -1.
          2    1    1    2  501    0  0.16711394825E+02  0.12959688716E+02  0.52054436786E+03  0.52097376437E+03  0.00000000000E+00 0. -1.
         21    1    1    2  503  502 -0.16711394825E+02 -0.12959688716E+02  0.46511635454E+02  0.51093605091E+02  0.00000000000E+00 0. -1.
</event>
<event>
 4    1  0.2229986E+005  0.2416378E+02  0.7546771E-02  0.1478380E+00
          2   -1    0    0  503    0  0.00000000000E+00  0.00000000000E+00  0.52505925433E+03  0.52505925433E+03  0.00000000000E+00 0.  1.
         21   -1    0    0  501  502 -0.00000000000E+00 -0.00000000000E+00 -0.12749150639E+01  0.12749150639E+01  0.00000000000E+00 0. -1.
          2    1    1    2  501    0 -0.18538873726E+02 -0.15498341498E+02  0.35595419915E+03  0.35677342995E+03  0.00000000000E+00 0.  1.
         21    1    1    2  503  502  0.18538873726E+02  0.15498341498E+02  0.16783014012E+03  0.16956073944E+03  0.00000000000E+00 0. -1.
</event>
<event>
 4    1  0.2229986E+005  0.2105660E+02  0.7546771E-02  0.1518458E+00
          2   -1    0    0  502    0  0.00000000000E+00  0.00000000000E+00  0.16264428745E+03  0.16264428745E+03  0.00000000000E+00 0. -1.
         21   -1    0    0  503  502 -0.00000000000E+00 -0.00000000000E+00 -0.57755967645E+01  0.57755967645E+01  0.00000000000E+00 0.  1.
          2    1    1    2  501    0 -0.19618802265E+02  0.76474273021E+01  0.13962439366E+03  0.14120322890E+03  0.00000000000E+00 0. -1.
         21    1    1    2  503  501  0.19618802265E+02 -0.76474273021E+01  0.17244297027E+02  0.27216655317E+02  0.00000000000E+00 0.  1.
</event>
<event>
 4    1  0.2229986E+005  0.1051740E+03  0.7546771E-02  0.1155132E+00
          2   -1    0    0  502    0  0.00000000000E+00  0.00000000000E+00  0.28612910100E+03  0.28612910100E+03  0.00000000000E+00 0. -1.
         21   -1    0    0  503  502 -0.00000000000E+00 -0.00000000000E+00 -0.10381947107E+03  0.10381947107E+03  0.00000000000E+00 0.  1.
          2    1    1    2  501    0  0.10361311324E+03 -0.18052357845E+02  0.24561938376E+03  0.26718990725E+03  0.00000000000E+00 0. -1.
         21    1    1    2  503  501 -0.10361311324E+03  0.18052357845E+02 -0.63309753824E+02  0.12275866482E+03  0.00000000000E+00 0.  1.
</event>
<event>
 4    1  0.2229986E+005  0.2125754E+02  0.7546771E-02  0.1515619E+00
          2   -1    0    0  502    0  0.00000000000E+00  0.00000000000E+00  0.54234086990E+03  0.54234086990E+03  0.00000000000E+00 0.  1.
         21   -1    0    0  503  502 -0.00000000000E+00 -0.00000000000E+00 -0.27198245909E+01  0.27198245909E+01  0.00000000000E+00 0.  1.
          2    1    1    2  501    0 -0.15205343920E+02  0.14855313756E+02  0.49678981069E+03  0.49724440553E+03  0.00000000000E+00 0.  1.
         21    1    1    2  503  501  0.15205343920E+02 -0.14855313756E+02  0.42831234621E+02  0.47816288957E+02  0.00000000000E+00 0.  1.
</event>
<event>
 4    1  0.2229986E+005  0.2019907E+02  0.7546771E-02  0.1531014E+00
          2   -1    0    0  503    0  0.00000000000E+00  0.00000000000E+00  0.11967097333E+04  0.11967097333E+04  0.00000000000E+00 0. -1.
         21   -1    0    0  501  502 -0.00000000000E+00 -0.00000000000E+00 -0.55687695642E+00  0.55687695642E+00  0.00000000000E+00 0. -1.
          2    1    1    2  501    0 -0.17597862824E+02  0.99155165004E+01  0.97085254341E+03  0.97106264643E+03  0.00000000000E+00 0. -1.
         21    1    1    2  503  502  0.17597862824E+02 -0.99155165004E+01  0.22530031296E+03  0.22620396385E+03  0.00000000000E+00 0. -1.
</event>
<event>
 4    1  0.2229986E+005  0.2076930E+02  0.7546771E-02  0.1522584E+00
          2   -1    0    0  502    0  0.00000000000E+00  0.00000000000E+00  0.43479568217E+03  0.43479568217E+03  0.00000000000E+00 0. -1.
         21   -1    0    0  503  502 -0.00000000000E+00 -0.00000000000E+00 -0.19441212545E+02  0.19441212545E+02  0.00000000000E+00 0. -1.
          2    1    1    2  501    0 -0.19560013918E+02  0.69835160284E+01  0.42892474880E+03  0.42942729742E+03  0.00000000000E+00 0. -1.
         21    1    1    2  503  501  0.19560013918E+02 -0.69835160284E+01 -0.13570279178E+02  0.24809597287E+02  0.00000000000E+00 0. -1.
</event>
<event>
 4    1  0.2229986E+005  0.2198197E+02  0.7546771E-02  0.1505693E+00
          2   -1    0    0  503    0  0.00000000000E+00  0.00000000000E+00  0.88682483823E+03  0.88682483823E+03  0.00000000000E+00 0. -1.
         21   -1    0    0  501  502 -0.00000000000E+00 -0.00000000000E+00 -0.24012989937E+02  0.24012989937E+02  0.00000000000E+00 0. -1.
          2    1    1    2  501    0 -0.20280459520E+02 -0.84799643568E+01  0.88162829078E+03  0.88190229047E+03  0.00000000000E+00 0. -1.
         21    1    1    2  503  502  0.20280459520E+02  0.84799643568E+01 -0.18816442488E+02  0.28935537695E+02  0.00000000000E+00 0. -1.
</event>
<event>
 4    1  0.2229986E+005  0.3437599E+02  0.7546771E-02  0.1385004E+00
          2   -1    0    0  503    0  0.00000000000E+00  0.00000000000E+00  0.27145914701E+03  0.27145914701E+03  0.00000000000E+00 0. -1.
         21   -1    0    0  501  502 -0.00000000000E+00 -0.00000000000E+00 -0.70757886684E+01  0.70757886684E+01  0.00000000000E+00 0. -1.
          2    1    1    2  501    0 -0.23832275912E+02 -0.24773603612E+02  0.21858006694E+03  0.22126670439E+03  0.00000000000E+00 0. -1.
         21    1    1    2  503  502  0.23832275912E+02  0.24773603612E+02  0.45803291407E+02  0.57268231287E+02  0.00000000000E+00 0. -1.
</event>
<event>
 4    1  0.2229986E+005  0.4748750E+02  0.7546771E-02  0.1309449E+00
          2   -1    0    0  503    0  0.00000000000E+00  0.00000000000E+00  0.59779992806E+03  0.59779992806E+03  0.00000000000E+00 0.  1.
         21   -1    0    0  501  502 -0.00000000000E+00 -0.00000000000E+00 -0.44951922117E+01  0.44951922117E+01  0.00000000000E+00 0.  1.
          2    1    1    2  501    0  0.58889889291E+01  0.47120936152E+02  0.41742011367E+03  0.42011262074E+03  0.00000000000E+00 0.  1.
         21    1    1    2  503  502 -0.58889889291E+01 -0.47120936152E+02  0.17588462219E+03  0.18218249953E+03  0.00000000000E+00 0.  1.
</event>
<event>
 4    1  0.2229986E+005  0.2169900E+02  0.7546771E-02  0.1509515E+00
          2   -1    0    0  503    0  0.00000000000E+00  0.00000000000E+00  0.43822407425E+02  0.43822407425E+02  0.00000000000E+00 0. -1.
         21   -1    0    0  501  502 -0.00000000000E+00 -0.00000000000E+00 -0.48598338371E+02  0.48598338371E+02  0.00000000000E+00 0.  1.
          2    1    1    2  501    0  0.20922806118E+02  0.57517671062E+01  0.38395501825E+02  0.44102847993E+02  0.00000000000E+00 0. -1.
         21    1    1    2  503  502 -0.20922806118E+02 -0.57517671062E+01 -0.43171432770E+02  0.48317897804E+02  0.00000000000E+00 0.  1.
</event>
<event>
 4    1  0.2229986E+005  0.2323720E+02  0.7546771E-02  0.1489541E+00
          2   -1    0    0  502    0  0.00000000000E+00  0.00000000000E+00  0.89743951006E+01  0.89743951006E+01  0.00000000000E+00 0.  1.
         21   -1    0    0  503  502 -0.00000000000E+00 -0.00000000000E+00 -0.64812520776E+03  0.64812520776E+03  0.00000000000E+00 0.  1.
          2    1    1    2  501    0 -0.21659837168E+01  0.23136030395E+02 -0.66471521296E+01  0.24169237045E+02  0.00000000000E+00 0.  1.
         21    1    1    2  503  501  0.21659837168E+01 -0.23136030395E+02 -0.63250366053E+03  0.63293036582E+03  0.00000000000E+00 0.  1.
</event>
<event>
 4    1  0.2229986E+005  0.2093494E+02  0.7546771E-02  0.1520196E+00
          2   -1    0    0  503    0  0.00000000000E+00  0.00000000000E+00  0.51301708142E+03  0.51301708142E+03  0.00000000000E+00 0.  1.
         21   -1    0    0  501  502 -0.00000000000E+00 -0.00000000000E+00 -0.60720613465E+01  0.60720613465E+01  0.00000000000E+00 0. -1.
          2    1    1    2  501    0  0.20492809414E+02  0.42797703346E+01  0.49406711481E+03  0.49451045045E+03  0.00000000000E+00 0.  1.
         21    1    1    2  503  502 -0.20492809414E+02 -0.42797703346E+01  0.12877905263E+02  0.24578692312E+02  0.00000000000E+00 0. -1.
</event>
<event>
 4    1  0.2229986E+005  0.2201835E+02  0.7546771E-02  0.1505207E+00
          2   -1    0    0  503    0  0.00000000000E+00  0.00000000000E+00  0.64446534187E+03  0.64446534187E+03  0.00000000000E+00 0. -1.
         21   -1    0    0  501  502 -0.00000000000E+00 -0.00000000000E+00 -0.41858392372E+01  0.41858392372E+01  0.00000000000E+00 0.  1.
          2    1    1    2  501    0  0.23603026852E-01  0.22018341312E+02  0.61387985612E+03  0.61427460118E+03  0.00000000000E+00 0. -1.
         21    1    1    2  503  502 -0.23603026852E-01 -0.22018341312E+02  0.26399646519E+02  0.34376579928E+02  0.00000000000E+00 0.  1.
</event>
<event>
 4    1  0.2229986E+005  0.2175853E+02  0.7546771E-02  0.1508705E+00
          2   -1    0    0  503    0  0.00000000000E+00  0.00000000000E+00  0.38161793777E+03  0.38161793777E+03  0.00000000000E+00 0. -1.
         21   -1    0    0  501  502 -0.00000000000E+00 -0.00000000000E+00 -0.13463135076E+01  0.13463135076E+01  0.00000000000E+00 0. -1.
          2    1    1    2  501    0 -0.17691675334E+02  0.12666418394E+02  0.24379318884E+03  0.24476223658E+03  0.00000000000E+00 0. -1.
         21    1    1    2  503  502  0.17691675334E+02 -0.12666418394E+02  0.13647843543E+03  0.13820201471E+03  0.00000000000E+00 0. -1.
</event>
<event>
 4    1  0.2229986E+005  0.2276573E+02  0.7546771E-02  0.1495461E+00
          2   -1    0    0  503    0  0.00000000000E+00  0.00000000000E+00  0.17305281776E+03  0.17305281776E+03  0.00000000000E+00 0.  1.
         21   -1    0    0  501  502 -0.00000000000E+00 -0.00000000000E+00 -0.29992713144E+01  0.29992713144E+01  0.00000000000E+00 0. -1.
          2    1    1    2  501    0 -0.14172457601E+02  0.17816279394E+02  0.81671748778E+02  0.84785334312E+02  0.00000000000E+00 0.  1.
         21    1    1    2  503  502  0.14172457601E+02 -0.17816279394E+02  0.88381797670E+02  0.91266754765E+02  0.00000000000E+00 0. -1.
</event>
<event>
 4    1  0.2229986E+005  0.2943837E+02  0.7546771E-02  0.1424541E+00
          2   -1    0    0  502    0  0.00000000000E+00  0.00000000000E+00  0.50052127869E+02  0.50052127869E+02  0.00000000000E+00 0. -1.
         21   -1    0    0  503  502 -0.00000000000E+00 -0.00000000000E+00 -0.60176820534E+02  0.60176820534E+02  0.00000000000E+00 0. -1.
          2    1    1    2  501    0  0.49799789923E+01 -0.29014086358E+02  0.41452320954E+02  0.50842032910E+02  0.00000000000E+00 0. -1.
         21    1    1    2  503  501 -0.49799789923E+01  0.29014086358E+02 -0.51577013619E+02  0.59386915493E+02  0.00000000000E+00 0. -1.
</event>
<event>
 4    1  0.2229986E+005  0.2692900E+02  0.7546771E-02  0.1448323E+00
          2   -1    0    0  503    0  0.00000000000E+00  0.00000000000E+00  0.54009656164E+03  0.54009656164E+03  0.00000000000E+00 0. -1.
         21   -1    0    0  501  502 -0.00000000000E+00 -0.00000000000E+00 -0.27674757817E+01  0.27674757817E+01  0.00000000000E+00 0. -1.
          2    1    1    2  501    0 -0.18267675856E+02 -0.19785422849E+02  0.46342336580E+03  0.46420511297E+03  0.00000000000E+00 0. -1.
         21    1    1    2  503  502  0.18267675856E+02  0.19785422849E+02  0.73905720057E+02  0.78658924450E+02  0.00000000000E+00 0. -1.
</event>
<event>
 4    1  0.2229986E+005  0.2059300E+02  0.7546771E-02  0.1525156E+00
          2   -1    0    0  502    0  0.00000000000E+00  0.00000000000E+00  0.15023970960E+04  0.15023970960E+04  0.00000000000E+00 0. -1.
         21   -1    0    0  503  502 -0.00000000000E+00 -0.00000000000E+00 -0.10313104709E+01  0.10313104709E+01  0.00000000000E+00 0.  1.
          2    1    1    2  501    0  0.11900895061E+02 -0.16805962751E+02  0.13913207552E+04  0.13914731458E+04  0.00000000000E+00 0. -1.
         21    1    1    2  503  501 -0.11900895061E+02  0.16805962751E+02  0.11004503031E+03  0.11195526063E+03  0.00000000000E+00 0.  1.
</event>
<event>
 4    1  0.2229986E+005  0.2657473E+02  0.7546771E-02  0.1451927E+00
          2   -1    0    0  502    0  0.00000000000E+00  0.00000000000E+00  0.18219728099E+04  0.18219728099E+04  0.00000000000E+00 0. -1.
         21   -1    0    0  503  502 -0.00000000000E+00 -0.00000000000E+00 -0.36441199970E+01  0.36441199970E+01  0.00000000000E+00 0. -1.
          2    1    1    2  501    0  0.25822617603E+02 -0.62776361711E+01  0.17720623805E+04  0.17722616332E+04  0.00000000000E+00 0. -1.
         21    1    1    2  503  501 -0.25822617603E+02  0.62776361711E+01  0.46266309469E+02  0.53355296716E+02  0.00000000000E+00 0. -1.
</event>
<event>
 4    1  0.2229986E+005  0.8742138E+02  0.7546771E-02  0.1187593E+00
          2   -1    0    0  502    0  0.00000000000E+00  0.00000000000E+00  0.13425208213E+03  0.13425208213E+03  0.00000000000E+00 0.  1.
         21   -1    0    0  503  502 -0.00000000000E+00 -0.00000000000E+00 -0.75244087267E+02  0.75244087267E+02  0.00000000000E+00 0.  1.
          2    1    1    2  501    0  0.81220305227E+02  0.32338219960E+02  0.81186588043E+02  0.11930532482E+03  0.00000000000E+00 0.  1.
         21    1    1    2  503  501 -0.81220305227E+02 -0.32338219960E+02 -0.22178593178E+02  0.90190844583E+02  0.00000000000E+00 0.  1.
</event>
<event>
 4    1  0.2229986E+005  0.2854887E+02  0.7546771E-02  0.1432641E+00
          2   -1    0    0  502    0  0.00000000000E+00  0.00000000000E+00  0.54514303309E+03  0.54514303309E+03  0.00000000000E+00 0.  1.
         21   -1    0    0  503  502 -0.00000000000E+00 -0.00000000000E+00 -0.15421299963E+01  0.15421299963E+01  0.00000000000E+00 0. -1.
          2    1    1    2  501    0 -0.19266375943E+02  0.21067622426E+02  0.31954017914E+03  0.32081297362E+03  0.00000000000E+00 0.  1.
         21    1    1    2  503  501  0.19266375943E+02 -0.21067622426E+02  0.22406072396E+03  0.22587218947E+03  0.00000000000E+00 0. -1.
</event>
<event>
 4    1  0.2229986E+005  0.2531554E+02  0.7546771E-02  0.1465304E+00
          2   -1    0    0  503    0  0.00000000000E+00  0.00000000000E+00  0.87477196166E+03  0.87477196166E+03  0.00000000000E+00 0.  1.
         21   -1    0    0  501  502 -0.00000000000E+00 -0.00000000000E+00 -0.15174756647E+01  0.15174756647E+01  0.00000000000E+00 0. -1.
          2    1    1    2  501    0  0.12953836303E+02  0.21750282264E+02  0.75172929152E+03  0.75215543897E+03  0.00000000000E+00 0.  1.
         21    1    1    2  503  502 -0.12953836303E+02 -0.21750282264E+02  0.12152519448E+03  0.12413399835E+03  0.00000000000E+00 0. -1.
</event>
<event>
 4    1  0.2229986E+005  0.2207040E+02  0.7546771E-02  0.1504513E+00
          2   -1    0    0  503    0  0.00000000000E+00  0.00000000000E+00  0.37375180090E+01  0.37375180090E+01  0.00000000000E+00 0. -1.
         21   -1    0    0  501  502 -0.00000000000E+00 -0.00000000000E+00 -0.89392755148E+03  0.89392755148E+03  0.00000000000E+00 0. -1.
          2    1    1    2  501    0 -0.20769563473E+02  0.74651114147E+01 -0.30268942728E+02  0.37460800167E+02  0.00000000000E+00 0. -1.
         21    1    1    2  503  502  0.20769563473E+02 -0.74651114147E+01 -0.85992109074E+03  0.86020426932E+03  0.00000000000E+00 0. -1.
</event>
<event>
 4    1  0.2229986E+005  0.3541494E+02  0.7546771E-02  0.1377669E+00
          2   -1    0    0  503    0  0.00000000000E+00  0.00000000000E+00  0.50219260145E+03  0.50219260145E+03  0.00000000000E+00 0.  1.
         21   -1    0    0  501  502 -0.00000000000E+00 -0.00000000000E+00 -0.62591701750E+01  0.62591701750E+01  0.00000000000E+00 0. -1.
          2    1    1    2  501    0  0.35414647462E+02  0.14366384430E+00  0.44505131132E+03  0.44645815884E+03  0.00000000000E+00 0.  1.
         21    1    1    2  503  502 -0.35414647462E+02 -0.14366384430E+00  0.50882119959E+02  0.61993612781E+02  0.00000000000E+00 0. -1.
</event>
<event>
 4    1  0.2229986E+005  0.2093580E+02  0.7546771E-02  0.1520183E+00
          2   -1    0    0  502    0  0.00000000000E+00  0.00000000000E+00  0.61755552793E+03  0.61755552793E+03  0.00000000000E+00 0.  1.
         21   -1    0    0  503  502 -0.00000000000E+00 -0.00000000000E+00 -0.15368838748E+01  0.15368838748E+01  0.00000000000E+00 0.  1.
          2    1    1    2  501    0 -0.18105356459E+02 -0.10512072882E+02  0.53509716955E+03  0.53550657183E+03  0.00000000000E+00 0.  1.
         21    1    1    2  503  501  0.18105356459E+02  0.10512072882E+02  0.80921474503E+02  0.83585839976E+02  0.00000000000E+00 0.  1.
</event>
<event>
 4    1  0.2229986E+005  0.3492685E+02  0.7546771E-02  0.1381078E+00
          2   -1    0    0  502    0  0.00000000000E+00  0.00000000000E+00  0.24298695818E+04  0.24298695818E+04  0.00000000000E+00 0. -1.
         21   -1    0    0  503  502 -0.00000000000E+00 -0.00000000000E+00 -0.12254722571E+01  0.12254722571E+01  0.00000000000E+00 0. -1.
          2    1    1    2  501    0  0.33563679654E+02  0.96625248694E+01  0.21482641923E+04  0.21485480969E+04  0.00000000000E+00 0. -1.
         21    1    1    2  503  501 -0.33563679654E+02 -0.96625248694E+01  0.28037991726E+03  0.28254695713E+03  0.00000000000E+00 0. -1.
</event>
<event>
 4    1  0.2229986E+005  0.1072271E+03  0.7546771E-02  0.1151841E+00
          2   -1    0    0  502    0  0.00000000000E+00  0.00000000000E+00  0.11581654053E+04  0.11581654053E+04  0.00000000000E+00 0. -1.
         21   -1    0    0  503  502 -0.00000000000E+00 -0.00000000000E+00 -0.18578151911E+02  0.18578151911E+02  0.00000000000E+00 0. -1.
          2    1    1    2  501    0  0.93599877274E+02  0.52313588860E+02  0.97128464173E+03  0.97718550126E+03  0.00000000000E+00 0. -1.
         21    1    1    2  503  501 -0.93599877274E+02 -0.52313588860E+02  0.16830261165E+03  0.19955805595E+03  0.00000000000E+00 0. -1.
</event>
<event>
 4    1  0.2229986E+005  0.2007235E+02  0.7546771E-02  0.1532933E+00
          2   -1    0    0  502    0  0.00000000000E+00  0.00000000000E+00  0.58286205434E+03  0.58286205434E+03  0.00000000000E+00 0. -1.
         21   -1    0    0  503  502 -0.00000000000E+00 -0.00000000000E+00 -0.72322677206E+02  0.72322677206E+02  0.00000000000E+00 0.  1.
          2    1    1    2  501    0 -0.62575392822E+01 -0.19072028167E+02  0.58129277156E+03  0.58163922265E+03  0.00000000000E+00 0. -1.
         21    1    1    2  503  501  0.62575392822E+01  0.19072028167E+02 -0.70753394425E+02  0.73545508897E+02  0.00000000000E+00 0.  1.
</event>
<event>
 4    1  0.2229986E+005  0.2470543E+02  0.7546771E-02  0.1472126E+00
          2   -1    0    0  503    0  0.00000000000E+00  0.00000000000E+00  0.22198605390E+02  0.22198605390E+02  0.00000000000E+00 0. -1.
         21   -1    0    0  501  502 -0.00000000000E+00 -0.00000000000E+00 -0.35239128628E+02  0.35239128628E+02  0.00000000000E+00 0. -1.
          2    1    1    2  501    0 -0.43830787066E+01  0.24313508425E+02  0.69424218113E+01  0.25662332153E+02  0.00000000000E+00 0. -1.
         21    1    1    2  503  502  0.43830787066E+01 -0.24313508425E+02 -0.19982945049E+02  0.31775401866E+02  0.00000000000E+00 0. -1.
</event>
<event>
 4    1  0.2229986E+005  0.2319620E+02  0.7546771E-02  0.1490049E+00
          2   -1    0    0  503    0  0.00000000000E+00  0.00000000000E+00  0.12100154794E+04  0.12100154794E+04  0.00000000000E+00 0.  1.
         21   -1    0    0  501  502 -0.00000000000E+00 -0.00000000000E+00 -0.31190912111E+02  0.31190912111E+02  0.00000000000E+00 0.  1.
          2    1    1    2  501    0  0.21944568071E+02 -0.75166337753E+01  0.12055757648E+04  0.12057989005E+04  0.00000000000E+00 0.  1.
         21    1    1    2  503  502 -0.21944568071E+02  0.75166337753E+01 -0.26751197495E+02  0.35407490995E+02  0.00000000000E+00 0.  1.
</event>
<event>
 4    1  0.2229986E+005  0.3359857E+02  0.7546771E-02  0.1390693E+00
          2   -1    0    0  502    0  0.00000000000E+00  0.00000000000E+00  0.63282055181E+03  0.63282055181E+03  0.00000000000E+00 0.  1.
         21   -1    0    0  503  502 -0.00000000000E+00 -0.00000000000E+00 -0.98680845981E+01  0.98680845981E+01  0.00000000000E+00 0. -1.
          2    1    1    2  501    0  0.26218654022E+02 -0.21010619599E+02  0.60232910100E+03  0.60326545555E+03  0.00000000000E+00 0.  1.
         21    1    1    2  503  501 -0.26218654022E+02  0.21010619599E+02  0.20623366211E+02  0.39423180853E+02  0.00000000000E+00 0. -1.
</event>
<event>
 4    1  0.2229986E+005  0.2558620E+02  0.7546771E-02  0.1462351E+00
          2   -1    0    0  502    0  0.00000000000E+00  0.00000000000E+00  0.14011067829E+03  0.14011067829E+03  0.00000000000E+00 0.  1.
         21   -1    0    0  503  502 -0.00000000000E+00 -0.00000000000E+00 -0.64711978275E+01  0.64711978275E+01  0.00000000000E+00 0. -1.
          2    1    1    2  501    0  0.74263642146E+01  0.24484742196E+02  0.10546078101E+03  0.10852018161E+03  0.00000000000E+00 0.  1.
         21    1    1    2  503  501 -0.74263642146E+01 -0.24484742196E+02  0.28178699454E+02  0.38061694507E+02  0.00000000000E+00 0. -1.
</event>
<event>
 4    1  0.2229986E+005  0.2371391E+02  0.7546771E-02  0.1483723E+00
          2   -1    0    0  503    0  0.00000000000E+00  0.00000000000E+00  0.14341622134E+03  0.14341622134E+03  0.00000000000E+00 0.  1.
         21   -1    0    0  501  502 -0.00000000000E+00 -0.00000000000E+00 -0.44284669428E+01  0.44284669428E+01  0.00000000000E+00 0.  1.
          2    1    1    2  501    0 -0.50480208166E+01 -0.23170388995E+02  0.94515174744E+02  0.97444690452E+02  0.00000000000E+00 0.  1.
         21    1    1    2  503  502  0.50480208166E+01  0.23170388995E+02  0.44472579649E+02  0.50399997827E+02  0.00000000000E+00 0.  1.
</event>
<event>
 4    1  0.2229986E+005  0.3504893E+02  0.7546771E-02  0.1380220E+00
          2   -1    0    0  503    0  0.00000000000E+00  0.00000000000E+00  0.17444114662E+03  0.17444114662E+03  0.00000000000E+00 0. -1.
         21   -1    0    0  501  502 -0.00000000000E+00 -0.00000000000E+00 -0.21039572804E+02  0.21039572804E+02  0.00000000000E+00 0. -1.
          2    1    1    2  501    0 -0.33187100377E+02 -0.11271378962E+02  0.15642324489E+03  0.16030177528E+03  0.00000000000E+00 0. -1.
         21    1    1    2  503  502  0.33187100377E+02  0.11271378962E+02 -0.30216710752E+01  0.35178944145E+02  0.00000000000E+00 0. -1.
</event>
<event>
 4    1  0.2229986E+005  0.2228254E+02  0.7546771E-02  0.1501709E+00
          2   -1    0    0  502    0  0.00000000000E+00  0.00000000000E+00  0.54567690092E+03  0.54567690092E+03  0.00000000000E+00 0. -1.
         21   -1    0    0  503  502 -0.00000000000E+00 -0.00000000000E+00 -0.11751745411E+01  0.11751745411E+01  0.00000000000E+00 0.  1.
          2    1    1    2  501    0 -0.20436877123E+02 -0.88795135567E+01  0.40215890149E+03  0.40277573631E+03  0.00000000000E+00 0. -1.
         21    1    1    2  503  501  0.20436877123E+02  0.88795135567E+01  0.14234282488E+03  0.14407633915E+03  0.00000000000E+00 0.  1.
</event>
<event>
 4    1  0.2229986E+005  0.2880980E+02  0.7546771E-02  0.1430229E+00
          2   -1    0    0  502    0  0.00000000000E+00  0.00000000000E+00  0.51458991689E+03  0.51458991689E+03  0.00000000000E+00 0. -1.
         21   -1    0    0  503  502 -0.00000000000E+00 -0.00000000000E+00 -0.94149865392E+02  0.94149865392E+02  0.00000000000E+00 0.  1.
          2    1    1    2  501    0  0.19192985730E+02 -0.21485668920E+02  0.51197147244E+03  0.51278142835E+03  0.00000000000E+00 0. -1.
         21    1    1    2  503  501 -0.19192985730E+02  0.21485668920E+02 -0.91531420940E+02  0.95958353933E+02  0.00000000000E+00 0.  1.
</event>
<event>
 4    1  0.2229986E+005  0.2565352E+02  0.7546771E-02  0.1461624E+00
          2   -1    0    0  503    0  0.00000000000E+00  0.00000000000E+00  0.31544441186E+03  0.31544441186E+03  0.00000000000E+00 0. -1.
         21   -1    0    0  501  502 -0.00000000000E+00 -0.00000000000E+00 -0.28999460692E+01  0.28999460692E+01  0.00000000000E+00 0. -1.
          2    1    1    2  501    0  0.79550871639E+01  0.24388924966E+02  0.24058575759E+03  0.24194960184E+03  0.00000000000E+00 0. -1.
         21    1    1    2  503  502 -0.79550871639E+01 -0.24388924966E+02  0.71958708195E+02  0.76394756089E+02  0.00000000000E+00 0. -1.
</event>
<event>
 4    1  0.2229986E+005  0.2563642E+02  0.7546771E-02  0.1461808E+00
          2   -1    0    0  502    0  0.00000000000E+00  0.00000000000E+00  0.10230061896E+04  0.10230061896E+04  0.00000000000E+00 0. -1.
         21   -1    0    0  503  502 -0.00000000000E+00 -0.00000000000E+00 -0.13109144933E+01  0.13109144933E+01  0.00000000000E+00 0. -1.
          2    1    1    2  501    0 -0.22042206317E+02 -0.13090728084E+02  0.87657527929E+03  0.87695008198E+03  0.00000000000E+00 0. -1.
         21    1    1    2  503  501  0.22042206317E+02  0.13090728084E+02  0.14511999585E+03  0.14736702215E+03  0.00000000000E+00 0. -1.
</event>
<event>
 4    1  0.2229986E+005  0.2324167E+02  0.7546771E-02  0.1489486E+00
          2   -1    0    0  502    0  0.00000000000E+00  0.00000000000E+00  0.49840955512E+03  0.49840955512E+03  0.00000000000E+00 0. -1.
         21   -1    0    0  503  502 -0.00000000000E+00 -0.00000000000E+00 -0.19957113880E+01  0.19957113880E+01  0.00000000000E+00 0.  1.
          2    1    1    2  501    0  0.18996397471E+02  0.13390748235E+02  0.41733659736E+03  0.41798326611E+03  0.00000000000E+00 0. -1.
         21    1    1    2  503  501 -0.18996397471E+02 -0.13390748235E+02  0.79077246373E+02  0.82422000395E+02  0.00000000000E+00 0.  1.
</event>
<event>
 4    1  0.2229986E+005  0.2711540E+02  0.7546771E-02  0.1446452E+00
          2   -1    0    0  502    0  0.00000000000E+00  0.00000000000E+00  0.13575038301E+04  0.13575038301E+04  0.00000000000E+00 0. -1.
         21   -1    0    0  503  502 -0.00000000000E+00 -0.00000000000E+00 -0.84567719539E+00  0.84567719539E+00  0.00000000000E+00 0. -1.
          2    1    1    2  501    0  0.21526674250E+02  0.16487796636E+02  0.10855781139E+04  0.10859167034E+04  0.00000000000E+00 0. -1.
         21    1    1    2  503  501 -0.21526674250E+02 -0.16487796636E+02  0.27108003897E+03  0.27243280395E+03  0.00000000000E+00 0. -1.
</event>
<event>
 4    1  0.2229986E+005  0.2346244E+02  0.7546771E-02  0.1486772E+00
          2   -1    0    0  502    0  0.00000000000E+00  0.00000000000E+00  0.13009485977E+04  0.13009485977E+04  0.00000000000E+00 0. -1.
         21   -1    0    0  503  502 -0.00000000000E+00 -0.00000000000E+00 -0.42321475762E+00  0.42321475762E+00  0.00000000000E+00 0. -1.
          2    1    1    2  501    0 -0.21986067179E+02  0.81913859648E+01  0.65879597699E+03  0.65921364158E+03  0.00000000000E+00 0. -1.
         21    1    1    2  503  501  0.21986067179E+02 -0.81913859648E+01  0.64172940596E+03  0.64215817088E+03  0.00000000000E+00 0. -1.
</event>
<event>
 4    1  0.2229986E+005  0.2038552E+02  0.7546771E-02  0.1528222E+00
          2   -1    0    0  502    0  0.00000000000E+00  0.00000000000E+00  0.87152149330E+03  0.87152149330E+03  0.00000000000E+00 0.  1.
         21   -1    0    0  503  502 -0.00000000000E+00 -0.00000000000E+00 -0.22096645635E+02  0.22096645635E+02  0.00000000000E+00 0.  1.
          2    1    1    2  501    0  0.20385370339E+02 -0.78054743013E-01  0.86667426748E+03  0.86691398382E+03  0.00000000000E+00 0.  1.
         21    1    1    2  503  501 -0.20385370339E+02  0.78054743013E-01 -0.17249419820E+02  0.26704155118E+02  0.00000000000E+00 0.  1.
</event>
<event>
 4    1  0.2229986E+005  0.2652405E+02  0.7546771E-02  0.1452449E+00
          2   -1    0    0  503    0  0.00000000000E+00  0.00000000000E+00  0.16796567673E+02  0.16796567673E+02  0.00000000000E+00 0.  1.
         21   -1    0    0  501  502 -0.00000000000E+00 -0.00000000000E+00 -0.13655102903E+03  0.13655102903E+03  0.00000000000E+00 0.  1.
          2    1    1    2  501    0 -0.14672432109E+02  0.22096268110E+02  0.39632900403E+01  0.26818519652E+02  0.00000000000E+00 0.  1.
         21    1    1    2  503  502  0.14672432109E+02 -0.22096268110E+02 -0.12371775140E+03  0.12652907705E+03  0.00000000000E+00 0.  1.
</event>
<event>
 4    1  0.2229986E+005  0.2325074E+02  0.7546771E-02  0.1489373E+00
          2   -1    0    0  503    0  0.00000000000E+00  0.00000000000E+00  0.11383755838E+04  0.11383755838E+04  0.00000000000E+00 0.  1.
         21   -1    0    0  501  502 -0.00000000000E+00 -0.00000000000E+00 -0.13510230035E+01  0.13510230035E+01  0.00000000000E+00 0. -1.
          2    1    1    2  501    0 -0.21046120792E+02  0.98821955676E+01  0.10274203427E+04  0.10276833936E+04  0.00000000000E+00 0.  1.
         21    1    1    2  503  502  0.21046120792E+02 -0.98821955676E+01  0.10960421816E+03  0.11204321322E+03  0.00000000000E+00 0. -1.
</event>
<event>
 4    1  0.2229986E+005  0.5127760E+02  0.7546771E-02  0.1292726E+00
          2   -1    0    0  503    0  0.00000000000E+00  0.00000000000E+00  0.15587645922E+03  0.15587645922E+03  0.00000000000E+00 0. -1.
         21   -1    0    0  501  502 -0.00000000000E+00 -0.00000000000E+00 -0.57520982996E+02  0.57520982996E+02  0.00000000000E+00 0. -1.
          2    1    1    2  501    0 -0.16636299974E+02  0.48503874012E+02  0.13887722071E+03  0.14804146278E+03  0.00000000000E+00 0. -1.
         21    1    1    2  503  502  0.16636299974E+02 -0.48503874012E+02 -0.40521744489E+02  0.65355979431E+02  0.00000000000E+00 0. -1.
</event>
<event>
 4    1  0.2229986E+005  0.2532094E+02  0.7546771E-02  0.1465245E+00
          2   -1    0    0  503    0  0.00000000000E+00  0.00000000000E+00  0.60581746235E+02  0.60581746235E+02  0.00000000000E+00 0.  1.
         21   -1    0    0  501  502 -0.00000000000E+00 -0.00000000000E+00 -0.74500819790E+02  0.74500819790E+02  0.00000000000E+00 0. -1.
          2    1    1    2  501    0  0.24622483147E+02  0.59062107711E+01  0.55600789700E+02  0.61094990116E+02  0.00000000000E+00 0.  1.
         21    1    1    2  503  502 -0.24622483147E+02 -0.59062107711E+01 -0.69519863255E+02  0.73987575910E+02  0.00000000000E+00 0. -1.
</event>
<event>
 4    1  0.2229986E+005  0.2170791E+02  0.7546771E-02  0.1509393E+00
          2   -1    0    0  503    0  0.00000000000E+00  0.00000000000E+00  0.69405714506E+03  0.69405714506E+03  0.00000000000E+00 0.  1.
         21   -1    0    0  501  502 -0.00000000000E+00 -0.00000000000E+00 -0.32572555766E+02  0.32572555766E+02  0.00000000000E+00 0. -1.
          2    1    1    2  501    0  0.10241807123E+02  0.19139979462E+02  0.69025066792E+03  0.69059193305E+03  0.00000000000E+00 0.  1.
         21    1    1    2  503  502 -0.10241807123E+02 -0.19139979462E+02 -0.28766078626E+02  0.36037767779E+02  0.00000000000E+00 0. -1.
</event>
<event>
 4    1  0.2229986E+005  0.2645501E+02  0.7546771E-02  0.1453161E+00
          2   -1    0    0  502    0  0.00000000000E+00  0.00000000000E+00  0.86214059113E+03  0.86214059113E+03  0.00000000000E+00 0.  1.
         21   -1    0    0  503  502 -0.00000000000E+00 -0.00000000000E+00 -0.12650818425E+02  0.12650818425E+02  0.00000000000E+00 0. -1.
          2    1    1    2  501    0  0.26324464826E+02 -0.26248590855E+01  0.84787452041E+03  0.84828713870E+03  0.00000000000E+00 0.  1.
         21    1    1    2  503  501 -0.26324464826E+02  0.26248590855E+01  0.16152523014E+01  0.26504270855E+02  0.00000000000E+00 0. -1.
</event>
<event>
 4    1  0.2229986E+005  0.3415044E+02  0.7546771E-02  0.1386636E+00
          2   -1    0    0  502    0  0.00000000000E+00  0.00000000000E+00  0.10647842551E+04  0.10647842551E+04  0.00000000000E+00 0. -1.
         21   -1    0    0  503  502 -0.00000000000E+00 -0.00000000000E+00 -0.13595981041E+02  0.13595981041E+02  0.00000000000E+00 0.  1.
          2    1    1    2  501    0 -0.32853749446E+02 -0.93211508773E+01  0.10426096516E+04  0.10431687967E+04  0.00000000000E+00 0. -1.
         21    1    1    2  503  501  0.32853749446E+02  0.93211508773E+01  0.85786224397E+01  0.35211439467E+02  0.00000000000E+00 0.  1.
</event>
<event>
 4    1  0.2229986E+005  0.4945488E+02  0.7546771E-02  0.1300553E+00
          2   -1    0    0  502    0  0.00000000000E+00  0.00000000000E+00  0.54699550566E+03  0.54699550566E+03  0.00000000000E+00 0. -1.
         21   -1    0    0  503  502 -0.00000000000E+00 -0.00000000000E+00 -0.18782374954E+02  0.18782374954E+02  0.00000000000E+00 0. -1.
          2    1    1    2  501    0  0.10563909373E+01  0.49443595648E+02  0.51103819919E+03  0.51342557995E+03  0.00000000000E+00 0. -1.
         21    1    1    2  503  501 -0.10563909373E+01 -0.49443595648E+02  0.17174931513E+02  0.52352300665E+02  0.00000000000E+00 0. -1.
</event>
<event>
 4    1  0.2229986E+005  0.3351977E+02  0.7546771E-02  0.1391279E+00
          2   -1    0    0  503    0  0.00000000000E+00  0.00000000000E+00  0.29093541622E+04  0.29093541622E+04  0.00000000000E+00 0. -1.
         21   -1    0    0  501  502 -0.00000000000E+00 -0.00000000000E+00 -0.39649188639E+00  0.39649188639E+00  0.00000000000E+00 0. -1.
          2    1    1    2  501    0 -0.32974246749E+01 -0.33357191023E+02  0.16889460295E+04  0.16892786229E+04  0.00000000000E+00 0. -1.
         21    1    1    2  503  502  0.32974246749E+01  0.33357191023E+02  0.12200116408E+04  0.12204720312E+04  0.00000000000E+00 0. -1.
</event>
<event>
 4    1  0.2229986E+005  0.5499950E+02  0.7546771E-02  0.1277839E+00
          2   -1    0    0  502    0  0.00000000000E+00  0.00000000000E+00  0.10846436061E+03  0.10846436061E+03  0.00000000000E+00 0.  1.
         21   -1    0    0  503  502 -0.00000000000E+00 -0.00000000000E+00 -0.20637210026E+03  0.20637210026E+03  0.00000000000E+00 0. -1.
          2    1    1    2  501    0  0.53153241719E+02  0.14130739401E+02  0.97441817363E+02  0.11189214750E+03  0.00000000000E+00 0.  1.
         21    1    1    2  503  501 -0.53153241719E+02 -0.14130739401E+02 -0.19534955702E+03  0.20294431337E+03  0.00000000000E+00 0. -1.
</event>
<event>
 4    1  0.2229986E+005  0.2025659E+02  0.7546771E-02  0.1530149E+00
          2   -1    0    0  502    0  0.00000000000E+00  0.00000000000E+00  0.92795787243E+02  0.92795787243E+02  0.00000000000E+00 0. -1.
         21   -1    0    0  503  502 -0.00000000000E+00 -0.00000000000E+00 -0.11219661473E+02  0.11219661473E+02  0.00000000000E+00 0. -1.
          2    1    1    2  501    0 -0.20248649670E+02  0.56695925537E+00  0.81270109647E+02  0.83756551853E+02  0.00000000000E+00 0. -1.
         21    1    1    2  503  501  0.20248649670E+02 -0.56695925537E+00  0.30601612353E+00  0.20258896863E+02  0.00000000000E+00 0. -1.
</event>
<event>
 4    1  0.2229986E+005  0.2273365E+02  0.7546771E-02  0.1495870E+00
          2   -1    0    0  503    0  0.00000000000E+00  0.00000000000E+00  0.16468689222E+01  0.16468689222E+01  0.00000000000E+00 0.  1.
         21   -1    0    0  501  502 -0.00000000000E+00 -0.00000000000E+00 -0.31718381567E+03  0.31718381567E+03  0.00000000000E+00 0. -1.
          2    1    1    2  501    0 -0.12216937360E+02 -0.19171987416E+02 -0.14134900470E+03  0.14316549790E+03  0.00000000000E+00 0.  1.
         21    1    1    2  503  502  0.12216937360E+02  0.19171987416E+02 -0.17418794205E+03  0.17566518670E+03  0.00000000000E+00 0. -1.
</event>
<event>
 4    1  0.2229986E+005  0.2019479E+02  0.7546771E-02  0.1531079E+00
          2   -1    0    0  502    0  0.00000000000E+00  0.00000000000E+00  0.27811471507E+03  0.27811471507E+03  0.00000000000E+00 0.  1.
         21   -1    0    0  503  502 -0.00000000000E+00 -0.00000000000E+00 -0.21212132585E+03  0.21212132585E+03  0.00000000000E+00 0.  1.
          2    1    1    2  501    0 -0.63036885695E+01  0.19185755346E+02  0.27726598748E+03  0.27800046315E+03  0.00000000000E+00 0.  1.
         21    1    1    2  503  501  0.63036885695E+01 -0.19185755346E+02 -0.21127259825E+03  0.21223557777E+03  0.00000000000E+00 0.  1.
</event>
<event>
 4    1  0.2229986E+005  0.4544356E+02  0.7546771E-02  0.1319236E+00
          2   -1    0    0  503    0  0.00000000000E+00  0.00000000000E+00  0.53063324191E+03  0.53063324191E+03  0.00000000000E+00 0. -1.
         21   -1    0    0  501  502 -0.00000000000E+00 -0.00000000000E+00 -0.39211663682E+01  0.39211663682E+01  0.00000000000E+00 0. -1.
          2    1    1    2  501    0 -0.36044958296E+02 -0.27674504473E+02  0.28648715483E+03  0.29006896956E+03  0.00000000000E+00 0. -1.
         21    1    1    2  503  502  0.36044958296E+02  0.27674504473E+02  0.24022492071E+03  0.24448543872E+03  0.00000000000E+00 0. -1.
</event>
<event>
 4    1  0.2229986E+005  0.2270557E+02  0.7546771E-02  0.1496229E+00
          2   -1    0    0  503    0  0.00000000000E+00  0.00000000000E+00  0.20803314755E+03  0.20803314755E+03  0.00000000000E+00 0.  1.
         21   -1    0    0  501  502 -0.00000000000E+00 -0.00000000000E+00 -0.61331924191E+01  0.61331924191E+01  0.00000000000E+00 0.  1.
          2    1    1    2  501    0 -0.99097806045E+00  0.22683931847E+02  0.18361515008E+03  0.18501369176E+03  0.00000000000E+00 0.  1.
         21    1    1    2  503  502  0.99097806045E+00 -0.22683931847E+02  0.18284805050E+02  0.29152648203E+02  0.00000000000E+00 0.  1.
</event>
<event>
 4    1  0.2229986E+005  0.2286626E+02  0.7546771E-02  0.1494184E+00
          2   -1    0    0  502    0  0.00000000000E+00  0.00000000000E+00  0.76533431150E+03  0.76533431150E+03  0.00000000000E+00 0. -1.
         21   -1    0    0  503  502 -0.00000000000E+00 -0.00000000000E+00 -0.25804399489E+01  0.25804399489E+01  0.00000000000E+00 0. -1.
          2    1    1    2  501    0 -0.20909156454E+02 -0.92559679493E+01  0.71060652274E+03  0.71097432860E+03  0.00000000000E+00 0. -1.
         21    1    1    2  503  501  0.20909156454E+02  0.92559679493E+01  0.52147348810E+02  0.56940422849E+02  0.00000000000E+00 0. -1.
</event>
<event>
 4    1  0.2229986E+005  0.2676224E+02  0.7546771E-02  0.1450011E+00
          2   -1    0    0  502    0  0.00000000000E+00  0.00000000000E+00  0.16300614687E+04  0.16300614687E+04  0.00000000000E+00 0. -1.
         21   -1    0    0  503  502 -0.00000000000E+00 -0.00000000000E+00 -0.35398613545E+01  0.35398613545E+01  0.00000000000E+00 0.  1.
          2    1    1    2  501    0 -0.12643082642E+02 -0.23587497951E+02  0.15776903544E+04  0.15779173211E+04  0.00000000000E+00 0. -1.
         21    1    1    2  503  501  0.12643082642E+02  0.23587497951E+02  0.48831252943E+02  0.55684009035E+02  0.00000000000E+00 0.  1.
</event>
<event>
 4    1  0.2229986E+005  0.2242356E+02  0.7546771E-02  0.1499866E+00
          2   -1    0    0  502    0  0.00000000000E+00  0.00000000000E+00  0.21207034513E+02  0.21207034513E+02  0.00000000000E+00 0. -1.
         21   -1    0    0  503  502 -0.00000000000E+00 -0.00000000000E+00 -0.97594828863E+02  0.97594828863E+02  0.00000000000E+00 0. -1.
          2    1    1    2  501    0  0.19116613644E+02  0.11720549638E+02  0.13490308709E+02  0.26168772040E+02  0.00000000000E+00 0. -1.
         21    1    1    2  503  501 -0.19116613644E+02 -0.11720549638E+02 -0.89878103059E+02  0.92633091336E+02  0.00000000000E+00 0. -1.
</event>
<event>
 4    1  0.2229986E+005  0.2340456E+02  0.7546771E-02  0.1487480E+00
          2   -1    0    0  503    0  0.00000000000E+00  0.00000000000E+00  0.13660420557E+03  0.13660420557E+03  0.00000000000E+00 0. -1.
         21   -1    0    0  501  502 -0.00000000000E+00 -0.00000000000E+00 -0.78576234816E+02  0.78576234816E+02  0.00000000000E+00 0.  1.
          2    1    1    2  501    0  0.55421987178E+01  0.22738898311E+02  0.13382296588E+03  0.13585418529E+03  0.00000000000E+00 0. -1.
         21    1    1    2  503  502 -0.55421987178E+01 -0.22738898311E+02 -0.75794995122E+02  0.79326255103E+02  0.00000000000E+00 0.  1.
</event>
<event>
 4    1  0.2229986E+005  0.2003220E+02  0.7546771E-02  0.1533544E+00
          2   -1    0    0  503    0  0.00000000000E+00  0.00000000000E+00  0.29540314818E+02  0.29540314818E+02  0.00000000000E+00 0.  1.
         21   -1    0    0  501  502 -0.00000000000E+00 -0.00000000000E+00 -0.31957024007E+02  0.31957024007E+02  0.00000000000E+00 0.  1.
          2    1    1    2  501    0  0.75692877605E+01 -0.18547101310E+02  0.22106252646E+02  0.29832456993E+02  0.00000000000E+00 0.  1.
         21    1    1    2  503  502 -0.75692877605E+01  0.18547101310E+02 -0.24522961835E+02  0.31664881831E+02  0.00000000000E+00 0.  1.
</event>
<event>
 4    1  0.2229986E+005  0.3468959E+02  0.7546771E-02  0.1382759E+00
          2   -1    0    0  502    0  0.00000000000E+00  0.00000000000E+00  0.12919826591E+04  0.12919826591E+04  0.00000000000E+00 0.  1.
         21   -1    0    0  503  502 -0.00000000000E+00 -0.00000000000E+00 -0.34285920606E+01  0.34285920606E+01  0.00000000000E+00 0. -1.
          2    1    1    2  501    0 -0.28002774601E+02 -0.20474677914E+02  0.11970473494E+04  0.11975498839E+04  0.00000000000E+00 0.  1.
         21    1    1    2  503  501  0.28002774601E+02  0.20474677914E+02  0.91506717642E+02  0.97861367222E+02  0.00000000000E+00 0. -1.
</event>
<event>
 4    1  0.2229986E+005  0.2095016E+02  0.7546771E-02  0.1519978E+00
          2   -1    0    0  503    0  0.00000000000E+00  0.00000000000E+00  0.16535400150E+04  0.16535400150E+04  0.00000000000E+00 0.  1.
         21   -1    0    0  501  502 -0.00000000000E+00 -0.00000000000E+00 -0.75602963978E+00  0.75602963978E+00  0.00000000000E+00 0. -1.
          2    1    1    2  501    0  0.20557798490E+02 -0.40355951330E+01  0.14926995905E+04  0.14928466018E+04  0.00000000000E+00 0.  1.
         21    1    1    2  503  502 -0.20557798490E+02  0.40355951330E+01  0.16008439485E+03  0.16144944281E+03  0.00000000000E+00 0. -1.
</event>
<event>
 4    1  0.2229986E+005  0.2403426E+02  0.7546771E-02  0.1479904E+00
          2   -1    0    0  502    0  0.00000000000E+00  0.00000000000E+00  0.61139951014E+03  0.61139951014E+03  0.00000000000E+00 0.  1.
         21   -1    0    0  503  502 -0.00000000000E+00 -0.00000000000E+00 -0.10200665581E+01  0.10200665581E+01  0.00000000000E+00 0.  1.
          2    1    1    2  501    0  0.26722441569E+01 -0.23885237647E+02  0.38837154753E+03  0.38911451322E+03  0.00000000000E+00 0.  1.
         21    1    1    2  503  501 -0.26722441569E+01  0.23885237647E+02  0.22200789605E+03  0.22330506348E+03  0.00000000000E+00 0.  1.
</event>
<event>
 4    1  0.2229986E+005  0.2201702E+02  0.7546771E-02  0.1505225E+00
          2   -1    0    0  502    0  0.00000000000E+00  0.00000000000E+00  0.26361709389E+03  0.26361709389E+03  0.00000000000E+00 0. -1.
         21   -1    0    0  503  502 -0.00000000000E+00 -0.00000000000E+00 -0.56504967108E+01  0.56504967108E+01  0.00000000000E+00 0. -1.
          2    1    1    2  501    0 -0.15783017563E+02 -0.15350753698E+02  0.23956104794E+03  0.24057066523E+03  0.00000000000E+00 0. -1.
         21    1    1    2  503  501  0.15783017563E+02  0.15350753698E+02  0.18405549237E+02  0.28696925362E+02  0.00000000000E+00 0. -1.
</event>
<event>
 4    1  0.2229986E+005  0.2849935E+02  0.7546771E-02  0.1433102E+00
          2   -1    0    0  502    0  0.00000000000E+00  0.00000000000E+00  0.12329468659E+04  0.12329468659E+04  0.00000000000E+00 0. -1.
         21   -1    0    0  503  502 -0.00000000000E+00 -0.00000000000E+00 -0.17516997035E+03  0.17516997035E+03  0.00000000000E+00 0. -1.
          2    1    1    2  501    0  0.52814799190E+01  0.28005693837E+02  0.12316217513E+04  0.12319514402E+04  0.00000000000E+00 0. -1.
         21    1    1    2  503  501 -0.52814799190E+01 -0.28005693837E+02 -0.17384485568E+03  0.17616539605E+03  0.00000000000E+00 0. -1.
</event>
<event>
 4    1  0.2229986E+005  0.2656152E+02  0.7546771E-02  0.1452063E+00
          2   -1    0    0  503    0  0.00000000000E+00  0.00000000000E+00  0.34265523696E+02  0.34265523696E+02  0.00000000000E+00 0.  1.
         21   -1    0    0  501  502 -0.00000000000E+00 -0.00000000000E+00 -0.25419145122E+02  0.25419145122E+02  0.00000000000E+00 0. -1.
          2    1    1    2  501    0 -0.15803053799E+01 -0.26514471835E+02  0.17430991379E+02  0.31770332737E+02  0.00000000000E+00 0.  1.
         21    1    1    2  503  502  0.15803053799E+01  0.26514471835E+02 -0.85846128053E+01  0.27914336080E+02  0.00000000000E+00 0. -1.
</event>
<event>
 4    1  0.2229986E+005  0.2037049E+02  0.7546771E-02  0.1528445E+00
          2   -1    0    0  503    0  0.00000000000E+00  0.00000000000E+00  0.23984738459E+03  0.23984738459E+03  0.00000000000E+00 0. -1.
         21   -1    0    0  501  502 -0.00000000000E+00 -0.00000000000E+00 -0.24872252770E+01  0.24872252770E+01  0.00000000000E+00 0.  1.
          2    1    1    2  501    0  0.16366117200E+02 -0.12128774011E+02  0.18553222636E+03  0.18664716437E+03  0.00000000000E+00 0. -1.
         21    1    1    2  503  502 -0.16366117200E+02  0.12128774011E+02  0.51827932953E+02  0.55687445492E+02  0.00000000000E+00 0.  1.
</event>
<event>
 4    1  0.2229986E+005  0.2909278E+02  0.7546771E-02  0.1427647E+00
          2   -1    0    0  503    0  0.00000000000E+00  0.00000000000E+00  0.23664093764E+04  0.23664093764E+04  0.00000000000E+00 0.  1.
         21   -1    0    0  501  502 -0.00000000000E+00 -0.00000000000E+00 -0.51055207532E+00  0.51055207532E+00  0.00000000000E+00 0. -1.
          2    1    1    2  501    0  0.93670312914E+01  0.27543571752E+02  0.18305604559E+04  0.18307916245E+04  0.00000000000E+00 0.  1.
         21    1    1    2  503  502 -0.93670312914E+01 -0.27543571752E+02  0.53533836841E+03  0.53612830396E+03  0.00000000000E+00 0. -1.
</event>
<event>
 4    1  0.2229986E+005  0.4441123E+02  0.7546771E-02  0.1324410E+00
          2   -1    0    0  503    0  0.00000000000E+00  0.00000000000E+00  0.10711136431E+04  0.10711136431E+04  0.00000000000E+00 0.  1.
         21   -1    0    0  501  502 -0.00000000000E+00 -0.00000000000E+00 -0.53575039752E+01  0.53575039752E+01  0.00000000000E+00 0. -1.
          2    1    1    2  501    0  0.14739603554E+02  0.41893930105E+02  0.96891322336E+03  0.96993050869E+03  0.00000000000E+00 0.  1.
         21    1    1    2  503  502 -0.14739603554E+02 -0.41893930105E+02  0.96842915744E+02  0.10654063836E+03  0.00000000000E+00 0. -1.
</event>
<event>
 4    1  0.2229986E+005  0.2324348E+02  0.7546771E-02  0.1489463E+00
          2   -1    0    0  503    0  0.00000000000E+00  0.00000000000E+00  0.91978327569E+01  0.91978327569E+01  0.00000000000E+00 0. -1.
         21   -1    0    0  501  502 -0.00000000000E+00 -0.00000000000E+00 -0.28565930796E+03  0.28565930796E+03  0.00000000000E+00 0.  1.
          2    1    1    2  501    0  0.25091917516E+01 -0.23107650636E+02 -0.68307306125E+01  0.24226399688E+02  0.00000000000E+00 0. -1.
         21    1    1    2  503  502 -0.25091917516E+01  0.23107650636E+02 -0.26963074459E+03  0.27063074103E+03  0.00000000000E+00 0.  1.
</event>
<event>
 4    1  0.2229986E+005  0.4010561E+02  0.7546771E-02  0.1347868E+00
          2   -1    0    0  502    0  0.00000000000E+00  0.00000000000E+00  0.12879227112E+03  0.12879227112E+03  0.00000000000E+00 0.  1.
         21   -1    0    0  503  502 -0.00000000000E+00 -0.00000000000E+00 -0.43661783068E+03  0.43661783068E+03  0.00000000000E+00 0.  1.
          2    1    1    2  501    0  0.41483939157E+01  0.39890487765E+02  0.12471976211E+03  0.13100946243E+03  0.00000000000E+00 0.  1.
         21    1    1    2  503  501 -0.41483939157E+01 -0.39890487765E+02 -0.43254532167E+03  0.43440063937E+03  0.00000000000E+00 0.  1.
</event>
<event>
 4    1  0.2229986E+005  0.4666977E+02  0.7546771E-02  0.1313295E+00
          2   -1    0    0  503    0  0.00000000000E+00  0.00000000000E+00  0.24707969066E+03  0.24707969066E+03  0.00000000000E+00 0.  1.
         21   -1    0    0  501  502 -0.00000000000E+00 -0.00000000000E+00 -0.98950455625E+01  0.98950455625E+01  0.00000000000E+00 0.  1.
          2    1    1    2  501    0 -0.15710292048E+02 -0.43946035079E+02  0.16103706522E+03  0.16766336406E+03  0.00000000000E+00 0.  1.
         21    1    1    2  503  502  0.15710292048E+02  0.43946035079E+02  0.76147579887E+02  0.89311372165E+02  0.00000000000E+00 0.  1.
</event>
<event>
 4    1  0.2229986E+005  0.2779294E+02  0.7546771E-02  0.1439801E+00
          2   -1    0    0  503    0  0.00000000000E+00  0.00000000000E+00  0.28882279577E+02  0.28882279577E+02  0.00000000000E+00 0. -1.
         21   -1    0    0  501  502 -0.00000000000E+00 -0.00000000000E+00 -0.27752477844E+02  0.27752477844E+02  0.00000000000E+00 0. -1.
          2    1    1    2  501    0  0.17245200845E+02 -0.21795660011E+02  0.59610721548E+01  0.28425026451E+02  0.00000000000E+00 0. -1.
         21    1    1    2  503  502 -0.17245200845E+02  0.21795660011E+02 -0.48312704221E+01  0.28209730970E+02  0.00000000000E+00 0. -1.
</event>
<event>
 4    1  0.2229986E+005  0.2107315E+02  0.7546771E-02  0.1518223E+00
          2   -1    0    0  503    0  0.00000000000E+00  0.00000000000E+00  0.61986900111E+01  0.61986900111E+01  0.00000000000E+00 0.  1.
         21   -1    0    0  501  502 -0.00000000000E+00 -0.00000000000E+00 -0.38945325394E+03  0.38945325394E+03  0.00000000000E+00 0. -1.
          2    1    1    2  501    0 -0.27209406052E+01  0.20896745628E+02 -0.12920401508E+02  0.24718702853E+02  0.00000000000E+00 0.  1.
         21    1    1    2  503  502  0.27209406052E+01 -0.20896745628E+02 -0.37033416242E+03  0.37093324110E+03  0.00000000000E+00 0. -1.
</event>
<event>
 4    1  0.2229986E+005  0.3309029E+02  0.7546771E-02  0.1394510E+00
          2   -1    0    0  503    0  0.00000000000E+00  0.00000000000E+00  0.36275904919E+03  0.36275904919E+03  0.00000000000E+00 0. -1.
         21   -1    0    0  501  502 -0.00000000000E+00 -0.00000000000E+00 -0.51462204230E+01  0.51462204230E+01  0.00000000000E+00 0. -1.
          2    1    1    2  501    0 -0.30485422483E+02  0.12868811202E+02  0.29709013664E+03  0.29892727639E+03  0.00000000000E+00 0. -1.
         21    1    1    2  503  502  0.30485422483E+02 -0.12868811202E+02  0.60522692129E+02  0.68977993217E+02  0.00000000000E+00 0. -1.
</event>
<event>
 4    1  0.2229986E+005  0.2017592E+02  0.7546771E-02  0.1531363E+00
          2   -1    0    0  503    0  0.00000000000E+00  0.00000000000E+00  0.13466636151E+04  0.13466636151E+04  0.00000000000E+00 0.  1.
         21   -1    0    0  501  502 -0.00000000000E+00 -0.00000000000E+00 -0.82331377589E+01  0.82331377589E+01  0.00000000000E+00 0. -1.
          2    1    1    2  501    0  0.19892511426E+02 -0.33698095409E+01  0.13341111054E+04  0.13342636581E+04  0.00000000000E+00 0.  1.
         21    1    1    2  503  502 -0.19892511426E+02  0.33698095409E+01  0.43193719271E+01  0.20633094800E+02  0.00000000000E+00 0. -1.
</event>
<event>
 4    1  0.2229986E+005  0.2279294E+02  0.7546771E-02  0.1495115E+00
          2   -1    0    0  503    0  0.00000000000E+00  0.00000000000E+00  0.59239474196E+02  0.59239474196E+02  0.00000000000E+00 0. -1.
         21   -1    0    0  501  502 -0.00000000000E+00 -0.00000000000E+00 -0.92838837578E+01  0.92838837578E+01  0.00000000000E+00 0. -1.
          2    1    1    2  501    0  0.20715751191E+01 -0.22698604896E+02  0.33040161796E+02  0.40139386881E+02  0.00000000000E+00 0. -1.
         21    1    1    2  503  502 -0.20715751191E+01  0.22698604896E+02  0.16915428642E+02  0.28383971073E+02  0.00000000000E+00 0. -1.
</event>
<event>
 4    1  0.2229986E+005  0.2483434E+02  0.7546771E-02  0.1470665E+00
          2   -1    0    0  502    0  0.00000000000E+00  0.00000000000E+00  0.25439680482E+03  0.25439680482E+03  0.00000000000E+00 0. -1.
         21   -1    0    0  503  502 -0.00000000000E+00 -0.00000000000E+00 -0.31539390498E+01  0.31539390498E+01  0.00000000000E+00 0. -1.
          2    1    1    2  501    0  0.27112022752E+01  0.24685905681E+02  0.18755813143E+03  0.18919513002E+03  0.00000000000E+00 0. -1.
         21    1    1    2  503  501 -0.27112022752E+01 -0.24685905681E+02  0.63684734341E+02  0.68355613853E+02  0.00000000000E+00 0. -1.
</event>
<event>
 4    1  0.2229986E+005  0.4470288E+02  0.7546771E-02  0.1322932E+00
          2   -1    0    0  503    0  0.00000000000E+00  0.00000000000E+00  0.11962113740E+04  0.11962113740E+04  0.00000000000E+00 0. -1.
         21   -1    0    0  501  502 -0.00000000000E+00 -0.00000000000E+00 -0.11279279497E+02  0.11279279497E+02  0.00000000000E+00 0.  1.
          2    1    1    2  501    0 -0.44646122083E+02  0.22519945486E+01  0.11497105201E+04  0.11505792574E+04  0.00000000000E+00 0. -1.
         21    1    1    2  503  502  0.44646122083E+02 -0.22519945486E+01  0.35221574459E+02  0.56911396081E+02  0.00000000000E+00 0.  1.
</event>
<event>
 4    1  0.2229986E+005  0.2065660E+02  0.7546771E-02  0.1524225E+00
          2   -1    0    0  503    0  0.00000000000E+00  0.00000000000E+00  0.11370720296E+04  0.11370720296E+04  0.00000000000E+00 0.  1.
         21   -1    0    0  501  502 -0.00000000000E+00 -0.00000000000E+00 -0.29382657102E+01  0.29382657102E+01  0.00000000000E+00 0.  1.
          2    1    1    2  501    0  0.14248644234E+02  0.14955636372E+02  0.10994303363E+04  0.10996243719E+04  0.00000000000E+00 0.  1.
         21    1    1    2  503  502 -0.14248644234E+02 -0.14955636372E+02  0.34703427536E+02  0.40385923347E+02  0.00000000000E+00 0.  1.
</event>
<event>
 4    1  0.2229986E+005  0.3558740E+02  0.7546771E-02  0.1376480E+00
          2   -1    0    0  502    0  0.00000000000E+00  0.00000000000E+00  0.11733413917E+04  0.11733413917E+04  0.00000000000E+00 0.  1.
         21   -1    0    0  503  502 -0.00000000000E+00 -0.00000000000E+00 -0.60452819009E+01  0.60452819009E+01  0.00000000000E+00 0. -1.
          2    1    1    2  501    0  0.35512006811E+02  0.23152108333E+01  0.11181111170E+04  0.11186773140E+04  0.00000000000E+00 0.  1.
         21    1    1    2  503  501 -0.35512006811E+02 -0.23152108333E+01  0.49184992738E+02  0.60709359571E+02  0.00000000000E+00 0. -1.
</event>
<event>
 4    1  0.2229986E+005  0.2851073E+02  0.7546771E-02  0.1432995E+00
          2   -1    0    0  502    0  0.00000000000E+00  0.00000000000E+00  0.68153394588E+03  0.68153394588E+03  0.00000000000E+00 0.  1.
         21   -1    0    0  503  502 -0.00000000000E+00 -0.00000000000E+00 -0.18275078595E+01  0.18275078595E+01  0.00000000000E+00 0. -1.
          2    1    1    2  501    0  0.23377097980E+02  0.16320945357E+02  0.54123204049E+03  0.54198245693E+03  0.00000000000E+00 0.  1.
         21    1    1    2  503  501 -0.23377097980E+02 -0.16320945357E+02  0.13847439754E+03  0.14137899681E+03  0.00000000000E+00 0. -1.
</event>
<event>
 4    1  0.2229986E+005  0.2321586E+02  0.7546771E-02  0.1489805E+00
          2   -1    0    0  503    0  0.00000000000E+00  0.00000000000E+00  0.72953943733E+03  0.72953943733E+03  0.00000000000E+00 0. -1.
         21   -1    0    0  501  502 -0.00000000000E+00 -0.00000000000E+00 -0.68299455530E+01  0.68299455530E+01  0.00000000000E+00 0.  1.
          2    1    1    2  501    0  0.16186138562E+02  0.16642863551E+02  0.70905657376E+03  0.70943653752E+03  0.00000000000E+00 0. -1.
         21    1    1    2  503  502 -0.16186138562E+02 -0.16642863551E+02  0.13652918025E+02  0.26932845362E+02  0.00000000000E+00 0.  1.
</event>
<event>
 4    1  0.2229986E+005  0.2229485E+02  0.7546771E-02  0.1501548E+00
          2   -1    0    0  502    0  0.00000000000E+00  0.00000000000E+00  0.30442001429E+03  0.30442001429E+03  0.00000000000E+00 0.  1.
         21   -1    0    0  503  502 -0.00000000000E+00 -0.00000000000E+00 -0.71249050880E+01  0.71249050880E+01  0.00000000000E+00 0.  1.
          2    1    1    2  501    0  0.11756376642E+02 -0.18943279608E+02  0.28541103208E+03  0.28628048741E+03  0.00000000000E+00 0.  1.
         21    1    1    2  503  501 -0.11756376642E+02  0.18943279608E+02  0.11884077123E+02  0.25264431977E+02  0.00000000000E+00 0.  1.
</event>
<event>
 4    1  0.2229986E+005  0.3159024E+02  0.7546771E-02  0.1406263E+00
          2   -1    0    0  503    0  0.00000000000E+00  0.00000000000E+00  0.47060458371E+03  0.47060458371E+03  0.00000000000E+00 0.  1.
         21   -1    0    0  501  502 -0.00000000000E+00 -0.00000000000E+00 -0.29799547874E+01  0.29799547874E+01  0.00000000000E+00 0.  1.
          2    1    1    2  501    0 -0.95001079641E+01 -0.30127917798E+02  0.36097508810E+03  0.36235474015E+03  0.00000000000E+00 0.  1.
         21    1    1    2  503  502  0.95001079641E+01  0.30127917798E+02  0.10664954083E+03  0.11122979835E+03  0.00000000000E+00 0.  1.
</event>
<event>
 4    1  0.2229986E+005  0.2461333E+02  0.7546771E-02  0.1473176E+00
          2   -1    0    0  503    0  0.00000000000E+00  0.00000000000E+00  0.73420825235E+03  0.73420825235E+03  0.00000000000E+00 0. -1.
         21   -1    0    0  501  502 -0.00000000000E+00 -0.00000000000E+00 -0.16375587732E+02  0.16375587732E+02  0.00000000000E+00 0. -1.
          2    1    1    2  501    0  0.12973124081E+02  0.20916841158E+02  0.72463099669E+03  0.72504889322E+03  0.00000000000E+00 0. -1.
         21    1    1    2  503  502 -0.12973124081E+02 -0.20916841158E+02 -0.67983320715E+01  0.25534946865E+02  0.00000000000E+00 0. -1.
</event>
<event>
 4    1  0.2229986E+005  0.3021036E+02  0.7546771E-02  0.1417777E+00
          2   -1    0    0  503    0  0.00000000000E+00  0.00000000000E+00  0.30745827292E+03  0.30745827292E+03  0.00000000000E+00 0.  1.
         21   -1    0    0  501  502 -0.00000000000E+00 -0.00000000000E+00 -0.30332023610E+01  0.30332023610E+01  0.00000000000E+00 0.  1.
          2    1    1    2  501    0  0.47807715599E+01 -0.29829681707E+02  0.17490036777E+03  0.17749029364E+03  0.00000000000E+00 0.  1.
         21    1    1    2  503  502 -0.47807715599E+01  0.29829681707E+02  0.12952470278E+03  0.13300118164E+03  0.00000000000E+00 0.  1.
</event>
<event>
 4    1  0.2229986E+005  0.2351075E+02  0.7546771E-02  0.1486182E+00
          2   -1    0    0  502    0  0.00000000000E+00  0.00000000000E+00  0.22209193605E+03  0.22209193605E+03  0.00000000000E+00 0. -1.
         21   -1    0    0  503  502 -0.00000000000E+00 -0.00000000000E+00 -0.13747350343E+02  0.13747350343E+02  0.00000000000E+00 0. -1.
          2    1    1    2  501    0  0.62171800692E+01 -0.22673816353E+02  0.21088515688E+03  0.21219166965E+03  0.00000000000E+00 0. -1.
         21    1    1    2  503  501 -0.62171800692E+01  0.22673816353E+02 -0.25405711685E+01  0.23647616749E+02  0.00000000000E+00 0. -1.
</event>
<event>
 4    1  0.2229986E+005  0.2670933E+02  0.7546771E-02  0.1450550E+00
          2   -1    0    0  502    0  0.00000000000E+00  0.00000000000E+00  0.10358340408E+04  0.10358340408E+04  0.00000000000E+00 0.  1.
         21   -1    0    0  503  502 -0.00000000000E+00 -0.00000000000E+00 -0.25825525582E+02  0.25825525582E+02  0.00000000000E+00 0. -1.
          2    1    1    2  501    0  0.26695388769E+02 -0.86274258078E+00  0.10287081919E+04  0.10290548732E+04  0.00000000000E+00 0.  1.
         21    1    1    2  503  501 -0.26695388769E+02  0.86274258078E+00 -0.18699676673E+02  0.32604693128E+02  0.00000000000E+00 0. -1.
</event>
<event>
 4    1  0.2229986E+005  0.5655264E+02  0.7546771E-02  0.1272018E+00
          2   -1    0    0  503    0  0.00000000000E+00  0.00000000000E+00  0.38229129783E+03  0.38229129783E+03  0.00000000000E+00 0.  1.
         21   -1    0    0  501  502 -0.00000000000E+00 -0.00000000000E+00 -0.92997971822E+02  0.92997971822E+02  0.00000000000E+00 0.  1.
          2    1    1    2  501    0 -0.42145828359E+02 -0.37708487782E+02  0.37135047766E+03  0.37563197169E+03  0.00000000000E+00 0.  1.
         21    1    1    2  503  502  0.42145828359E+02  0.37708487782E+02 -0.82057151654E+02  0.99657297958E+02  0.00000000000E+00 0.  1.
</event>
<event>
 4    1  0.2229986E+005  0.2093658E+02  0.7546771E-02  0.1520172E+00
          2   -1    0    0  503    0  0.00000000000E+00  0.00000000000E+00  0.41165251936E+03  0.41165251936E+03  0.00000000000E+00 0.  1.
         21   -1    0    0  501  502 -0.00000000000E+00 -0.00000000000E+00 -0.11093317302E+01  0.11093317302E+01  0.00000000000E+00 0.  1.
          2    1    1    2  501    0 -0.48842101723E+01  0.20358906285E+02  0.16393640609E+03  0.16526792132E+03  0.00000000000E+00 0.  1.
         21    1    1    2  503  502  0.48842101723E+01 -0.20358906285E+02  0.24660678154E+03  0.24749392977E+03  0.00000000000E+00 0.  1.
</event>
<event>
 4    1  0.2229986E+005  0.2416583E+02  0.7546771E-02  0.1478356E+00
          2   -1    0    0  503    0  0.00000000000E+00  0.00000000000E+00  0.24149055577E+03  0.24149055577E+03  0.00000000000E+00 0.  1.
         21   -1    0    0  501  502 -0.00000000000E+00 -0.00000000000E+00 -0.59621255837E+01  0.59621255837E+01  0.00000000000E+00 0.  1.
          2    1    1    2  501    0 -0.22306580054E+02  0.92953693192E+01  0.21315361446E+03  0.21451911515E+03  0.00000000000E+00 0.  1.
         21    1    1    2  503  502  0.22306580054E+02 -0.92953693192E+01  0.22374815723E+02  0.32933566207E+02  0.00000000000E+00 0.  1.
</event>
<event>
 4    1  0.2229986E+005  0.2033592E+02  0.7546771E-02  0.1528961E+00
          2   -1    0    0  503    0  0.00000000000E+00  0.00000000000E+00  0.43765260213E+03  0.43765260213E+03  0.00000000000E+00 0.  1.
         21   -1    0    0  501  502 -0.00000000000E+00 -0.00000000000E+00 -0.13541850904E+01  0.13541850904E+01  0.00000000000E+00 0.  1.
          2    1    1    2  501    0 -0.18553324067E+02  0.83260840419E+01  0.33881972347E+03  0.33942945441E+03  0.00000000000E+00 0.  1.
         21    1    1    2  503  502  0.18553324067E+02 -0.83260840419E+01  0.97478693561E+02  0.99577332801E+02  0.00000000000E+00 0.  1.
</event>
<event>
 4    1  0.2229986E+005  0.2641071E+02  0.7546771E-02  0.1453619E+00
          2   -1    0    0  503    0  0.00000000000E+00  0.00000000000E+00  0.12046229269E+04  0.12046229269E+04  0.00000000000E+00 0. -1.
         21   -1    0    0  501  502 -0.00000000000E+00 -0.00000000000E+00 -0.46174448516E+01  0.46174448516E+01  0.00000000000E+00 0. -1.
          2    1    1    2  501    0 -0.12104613962E+02  0.23473474712E+02  0.11654429315E+04  0.11657421466E+04  0.00000000000E+00 0. -1.
         21    1    1    2  503  502  0.12104613962E+02 -0.23473474712E+02  0.34562550559E+02  0.43498225198E+02  0.00000000000E+00 0. -1.
</event>
<event>
 4    1  0.2229986E+005  0.2015191E+02  0.7546771E-02  0.1531726E+00
          2   -1    0    0  503    0  0.00000000000E+00  0.00000000000E+00  0.12196868673E+04  0.12196868673E+04  0.00000000000E+00 0. -1.
         21   -1    0    0  501  502 -0.00000000000E+00 -0.00000000000E+00 -0.55701262085E+00  0.55701262085E+00  0.00000000000E+00 0. -1.
          2    1    1    2  501    0  0.19218152484E+02  0.60631608752E+01  0.99652415312E+03  0.99672789018E+03  0.00000000000E+00 0. -1.
         21    1    1    2  503  502 -0.19218152484E+02 -0.60631608752E+01  0.22260570159E+03  0.22351598977E+03  0.00000000000E+00 0. -1.
</event>
<event>
 4    1  0.2229986E+005  0.2493891E+02  0.7546771E-02  0.1469488E+00
          2   -1    0    0  502    0  0.00000000000E+00  0.00000000000E+00  0.11859504647E+04  0.11859504647E+04  0.00000000000E+00 0.  1.
         21   -1    0    0  503  502 -0.00000000000E+00 -0.00000000000E+00 -0.91022552943E+01  0.91022552943E+01  0.00000000000E+00 0.  1.
          2    1    1    2  501    0 -0.23456511501E+02 -0.84700259420E+01  0.11684817219E+04  0.11687478272E+04  0.00000000000E+00 0.  1.
         21    1    1    2  503  501  0.23456511501E+02  0.84700259420E+01  0.83664875563E+01  0.26304892802E+02  0.00000000000E+00 0.  1.
</event>
<event>
 4    1  0.2229986E+005  0.2277050E+02  0.7546771E-02  0.1495400E+00
          2   -1    0    0  503    0  0.00000000000E+00  0.00000000000E+00  0.31035300451E+03  0.31035300451E+03  0.00000000000E+00 0. -1.
         21   -1    0    0  501  502 -0.00000000000E+00 -0.00000000000E+00 -0.40070872166E+03  0.40070872166E+03  0.00000000000E+00 0.  1.
          2    1    1    2  501    0 -0.17734018479E+02 -0.14282860196E+02  0.30961107791E+03  0.31044728228E+03  0.00000000000E+00 0. -1.
         21    1    1    2  503  502  0.17734018479E+02  0.14282860196E+02 -0.39996679506E+03  0.40061444390E+03  0.00000000000E+00 0.  1.
</event>
<event>
 4    1  0.2229986E+005  0.2158984E+02  0.7546771E-02  0.1511008E+00
          2   -1    0    0  502    0  0.00000000000E+00  0.00000000000E+00  0.10460051321E+03  0.10460051321E+03  0.00000000000E+00 0.  1.
         21   -1    0    0  503  502 -0.00000000000E+00 -0.00000000000E+00 -0.20910383507E+03  0.20910383507E+03  0.00000000000E+00 0.  1.
          2    1    1    2  501    0  0.18750862197E+02  0.10701693813E+02  0.10292017772E+03  0.10516027798E+03  0.00000000000E+00 0.  1.
         21    1    1    2  503  501 -0.18750862197E+02 -0.10701693813E+02 -0.20742349957E+03  0.20854407030E+03  0.00000000000E+00 0.  1.
</event>
<event>
 4    1  0.2229986E+005  0.2943690E+02  0.7546771E-02  0.1424554E+00
          2   -1    0    0  503    0  0.00000000000E+00  0.00000000000E+00  0.10740659027E+04  0.10740659027E+04  0.00000000000E+00 0.  1.
         21   -1    0    0  501  502 -0.00000000000E+00 -0.00000000000E+00 -0.43291344677E+01  0.43291344677E+01  0.00000000000E+00 0. -1.
          2    1    1    2  501    0  0.23244975550E+02 -0.18061073511E+02  0.10212353662E+04  0.10216595345E+04  0.00000000000E+00 0.  1.
         21    1    1    2  503  502 -0.23244975550E+02  0.18061073511E+02  0.48501402108E+02  0.56735502740E+02  0.00000000000E+00 0. -1.
</event>
<event>
 4    1  0.2229986E+005  0.2182301E+02  0.7546771E-02  0.1507831E+00
          2   -1    0    0  503    0  0.00000000000E+00  0.00000000000E+00  0.72550136828E+03  0.72550136828E+03  0.00000000000E+00 0. -1.
         21   -1    0    0  501  502 -0.00000000000E+00 -0.00000000000E+00 -0.90721039805E+01  0.90721039805E+01  0.00000000000E+00 0. -1.
          2    1    1    2  501    0 -0.12146238552E+02 -0.18130432847E+02  0.71196392920E+03  0.71229830843E+03  0.00000000000E+00 0. -1.
         21    1    1    2  503  502  0.12146238552E+02  0.18130432847E+02  0.44653350982E+01  0.22275163832E+02  0.00000000000E+00 0. -1.
</event>
<event>
 4    1  0.2229986E+005  0.4093813E+02  0.7546771E-02  0.1343074E+00
          2   -1    0    0  502    0  0.00000000000E+00  0.00000000000E+00  0.77452207101E+02  0.77452207101E+02  0.00000000000E+00 0. -1.
         21   -1    0    0  503  502 -0.00000000000E+00 -0.00000000000E+00 -0.33489374311E+03  0.33489374311E+03  0.00000000000E+00 0.  1.
          2    1    1    2  501    0 -0.30849826136E+02  0.26911316028E+02  0.70680338732E+02  0.81680113775E+02  0.00000000000E+00 0. -1.
         21    1    1    2  503  501  0.30849826136E+02 -0.26911316028E+02 -0.32812187474E+03  0.33066583644E+03  0.00000000000E+00 0.  1.
</event>
<event>
 4    1  0.2229986E+005  0.2745407E+02  0.7546771E-02  0.1443099E+00
          2   -1    0    0  503    0  0.00000000000E+00  0.00000000000E+00  0.20506469310E+02  0.20506469310E+02  0.00000000000E+00 0. -1.
         21   -1    0    0  501  502 -0.00000000000E+00 -0.00000000000E+00 -0.45206373222E+02  0.45206373222E+02  0.00000000000E+00 0. -1.
          2    1    1    2  501    0 -0.23107305769E+02 -0.14824926040E+02  0.18560090354E+01  0.27516736389E+02  0.00000000000E+00 0. -1.
         21    1    1    2  503  502  0.23107305769E+02  0.14824926040E+02 -0.26555912948E+02  0.38196106143E+02  0.00000000000E+00 0. -1.
</event>
<event>
 4    1  0.2229986E+005  0.2187769E+02  0.7546771E-02  0.1507093E+00
          2   -1    0    0  502    0  0.00000000000E+00  0.00000000000E+00  0.19197239297E+03  0.19197239297E+03  0.00000000000E+00 0. -1.
         21   -1    0    0  503  502 -0.00000000000E+00 -0.00000000000E+00 -0.25023293275E+01  0.25023293275E+01  0.00000000000E+00 0. -1.
          2    1    1    2  501    0  0.20501655517E+02  0.76364675756E+01  0.10059497743E+03  0.10294650552E+03  0.00000000000E+00 0. -1.
         21    1    1    2  503  501 -0.20501655517E+02 -0.76364675756E+01  0.88875086213E+02  0.91528216771E+02  0.00000000000E+00 0. -1.
</event>
<event>
 4    1  0.2229986E+005  0.2341902E+02  0.7546771E-02  0.1487302E+00
          2   -1    0    0  502    0  0.00000000000E+00  0.00000000000E+00  0.12122516338E+04  0.12122516338E+04  0.00000000000E+00 0.  1.
         21   -1    0    0  503  502 -0.00000000000E+00 -0.00000000000E+00 -0.14139620273E+01  0.14139620273E+01  0.00000000000E+00 0.  1.
          2    1    1    2  501    0 -0.16627786143E+02  0.16491426363E+02  0.11058376736E+04  0.11060856254E+04  0.00000000000E+00 0.  1.
         21    1    1    2  503  501  0.16627786143E+02 -0.16491426363E+02  0.10499999812E+03  0.10757997035E+03  0.00000000000E+00 0.  1.
</event>
<event>
 4    1  0.2229986E+005  0.2391509E+02  0.7546771E-02  0.1481316E+00
          2   -1    0    0  502    0  0.00000000000E+00  0.00000000000E+00  0.84507541061E+02  0.84507541061E+02  0.00000000000E+00 0.  1.
         21   -1    0    0  503  502 -0.00000000000E+00 -0.00000000000E+00 -0.88489903221E+02  0.88489903221E+02  0.00000000000E+00 0. -1.
          2    1    1    2  501    0  0.23339517202E+02 -0.52152283550E+01  0.81133989771E+02  0.84585199451E+02  0.00000000000E+00 0.  1.
         21    1    1    2  503  501 -0.23339517202E+02  0.52152283550E+01 -0.85116351931E+02  0.88412244831E+02  0.00000000000E+00 0. -1.
</event>
<event>
 4    1  0.2229986E+005  0.2588723E+02  0.7546771E-02  0.1459118E+00
          2   -1    0    0  502    0  0.00000000000E+00  0.00000000000E+00  0.45329577268E+03  0.45329577268E+03  0.00000000000E+00 0.  1.
         21   -1    0    0  503  502 -0.00000000000E+00 -0.00000000000E+00 -0.20889948855E+01  0.20889948855E+01  0.00000000000E+00 0.  1.
          2    1    1    2  501    0  0.23712457253E+02 -0.10385956599E+02  0.34870375264E+03  0.34966334642E+03  0.00000000000E+00 0.  1.
         21    1    1    2  503  501 -0.23712457253E+02  0.10385956599E+02  0.10250302515E+03  0.10572142114E+03  0.00000000000E+00 0.  1.
</event>
<event>
 4    1  0.2229986E+005  0.2041370E+02  0.7546771E-02  0.1527803E+00
          2   -1    0    0  503    0  0.00000000000E+00  0.00000000000E+00  0.10798411193E+04  0.10798411193E+04  0.00000000000E+00 0.  1.
         21   -1    0    0  501  502 -0.00000000000E+00 -0.00000000000E+00 -0.16054115025E+01  0.16054115025E+01  0.00000000000E+00 0.  1.
          2    1    1    2  501    0  0.86752506551E+01  0.18478614098E+02  0.10103917943E+04  0.10105979899E+04  0.00000000000E+00 0.  1.
         21    1    1    2  503  502 -0.86752506551E+01 -0.18478614098E+02  0.67843913529E+02  0.70848540958E+02  0.00000000000E+00 0.  1.
</event>
<event>
 4    1  0.2229986E+005  0.2236439E+02  0.7546771E-02  0.1500638E+00
          2   -1    0    0  503    0  0.00000000000E+00  0.00000000000E+00  0.40744450813E+03  0.40744450813E+03  0.00000000000E+00 0. -1.
         21   -1    0    0  501  502 -0.00000000000E+00 -0.00000000000E+00 -0.17620830633E+01  0.17620830633E+01  0.00000000000E+00 0. -1.
          2    1    1    2  501    0  0.21575071728E+02  0.58891571711E+01  0.90152774687E+02  0.92885352322E+02  0.00000000000E+00 0. -1.
         21    1    1    2  503  502 -0.21575071728E+02 -0.58891571711E+01  0.31552965038E+03  0.31632123887E+03  0.00000000000E+00 0. -1.
</event>
<event>
 4    1  0.2229986E+005  0.3331305E+02  0.7546771E-02  0.1392827E+00
          2   -1    0    0  503    0  0.00000000000E+00  0.00000000000E+00  0.44409628831E+03  0.44409628831E+03  0.00000000000E+00 0.  1.
         21   -1    0    0  501  502 -0.00000000000E+00 -0.00000000000E+00 -0.28924021814E+01  0.28924021814E+01  0.00000000000E+00 0.  1.
          2    1    1    2  501    0 -0.30125895689E+02  0.14219337091E+02  0.30303514472E+03  0.30486071914E+03  0.00000000000E+00 0.  1.
         21    1    1    2  503  502  0.30125895689E+02 -0.14219337091E+02  0.13816874141E+03  0.14212797136E+03  0.00000000000E+00 0.  1.
</event>
<event>
 4    1  0.2229986E+005  0.2766866E+02  0.7546771E-02  0.1441004E+00
          2   -1    0    0  503    0  0.00000000000E+00  0.00000000000E+00  0.68689102496E+03  0.68689102496E+03  0.00000000000E+00 0. -1.
         21   -1    0    0  501  502 -0.00000000000E+00 -0.00000000000E+00 -0.56184604326E+01  0.56184604326E+01  0.00000000000E+00 0. -1.
          2    1    1    2  501    0  0.13795999246E+01  0.27634247574E+02  0.65065170920E+03  0.65123974204E+03  0.00000000000E+00 0. -1.
         21    1    1    2  503  502 -0.13795999246E+01 -0.27634247574E+02  0.30620855326E+02  0.41269743346E+02  0.00000000000E+00 0. -1.
</event>
<event>
 4    1  0.2229986E+005  0.6493353E+02  0.7546771E-02  0.1243933E+00
          2   -1    0    0  503    0  0.00000000000E+00  0.00000000000E+00  0.20183330261E+04  0.20183330261E+04  0.00000000000E+00 0.  1.
         21   -1    0    0  501  502 -0.00000000000E+00 -0.00000000000E+00 -0.23056684520E+01  0.23056684520E+01  0.00000000000E+00 0.  1.
          2    1    1    2  501    0  0.33917512624E+02 -0.55371157275E+02  0.69832467258E+03  0.70133708803E+03  0.00000000000E+00 0.  1.
         21    1    1    2  503  502 -0.33917512624E+02  0.55371157275E+02  0.13177026851E+04  0.13193016066E+04  0.00000000000E+00 0.  1.
</event>
<event>
 4    1  0.2229986E+005  0.2699886E+02  0.7546771E-02  0.1447620E+00
          2   -1    0    0  503    0  0.00000000000E+00  0.00000000000E+00  0.42157702089E+02  0.42157702089E+02  0.00000000000E+00 0. -1.
         21   -1    0    0  501  502 -0.00000000000E+00 -0.00000000000E+00 -0.18778153804E+02  0.18778153804E+02  0.00000000000E+00 0. -1.
          2    1    1    2  501    0  0.26430112373E+02  0.55124714155E+01  0.20264718010E+02  0.33757917252E+02  0.00000000000E+00 0. -1.
         21    1    1    2  503  502 -0.26430112373E+02 -0.55124714155E+01  0.31148302757E+01  0.27177938641E+02  0.00000000000E+00 0. -1.
</event>
<event>
 4    1  0.2229986E+005  0.2182199E+02  0.7546771E-02  0.1507845E+00
          2   -1    0    0  503    0  0.00000000000E+00  0.00000000000E+00  0.65191181974E+03  0.65191181974E+03  0.00000000000E+00 0.  1.
         21   -1    0    0  501  502 -0.00000000000E+00 -0.00000000000E+00 -0.18833987558E+02  0.18833987558E+02  0.00000000000E+00 0.  1.
          2    1    1    2  501    0  0.20007137783E+02  0.87128537498E+01  0.64534387883E+03  0.64571272353E+03  0.00000000000E+00 0.  1.
         21    1    1    2  503  502 -0.20007137783E+02 -0.87128537498E+01 -0.12266046646E+02  0.25033083771E+02  0.00000000000E+00 0.  1.
</event>
<event>
 4    1  0.2229986E+005  0.3360048E+02  0.7546771E-02  0.1390678E+00
          2   -1    0    0  502    0  0.00000000000E+00  0.00000000000E+00  0.11544144056E+04  0.11544144056E+04  0.00000000000E+00 0. -1.
         21   -1    0    0  503  502 -0.00000000000E+00 -0.00000000000E+00 -0.13453125846E+01  0.13453125846E+01  0.00000000000E+00 0.  1.
          2    1    1    2  501    0  0.32020443863E+02  0.10182497068E+02  0.87849966143E+03  0.87914199491E+03  0.00000000000E+00 0. -1.
         21    1    1    2  503  501 -0.32020443863E+02 -0.10182497068E+02  0.27456943161E+03  0.27661772330E+03  0.00000000000E+00 0.  1.
</event>
<event>
 4    1  0.2229986E+005  0.2489419E+02  0.7546771E-02  0.1469991E+00
          2   -1    0    0  503    0  0.00000000000E+00  0.00000000000E+00  0.20551516439E+04  0.20551516439E+04  0.00000000000E+00 0.  1.
         21   -1    0    0  501  502 -0.00000000000E+00 -0.00000000000E+00 -0.40638846280E+00  0.40638846280E+00  0.00000000000E+00 0. -1.
          2    1    1    2  501    0 -0.17267139920E+02 -0.17932277781E+02  0.15494077641E+04  0.15496077375E+04  0.00000000000E+00 0.  1.
         21    1    1    2  503  502  0.17267139920E+02  0.17932277781E+02  0.50533749134E+03  0.50595029486E+03  0.00000000000E+00 0. -1.
</event>
<event>
 4    1  0.2229986E+005  0.3646614E+02  0.7546771E-02  0.1370539E+00
          2   -1    0    0  502    0  0.00000000000E+00  0.00000000000E+00  0.30684490281E+03  0.30684490281E+03  0.00000000000E+00 0.  1.
         21   -1    0    0  503  502 -0.00000000000E+00 -0.00000000000E+00 -0.22659855233E+02  0.22659855233E+02  0.00000000000E+00 0.  1.
          2    1    1    2  501    0  0.31247362536E+02 -0.18798440831E+02  0.29025512884E+03  0.29253686753E+03  0.00000000000E+00 0.  1.
         21    1    1    2  503  501 -0.31247362536E+02  0.18798440831E+02 -0.60700812600E+01  0.36967890522E+02  0.00000000000E+00 0.  1.
</event>
<event>
 4    1  0.2229986E+005  0.2054192E+02  0.7546771E-02  0.1525907E+00
          2   -1    0    0  502    0  0.00000000000E+00  0.00000000000E+00  0.10741094489E+03  0.10741094489E+03  0.00000000000E+00 0. -1.
         21   -1    0    0  503  502 -0.00000000000E+00 -0.00000000000E+00 -0.77310607005E+01  0.77310607005E+01  0.00000000000E+00 0.  1.
          2    1    1    2  501    0  0.14179577022E+02 -0.14863049773E+02  0.90215518785E+02  0.92524647974E+02  0.00000000000E+00 0. -1.
         21    1    1    2  503  501 -0.14179577022E+02  0.14863049773E+02  0.94643654052E+01  0.22617357617E+02  0.00000000000E+00 0.  1.
</event>
<event>
 4    1  0.2229986E+005  0.3142143E+02  0.7546771E-02  0.1407634E+00
          2   -1    0    0  503    0  0.00000000000E+00  0.00000000000E+00  0.22856295257E+03  0.22856295257E+03  0.00000000000E+00 0.  1.
         21   -1    0    0  501  502 -0.00000000000E+00 -0.00000000000E+00 -0.73657827705E+02  0.73657827705E+02  0.00000000000E+00 0.  1.
          2    1    1    2  501    0 -0.21246412812E+02 -0.23149426136E+02  0.22406511910E+03  0.22625756029E+03  0.00000000000E+00 0.  1.
         21    1    1    2  503  502  0.21246412812E+02  0.23149426136E+02 -0.69159994239E+02  0.75963219988E+02  0.00000000000E+00 0.  1.
</event>
<event>
 4    1  0.2229986E+005  0.2314163E+02  0.7546771E-02  0.1490727E+00
          2   -1    0    0  503    0  0.00000000000E+00  0.00000000000E+00  0.98057395210E+01  0.98057395210E+01  0.00000000000E+00 0. -1.
         21   -1    0    0  501  502 -0.00000000000E+00 -0.00000000000E+00 -0.82474976593E+02  0.82474976593E+02  0.00000000000E+00 0. -1.
          2    1    1    2  501    0 -0.23135024273E+02  0.55298789643E+00 -0.95173548487E+01  0.25022293801E+02  0.00000000000E+00 0. -1.
         21    1    1    2  503  502  0.23135024273E+02 -0.55298789643E+00 -0.63151882223E+02  0.67258422313E+02  0.00000000000E+00 0. -1.
</event>
<event>
 4    1  0.2229986E+005  0.2713460E+02  0.7546771E-02  0.1446261E+00
          2   -1    0    0  502    0  0.00000000000E+00  0.00000000000E+00  0.45296459611E+03  0.45296459611E+03  0.00000000000E+00 0.  1.
         21   -1    0    0  503  502 -0.00000000000E+00 -0.00000000000E+00 -0.46579628649E+01  0.46579628649E+01  0.00000000000E+00 0. -1.
          2    1    1    2  501    0 -0.11766888285E+02  0.24450498351E+02  0.40877314273E+03  0.40967275813E+03  0.00000000000E+00 0.  1.
         21    1    1    2  503  501  0.11766888285E+02 -0.24450498351E+02  0.39533490512E+02  0.47949800850E+02  0.00000000000E+00 0. -1.
</event>
<event>
 4    1  0.2229986E+005  0.2725666E+02  0.7546771E-02  0.1445047E+00
          2   -1    0    0  502    0  0.00000000000E+00  0.00000000000E+00  0.20175560785E+03  0.20175560785E+03  0.00000000000E+00 0.  1.
         21   -1    0    0  503  502 -0.00000000000E+00 -0.00000000000E+00 -0.57669661386E+02  0.57669661386E+02  0.00000000000E+00 0.  1.
          2    1    1    2  501    0 -0.78786714565E+01  0.26093138952E+02  0.19754612055E+03  0.19941763991E+03  0.00000000000E+00 0.  1.
         21    1    1    2  503  501  0.78786714565E+01 -0.26093138952E+02 -0.53460174083E+02  0.60007629325E+02  0.00000000000E+00 0.  1.
</event>
<event>
 4    1  0.2229986E+005  0.2079306E+02  0.7546771E-02  0.1522240E+00
          2   -1    0    0  502    0  0.00000000000E+00  0.00000000000E+00  0.69350764393E+01  0.69350764393E+01  0.00000000000E+00 0. -1.
         21   -1    0    0  503  502 -0.00000000000E+00 -0.00000000000E+00 -0.13744979473E+04  0.13744979473E+04  0.00000000000E+00 0. -1.
          2    1    1    2  501    0 -0.20430635796E+02 -0.38652757967E+01 -0.89109974033E+01  0.22622049216E+02  0.00000000000E+00 0. -1.
         21    1    1    2  503  501  0.20430635796E+02  0.38652757967E+01 -0.13586518735E+04  0.13588109746E+04  0.00000000000E+00 0. -1.
</event>
<event>
 4    1  0.2229986E+005  0.3336025E+02  0.7546771E-02  0.1392473E+00
          2   -1    0    0  503    0  0.00000000000E+00  0.00000000000E+00  0.46175286608E+03  0.46175286608E+03  0.00000000000E+00 0.  1.
         21   -1    0    0  501  502 -0.00000000000E+00 -0.00000000000E+00 -0.17298920727E+02  0.17298920727E+02  0.00000000000E+00 0. -1.
          2    1    1    2  501    0 -0.61145567862E+01  0.32795094030E+02  0.44444126903E+03  0.44569153864E+03  0.00000000000E+00 0.  1.
         21    1    1    2  503  502  0.61145567862E+01 -0.32795094030E+02  0.12676323225E-01  0.33360248168E+02  0.00000000000E+00 0. -1.
</event>
<event>
 4    1  0.2229986E+005  0.2103482E+02  0.7546771E-02  0.1518768E+00
          2   -1    0    0  503    0  0.00000000000E+00  0.00000000000E+00  0.12307730027E+03  0.12307730027E+03  0.00000000000E+00 0. -1.
         21   -1    0    0  501  502 -0.00000000000E+00 -0.00000000000E+00 -0.64574966565E+01  0.64574966565E+01  0.00000000000E+00 0. -1.
          2    1    1    2  501    0  0.10522048339E+02  0.18214009536E+02  0.10143165302E+03  0.10358978655E+03  0.00000000000E+00 0. -1.
         21    1    1    2  503  502 -0.10522048339E+02 -0.18214009536E+02  0.15188150594E+02  0.25945010370E+02  0.00000000000E+00 0. -1.
</event>
<event>
 4    1  0.2229986E+005  0.2898731E+02  0.7546771E-02  0.1428605E+00
          2   -1    0    0  502    0  0.00000000000E+00  0.00000000000E+00  0.74679142729E+02  0.74679142729E+02  0.00000000000E+00 0.  1.
         21   -1    0    0  503  502 -0.00000000000E+00 -0.00000000000E+00 -0.39108577482E+03  0.39108577482E+03  0.00000000000E+00 0.  1.
          2    1    1    2  501    0 -0.12532993603E+02  0.26137874573E+02  0.71304643305E+02  0.76971530923E+02  0.00000000000E+00 0.  1.
         21    1    1    2  503  501  0.12532993603E+02 -0.26137874573E+02 -0.38771127540E+03  0.38879338663E+03  0.00000000000E+00 0.  1.
</event>
<event>
 4    1  0.2229986E+005  0.2160303E+02  0.7546771E-02  0.1510827E+00
          2   -1    0    0  502    0  0.00000000000E+00  0.00000000000E+00  0.92062528817E+03  0.92062528817E+03  0.00000000000E+00 0.  1.
         21   -1    0    0  503  502 -0.00000000000E+00 -0.00000000000E+00 -0.10304493163E+01  0.10304493163E+01  0.00000000000E+00 0. -1.
          2    1    1    2  501    0  0.13304497536E+01 -0.21562019476E+02  0.78826505360E+03  0.78856102206E+03  0.00000000000E+00 0.  1.
         21    1    1    2  503  501 -0.13304497536E+01  0.21562019476E+02  0.13132978525E+03  0.13309471543E+03  0.00000000000E+00 0. -1.
</event>
<event>
 4    1  0.2229986E+005  0.3864899E+02  0.7546771E-02  0.1356590E+00
          2   -1    0    0  503    0  0.00000000000E+00  0.00000000000E+00  0.50210891899E+03  0.50210891899E+03  0.00000000000E+00 0.  1.
         21   -1    0    0  501  502 -0.00000000000E+00 -0.00000000000E+00 -0.54036410122E+02  0.54036410122E+02  0.00000000000E+00 0. -1.
          2    1    1    2  501    0 -0.38447523596E+02 -0.39411590685E+01  0.49434599982E+03  0.49585452740E+03  0.00000000000E+00 0.  1.
         21    1    1    2  503  502  0.38447523596E+02  0.39411590685E+01 -0.46273490955E+02  0.60290801708E+02  0.00000000000E+00 0. -1.
</event>
<event>
 4    1  0.2229986E+005  0.2641993E+02  0.7546771E-02  0.1453524E+00
          2   -1    0    0  503    0  0.00000000000E+00  0.00000000000E+00  0.81644389933E+02  0.81644389933E+02  0.00000000000E+00 0. -1.
         21   -1    0    0  501  502 -0.00000000000E+00 -0.00000000000E+00 -0.25126110529E+03  0.25126110529E+03  0.00000000000E+00 0. -1.
          2    1    1    2  501    0  0.19008634465E+02  0.18348970299E+02  0.78788015159E+02  0.83099724596E+02  0.00000000000E+00 0. -1.
         21    1    1    2  503  502 -0.19008634465E+02 -0.18348970299E+02 -0.24840473052E+03  0.24980577063E+03  0.00000000000E+00 0. -1.
</event>
<event>
 4    1  0.2229986E+005  0.2475538E+02  0.7546771E-02  0.1471559E+00
          2   -1    0    0  503    0  0.00000000000E+00  0.00000000000E+00  0.17558359546E+04  0.17558359546E+04  0.00000000000E+00 0.  1.
         21   -1    0    0  501  502 -0.00000000000E+00 -0.00000000000E+00 -0.53572803626E+00  0.53572803626E+00  0.00000000000E+00 0.  1.
          2    1    1    2  501    0 -0.24695848547E+02  0.17158360190E+01  0.13960811624E+04  0.13963006270E+04  0.00000000000E+00 0.  1.
         21    1    1    2  503  502  0.24695848547E+02 -0.17158360190E+01  0.35921906418E+03  0.36007105563E+03  0.00000000000E+00 0.  1.
</event>
<event>
 4    1  0.2229986E+005  0.3427176E+02  0.7546771E-02  0.1385756E+00
          2   -1    0    0  503    0  0.00000000000E+00  0.00000000000E+00  0.40000016648E+01  0.40000016648E+01  0.00000000000E+00 0. -1.
         21   -1    0    0  501  502 -0.00000000000E+00 -0.00000000000E+00 -0.44312510359E+03  0.44312510359E+03  0.00000000000E+00 0. -1.
          2    1    1    2  501    0  0.48353325161E+01  0.33928938716E+02 -0.89713899570E+02  0.96037165197E+02  0.00000000000E+00 0. -1.
         21    1    1    2  503  502 -0.48353325161E+01 -0.33928938716E+02 -0.34941120236E+03  0.35108794006E+03  0.00000000000E+00 0. -1.
</event>
<event>
 4    1  0.2229986E+005  0.3647004E+02  0.7546771E-02  0.1370513E+00
          2   -1    0    0  503    0  0.00000000000E+00  0.00000000000E+00  0.55031727311E+03  0.55031727311E+03  0.00000000000E+00 0.  1.
         21   -1    0    0  501  502 -0.00000000000E+00 -0.00000000000E+00 -0.17301660363E+02  0.17301660363E+02  0.00000000000E+00 0.  1.
          2    1    1    2  501    0 -0.95100901989E+01  0.35208261931E+02  0.52974900812E+03  0.53100289560E+03  0.00000000000E+00 0.  1.
         21    1    1    2  503  502  0.95100901989E+01 -0.35208261931E+02  0.32666046198E+01  0.36616037874E+02  0.00000000000E+00 0.  1.
</event>
<event>
 4    1  0.2229986E+005  0.2553622E+02  0.7546771E-02  0.1462893E+00
          2   -1    0    0  503    0  0.00000000000E+00  0.00000000000E+00  0.60702934635E+03  0.60702934635E+03  0.00000000000E+00 0. -1.
         21   -1    0    0  501  502 -0.00000000000E+00 -0.00000000000E+00 -0.11767595808E+02  0.11767595808E+02  0.00000000000E+00 0. -1.
          2    1    1    2  501    0  0.24141466721E+00 -0.25535081538E+02  0.59256918345E+03  0.59311915822E+03  0.00000000000E+00 0. -1.
         21    1    1    2  503  502 -0.24141466721E+00  0.25535081538E+02  0.26925670839E+01  0.25677783933E+02  0.00000000000E+00 0. -1.
</event>
<event>
 4    1  0.2229986E+005  0.6197570E+02  0.7546771E-02  0.1253264E+00
          2   -1    0    0  503    0  0.00000000000E+00  0.00000000000E+00  0.18915119353E+04  0.18915119353E+04  0.00000000000E+00 0.  1.
         21   -1    0    0  501  502 -0.00000000000E+00 -0.00000000000E+00 -0.84979199200E+01  0.84979199200E+01  0.00000000000E+00 0. -1.
          2    1    1    2  501    0  0.19932300271E+02 -0.58682971229E+02  0.17702697710E+04  0.17713542982E+04  0.00000000000E+00 0.  1.
         21    1    1    2  503  502 -0.19932300271E+02  0.58682971229E+02  0.11274424439E+03  0.12865555701E+03  0.00000000000E+00 0. -1.
</event>
<event>
 4    1  0.2229986E+005  0.2750101E+02  0.7546771E-02  0.1442639E+00
          2   -1    0    0  503    0  0.00000000000E+00  0.00000000000E+00  0.11951890609E+04  0.11951890609E+04  0.00000000000E+00 0.  1.
         21   -1    0    0  501  502 -0.00000000000E+00 -0.00000000000E+00 -0.59389648285E+01  0.59389648285E+01  0.00000000000E+00 0.  1.
          2    1    1    2  501    0 -0.27496602845E+02  0.49245340838E+00  0.11622933410E+04  0.11626186460E+04  0.00000000000E+00 0.  1.
         21    1    1    2  503  502  0.27496602845E+02 -0.49245340838E+00  0.26956755131E+02  0.38509379709E+02  0.00000000000E+00 0.  1.
</event>
<event>
 4    1  0.2229986E+005  0.2339655E+02  0.7546771E-02  0.1487578E+00
          2   -1    0    0  503    0  0.00000000000E+00  0.00000000000E+00  0.10620493410E+03  0.10620493410E+03  0.00000000000E+00 0.  1.
         21   -1    0    0  501  502 -0.00000000000E+00 -0.00000000000E+00 -0.52517487461E+01  0.52517487461E+01  0.00000000000E+00 0.  1.
          2    1    1    2  501    0  0.23166063630E+02  0.32759630168E+01  0.58072830729E+02  0.62608722289E+02  0.00000000000E+00 0.  1.
         21    1    1    2  503  502 -0.23166063630E+02 -0.32759630168E+01  0.42880354626E+02  0.48847960558E+02  0.00000000000E+00 0.  1.
</event>
<event>
 4    1  0.2229986E+005  0.2047272E+02  0.7546771E-02  0.1526928E+00
          2   -1    0    0  503    0  0.00000000000E+00  0.00000000000E+00  0.92385522157E+03  0.92385522157E+03  0.00000000000E+00 0.  1.
         21   -1    0    0  501  502 -0.00000000000E+00 -0.00000000000E+00 -0.56303587747E+00  0.56303587747E+00  0.00000000000E+00 0.  1.
          2    1    1    2  501    0  0.20463867239E+02 -0.60200683642E+00  0.66534871809E+03  0.66566361545E+03  0.00000000000E+00 0.  1.
         21    1    1    2  503  502 -0.20463867239E+02  0.60200683642E+00  0.25794346760E+03  0.25875464200E+03  0.00000000000E+00 0.  1.
</event>
<event>
 4    1  0.2229986E+005  0.2041426E+02  0.7546771E-02  0.1527794E+00
          2   -1    0    0  503    0  0.00000000000E+00  0.00000000000E+00  0.51548100752E+03  0.51548100752E+03  0.00000000000E+00 0. -1.
         21   -1    0    0  501  502 -0.00000000000E+00 -0.00000000000E+00 -0.48094186933E+01  0.48094186933E+01  0.00000000000E+00 0. -1.
          2    1    1    2  501    0  0.12872762154E+02  0.15844056043E+02  0.49261078473E+03  0.49303359658E+03  0.00000000000E+00 0. -1.
         21    1    1    2  503  502 -0.12872762154E+02 -0.15844056043E+02  0.18060804093E+02  0.27256829636E+02  0.00000000000E+00 0. -1.
</event>
<event>
 4    1  0.2229986E+005  0.2198046E+02  0.7546771E-02  0.1505713E+00
          2   -1    0    0  503    0  0.00000000000E+00  0.00000000000E+00  0.13514877136E+03  0.13514877136E+03  0.00000000000E+00 0. -1.
         21   -1    0    0  501  502 -0.00000000000E+00 -0.00000000000E+00 -0.63303287933E+01  0.63303287933E+01  0.00000000000E+00 0. -1.
          2    1    1    2  501    0  0.16601451232E+02  0.14405983421E+02  0.11108003674E+03  0.11323389555E+03  0.00000000000E+00 0. -1.
         21    1    1    2  503  502 -0.16601451232E+02 -0.14405983421E+02  0.17738405828E+02  0.28245204596E+02  0.00000000000E+00 0. -1.
</event>
<event>
 4    1  0.2229986E+005  0.3470881E+02  0.7546771E-02  0.1382622E+00
          2   -1    0    0  503    0  0.00000000000E+00  0.00000000000E+00  0.18154901023E+04  0.18154901023E+04  0.00000000000E+00 0. -1.
         21   -1    0    0  501  502 -0.00000000000E+00 -0.00000000000E+00 -0.24189516707E+01  0.24189516707E+01  0.00000000000E+00 0. -1.
          2    1    1    2  501    0  0.84364117564E+01 -0.33667913831E+02  0.16808450364E+04  0.16812033600E+04  0.00000000000E+00 0. -1.
         21    1    1    2  503  502 -0.84364117564E+01  0.33667913831E+02  0.13222611422E+03  0.13670569390E+03  0.00000000000E+00 0. -1.
</event>
<event>
 4    1  0.2229986E+005  0.2184354E+02  0.7546771E-02  0.1507554E+00
          2   -1    0    0  502    0  0.00000000000E+00  0.00000000000E+00  0.90165268470E+03  0.90165268470E+03  0.00000000000E+00 0. -1.
         21   -1    0    0  503  502 -0.00000000000E+00 -0.00000000000E+00 -0.81835996329E+00  0.81835996329E+00  0.00000000000E+00 0. -1.
          2    1    1    2  501    0 -0.18013984508E+02  0.12354619474E+02  0.71865010737E+03  0.71898200053E+03  0.00000000000E+00 0. -1.
         21    1    1    2  503  501  0.18013984508E+02 -0.12354619474E+02  0.18218421737E+03  0.18348904413E+03  0.00000000000E+00 0. -1.
</event>
<event>
 4    1  0.2229986E+005  0.3222584E+02  0.7546771E-02  0.1401191E+00
          2   -1    0    0  502    0  0.00000000000E+00  0.00000000000E+00  0.16945499043E+04  0.16945499043E+04  0.00000000000E+00 0. -1.
         21   -1    0    0  503  502 -0.00000000000E+00 -0.00000000000E+00 -0.24498684758E+03  0.24498684758E+03  0.00000000000E+00 0.  1.
          2    1    1    2  501    0 -0.23078424469E+02  0.22492016357E+02  0.16933361770E+04  0.16936427937E+04  0.00000000000E+00 0. -1.
         21    1    1    2  503  501  0.23078424469E+02 -0.22492016357E+02 -0.24377312028E+03  0.24589395814E+03  0.00000000000E+00 0.  1.
</event>
<event>
 4    1  0.2229986E+005  0.2317236E+02  0.7546771E-02  0.1490345E+00
          2   -1    0    0  503    0  0.00000000000E+00  0.00000000000E+00  0.41582384453E+03  0.41582384453E+03  0.00000000000E+00 0. -1.
         21   -1    0    0  501  502 -0.00000000000E+00 -0.00000000000E+00 -0.14682838275E+01  0.14682838275E+01  0.00000000000E+00 0.  1.
          2    1    1    2  501    0  0.27690365524E+00  0.23170705720E+02  0.27961426708E+03  0.28057280095E+03  0.00000000000E+00 0. -1.
         21    1    1    2  503  502 -0.27690365524E+00 -0.23170705720E+02  0.13474129362E+03  0.13671932741E+03  0.00000000000E+00 0.  1.
</event>
<event>
 4    1  0.2229986E+005  0.3218268E+02  0.7546771E-02  0.1401531E+00
          2   -1    0    0  502    0  0.00000000000E+00  0.00000000000E+00  0.56490682681E+02  0.56490682681E+02  0.00000000000E+00 0.  1.
         21   -1    0    0  503  502 -0.00000000000E+00 -0.00000000000E+00 -0.23320081242E+02  0.23320081242E+02  0.00000000000E+00 0.  1.
          2    1    1    2  501    0 -0.79308405456E+00 -0.32172905126E+02  0.35036607453E+02  0.47574033551E+02  0.00000000000E+00 0.  1.
         21    1    1    2  503  501  0.79308405456E+00  0.32172905126E+02 -0.18660060138E+01  0.32236730371E+02  0.00000000000E+00 0.  1.
</event>
<event>
 4    1  0.2229986E+005  0.2471909E+02  0.7546771E-02  0.1471971E+00
          2   -1    0    0  503    0  0.00000000000E+00  0.00000000000E+00  0.25350097390E+03  0.25350097390E+03  0.00000000000E+00 0.  1.
         21   -1    0    0  501  502 -0.00000000000E+00 -0.00000000000E+00 -0.27443947441E+01  0.27443947441E+01  0.00000000000E+00 0. -1.
          2    1    1    2  501    0 -0.12887369813E+02 -0.21093819127E+02  0.17007607416E+03  0.17186303997E+03  0.00000000000E+00 0.  1.
         21    1    1    2  503  502  0.12887369813E+02  0.21093819127E+02  0.80680504994E+02  0.84382328672E+02  0.00000000000E+00 0. -1.
</event>
<event>
 4    1  0.2229986E+005  0.2126435E+02  0.7546771E-02  0.1515524E+00
          2   -1    0    0  503    0  0.00000000000E+00  0.00000000000E+00  0.86926804239E+03  0.86926804239E+03  0.00000000000E+00 0. -1.
         21   -1    0    0  501  502 -0.00000000000E+00 -0.00000000000E+00 -0.69853203877E+01  0.69853203877E+01  0.00000000000E+00 0.  1.
          2    1    1    2  501    0 -0.19121949847E+02  0.93018128390E+01  0.85263947819E+03  0.85290459751E+03  0.00000000000E+00 0. -1.
         21    1    1    2  503  502  0.19121949847E+02 -0.93018128390E+01  0.96432438061E+01  0.23348765260E+02  0.00000000000E+00 0.  1.
</event>
<event>
 4    1  0.2229986E+005  0.2278175E+02  0.7546771E-02  0.1495257E+00
          2   -1    0    0  503    0  0.00000000000E+00  0.00000000000E+00  0.64687628838E+02  0.64687628838E+02  0.00000000000E+00 0.  1.
         21   -1    0    0  501  502 -0.00000000000E+00 -0.00000000000E+00 -0.10677584470E+03  0.10677584470E+03  0.00000000000E+00 0.  1.
          2    1    1    2  501    0 -0.17850214575E+02 -0.14155488639E+02  0.61403729662E+02  0.65493709892E+02  0.00000000000E+00 0.  1.
         21    1    1    2  503  502  0.17850214575E+02  0.14155488639E+02 -0.10349194552E+03  0.10596976364E+03  0.00000000000E+00 0.  1.
</event>
<event>
 4    1  0.2229986E+005  0.3157901E+02  0.7546771E-02  0.1406354E+00
          2   -1    0    0  503    0  0.00000000000E+00  0.00000000000E+00  0.76634799547E+03  0.76634799547E+03  0.00000000000E+00 0.  1.
         21   -1    0    0  501  502 -0.00000000000E+00 -0.00000000000E+00 -0.40976170384E+01  0.40976170384E+01  0.00000000000E+00 0.  1.
          2    1    1    2  501    0 -0.89754070166E+01  0.30276653779E+02  0.69935512169E+03  0.70006772524E+03  0.00000000000E+00 0.  1.
         21    1    1    2  503  502  0.89754070166E+01 -0.30276653779E+02  0.62895256743E+02  0.70377887265E+02  0.00000000000E+00 0.  1.
</event>
<event>
 4    1  0.2229986E+005  0.4289179E+02  0.7546771E-02  0.1332325E+00
          2   -1    0    0  502    0  0.00000000000E+00  0.00000000000E+00  0.26536760979E+04  0.26536760979E+04  0.00000000000E+00 0.  1.
         21   -1    0    0  503  502 -0.00000000000E+00 -0.00000000000E+00 -0.77655353133E+00  0.77655353133E+00  0.00000000000E+00 0. -1.
          2    1    1    2  501    0  0.34143844576E+02  0.25959645889E+02  0.17611074875E+04  0.17616297250E+04  0.00000000000E+00 0.  1.
         21    1    1    2  503  501 -0.34143844576E+02 -0.25959645889E+02  0.89179205682E+03  0.89282292643E+03  0.00000000000E+00 0. -1.
</event>
<event>
 4    1  0.2229986E+005  0.4521477E+02  0.7546771E-02  0.1320369E+00
          2   -1    0    0  503    0  0.00000000000E+00  0.00000000000E+00  0.38446263816E+04  0.38446263816E+04  0.00000000000E+00 0.  1.
         21   -1    0    0  501  502 -0.00000000000E+00 -0.00000000000E+00 -0.95618985944E+00  0.95618985944E+00  0.00000000000E+00 0. -1.
          2    1    1    2  501    0  0.12579551342E+02 -0.43429597383E+02  0.32028932046E+04  0.32032123338E+04  0.00000000000E+00 0.  1.
         21    1    1    2  503  502 -0.12579551342E+02  0.43429597383E+02  0.64077698713E+03  0.64237023770E+03  0.00000000000E+00 0. -1.
</event>
<event>
 4    1  0.2229986E+005  0.2175176E+02  0.7546771E-02  0.1508797E+00
          2   -1    0    0  503    0  0.00000000000E+00  0.00000000000E+00  0.55581577999E+03  0.55581577999E+03  0.00000000000E+00 0. -1.
         21   -1    0    0  501  502 -0.00000000000E+00 -0.00000000000E+00 -0.19014233742E+01  0.19014233742E+01  0.00000000000E+00 0. -1.
          2    1    1    2  501    0  0.21615591957E+02  0.24300517253E+01  0.48419777826E+03  0.48468611228E+03  0.00000000000E+00 0. -1.
         21    1    1    2  503  502 -0.21615591957E+02 -0.24300517253E+01  0.69716578355E+02  0.73031091082E+02  0.00000000000E+00 0. -1.
</event>
<event>
 4    1  0.2229986E+005  0.2676308E+02  0.7546771E-02  0.1450003E+00
          2   -1    0    0  503    0  0.00000000000E+00  0.00000000000E+00  0.97780914161E+03  0.97780914161E+03  0.00000000000E+00 0.  1.
         21   -1    0    0  501  502 -0.00000000000E+00 -0.00000000000E+00 -0.73993416986E+00  0.73993416986E+00  0.00000000000E+00 0.  1.
          2    1    1    2  501    0 -0.63189648803E+01  0.26006408254E+02  0.53751837030E+03  0.53818422589E+03  0.00000000000E+00 0.  1.
         21    1    1    2  503  502  0.63189648803E+01 -0.26006408254E+02  0.43955083714E+03  0.44036484989E+03  0.00000000000E+00 0.  1.
</event>
<event>
 4    1  0.2229986E+005  0.3866246E+02  0.7546771E-02  0.1356507E+00
          2   -1    0    0  503    0  0.00000000000E+00  0.00000000000E+00  0.40905363993E+02  0.40905363993E+02  0.00000000000E+00 0. -1.
         21   -1    0    0  501  502 -0.00000000000E+00 -0.00000000000E+00 -0.43421009535E+02  0.43421009535E+02  0.00000000000E+00 0. -1.
          2    1    1    2  501    0  0.23870320415E+02  0.30413711902E+02  0.15523618171E+02  0.41662558605E+02  0.00000000000E+00 0. -1.
         21    1    1    2  503  502 -0.23870320415E+02 -0.30413711902E+02 -0.18039263713E+02  0.42663814922E+02  0.00000000000E+00 0. -1.
</event>
<event>
 4    1  0.2229986E+005  0.2724894E+02  0.7546771E-02  0.1445123E+00
          2   -1    0    0  502    0  0.00000000000E+00  0.00000000000E+00  0.31347514132E+02  0.31347514132E+02  0.00000000000E+00 0.  1.
         21   -1    0    0  503  502 -0.00000000000E+00 -0.00000000000E+00 -0.29624243179E+02  0.29624243179E+02  0.00000000000E+00 0.  1.
          2    1    1    2  501    0 -0.11589875518E+02  0.24661296803E+02  0.14510460332E+02  0.30871641252E+02  0.00000000000E+00 0.  1.
         21    1    1    2  503  501  0.11589875518E+02 -0.24661296803E+02 -0.12787189379E+02  0.30100116059E+02  0.00000000000E+00 0.  1.
</event>
<event>
 4    1  0.2229986E+005  0.2234065E+02  0.7546771E-02  0.1500948E+00
          2   -1    0    0  503    0  0.00000000000E+00  0.00000000000E+00  0.56351115533E+03  0.56351115533E+03  0.00000000000E+00 0. -1.
         21   -1    0    0  501  502 -0.00000000000E+00 -0.00000000000E+00 -0.76284118169E+02  0.76284118169E+02  0.00000000000E+00 0. -1.
          2    1    1    2  501    0 -0.26835498436E+01 -0.22178890012E+02  0.56164863041E+03  0.56209277583E+03  0.00000000000E+00 0. -1.
         21    1    1    2  503  502  0.26835498436E+01  0.22178890012E+02 -0.74421593249E+02  0.77702497666E+02  0.00000000000E+00 0. -1.
</event>
<event>
 4    1  0.2229986E+005  0.3331200E+02  0.7546771E-02  0.1392835E+00
          2   -1    0    0  503    0  0.00000000000E+00  0.00000000000E+00  0.14589719431E+04  0.14589719431E+04  0.00000000000E+00 0. -1.
         21   -1    0    0  501  502 -0.00000000000E+00 -0.00000000000E+00 -0.13504156038E+01  0.13504156038E+01  0.00000000000E+00 0.  1.
          2    1    1    2  501    0 -0.21060710707E+02 -0.25809606080E+02  0.12113630137E+04  0.12118209605E+04  0.00000000000E+00 0. -1.
         21    1    1    2  503  502  0.21060710707E+02  0.25809606080E+02  0.24625851381E+03  0.24850139824E+03  0.00000000000E+00 0.  1.
</event>
<event>
 4    1  0.2229986E+005  0.5299887E+02  0.7546771E-02  0.1285669E+00
          2   -1    0    0  502    0  0.00000000000E+00  0.00000000000E+00  0.10676458667E+04  0.10676458667E+04  0.00000000000E+00 0.  1.
         21   -1    0    0  503  502 -0.00000000000E+00 -0.00000000000E+00 -0.79810176730E+02  0.79810176730E+02  0.00000000000E+00 0. -1.
          2    1    1    2  501    0 -0.31116521175E+02 -0.42902701824E+02  0.10581102701E+04  0.10594367482E+04  0.00000000000E+00 0.  1.
         21    1    1    2  503  501  0.31116521175E+02  0.42902701824E+02 -0.70274580159E+02  0.88019295216E+02  0.00000000000E+00 0. -1.
</event>
<event>
 4    1  0.2229986E+005  0.3002745E+02  0.7546771E-02  0.1419358E+00
          2   -1    0    0  502    0  0.00000000000E+00  0.00000000000E+00  0.42938441088E+03  0.42938441088E+03  0.00000000000E+00 0. -1.
         21   -1    0    0  503  502 -0.00000000000E+00 -0.00000000000E+00 -0.34250528384E+01  0.34250528384E+01  0.00000000000E+00 0.  1.
          2    1    1    2  501    0  0.10633938523E+02  0.28081437708E+02  0.34758815569E+03  0.34888275075E+03  0.00000000000E+00 0. -1.
         21    1    1    2  503  501 -0.10633938523E+02 -0.28081437708E+02  0.78371202349E+02  0.83926712970E+02  0.00000000000E+00 0.  1.
</event>
<event>
 4    1  0.2229986E+005  0.2677965E+02  0.7546771E-02  0.1449834E+00
          2   -1    0    0  503    0  0.00000000000E+00  0.00000000000E+00  0.96294524804E+03  0.96294524804E+03  0.00000000000E+00 0. -1.
         21   -1    0    0  501  502 -0.00000000000E+00 -0.00000000000E+00 -0.18694736661E+01  0.18694736661E+01  0.00000000000E+00 0. -1.
          2    1    1    2  501    0 -0.94461068698E+01  0.25058346727E+02  0.85471561045E+03  0.85513503286E+03  0.00000000000E+00 0. -1.
         21    1    1    2  503  502  0.94461068698E+01 -0.25058346727E+02  0.10636016392E+03  0.10967968884E+03  0.00000000000E+00 0. -1.
</event>
<event>
 4    1  0.2229986E+005  0.3594779E+02  0.7546771E-02  0.1374020E+00
          2   -1    0    0  502    0  0.00000000000E+00  0.00000000000E+00  0.19653025049E+04  0.19653025049E+04  0.00000000000E+00 0. -1.
         21   -1    0    0  503  502 -0.00000000000E+00 -0.00000000000E+00 -0.10347216594E+01  0.10347216594E+01  0.00000000000E+00 0.  1.
          2    1    1    2  501    0 -0.35946024600E+02  0.35630566835E+00  0.15757392044E+04  0.15761491947E+04  0.00000000000E+00 0. -1.
         21    1    1    2  503  501  0.35946024600E+02 -0.35630566835E+00  0.38852857883E+03  0.39018803186E+03  0.00000000000E+00 0.  1.
</event>
<event>
 4    1  0.2229986E+005  0.4927440E+02  0.7546771E-02  0.1301349E+00
          2   -1    0    0  502    0  0.00000000000E+00  0.00000000000E+00  0.20675773829E+03  0.20675773829E+03  0.00000000000E+00 0. -1.
         21   -1    0    0  503  502 -0.00000000000E+00 -0.00000000000E+00 -0.23943578187E+02  0.23943578187E+02  0.00000000000E+00 0.  1.
          2    1    1    2  501    0 -0.40402445108E+02  0.28206541082E+02  0.17374783808E+03  0.18059977234E+03  0.00000000000E+00 0. -1.
         21    1    1    2  503  501  0.40402445108E+02 -0.28206541082E+02  0.90663220262E+01  0.50101544144E+02  0.00000000000E+00 0.  1.
</event>
<event>
 4    1  0.2229986E+005  0.3414784E+02  0.7546771E-02  0.1386655E+00
          2   -1    0    0  503    0  0.00000000000E+00  0.00000000000E+00  0.33668781897E+03  0.33668781897E+03  0.00000000000E+00 0. -1.
         21   -1    0    0  501  502 -0.00000000000E+00 -0.00000000000E+00 -0.29050080227E+02  0.29050080227E+02  0.00000000000E+00 0. -1.
          2    1    1    2  501    0  0.29763996085E+02  0.16738565902E+02  0.32544108861E+03  0.32722771461E+03  0.00000000000E+00 0. -1.
         21    1    1    2  503  502 -0.29763996085E+02 -0.16738565902E+02 -0.17803349860E+02  0.38510184596E+02  0.00000000000E+00 0. -1.
</event>
<event>
 4    1  0.2229986E+005  0.4611512E+02  0.7546771E-02  0.1315956E+00
          2   -1    0    0  502    0  0.00000000000E+00  0.00000000000E+00  0.10539239181E+04  0.10539239181E+04  0.00000000000E+00 0.  1.
         21   -1    0    0  503  502 -0.00000000000E+00 -0.00000000000E+00 -0.49780473043E+01  0.49780473043E+01  0.00000000000E+00 0. -1.
          2    1    1    2  501    0 -0.46007116597E+02 -0.31543125041E+01  0.93275515788E+03  0.93389442070E+03  0.00000000000E+00 0.  1.
         21    1    1    2  503  501  0.46007116597E+02  0.31543125041E+01  0.11619071292E+03  0.12500754471E+03  0.00000000000E+00 0. -1.
</event>
<event>
 4    1  0.2229986E+005  0.2291060E+02  0.7546771E-02  0.1493624E+00
          2   -1    0    0  502    0  0.00000000000E+00  0.00000000000E+00  0.24595817499E+04  0.24595817499E+04  0.00000000000E+00 0. -1.
         21   -1    0    0  503  502 -0.00000000000E+00 -0.00000000000E+00 -0.23111143600E+00  0.23111143600E+00  0.00000000000E+00 0.  1.
          2    1    1    2  501    0 -0.20820639083E+02 -0.95601547677E+01  0.15700712872E+04  0.15702384349E+04  0.00000000000E+00 0. -1.
         21    1    1    2  503  501  0.20820639083E+02  0.95601547677E+01  0.88927935126E+03  0.88957442642E+03  0.00000000000E+00 0.  1.
</event>
<event>
 4    1  0.2229986E+005  0.2103438E+02  0.7546771E-02  0.1518774E+00
          2   -1    0    0  502    0  0.00000000000E+00  0.00000000000E+00  0.33525688974E+02  0.33525688974E+02  0.00000000000E+00 0. -1.
         21   -1    0    0  503  502 -0.00000000000E+00 -0.00000000000E+00 -0.29515376485E+02  0.29515376485E+02  0.00000000000E+00 0. -1.
          2    1    1    2  501    0  0.34723151782E+01 -0.20745803462E+02  0.25442325370E+02  0.33011471554E+02  0.00000000000E+00 0. -1.
         21    1    1    2  503  501 -0.34723151782E+01  0.20745803462E+02 -0.21432012881E+02  0.30029593905E+02  0.00000000000E+00 0. -1.
</event>
<event>
 4    1  0.2229986E+005  0.2253170E+02  0.7546771E-02  0.1498464E+00
          2   -1    0    0  503    0  0.00000000000E+00  0.00000000000E+00  0.10011330860E+04  0.10011330860E+04  0.00000000000E+00 0.  1.
         21   -1    0    0  501  502 -0.00000000000E+00 -0.00000000000E+00 -0.84476240495E+00  0.84476240495E+00  0.00000000000E+00 0.  1.
          2    1    1    2  501    0  0.79163042276E+01 -0.21095247581E+02  0.81688234442E+03  0.81719302614E+03  0.00000000000E+00 0.  1.
         21    1    1    2  503  502 -0.79163042276E+01  0.21095247581E+02  0.18340597916E+03  0.18478482225E+03  0.00000000000E+00 0.  1.
</event>
<event>
 4    1  0.2229986E+005  0.2189870E+02  0.7546771E-02  0.1506810E+00
          2   -1    0    0  502    0  0.00000000000E+00  0.00000000000E+00  0.14697116646E+04  0.14697116646E+04  0.00000000000E+00 0. -1.
         21   -1    0    0  503  502 -0.00000000000E+00 -0.00000000000E+00 -0.23189602646E+02  0.23189602646E+02  0.00000000000E+00 0.  1.
          2    1    1    2  501    0 -0.89694063145E+01  0.19977562795E+02  0.14644415711E+04  0.14646052944E+04  0.00000000000E+00 0. -1.
         21    1    1    2  503  501  0.89694063145E+01 -0.19977562795E+02 -0.17919509205E+02  0.28295972770E+02  0.00000000000E+00 0.  1.
</event>
<event>
 4    1  0.2229986E+005  0.2046258E+02  0.7546771E-02  0.1527078E+00
          2   -1    0    0  502    0  0.00000000000E+00  0.00000000000E+00  0.57583089987E+03  0.57583089987E+03  0.00000000000E+00 0. -1.
         21   -1    0    0  503  502 -0.00000000000E+00 -0.00000000000E+00 -0.82413800302E+01  0.82413800302E+01  0.00000000000E+00 0. -1.
          2    1    1    2  501    0 -0.20134824007E+02  0.36477662425E+01  0.56264997862E+03  0.56302194964E+03  0.00000000000E+00 0. -1.
         21    1    1    2  503  501  0.20134824007E+02 -0.36477662425E+01  0.49395412131E+01  0.21050330253E+02  0.00000000000E+00 0. -1.
</event>
<event>
 4    1  0.2229986E+005  0.3261703E+02  0.7546771E-02  0.1398137E+00
          2   -1    0    0  503    0  0.00000000000E+00  0.00000000000E+00  0.24047725788E+02  0.24047725788E+02  0.00000000000E+00 0.  1.
         21   -1    0    0  501  502 -0.00000000000E+00 -0.00000000000E+00 -0.51590996843E+02  0.51590996843E+02  0.00000000000E+00 0. -1.
          2    1    1    2  501    0  0.12314918262E+02 -0.30202875101E+02  0.50418168272E+00  0.32620930019E+02  0.00000000000E+00 0.  1.
         21    1    1    2  503  502 -0.12314918262E+02  0.30202875101E+02 -0.28047452738E+02  0.43017792612E+02  0.00000000000E+00 0. -1.
</event>
<event>
 4    1  0.2229986E+005  0.2385995E+02  0.7546771E-02  0.1481973E+00
          2   -1    0    0  502    0  0.00000000000E+00  0.00000000000E+00  0.15036513911E+04  0.15036513911E+04  0.00000000000E+00 0. -1.
         21   -1    0    0  503  502 -0.00000000000E+00 -0.00000000000E+00 -0.36811750396E+01  0.36811750396E+01  0.00000000000E+00 0. -1.
          2    1    1    2  501    0 -0.23447988242E+02  0.44146404338E+01  0.14638426510E+04  0.14640370911E+04  0.00000000000E+00 0. -1.
         21    1    1    2  503  501  0.23447988242E+02 -0.44146404338E+01  0.36127565075E+02  0.43295475064E+02  0.00000000000E+00 0. -1.
</event>
<event>
 4    1  0.2229986E+005  0.2355948E+02  0.7546771E-02  0.1485590E+00
          2   -1    0    0  503    0  0.00000000000E+00  0.00000000000E+00  0.74344994982E+03  0.74344994982E+03  0.00000000000E+00 0.  1.
         21   -1    0    0  501  502 -0.00000000000E+00 -0.00000000000E+00 -0.96510911119E+00  0.96510911119E+00  0.00000000000E+00 0.  1.
          2    1    1    2  501    0 -0.23396010915E+02  0.27705474844E+01  0.54835349564E+03  0.54885936763E+03  0.00000000000E+00 0.  1.
         21    1    1    2  503  502  0.23396010915E+02 -0.27705474844E+01  0.19413134507E+03  0.19555569130E+03  0.00000000000E+00 0.  1.
</event>
<event>
 4    1  0.2229986E+005  0.3328533E+02  0.7546771E-02  0.1393036E+00
          2   -1    0    0  503    0  0.00000000000E+00  0.00000000000E+00  0.51432710986E+03  0.51432710986E+03  0.00000000000E+00 0.  1.
         21   -1    0    0  501  502 -0.00000000000E+00 -0.00000000000E+00 -0.42327844907E+01  0.42327844907E+01  0.00000000000E+00 0.  1.
          2    1    1    2  501    0 -0.63830884302E+01 -0.32667554086E+02  0.43674508445E+03  0.43801162279E+03  0.00000000000E+00 0.  1.
         21    1    1    2  503  502  0.63830884302E+01  0.32667554086E+02  0.73349240913E+02  0.80548271554E+02  0.00000000000E+00 0.  1.
</event>
<event>
 4    1  0.2229986E+005  0.2662380E+02  0.7546771E-02  0.1451424E+00
          2   -1    0    0  502    0  0.00000000000E+00  0.00000000000E+00  0.13665905102E+04  0.13665905102E+04  0.00000000000E+00 0.  1.
         21   -1    0    0  503  502 -0.00000000000E+00 -0.00000000000E+00 -0.10851130451E+03  0.10851130451E+03  0.00000000000E+00 0. -1.
          2    1    1    2  501    0 -0.17744230951E+02 -0.19848651169E+02  0.13648256570E+04  0.13650853090E+04  0.00000000000E+00 0.  1.
         21    1    1    2  503  501  0.17744230951E+02  0.19848651169E+02 -0.10674645128E+03  0.11001650579E+03  0.00000000000E+00 0. -1.
</event>
<event>
 4    1  0.2229986E+005  0.2170764E+02  0.7546771E-02  0.1509397E+00
          2   -1    0    0  502    0  0.00000000000E+00  0.00000000000E+00  0.68988782610E+03  0.68988782610E+03  0.00000000000E+00 0.  1.
         21   -1    0    0  503  502 -0.00000000000E+00 -0.00000000000E+00 -0.15349288133E+02  0.15349288133E+02  0.00000000000E+00 0.  1.
          2    1    1    2  501    0 -0.21653958848E+02  0.15256656590E+01  0.68195280993E+03  0.68229821673E+03  0.00000000000E+00 0.  1.
         21    1    1    2  503  501  0.21653958848E+02 -0.15256656590E+01 -0.74142719659E+01  0.22938897494E+02  0.00000000000E+00 0.  1.
</event>
<event>
 4    1  0.2229986E+005  0.3020595E+02  0.7546771E-02  0.1417815E+00
          2   -1    0    0  502    0  0.00000000000E+00  0.00000000000E+00  0.14178712266E+04  0.14178712266E+04  0.00000000000E+00 0. -1.
         21   -1    0    0  503  502 -0.00000000000E+00 -0.00000000000E+00 -0.17984430644E+01  0.17984430644E+01  0.00000000000E+00 0.  1.
          2    1    1    2  501    0  0.14514666071E+02 -0.26490066378E+02  0.12768754125E+04  0.12772326406E+04  0.00000000000E+00 0. -1.
         21    1    1    2  503  501 -0.14514666071E+02  0.26490066378E+02  0.13919737107E+03  0.14243702911E+03  0.00000000000E+00 0.  1.
</event>
<event>
 4    1  0.2229986E+005  0.2087494E+02  0.7546771E-02  0.1521058E+00
          2   -1    0    0  503    0  0.00000000000E+00  0.00000000000E+00  0.79582305974E+03  0.79582305974E+03  0.00000000000E+00 0. -1.
         21   -1    0    0  501  502 -0.00000000000E+00 -0.00000000000E+00 -0.11791745169E+01  0.11791745169E+01  0.00000000000E+00 0. -1.
          2    1    1    2  501    0  0.83604460268E+01 -0.19127630385E+02  0.68897430840E+03  0.68929047646E+03  0.00000000000E+00 0. -1.
         21    1    1    2  503  502 -0.83604460268E+01  0.19127630385E+02  0.10566957682E+03  0.10771175779E+03  0.00000000000E+00 0. -1.
</event>
<event>
 4    1  0.2229986E+005  0.2181166E+02  0.7546771E-02  0.1507985E+00
          2   -1    0    0  502    0  0.00000000000E+00  0.00000000000E+00  0.94672149253E+03  0.94672149253E+03  0.00000000000E+00 0.  1.
         21   -1    0    0  503  502 -0.00000000000E+00 -0.00000000000E+00 -0.14623495597E+01  0.14623495597E+01  0.00000000000E+00 0. -1.
          2    1    1    2  501    0 -0.34551423855E+01  0.21536263185E+02  0.85672001375E+03  0.85699762579E+03  0.00000000000E+00 0.  1.
         21    1    1    2  503  501  0.34551423855E+01 -0.21536263185E+02  0.88539129213E+02  0.91186216298E+02  0.00000000000E+00 0. -1.
</event>
<event>
 4    1  0.2229986E+005  0.2320285E+02  0.7546771E-02  0.1489967E+00
          2   -1    0    0  503    0  0.00000000000E+00  0.00000000000E+00  0.38236520977E+03  0.38236520977E+03  0.00000000000E+00 0. -1.
         21   -1    0    0  501  502 -0.00000000000E+00 -0.00000000000E+00 -0.17919470238E+01  0.17919470238E+01  0.00000000000E+00 0. -1.
          2    1    1    2  501    0  0.22960033921E+02  0.33479936193E+01  0.27919630967E+03  0.28015879703E+03  0.00000000000E+00 0. -1.
         21    1    1    2  503  502 -0.22960033921E+02 -0.33479936193E+01  0.10137695307E+03  0.10399835976E+03  0.00000000000E+00 0. -1.
</event>
<event>
 4    1  0.2229986E+005  0.3212245E+02  0.7546771E-02  0.1402007E+00
          2   -1    0    0  502    0  0.00000000000E+00  0.00000000000E+00  0.45899329850E+03  0.45899329850E+03  0.00000000000E+00 0. -1.
         21   -1    0    0  503  502 -0.00000000000E+00 -0.00000000000E+00 -0.23652244874E+01  0.23652244874E+01  0.00000000000E+00 0. -1.
          2    1    1    2  501    0 -0.19870790879E+02 -0.25238925246E+02  0.27965231299E+03  0.28149115055E+03  0.00000000000E+00 0. -1.
         21    1    1    2  503  501  0.19870790879E+02  0.25238925246E+02  0.17697576102E+03  0.17986737243E+03  0.00000000000E+00 0. -1.
</event>
<event>
 4    1  0.2229986E+005  0.2027291E+02  0.7546771E-02  0.1529904E+00
          2   -1    0    0  503    0  0.00000000000E+00  0.00000000000E+00  0.14662768733E+04  0.14662768733E+04  0.00000000000E+00 0.  1.
         21   -1    0    0  501  502 -0.00000000000E+00 -0.00000000000E+00 -0.10858490291E+01  0.10858490291E+01  0.00000000000E+00 0. -1.
          2    1    1    2  501    0 -0.19819604447E+02  0.42631258497E+01  0.13645269137E+04  0.13646775038E+04  0.00000000000E+00 0.  1.
         21    1    1    2  503  502  0.19819604447E+02 -0.42631258497E+01  0.10066411051E+03  0.10268521854E+03  0.00000000000E+00 0. -1.
</event>
<event>
 4    1  0.2229986E+005  0.3172748E+02  0.7546771E-02  0.1405156E+00
          2   -1    0    0  502    0  0.00000000000E+00  0.00000000000E+00  0.11777245911E+04  0.11777245911E+04  0.00000000000E+00 0.  1.
         21   -1    0    0  503  502 -0.00000000000E+00 -0.00000000000E+00 -0.19319930373E+02  0.19319930373E+02  0.00000000000E+00 0.  1.
          2    1    1    2  501    0  0.26910582154E+02  0.16806350022E+02  0.11643353124E+04  0.11647675101E+04  0.00000000000E+00 0.  1.
         21    1    1    2  503  501 -0.26910582154E+02 -0.16806350022E+02 -0.59306517036E+01  0.32277011363E+02  0.00000000000E+00 0.  1.
</event>
<event>
 4    1  0.2229986E+005  0.2315643E+02  0.7546771E-02  0.1490543E+00
          2   -1    0    0  503    0  0.00000000000E+00  0.00000000000E+00  0.94306234470E+03  0.94306234470E+03  0.00000000000E+00 0. -1.
         21   -1    0    0  501  502 -0.00000000000E+00 -0.00000000000E+00 -0.11983213877E+01  0.11983213877E+01  0.00000000000E+00 0.  1.
          2    1    1    2  501    0 -0.73563163940E+01 -0.21956890248E+02  0.81318814201E+03  0.81351777775E+03  0.00000000000E+00 0. -1.
         21    1    1    2  503  502  0.73563163940E+01  0.21956890248E+02  0.12867588130E+03  0.13074288833E+03  0.00000000000E+00 0.  1.
</event>
<event>
 4    1  0.2229986E+005  0.2343502E+02  0.7546771E-02  0.1487107E+00
          2   -1    0    0  503    0  0.00000000000E+00  0.00000000000E+00  0.50285451811E+03  0.50285451811E+03  0.00000000000E+00 0.  1.
         21   -1    0    0  501  502 -0.00000000000E+00 -0.00000000000E+00 -0.21001294584E+03  0.21001294584E+03  0.00000000000E+00 0. -1.
          2    1    1    2  501    0  0.35121314175E+01 -0.23170349500E+02  0.50192649931E+03  0.50247329370E+03  0.00000000000E+00 0.  1.
         21    1    1    2  503  502 -0.35121314175E+01  0.23170349500E+02 -0.20908492704E+03  0.21039417026E+03  0.00000000000E+00 0. -1.
</event>
<event>
 4    1  0.2229986E+005  0.2563614E+02  0.7546771E-02  0.1461811E+00
          2   -1    0    0  503    0  0.00000000000E+00  0.00000000000E+00  0.12984865398E+03  0.12984865398E+03  0.00000000000E+00 0.  1.
         21   -1    0    0  501  502 -0.00000000000E+00 -0.00000000000E+00 -0.36860083052E+02  0.36860083052E+02  0.00000000000E+00 0. -1.
          2    1    1    2  501    0  0.20920121977E+01  0.25550638329E+02  0.12391461337E+03  0.12653870175E+03  0.00000000000E+00 0.  1.
         21    1    1    2  503  502 -0.20920121977E+01 -0.25550638329E+02 -0.30926042437E+02  0.40170035286E+02  0.00000000000E+00 0. -1.
</event>
<event>
 4    1  0.2229986E+005  0.4841098E+02  0.7546771E-02  0.1305213E+00
          2   -1    0    0  503    0  0.00000000000E+00  0.00000000000E+00  0.29247380874E+03  0.29247380874E+03  0.00000000000E+00 0. -1.
         21   -1    0    0  501  502 -0.00000000000E+00 -0.00000000000E+00 -0.10749737203E+02  0.10749737203E+02  0.00000000000E+00 0. -1.
          2    1    1    2  501    0 -0.46124123198E+02  0.14703346978E+02  0.21735865994E+03  0.22268455313E+03  0.00000000000E+00 0. -1.
         21    1    1    2  503  502  0.46124123198E+02 -0.14703346978E+02  0.64365411603E+02  0.80538992816E+02  0.00000000000E+00 0. -1.
</event>
<event>
 4    1  0.2229986E+005  0.2597136E+02  0.7546771E-02  0.1458224E+00
          2   -1    0    0  502    0  0.00000000000E+00  0.00000000000E+00  0.55051165493E+03  0.55051165493E+03  0.00000000000E+00 0.  1.
         21   -1    0    0  503  502 -0.00000000000E+00 -0.00000000000E+00 -0.63348094797E+01  0.63348094797E+01  0.00000000000E+00 0. -1.
          2    1    1    2  501    0  0.11356049099E+02 -0.23357043841E+02  0.52214060979E+03  0.52278612046E+03  0.00000000000E+00 0.  1.
         21    1    1    2  503  501 -0.11356049099E+02  0.23357043841E+02  0.22036235656E+02  0.34060343950E+02  0.00000000000E+00 0. -1.
</event>
<event>
 4    1  0.2229986E+005  0.2373106E+02  0.7546771E-02  0.1483517E+00
          2   -1    0    0  503    0  0.00000000000E+00  0.00000000000E+00  0.12400470206E+04  0.12400470206E+04  0.00000000000E+00 0.  1.
         21   -1    0    0  501  502 -0.00000000000E+00 -0.00000000000E+00 -0.23743002571E+01  0.23743002571E+01  0.00000000000E+00 0.  1.
          2    1    1    2  501    0  0.10352095212E+02  0.21354097292E+02  0.11774853954E+04  0.11777245093E+04  0.00000000000E+00 0.  1.
         21    1    1    2  503  502 -0.10352095212E+02 -0.21354097292E+02  0.60187324965E+02  0.64696811613E+02  0.00000000000E+00 0.  1.
</event>
<event>
 4    1  0.2229986E+005  0.2686251E+02  0.7546771E-02  0.1448994E+00
          2   -1    0    0  503    0  0.00000000000E+00  0.00000000000E+00  0.11815368420E+04  0.11815368420E+04  0.00000000000E+00 0. -1.
         21   -1    0    0  501  502 -0.00000000000E+00 -0.00000000000E+00 -0.69685815384E+00  0.69685815384E+00  0.00000000000E+00 0.  1.
          2    1    1    2  501    0  0.13834058986E+02 -0.23026365747E+02  0.79823887143E+03  0.79869073525E+03  0.00000000000E+00 0. -1.
         21    1    1    2  503  502 -0.13834058986E+02  0.23026365747E+02  0.38260111246E+03  0.38354296495E+03  0.00000000000E+00 0.  1.
</event>
<event>
 4    1  0.2229986E+005  0.2294029E+02  0.7546771E-02  0.1493249E+00
          2   -1    0    0  503    0  0.00000000000E+00  0.00000000000E+00  0.51331173692E+02  0.51331173692E+02  0.00000000000E+00 0. -1.
         21   -1    0    0  501  502 -0.00000000000E+00 -0.00000000000E+00 -0.10611353877E+02  0.10611353877E+02  0.00000000000E+00 0. -1.
          2    1    1    2  501    0  0.22239156143E+02 -0.56282232431E+01  0.26057873250E+02  0.34716994702E+02  0.00000000000E+00 0. -1.
         21    1    1    2  503  502 -0.22239156143E+02  0.56282232431E+01  0.14661946565E+02  0.27225532867E+02  0.00000000000E+00 0. -1.
</event>
<event>
 4    1  0.2229986E+005  0.2064026E+02  0.7546771E-02  0.1524463E+00
          2   -1    0    0  502    0  0.00000000000E+00  0.00000000000E+00  0.15315259671E+02  0.15315259671E+02  0.00000000000E+00 0. -1.
         21   -1    0    0  503  502 -0.00000000000E+00 -0.00000000000E+00 -0.11344678504E+03  0.11344678504E+03  0.00000000000E+00 0. -1.
          2    1    1    2  501    0 -0.19707498605E+02 -0.61347264217E+01  0.68681108561E+01  0.21752961092E+02  0.00000000000E+00 0. -1.
         21    1    1    2  503  501  0.19707498605E+02  0.61347264217E+01 -0.10499963623E+03  0.10700908362E+03  0.00000000000E+00 0. -1.
</event>
<event>
 4    1  0.2229986E+005  0.3520210E+02  0.7546771E-02  0.1379148E+00
          2   -1    0    0  503    0  0.00000000000E+00  0.00000000000E+00  0.91520153814E+03  0.91520153814E+03  0.00000000000E+00 0. -1.
         21   -1    0    0  501  502 -0.00000000000E+00 -0.00000000000E+00 -0.21175802539E+01  0.21175802539E+01  0.00000000000E+00 0. -1.
          2    1    1    2  501    0  0.30507186243E+02 -0.17564149540E+02  0.73196252724E+03  0.73280852141E+03  0.00000000000E+00 0. -1.
         21    1    1    2  503  502 -0.30507186243E+02  0.17564149540E+02  0.18112143064E+03  0.18451059698E+03  0.00000000000E+00 0. -1.
</event>
<event>
 4    1  0.2229986E+005  0.3278996E+02  0.7546771E-02  0.1396804E+00
          2   -1    0    0  502    0  0.00000000000E+00  0.00000000000E+00  0.59287588425E+03  0.59287588425E+03  0.00000000000E+00 0. -1.
         21   -1    0    0  503  502 -0.00000000000E+00 -0.00000000000E+00 -0.15463916100E+02  0.15463916100E+02  0.00000000000E+00 0.  1.
          2    1    1    2  501    0 -0.84927091026E+01  0.31671048162E+02  0.57448439137E+03  0.57541940993E+03  0.00000000000E+00 0. -1.
         21    1    1    2  503  501  0.84927091026E+01 -0.31671048162E+02  0.29275767833E+01  0.32920390420E+02  0.00000000000E+00 0.  1.
</event>
<event>
 4    1  0.2229986E+005  0.2731417E+02  0.7546771E-02  0.1444477E+00
          2   -1    0    0  503    0  0.00000000000E+00  0.00000000000E+00  0.13052161136E+02  0.13052161136E+02  0.00000000000E+00 0.  1.
         21   -1    0    0  501  502 -0.00000000000E+00 -0.00000000000E+00 -0.71670789272E+02  0.71670789272E+02  0.00000000000E+00 0. -1.
          2    1    1    2  501    0  0.24526559764E+02 -0.12021306120E+02 -0.10248443018E+02  0.29173524281E+02  0.00000000000E+00 0.  1.
         21    1    1    2  503  502 -0.24526559764E+02  0.12021306120E+02 -0.48370185117E+02  0.55549426126E+02  0.00000000000E+00 0. -1.
</event>
<event>
 4    1  0.2229986E+005  0.2404249E+02  0.7546771E-02  0.1479807E+00
          2   -1    0    0  503    0  0.00000000000E+00  0.00000000000E+00  0.78777604216E+03  0.78777604216E+03  0.00000000000E+00 0.  1.
         21   -1    0    0  501  502 -0.00000000000E+00 -0.00000000000E+00 -0.80910585984E+01  0.80910585984E+01  0.00000000000E+00 0. -1.
          2    1    1    2  501    0 -0.22627379422E+02  0.81266849775E+01  0.76930333834E+03  0.76967893806E+03  0.00000000000E+00 0.  1.
         21    1    1    2  503  502  0.22627379422E+02 -0.81266849775E+01  0.10381645225E+02  0.26188162704E+02  0.00000000000E+00 0. -1.
</event>
<event>
 4    1  0.2229986E+005  0.2189060E+02  0.7546771E-02  0.1506919E+00
          2   -1    0    0  503    0  0.00000000000E+00  0.00000000000E+00  0.16886579631E+02  0.16886579631E+02  0.00000000000E+00 0.  1.
         21   -1    0    0  501  502 -0.00000000000E+00 -0.00000000000E+00 -0.82598060810E+02  0.82598060810E+02  0.00000000000E+00 0. -1.
          2    1    1    2  501    0 -0.18742272767E+02  0.11310413210E+02  0.74459511398E+01  0.23122292789E+02  0.00000000000E+00 0.  1.
         21    1    1    2  503  502  0.18742272767E+02 -0.11310413210E+02 -0.73157432319E+02  0.76362347652E+02  0.00000000000E+00 0. -1.
</event>
<event>
 4    1  0.2229986E+005  0.2139504E+02  0.7546771E-02  0.1513699E+00
          2   -1    0    0  503    0  0.00000000000E+00  0.00000000000E+00  0.11359641387E+03  0.11359641387E+03  0.00000000000E+00 0.  1.
         21   -1    0    0  501  502 -0.00000000000E+00 -0.00000000000E+00 -0.64563318855E+01  0.64563318855E+01  0.00000000000E+00 0. -1.
          2    1    1    2  501    0  0.12123285392E+02  0.17628770292E+02  0.90371114280E+02  0.92869186962E+02  0.00000000000E+00 0.  1.
         21    1    1    2  503  502 -0.12123285392E+02 -0.17628770292E+02  0.16768967699E+02  0.27183558789E+02  0.00000000000E+00 0. -1.
</event>
<event>
 4    1  0.2229986E+005  0.2711793E+02  0.7546771E-02  0.1446427E+00
          2   -1    0    0  503    0  0.00000000000E+00  0.00000000000E+00  0.10698009944E+04  0.10698009944E+04  0.00000000000E+00 0. -1.
         21   -1    0    0  501  502 -0.00000000000E+00 -0.00000000000E+00 -0.20790632786E+02  0.20790632786E+02  0.00000000000E+00 0. -1.
          2    1    1    2  501    0 -0.18853216038E+02 -0.19492002391E+02  0.10607106671E+04  0.10610572563E+04  0.00000000000E+00 0. -1.
         21    1    1    2  503  502  0.18853216038E+02  0.19492002391E+02 -0.11700305501E+02  0.29534370841E+02  0.00000000000E+00 0. -1.
</event>
<event>
 4    1  0.2229986E+005  0.2239039E+02  0.7546771E-02  0.1500298E+00
          2   -1    0    0  502    0  0.00000000000E+00  0.00000000000E+00  0.11688989931E+04  0.11688989931E+04  0.00000000000E+00 0. -1.
         21   -1    0    0  503  502 -0.00000000000E+00 -0.00000000000E+00 -0.87695773136E+00  0.87695773136E+00  0.00000000000E+00 0.  1.
          2    1    1    2  501    0 -0.58609643839E-01 -0.22390314981E+02  0.10020867586E+04  0.10023368702E+04  0.00000000000E+00 0. -1.
         21    1    1    2  503  501  0.58609643839E-01  0.22390314981E+02  0.16593527683E+03  0.16743908068E+03  0.00000000000E+00 0.  1.
</event>
<event>
 4    1  0.2229986E+005  0.2590513E+02  0.7546771E-02  0.1458927E+00
          2   -1    0    0  503    0  0.00000000000E+00  0.00000000000E+00  0.59079747923E+02  0.59079747923E+02  0.00000000000E+00 0.  1.
         21   -1    0    0  501  502 -0.00000000000E+00 -0.00000000000E+00 -0.12827023890E+04  0.12827023890E+04  0.00000000000E+00 0.  1.
          2    1    1    2  501    0  0.27701765776E+01 -0.25756589333E+02  0.56102645981E+02  0.61794681474E+02  0.00000000000E+00 0.  1.
         21    1    1    2  503  502 -0.27701765776E+01  0.25756589333E+02 -0.12797252870E+04  0.12799874554E+04  0.00000000000E+00 0.  1.
</event>
<event>
 4    1  0.2229986E+005  0.3560610E+02  0.7546771E-02  0.1376351E+00
          2   -1    0    0  502    0  0.00000000000E+00  0.00000000000E+00  0.37645340787E+03  0.37645340787E+03  0.00000000000E+00 0.  1.
         21   -1    0    0  503  502 -0.00000000000E+00 -0.00000000000E+00 -0.34104540733E+01  0.34104540733E+01  0.00000000000E+00 0.  1.
          2    1    1    2  501    0 -0.35605606071E+02  0.18837870112E+00  0.20777894483E+03  0.21080769575E+03  0.00000000000E+00 0.  1.
         21    1    1    2  503  501  0.35605606071E+02 -0.18837870112E+00  0.16526400896E+03  0.16905616620E+03  0.00000000000E+00 0.  1.
</event>
<event>
 4    1  0.2229986E+005  0.3497314E+02  0.7546771E-02  0.1380752E+00
          2   -1    0    0  502    0  0.00000000000E+00  0.00000000000E+00  0.81858935744E+03  0.81858935744E+03  0.00000000000E+00 0.  1.
         21   -1    0    0  503  502 -0.00000000000E+00 -0.00000000000E+00 -0.38851184819E+01  0.38851184819E+01  0.00000000000E+00 0.  1.
          2    1    1    2  501    0  0.34918589913E+02  0.19526343813E+01  0.72995957939E+03  0.73079689945E+03  0.00000000000E+00 0.  1.
         21    1    1    2  503  501 -0.34918589913E+02 -0.19526343813E+01  0.84744659572E+02  0.91677576476E+02  0.00000000000E+00 0.  1.
</event>
<event>
 4    1  0.2229986E+005  0.2910475E+02  0.7546771E-02  0.1427539E+00
          2   -1    0    0  503    0  0.00000000000E+00  0.00000000000E+00  0.11386673751E+04  0.11386673751E+04  0.00000000000E+00 0.  1.
         21   -1    0    0  501  502 -0.00000000000E+00 -0.00000000000E+00 -0.20133805578E+01  0.20133805578E+01  0.00000000000E+00 0.  1.
          2    1    1    2  501    0  0.19582267628E+02 -0.21531863199E+02  0.10212031495E+04  0.10216178145E+04  0.00000000000E+00 0.  1.
         21    1    1    2  503  502 -0.19582267628E+02  0.21531863199E+02  0.11545084506E+03  0.11906294118E+03  0.00000000000E+00 0.  1.
</event>
<event>
 4    1  0.2229986E+005  0.2406324E+02  0.7546771E-02  0.1479562E+00
          2   -1    0    0  503    0  0.00000000000E+00  0.00000000000E+00  0.16375307254E+01  0.16375307254E+01  0.00000000000E+00 0.  1.
         21   -1    0    0  501  502 -0.00000000000E+00 -0.00000000000E+00 -0.10767064622E+04  0.10767064622E+04  0.00000000000E+00 0.  1.
          2    1    1    2  501    0  0.14759010212E+02 -0.19005553767E+02 -0.95681053073E+02  0.98660546185E+02  0.00000000000E+00 0.  1.
         21    1    1    2  503  502 -0.14759010212E+02  0.19005553767E+02 -0.97938787840E+03  0.97968344674E+03  0.00000000000E+00 0.  1.
</event>
<event>
 4    1  0.2229986E+005  0.3438868E+02  0.7546771E-02  0.1384913E+00
          2   -1    0    0  502    0  0.00000000000E+00  0.00000000000E+00  0.15999101453E+04  0.15999101453E+04  0.00000000000E+00 0. -1.
         21   -1    0    0  503  502 -0.00000000000E+00 -0.00000000000E+00 -0.56142198582E+01  0.56142198582E+01  0.00000000000E+00 0.  1.
          2    1    1    2  501    0 -0.32084866901E+02  0.12375083836E+02  0.15452010189E+04  0.15455836341E+04  0.00000000000E+00 0. -1.
         21    1    1    2  503  501  0.32084866901E+02 -0.12375083836E+02  0.49094906548E+02  0.59940731001E+02  0.00000000000E+00 0.  1.
</event>
<event>
 4    1  0.2229986E+005  0.2087853E+02  0.7546771E-02  0.1521006E+00
          2   -1    0    0  502    0  0.00000000000E+00  0.00000000000E+00  0.31594595218E+03  0.31594595218E+03  0.00000000000E+00 0.  1.
         21   -1    0    0  503  502 -0.00000000000E+00 -0.00000000000E+00 -0.59689463678E+02  0.59689463678E+02  0.00000000000E+00 0.  1.
          2    1    1    2  501    0 -0.10837039748E+02 -0.17845767786E+02  0.31376258168E+03  0.31445646841E+03  0.00000000000E+00 0.  1.
         21    1    1    2  503  501  0.10837039748E+02  0.17845767786E+02 -0.57506093181E+02  0.61178947452E+02  0.00000000000E+00 0.  1.
</event>
<event>
 4    1  0.2229986E+005  0.2088692E+02  0.7546771E-02  0.1520886E+00
          2   -1    0    0  502    0  0.00000000000E+00  0.00000000000E+00  0.11896816256E+04  0.11896816256E+04  0.00000000000E+00 0.  1.
         21   -1    0    0  503  502 -0.00000000000E+00 -0.00000000000E+00 -0.16741662919E+01  0.16741662919E+01  0.00000000000E+00 0. -1.
          2    1    1    2  501    0 -0.15106788831E+02  0.14423877769E+02  0.11204165434E+04  0.11206112144E+04  0.00000000000E+00 0.  1.
         21    1    1    2  503  501  0.15106788831E+02 -0.14423877769E+02  0.67590915963E+02  0.70744577455E+02  0.00000000000E+00 0. -1.
</event>
<event>
 4    1  0.2229986E+005  0.2321310E+02  0.7546771E-02  0.1489839E+00
          2   -1    0    0  502    0  0.00000000000E+00  0.00000000000E+00  0.87840290284E+00  0.87840290284E+00  0.00000000000E+00 0.  1.
         21   -1    0    0  503  502 -0.00000000000E+00 -0.00000000000E+00 -0.62093041892E+03  0.62093041892E+03  0.00000000000E+00 0.  1.
          2    1    1    2  501    0  0.48158261064E+01  0.22708053418E+02 -0.34417244960E+03  0.34495437805E+03  0.00000000000E+00 0.  1.
         21    1    1    2  503  501 -0.48158261064E+01 -0.22708053418E+02 -0.27587956642E+03  0.27685444378E+03  0.00000000000E+00 0.  1.
</event>
<event>
 4    1  0.2229986E+005  0.2741022E+02  0.7546771E-02  0.1443530E+00
          2   -1    0    0  502    0  0.00000000000E+00  0.00000000000E+00  0.19324644558E+03  0.19324644558E+03  0.00000000000E+00 0. -1.
         21   -1    0    0  503  502 -0.00000000000E+00 -0.00000000000E+00 -0.18206152036E+02  0.18206152036E+02  0.00000000000E+00 0. -1.
          2    1    1    2  501    0  0.14842218270E+01 -0.27370010310E+02  0.18128048001E+03  0.18334102872E+03  0.00000000000E+00 0. -1.
         21    1    1    2  503  501 -0.14842218270E+01  0.27370010310E+02 -0.62401864656E+01  0.28111568898E+02  0.00000000000E+00 0. -1.
</event>
<event>
 4    1  0.2229986E+005  0.2978352E+02  0.7546771E-02  0.1421487E+00
          2   -1    0    0  503    0  0.00000000000E+00  0.00000000000E+00  0.18319190490E+03  0.18319190490E+03  0.00000000000E+00 0. -1.
         21   -1    0    0  501  502 -0.00000000000E+00 -0.00000000000E+00 -0.51029866236E+01  0.51029866236E+01  0.00000000000E+00 0.  1.
          2    1    1    2  501    0  0.28935188372E+02 -0.70578156903E+01  0.11032641302E+03  0.11427587365E+03  0.00000000000E+00 0. -1.
         21    1    1    2  503  502 -0.28935188372E+02  0.70578156903E+01  0.67762505251E+02  0.74019017869E+02  0.00000000000E+00 0.  1.
</event>
<event>
 4    1  0.2229986E+005  0.4093906E+02  0.7546771E-02  0.1343069E+00
          2   -1    0    0  502    0  0.00000000000E+00  0.00000000000E+00  0.61459122772E+03  0.61459122772E+03  0.00000000000E+00 0. -1.
         21   -1    0    0  503  502 -0.00000000000E+00 -0.00000000000E+00 -0.71947528944E+01  0.71947528944E+01  0.00000000000E+00 0.  1.
          2    1    1    2  501    0 -0.40839917553E+02 -0.28474588727E+01  0.54868704715E+03  0.55021221597E+03  0.00000000000E+00 0. -1.
         21    1    1    2  503  501  0.40839917553E+02  0.28474588727E+01  0.58709427668E+02  0.71573764641E+02  0.00000000000E+00 0.  1.
</event>
<event>
 4    1  0.2229986E+005  0.2256997E+02  0.7546771E-02  0.1497970E+00
          2   -1    0    0  502    0  0.00000000000E+00  0.00000000000E+00  0.24027967318E+03  0.24027967318E+03  0.00000000000E+00 0.  1.
         21   -1    0    0  503  502 -0.00000000000E+00 -0.00000000000E+00 -0.41390547892E+01  0.41390547892E+01  0.00000000000E+00 0. -1.
          2    1    1    2  501    0 -0.15018279804E+02 -0.16847993153E+02  0.20342416826E+03  0.20467241103E+03  0.00000000000E+00 0.  1.
         21    1    1    2  503  501  0.15018279804E+02  0.16847993153E+02  0.32716450124E+02  0.39746316939E+02  0.00000000000E+00 0. -1.
</event>
<event>
 4    1  0.2229986E+005  0.2840219E+02  0.7546771E-02  0.1434009E+00
          2   -1    0    0  503    0  0.00000000000E+00  0.00000000000E+00  0.58634007031E+03  0.58634007031E+03  0.00000000000E+00 0. -1.
         21   -1    0    0  501  502 -0.00000000000E+00 -0.00000000000E+00 -0.25691256814E+01  0.25691256814E+01  0.00000000000E+00 0. -1.
          2    1    1    2  501    0  0.12404064326E+02  0.25550417389E+02  0.49256625591E+03  0.49338443541E+03  0.00000000000E+00 0. -1.
         21    1    1    2  503  502 -0.12404064326E+02 -0.25550417389E+02  0.91204688723E+02  0.95524760589E+02  0.00000000000E+00 0. -1.
</event>
<event>
 4    1  0.2229986E+005  0.2752389E+02  0.7546771E-02  0.1442415E+00
          2   -1    0    0  503    0  0.00000000000E+00  0.00000000000E+00  0.27815973093E+02  0.27815973093E+02  0.00000000000E+00 0.  1.
         21   -1    0    0  501  502 -0.00000000000E+00 -0.00000000000E+00 -0.32038820497E+02  0.32038820497E+02  0.00000000000E+00 0. -1.
          2    1    1    2  501    0 -0.67494406555E+01 -0.26683502637E+02  0.94771553071E+01  0.29109804789E+02  0.00000000000E+00 0.  1.
         21    1    1    2  503  502  0.67494406555E+01  0.26683502637E+02 -0.13700002712E+02  0.30744988802E+02  0.00000000000E+00 0. -1.
</event>
<event>
 4    1  0.2229986E+005  0.3002598E+02  0.7546771E-02  0.1419371E+00
          2   -1    0    0  502    0  0.00000000000E+00  0.00000000000E+00  0.14879439693E+04  0.14879439693E+04  0.00000000000E+00 0. -1.
         21   -1    0    0  503  502 -0.00000000000E+00 -0.00000000000E+00 -0.61634572958E+00  0.61634572958E+00  0.00000000000E+00 0. -1.
          2    1    1    2  501    0 -0.27473822759E+02  0.12113992008E+02  0.64681570788E+03  0.64751225447E+03  0.00000000000E+00 0. -1.
         21    1    1    2  503  501  0.27473822759E+02 -0.12113992008E+02  0.84051191569E+03  0.84104806055E+03  0.00000000000E+00 0. -1.
</event>
<event>
 4    1  0.2229986E+005  0.2840355E+02  0.7546771E-02  0.1433997E+00
          2   -1    0    0  503    0  0.00000000000E+00  0.00000000000E+00  0.14378605327E+02  0.14378605327E+02  0.00000000000E+00 0.  1.
         21   -1    0    0  501  502 -0.00000000000E+00 -0.00000000000E+00 -0.11415714225E+03  0.11415714225E+03  0.00000000000E+00 0. -1.
          2    1    1    2  501    0  0.26712231939E+02 -0.96549578358E+01 -0.40604634493E+01  0.28692314466E+02  0.00000000000E+00 0.  1.
         21    1    1    2  503  502 -0.26712231939E+02  0.96549578358E+01 -0.95718073473E+02  0.99843433111E+02  0.00000000000E+00 0. -1.
</event>
<event>
 4    1  0.2229986E+005  0.2011136E+02  0.7546771E-02  0.1532340E+00
          2   -1    0    0  502    0  0.00000000000E+00  0.00000000000E+00  0.13283801557E+04  0.13283801557E+04  0.00000000000E+00 0. -1.
         21   -1    0    0  503  502 -0.00000000000E+00 -0.00000000000E+00 -0.79518280195E+00  0.79518280195E+00  0.00000000000E+00 0. -1.
          2    1    1    2  501    0  0.17930960521E+02 -0.91075512600E+01  0.11858610112E+04  0.11860315361E+04  0.00000000000E+00 0. -1.
         21    1    1    2  503  501 -0.17930960521E+02  0.91075512600E+01  0.14172396170E+03  0.14314380236E+03  0.00000000000E+00 0. -1.
</event>
<event>
 4    1  0.2229986E+005  0.6601527E+02  0.7546771E-02  0.1240659E+00
          2   -1    0    0  502    0  0.00000000000E+00  0.00000000000E+00  0.26156880045E+04  0.26156880045E+04  0.00000000000E+00 0. -1.
         21   -1    0    0  503  502 -0.00000000000E+00 -0.00000000000E+00 -0.32086544721E+03  0.32086544721E+03  0.00000000000E+00 0. -1.
          2    1    1    2  501    0  0.44453103436E+02 -0.48805100410E+02  0.26118709994E+04  0.26127051371E+04  0.00000000000E+00 0. -1.
         21    1    1    2  503  501 -0.44453103436E+02  0.48805100410E+02 -0.31704844208E+03  0.32384831458E+03  0.00000000000E+00 0. -1.
</event>
<event>
 4    1  0.2229986E+005  0.2612707E+02  0.7546771E-02  0.1456579E+00
          2   -1    0    0  503    0  0.00000000000E+00  0.00000000000E+00  0.31132240994E+03  0.31132240994E+03  0.00000000000E+00 0.  1.
         21   -1    0    0  501  502 -0.00000000000E+00 -0.00000000000E+00 -0.86042731719E+01  0.86042731719E+01  0.00000000000E+00 0. -1.
          2    1    1    2  501    0 -0.26017064089E+02 -0.23950602396E+01  0.28944424413E+03  0.29062104947E+03  0.00000000000E+00 0.  1.
         21    1    1    2  503  502  0.26017064089E+02  0.23950602396E+01  0.13273892644E+02  0.29305633644E+02  0.00000000000E+00 0. -1.
</event>
<event>
 4    1  0.2229986E+005  0.5764845E+02  0.7546771E-02  0.1268039E+00
          2   -1    0    0  503    0  0.00000000000E+00  0.00000000000E+00  0.15951088744E+04  0.15951088744E+04  0.00000000000E+00 0.  1.
         21   -1    0    0  501  502 -0.00000000000E+00 -0.00000000000E+00 -0.22692076446E+01  0.22692076446E+01  0.00000000000E+00 0.  1.
          2    1    1    2  501    0  0.55668913453E+02  0.14977192884E+02  0.10249287859E+04  0.10265487618E+04  0.00000000000E+00 0.  1.
         21    1    1    2  503  502 -0.55668913453E+02 -0.14977192884E+02  0.56791088082E+03  0.57082932019E+03  0.00000000000E+00 0.  1.
</event>
<event>
 4    1  0.2229986E+005  0.2525912E+02  0.7546771E-02  0.1465925E+00
          2   -1    0    0  502    0  0.00000000000E+00  0.00000000000E+00  0.55135180487E+02  0.55135180487E+02  0.00000000000E+00 0.  1.
         21   -1    0    0  503  502 -0.00000000000E+00 -0.00000000000E+00 -0.52162170802E+02  0.52162170802E+02  0.00000000000E+00 0. -1.
          2    1    1    2  501    0 -0.14980251594E+02 -0.20337537057E+02  0.48811623270E+02  0.54959966499E+02  0.00000000000E+00 0.  1.
         21    1    1    2  503  501  0.14980251594E+02  0.20337537057E+02 -0.45838613585E+02  0.52337384791E+02  0.00000000000E+00 0. -1.
</event>
<event>
 4    1  0.2229986E+005  0.3587819E+02  0.7546771E-02  0.1374492E+00
          2   -1    0    0  503    0  0.00000000000E+00  0.00000000000E+00  0.13061437315E+03  0.13061437315E+03  0.00000000000E+00 0.  1.
         21   -1    0    0  501  502 -0.00000000000E+00 -0.00000000000E+00 -0.37195832919E+03  0.37195832919E+03  0.00000000000E+00 0.  1.
          2    1    1    2  501    0  0.33568563974E+02  0.12664756626E+02  0.12726301799E+03  0.13222375088E+03  0.00000000000E+00 0.  1.
         21    1    1    2  503  502 -0.33568563974E+02 -0.12664756626E+02 -0.36860697403E+03  0.37034895146E+03  0.00000000000E+00 0.  1.
</event>
<event>
 4    1  0.2229986E+005  0.2064970E+02  0.7546771E-02  0.1524326E+00
          2   -1    0    0  503    0  0.00000000000E+00  0.00000000000E+00  0.17067110258E+03  0.17067110258E+03  0.00000000000E+00 0.  1.
         21   -1    0    0  501  502 -0.00000000000E+00 -0.00000000000E+00 -0.40509259695E+01  0.40509259695E+01  0.00000000000E+00 0. -1.
          2    1    1    2  501    0  0.15182457357E+02  0.13996534653E+02  0.13739244381E+03  0.13893557360E+03  0.00000000000E+00 0.  1.
         21    1    1    2  503  502 -0.15182457357E+02 -0.13996534653E+02  0.29227732803E+02  0.35786454958E+02  0.00000000000E+00 0. -1.
</event>
<event>
 4    1  0.2229986E+005  0.3091403E+02  0.7546771E-02  0.1411816E+00
          2   -1    0    0  502    0  0.00000000000E+00  0.00000000000E+00  0.13657577193E+04  0.13657577193E+04  0.00000000000E+00 0.  1.
         21   -1    0    0  503  502 -0.00000000000E+00 -0.00000000000E+00 -0.59640718159E+01  0.59640718159E+01  0.00000000000E+00 0. -1.
          2    1    1    2  501    0  0.10040892448E+02  0.29237954454E+02  0.13242680979E+04  0.13246288811E+04  0.00000000000E+00 0.  1.
         21    1    1    2  503  501 -0.10040892448E+02 -0.29237954454E+02  0.35525549599E+02  0.47092910041E+02  0.00000000000E+00 0. -1.
</event>
<event>
 4    1  0.2229986E+005  0.2314093E+02  0.7546771E-02  0.1490736E+00
          2   -1    0    0  502    0  0.00000000000E+00  0.00000000000E+00  0.25627460434E+03  0.25627460434E+03  0.00000000000E+00 0. -1.
         21   -1    0    0  503  502 -0.00000000000E+00 -0.00000000000E+00 -0.45321810951E+01  0.45321810951E+01  0.00000000000E+00 0. -1.
          2    1    1    2  501    0 -0.14755700495E+02 -0.17826164646E+02  0.22160444598E+03  0.22280941030E+03  0.00000000000E+00 0. -1.
         21    1    1    2  503  501  0.14755700495E+02  0.17826164646E+02  0.30137977267E+02  0.37997375130E+02  0.00000000000E+00 0. -1.
</event>
<event>
 4    1  0.2229986E+005  0.2321281E+02  0.7546771E-02  0.1489843E+00
          2   -1    0    0  503    0  0.00000000000E+00  0.00000000000E+00  0.52854794460E+03  0.52854794460E+03  0.00000000000E+00 0. -1.
         21   -1    0    0  501  502 -0.00000000000E+00 -0.00000000000E+00 -0.13404281668E+02  0.13404281668E+02  0.00000000000E+00 0. -1.
          2    1    1    2  501    0 -0.16265268766E+02 -0.16561273930E+02  0.51803965004E+03  0.51855946021E+03  0.00000000000E+00 0. -1.
         21    1    1    2  503  502  0.16265268766E+02  0.16561273930E+02 -0.28959871116E+01  0.23392766052E+02  0.00000000000E+00 0. -1.
</event>
<event>
 4    1  0.2229986E+005  0.4143249E+02  0.7546771E-02  0.1340290E+00
          2   -1    0    0  502    0  0.00000000000E+00  0.00000000000E+00  0.16545244784E+04  0.16545244784E+04  0.00000000000E+00 0. -1.
         21   -1    0    0  503  502 -0.00000000000E+00 -0.00000000000E+00 -0.26540809785E+01  0.26540809785E+01  0.00000000000E+00 0.  1.
          2    1    1    2  501    0 -0.98873831627E+01  0.40235447735E+02  0.14725926159E+04  0.14731753677E+04  0.00000000000E+00 0. -1.
         21    1    1    2  503  501  0.98873831627E+01 -0.40235447735E+02  0.17927778156E+03  0.18400319171E+03  0.00000000000E+00 0.  1.
</event>
<event>
 4    1  0.2229986E+005  0.2272588E+02  0.7546771E-02  0.1495969E+00
          2   -1    0    0  502    0  0.00000000000E+00  0.00000000000E+00  0.76888967933E+03  0.76888967933E+03  0.00000000000E+00 0.  1.
         21   -1    0    0  503  502 -0.00000000000E+00 -0.00000000000E+00 -0.87189364825E+01  0.87189364825E+01  0.00000000000E+00 0.  1.
          2    1    1    2  501    0 -0.17456896538E+02  0.14550680447E+02  0.75361289725E+03  0.75395547908E+03  0.00000000000E+00 0.  1.
         21    1    1    2  503  501  0.17456896538E+02 -0.14550680447E+02  0.65578455965E+01  0.23653136728E+02  0.00000000000E+00 0.  1.
</event>
<event>
 4    1  0.2229986E+005  0.6696779E+02  0.7546771E-02  0.1237835E+00
          2   -1    0    0  503    0  0.00000000000E+00  0.00000000000E+00  0.72731434047E+02  0.72731434047E+02  0.00000000000E+00 0. -1.
         21   -1    0    0  501  502 -0.00000000000E+00 -0.00000000000E+00 -0.62394169625E+02  0.62394169625E+02  0.00000000000E+00 0. -1.
          2    1    1    2  501    0 -0.59200193306E+02 -0.31305300516E+02  0.12493020802E+02  0.68123126005E+02  0.00000000000E+00 0. -1.
         21    1    1    2  503  502  0.59200193306E+02  0.31305300516E+02 -0.21557563794E+01  0.67002477667E+02  0.00000000000E+00 0. -1.
</event>
<event>
 4    1  0.2229986E+005  0.2530305E+02  0.7546771E-02  0.1465442E+00
          2   -1    0    0  503    0  0.00000000000E+00  0.00000000000E+00  0.13098546174E+04  0.13098546174E+04  0.00000000000E+00 0.  1.
         21   -1    0    0  501  502 -0.00000000000E+00 -0.00000000000E+00 -0.75448753904E+00  0.75448753904E+00  0.00000000000E+00 0. -1.
          2    1    1    2  501    0  0.30153289846E+01 -0.25122738980E+02  0.10434256482E+04  0.10437324023E+04  0.00000000000E+00 0.  1.
         21    1    1    2  503  502 -0.30153289846E+01  0.25122738980E+02  0.26567448167E+03  0.26687670268E+03  0.00000000000E+00 0. -1.
</event>
<event>
 4    1  0.2229986E+005  0.4863945E+02  0.7546771E-02  0.1304182E+00
          2   -1    0    0  503    0  0.00000000000E+00  0.00000000000E+00  0.60151581575E+03  0.60151581575E+03  0.00000000000E+00 0. -1.
         21   -1    0    0  501  502 -0.00000000000E+00 -0.00000000000E+00 -0.32865269802E+02  0.32865269802E+02  0.00000000000E+00 0.  1.
          2    1    1    2  501    0 -0.48502972826E+02  0.36411157142E+01  0.58193180095E+03  0.58396097220E+03  0.00000000000E+00 0. -1.
         21    1    1    2  503  502  0.48502972826E+02 -0.36411157142E+01 -0.13281254997E+02  0.50420113356E+02  0.00000000000E+00 0.  1.
</event>
<event>
 4    1  0.2229986E+005  0.2012257E+02  0.7546771E-02  0.1532170E+00
          2   -1    0    0  503    0  0.00000000000E+00  0.00000000000E+00  0.67984035840E+02  0.67984035840E+02  0.00000000000E+00 0. -1.
         21   -1    0    0  501  502 -0.00000000000E+00 -0.00000000000E+00 -0.73104070485E+01  0.73104070485E+01  0.00000000000E+00 0.  1.
          2    1    1    2  501    0  0.18827979044E+02  0.71010540357E+01  0.46540929641E+02  0.50704791639E+02  0.00000000000E+00 0. -1.
         21    1    1    2  503  502 -0.18827979044E+02 -0.71010540357E+01  0.14132699150E+02  0.24589651249E+02  0.00000000000E+00 0.  1.
</event>
<event>
 4    1  0.2229986E+005  0.3806050E+02  0.7546771E-02  0.1360242E+00
          2   -1    0    0  503    0  0.00000000000E+00  0.00000000000E+00  0.79627579342E+03  0.79627579342E+03  0.00000000000E+00 0. -1.
         21   -1    0    0  501  502 -0.00000000000E+00 -0.00000000000E+00 -0.49157856936E+01  0.49157856936E+01  0.00000000000E+00 0.  1.
          2    1    1    2  501    0  0.31544599146E+02  0.21296473146E+02  0.71362354067E+03  0.71463778189E+03  0.00000000000E+00 0. -1.
         21    1    1    2  503  502 -0.31544599146E+02 -0.21296473146E+02  0.77736467056E+02  0.86553797225E+02  0.00000000000E+00 0.  1.
</event>
<event>
 4    1  0.2229986E+005  0.3845482E+02  0.7546771E-02  0.1357786E+00
          2   -1    0    0  503    0  0.00000000000E+00  0.00000000000E+00  0.67885219611E+03  0.67885219611E+03  0.00000000000E+00 0. -1.
         21   -1    0    0  501  502 -0.00000000000E+00 -0.00000000000E+00 -0.34478509847E+01  0.34478509847E+01  0.00000000000E+00 0. -1.
          2    1    1    2  501    0 -0.25652787553E+01  0.38369161496E+02  0.54471097351E+03  0.54606667896E+03  0.00000000000E+00 0. -1.
         21    1    1    2  503  502  0.25652787553E+01 -0.38369161496E+02  0.13069337162E+03  0.13623336814E+03  0.00000000000E+00 0. -1.
</event>
<event>
 4    1  0.2229986E+005  0.4714174E+02  0.7546771E-02  0.1311064E+00
          2   -1    0    0  502    0  0.00000000000E+00  0.00000000000E+00  0.40082338006E+02  0.40082338006E+02  0.00000000000E+00 0. -1.
         21   -1    0    0  503  502 -0.00000000000E+00 -0.00000000000E+00 -0.16497040094E+03  0.16497040094E+03  0.00000000000E+00 0. -1.
          2    1    1    2  501    0  0.41676334203E+02  0.22032396665E+02  0.21095314896E+02  0.51646448532E+02  0.00000000000E+00 0. -1.
         21    1    1    2  503  501 -0.41676334203E+02 -0.22032396665E+02 -0.14598337783E+03  0.15340629042E+03  0.00000000000E+00 0. -1.
</event>
<event>
 4    1  0.2281385E+005  0.2850772E+02  0.7546771E-02  0.1433024E+00
          2   -1    0    0  502    0  0.00000000000E+00  0.00000000000E+00  0.85866275881E+03  0.85866275881E+03  0.00000000000E+00 0.  1.
         21   -1    0    0  503  502 -0.00000000000E+00 -0.00000000000E+00 -0.19668378658E+03  0.19668378658E+03  0.00000000000E+00 0.  1.
          2    1    1    2  501    0  0.28339939060E+02  0.30883258725E+01  0.85739162232E+03  0.85786542297E+03  0.00000000000E+00 0.  1.
         21    1    1    2  503  501 -0.28339939060E+02 -0.30883258725E+01 -0.19541265009E+03  0.19748112243E+03  0.00000000000E+00 0.  1.
</event>
<event>
 4    1  0.2229986E+005  0.2117054E+02  0.7546771E-02  0.1516844E+00
          2   -1    0    0  503    0  0.00000000000E+00  0.00000000000E+00  0.51644881018E+02  0.51644881018E+02  0.00000000000E+00 0.  1.
         21   -1    0    0  501  502 -0.00000000000E+00 -0.00000000000E+00 -0.19832645374E+02  0.19832645374E+02  0.00000000000E+00 0.  1.
          2    1    1    2  501    0 -0.20614032294E+02 -0.48221622467E+01  0.42708324943E+02  0.47667521391E+02  0.00000000000E+00 0.  1.
         21    1    1    2  503  502  0.20614032294E+02  0.48221622467E+01 -0.10896089299E+02  0.23810005001E+02  0.00000000000E+00 0.  1.
</event>
<event>
 4    1  0.2229986E+005  0.2806172E+02  0.7546771E-02  0.1437225E+00
          2   -1    0    0  502    0  0.00000000000E+00  0.00000000000E+00  0.67922896372E+03  0.67922896372E+03  0.00000000000E+00 0.  1.
         21   -1    0    0  503  502 -0.00000000000E+00 -0.00000000000E+00 -0.12419394503E+01  0.12419394503E+01  0.00000000000E+00 0. -1.
          2    1    1    2  501    0  0.14352069674E+02 -0.24113859400E+02  0.42673541448E+03  0.42765707535E+03  0.00000000000E+00 0.  1.
         21    1    1    2  503  501 -0.14352069674E+02  0.24113859400E+02  0.25125160978E+03  0.25281382782E+03  0.00000000000E+00 0. -1.
</event>
<event>
 4    1  0.2229986E+005  0.2345461E+02  0.7546771E-02  0.1486867E+00
          2   -1    0    0  503    0  0.00000000000E+00  0.00000000000E+00  0.79511511222E+03  0.79511511222E+03  0.00000000000E+00 0.  1.
         21   -1    0    0  501  502 -0.00000000000E+00 -0.00000000000E+00 -0.15567775017E+02  0.15567775017E+02  0.00000000000E+00 0.  1.
          2    1    1    2  501    0 -0.12417314193E+02  0.19897962730E+02  0.78600552790E+03  0.78635539580E+03  0.00000000000E+00 0.  1.
         21    1    1    2  503  502  0.12417314193E+02 -0.19897962730E+02 -0.64581906980E+01  0.24327491438E+02  0.00000000000E+00 0.  1.
</event>
<event>
 4    1  0.2229986E+005  0.2937100E+02  0.7546771E-02  0.1425142E+00
          2   -1    0    0  503    0  0.00000000000E+00  0.00000000000E+00  0.96854812499E+03  0.96854812499E+03  0.00000000000E+00 0.  1.
         21   -1    0    0  501  502 -0.00000000000E+00 -0.00000000000E+00 -0.95685969924E+00  0.95685969924E+00  0.00000000000E+00 0.  1.
          2    1    1    2  501    0  0.19737561321E+02 -0.21750495613E+02  0.35629986430E+03  0.35750838967E+03  0.00000000000E+00 0.  1.
         21    1    1    2  503  502 -0.19737561321E+02  0.21750495613E+02  0.61129140100E+03  0.61199659502E+03  0.00000000000E+00 0.  1.
</event>
<event>
 4    1  0.2229986E+005  0.2064457E+02  0.7546771E-02  0.1524400E+00
          2   -1    0    0  503    0  0.00000000000E+00  0.00000000000E+00  0.76575342218E+03  0.76575342218E+03  0.00000000000E+00 0. -1.
         21   -1    0    0  501  502 -0.00000000000E+00 -0.00000000000E+00 -0.11006239513E+01  0.11006239513E+01  0.00000000000E+00 0.  1.
          2    1    1    2  501    0  0.20345575913E+02  0.35008565473E+01  0.65190326527E+03  0.65223007116E+03  0.00000000000E+00 0. -1.
         21    1    1    2  503  502 -0.20345575913E+02 -0.35008565473E+01  0.11274953296E+03  0.11462397497E+03  0.00000000000E+00 0.  1.
</event>
<event>
 4    1  0.2229986E+005  0.4523828E+02  0.7546771E-02  0.1320252E+00
          2   -1    0    0  503    0  0.00000000000E+00  0.00000000000E+00  0.16582797579E+03  0.16582797579E+03  0.00000000000E+00 0.  1.
         21   -1    0    0  501  502 -0.00000000000E+00 -0.00000000000E+00 -0.17216777258E+03  0.17216777258E+03  0.00000000000E+00 0. -1.
          2    1    1    2  501    0 -0.44811591482E+02  0.61986760655E+01  0.15965841271E+03  0.16594369848E+03  0.00000000000E+00 0.  1.
         21    1    1    2  503  502  0.44811591482E+02 -0.61986760655E+01 -0.16599820950E+03  0.17205204989E+03  0.00000000000E+00 0. -1.
</event>
<event>
 4    1  0.2229986E+005  0.2448227E+02  0.7546771E-02  0.1474679E+00
          2   -1    0    0  503    0  0.00000000000E+00  0.00000000000E+00  0.17611769552E+03  0.17611769552E+03  0.00000000000E+00 0.  1.
         21   -1    0    0  501  502 -0.00000000000E+00 -0.00000000000E+00 -0.47683544097E+02  0.47683544097E+02  0.00000000000E+00 0. -1.
          2    1    1    2  501    0 -0.18032323931E+02  0.16559493269E+02  0.17205045788E+03  0.17378360561E+03  0.00000000000E+00 0.  1.
         21    1    1    2  503  502  0.18032323931E+02 -0.16559493269E+02 -0.43616306449E+02  0.50017634010E+02  0.00000000000E+00 0. -1.
</event>
<event>
 4    1  0.2229986E+005  0.2513309E+02  0.7546771E-02  0.1467320E+00
          2   -1    0    0  503    0  0.00000000000E+00  0.00000000000E+00  0.57273235211E+01  0.57273235211E+01  0.00000000000E+00 0. -1.
         21   -1    0    0  501  502 -0.00000000000E+00 -0.00000000000E+00 -0.35149429811E+03  0.35149429811E+03  0.00000000000E+00 0. -1.
          2    1    1    2  501    0 -0.15831362258E+02 -0.19520256583E+02 -0.24924895988E+02  0.35396650802E+02  0.00000000000E+00 0. -1.
         21    1    1    2  503  502  0.15831362258E+02  0.19520256583E+02 -0.32084207861E+03  0.32182497083E+03  0.00000000000E+00 0. -1.
</event>
<event>
 4    1  0.2229986E+005  0.5363576E+02  0.7546771E-02  0.1283134E+00
          2   -1    0    0  503    0  0.00000000000E+00  0.00000000000E+00  0.10230537463E+03  0.10230537463E+03  0.00000000000E+00 0. -1.
         21   -1    0    0  501  502 -0.00000000000E+00 -0.00000000000E+00 -0.19165084109E+03  0.19165084109E+03  0.00000000000E+00 0. -1.
          2    1    1    2  501    0 -0.49329065146E+02  0.21057958483E+02  0.91095306946E+02  0.10571257840E+03  0.00000000000E+00 0. -1.
         21    1    1    2  503  502  0.49329065146E+02 -0.21057958483E+02 -0.18044077341E+03  0.18824363733E+03  0.00000000000E+00 0. -1.
</event>
<event>
 4    1  0.2229986E+005  0.2353496E+02  0.7546771E-02  0.1485888E+00
          2   -1    0    0  503    0  0.00000000000E+00  0.00000000000E+00  0.67479342280E+01  0.67479342280E+01  0.00000000000E+00 0.  1.
         21   -1    0    0  501  502 -0.00000000000E+00 -0.00000000000E+00 -0.71016460963E+03  0.71016460963E+03  0.00000000000E+00 0.  1.
          2    1    1    2  501    0  0.23468937649E+02 -0.17616207063E+01 -0.14603859346E+02  0.27697780591E+02  0.00000000000E+00 0.  1.
         21    1    1    2  503  502 -0.23468937649E+02  0.17616207063E+01 -0.68881281606E+03  0.68921476327E+03  0.00000000000E+00 0.  1.
</event>
<event>
 4    1  0.2229986E+005  0.2572803E+02  0.7546771E-02  0.1460821E+00
          2   -1    0    0  503    0  0.00000000000E+00  0.00000000000E+00  0.52391830352E+01  0.52391830352E+01  0.00000000000E+00 0.  1.
         21   -1    0    0  501  502 -0.00000000000E+00 -0.00000000000E+00 -0.13680937946E+03  0.13680937946E+03  0.00000000000E+00 0.  1.
          2    1    1    2  501    0  0.23817178045E+02  0.97300222890E+01 -0.85430378550E+02  0.89220406203E+02  0.00000000000E+00 0.  1.
         21    1    1    2  503  502 -0.23817178045E+02 -0.97300222890E+01 -0.46139817877E+02  0.52828156294E+02  0.00000000000E+00 0.  1.
</event>
<event>
 4    1  0.2229986E+005  0.2646049E+02  0.7546771E-02  0.1453104E+00
          2   -1    0    0  503    0  0.00000000000E+00  0.00000000000E+00  0.88148827211E+01  0.88148827211E+01  0.00000000000E+00 0.  1.
         21   -1    0    0  501  502 -0.00000000000E+00 -0.00000000000E+00 -0.84384206549E+02  0.84384206549E+02  0.00000000000E+00 0.  1.
          2    1    1    2  501    0  0.12587276294E+02 -0.23274831849E+02 -0.49076950179E+02  0.55755756303E+02  0.00000000000E+00 0.  1.
         21    1    1    2  503  502 -0.12587276294E+02  0.23274831849E+02 -0.26492373649E+02  0.37443332967E+02  0.00000000000E+00 0.  1.
</event>
<event>
 4    1  0.2311775E+005  0.3041932E+02  0.7546771E-02  0.1415987E+00
          2   -1    0    0  502    0  0.00000000000E+00  0.00000000000E+00  0.12494458166E+04  0.12494458166E+04  0.00000000000E+00 0.  1.
         21   -1    0    0  503  502 -0.00000000000E+00 -0.00000000000E+00 -0.34633339743E+03  0.34633339743E+03  0.00000000000E+00 0.  1.
          2    1    1    2  501    0 -0.37853079732E+01  0.30182886829E+02  0.12485922597E+04  0.12489627562E+04  0.00000000000E+00 0.  1.
         21    1    1    2  503  501  0.37853079732E+01 -0.30182886829E+02 -0.34547984056E+03  0.34681645787E+03  0.00000000000E+00 0.  1.
</event>
<event>
 4    1  0.2229986E+005  0.4606567E+02  0.7546771E-02  0.1316195E+00
          2   -1    0    0  503    0  0.00000000000E+00  0.00000000000E+00  0.81124560372E+03  0.81124560372E+03  0.00000000000E+00 0.  1.
         21   -1    0    0  501  502 -0.00000000000E+00 -0.00000000000E+00 -0.33838446427E+01  0.33838446427E+01  0.00000000000E+00 0. -1.
          2    1    1    2  501    0  0.35882057103E+02 -0.28888123750E+02  0.59798452486E+03  0.59975623189E+03  0.00000000000E+00 0.  1.
         21    1    1    2  503  502 -0.35882057103E+02  0.28888123750E+02  0.20987723422E+03  0.21487321647E+03  0.00000000000E+00 0. -1.
</event>
<event>
 4    1  0.2229986E+005  0.2145558E+02  0.7546771E-02  0.1512859E+00
          2   -1    0    0  503    0  0.00000000000E+00  0.00000000000E+00  0.73895216366E+01  0.73895216366E+01  0.00000000000E+00 0.  1.
         21   -1    0    0  501  502 -0.00000000000E+00 -0.00000000000E+00 -0.64548294777E+02  0.64548294777E+02  0.00000000000E+00 0. -1.
          2    1    1    2  501    0  0.16321528748E+02 -0.13926584560E+02 -0.21861389196E+02  0.30631069126E+02  0.00000000000E+00 0.  1.
         21    1    1    2  503  502 -0.16321528748E+02  0.13926584560E+02 -0.35297383944E+02  0.41306747288E+02  0.00000000000E+00 0. -1.
</event>
<event>
 4    1  0.2229986E+005  0.2420172E+02  0.7546771E-02  0.1477935E+00
          2   -1    0    0  502    0  0.00000000000E+00  0.00000000000E+00  0.19995066319E+04  0.19995066319E+04  0.00000000000E+00 0.  1.
         21   -1    0    0  503  502 -0.00000000000E+00 -0.00000000000E+00 -0.54486288358E+00  0.54486288358E+00  0.00000000000E+00 0.  1.
          2    1    1    2  501    0  0.35512074204E+00  0.24199118029E+02  0.16794772209E+04  0.16796515885E+04  0.00000000000E+00 0.  1.
         21    1    1    2  503  501 -0.35512074204E+00 -0.24199118029E+02  0.31948454813E+03  0.32039990624E+03  0.00000000000E+00 0.  1.
</event>
<event>
 4    1  0.2229986E+005  0.2093382E+02  0.7546771E-02  0.1520212E+00
          2   -1    0    0  503    0  0.00000000000E+00  0.00000000000E+00  0.14774446297E+04  0.14774446297E+04  0.00000000000E+00 0. -1.
         21   -1    0    0  501  502 -0.00000000000E+00 -0.00000000000E+00 -0.70323698667E+02  0.70323698667E+02  0.00000000000E+00 0.  1.
          2    1    1    2  501    0 -0.19293273975E+02  0.81237033865E+01  0.14758108675E+04  0.14759593293E+04  0.00000000000E+00 0. -1.
         21    1    1    2  503  502  0.19293273975E+02 -0.81237033865E+01 -0.68689936484E+02  0.71808999098E+02  0.00000000000E+00 0.  1.
</event>
<event>
 4    1  0.2229986E+005  0.5348293E+02  0.7546771E-02  0.1283739E+00
          2   -1    0    0  503    0  0.00000000000E+00  0.00000000000E+00  0.14874829219E+04  0.14874829219E+04  0.00000000000E+00 0.  1.
         21   -1    0    0  501  502 -0.00000000000E+00 -0.00000000000E+00 -0.22608352051E+02  0.22608352051E+02  0.00000000000E+00 0.  1.
          2    1    1    2  501    0 -0.49779286303E+02 -0.19556239175E+02  0.14546585109E+04  0.14556413732E+04  0.00000000000E+00 0.  1.
         21    1    1    2  503  502  0.49779286303E+02  0.19556239175E+02  0.10216058910E+02  0.54449900782E+02  0.00000000000E+00 0.  1.
</event>
<event>
 4    1  0.2229986E+005  0.2075702E+02  0.7546771E-02  0.1522762E+00
          2   -1    0    0  502    0  0.00000000000E+00  0.00000000000E+00  0.32789098431E+02  0.32789098431E+02  0.00000000000E+00 0. -1.
         21   -1    0    0  503  502 -0.00000000000E+00 -0.00000000000E+00 -0.73321974809E+02  0.73321974809E+02  0.00000000000E+00 0. -1.
          2    1    1    2  501    0 -0.14125854029E+02 -0.15209018850E+02  0.27800479529E+02  0.34694677812E+02  0.00000000000E+00 0. -1.
         21    1    1    2  503  501  0.14125854029E+02  0.15209018850E+02 -0.68333355907E+02  0.71416395428E+02  0.00000000000E+00 0. -1.
</event>
<event>
 4    1  0.2229986E+005  0.2261175E+02  0.7546771E-02  0.1497432E+00
          2   -1    0    0  502    0  0.00000000000E+00  0.00000000000E+00  0.49747183916E+03  0.49747183916E+03  0.00000000000E+00 0. -1.
         21   -1    0    0  503  502 -0.00000000000E+00 -0.00000000000E+00 -0.43574233153E+02  0.43574233153E+02  0.00000000000E+00 0.  1.
          2    1    1    2  501    0 -0.14304447394E+02  0.17512106895E+02  0.49426240772E+03  0.49477936375E+03  0.00000000000E+00 0. -1.
         21    1    1    2  503  501  0.14304447394E+02 -0.17512106895E+02 -0.40364801720E+02  0.46266708560E+02  0.00000000000E+00 0.  1.
</event>
<event>
 4    1  0.2229986E+005  0.2069417E+02  0.7546771E-02  0.1523676E+00
          2   -1    0    0  502    0  0.00000000000E+00  0.00000000000E+00  0.80125756554E+03  0.80125756554E+03  0.00000000000E+00 0. -1.
         21   -1    0    0  503  502 -0.00000000000E+00 -0.00000000000E+00 -0.17580117094E+01  0.17580117094E+01  0.00000000000E+00 0.  1.
          2    1    1    2  501    0  0.11253587456E+02  0.17366785494E+02  0.73470935981E+03  0.73500074276E+03  0.00000000000E+00 0. -1.
         21    1    1    2  503  501 -0.11253587456E+02 -0.17366785494E+02  0.64790194014E+02  0.68014834481E+02  0.00000000000E+00 0.  1.
</event>
<event>
 4    1  0.2229986E+005  0.3774865E+02  0.7546771E-02  0.1362209E+00
          2   -1    0    0  502    0  0.00000000000E+00  0.00000000000E+00  0.99104939409E+03  0.99104939409E+03  0.00000000000E+00 0.  1.
         21   -1    0    0  503  502 -0.00000000000E+00 -0.00000000000E+00 -0.33699675902E+01  0.33699675902E+01  0.00000000000E+00 0.  1.
          2    1    1    2  501    0  0.23353715469E+02  0.29657456000E+02  0.87032301554E+03  0.87114126989E+03  0.00000000000E+00 0.  1.
         21    1    1    2  503  501 -0.23353715469E+02 -0.29657456000E+02  0.11735641095E+03  0.12327809179E+03  0.00000000000E+00 0.  1.
</event>
<event>
 4    1  0.2229986E+005  0.2101545E+02  0.7546771E-02  0.1519044E+00
          2   -1    0    0  502    0  0.00000000000E+00  0.00000000000E+00  0.36276442611E+03  0.36276442611E+03  0.00000000000E+00 0. -1.
         21   -1    0    0  503  502 -0.00000000000E+00 -0.00000000000E+00 -0.51394718777E+01  0.51394718777E+01  0.00000000000E+00 0. -1.
          2    1    1    2  501    0  0.14191451584E+02 -0.15500053474E+02  0.33950657951E+03  0.34015638533E+03  0.00000000000E+00 0. -1.
         21    1    1    2  503  501 -0.14191451584E+02  0.15500053474E+02  0.18118374728E+02  0.27747512655E+02  0.00000000000E+00 0. -1.
</event>
<event>
 4    1  0.2229986E+005  0.3283686E+02  0.7546771E-02  0.1396444E+00
          2   -1    0    0  503    0  0.00000000000E+00  0.00000000000E+00  0.86740889324E+03  0.86740889324E+03  0.00000000000E+00 0. -1.
         21   -1    0    0  501  502 -0.00000000000E+00 -0.00000000000E+00 -0.25416658091E+01  0.25416658091E+01  0.00000000000E+00 0. -1.
          2    1    1    2  501    0  0.22371848839E+02 -0.24036631357E+02  0.74334781492E+03  0.74407273382E+03  0.00000000000E+00 0. -1.
         21    1    1    2  503  502 -0.22371848839E+02  0.24036631357E+02  0.12151941250E+03  0.12587782522E+03  0.00000000000E+00 0. -1.
</event>
<event>
 4    1  0.2229986E+005  0.2289052E+02  0.7546771E-02  0.1493877E+00
          2   -1    0    0  503    0  0.00000000000E+00  0.00000000000E+00  0.11274282856E+04  0.11274282856E+04  0.00000000000E+00 0.  1.
         21   -1    0    0  501  502 -0.00000000000E+00 -0.00000000000E+00 -0.68640256678E+00  0.68640256678E+00  0.00000000000E+00 0.  1.
          2    1    1    2  501    0  0.18302059819E+02  0.13748108611E+02  0.88389975296E+03  0.88419610335E+03  0.00000000000E+00 0.  1.
         21    1    1    2  503  502 -0.18302059819E+02 -0.13748108611E+02  0.24284213008E+03  0.24391858483E+03  0.00000000000E+00 0.  1.
</event>
<event>
 4    1  0.2229986E+005  0.2551111E+02  0.7546771E-02  0.1463166E+00
          2   -1    0    0  503    0  0.00000000000E+00  0.00000000000E+00  0.83900721765E+02  0.83900721765E+02  0.00000000000E+00 0.  1.
         21   -1    0    0  501  502 -0.00000000000E+00 -0.00000000000E+00 -0.12939576091E+03  0.12939576091E+03  0.00000000000E+00 0.  1.
          2    1    1    2  501    0 -0.25462705434E+02  0.15708370685E+01  0.80654658972E+02  0.84593090209E+02  0.00000000000E+00 0.  1.
         21    1    1    2  503  502  0.25462705434E+02 -0.15708370685E+01 -0.12614969812E+03  0.12870339247E+03  0.00000000000E+00 0.  1.
</event>
<event>
 4    1  0.2229986E+005  0.3902375E+02  0.7546771E-02  0.1354304E+00
          2   -1    0    0  503    0  0.00000000000E+00  0.00000000000E+00  0.53544336386E+03  0.53544336386E+03  0.00000000000E+00 0. -1.
         21   -1    0    0  501  502 -0.00000000000E+00 -0.00000000000E+00 -0.64757829639E+02  0.64757829639E+02  0.00000000000E+00 0. -1.
          2    1    1    2  501    0 -0.24833363912E+02 -0.30102439856E+02  0.52877931877E+03  0.53021733356E+03  0.00000000000E+00 0. -1.
         21    1    1    2  503  502  0.24833363912E+02  0.30102439856E+02 -0.58093784550E+02  0.69983859938E+02  0.00000000000E+00 0. -1.
</event>
<event>
 4    1  0.2229986E+005  0.2171357E+02  0.7546771E-02  0.1509316E+00
          2   -1    0    0  503    0  0.00000000000E+00  0.00000000000E+00  0.38778490446E+02  0.38778490446E+02  0.00000000000E+00 0. -1.
         21   -1    0    0  501  502 -0.00000000000E+00 -0.00000000000E+00 -0.26077506254E+02  0.26077506254E+02  0.00000000000E+00 0.  1.
          2    1    1    2  501    0  0.20576818377E+02 -0.69335261676E+01  0.30042117841E+02  0.37067615030E+02  0.00000000000E+00 0. -1.
         21    1    1    2  503  502 -0.20576818377E+02  0.69335261676E+01 -0.17341133649E+02  0.27788381670E+02  0.00000000000E+00 0.  1.
</event>
<event>
 4    1  0.2229986E+005  0.2333963E+02  0.7546771E-02  0.1488277E+00
          2   -1    0    0  502    0  0.00000000000E+00  0.00000000000E+00  0.30714235239E+03  0.30714235239E+03  0.00000000000E+00 0.  1.
         21   -1    0    0  503  502 -0.00000000000E+00 -0.00000000000E+00 -0.46721096494E+01  0.46721096494E+01  0.00000000000E+00 0. -1.
          2    1    1    2  501    0  0.10945748707E+02 -0.20613803557E+02  0.27403541476E+03  0.27502753835E+03  0.00000000000E+00 0.  1.
         21    1    1    2  503  501 -0.10945748707E+02  0.20613803557E+02  0.28434827985E+02  0.36786923687E+02  0.00000000000E+00 0. -1.
</event>
<event>
 4    1  0.2229986E+005  0.2676112E+02  0.7546771E-02  0.1450023E+00
          2   -1    0    0  502    0  0.00000000000E+00  0.00000000000E+00  0.25740469592E+04  0.25740469592E+04  0.00000000000E+00 0. -1.
         21   -1    0    0  503  502 -0.00000000000E+00 -0.00000000000E+00 -0.37108109587E+00  0.37108109587E+00  0.00000000000E+00 0.  1.
          2    1    1    2  501    0  0.26759547742E+02  0.28967326492E+00  0.19307493867E+04  0.19309348387E+04  0.00000000000E+00 0. -1.
         21    1    1    2  503  501 -0.26759547742E+02 -0.28967326492E+00  0.64292649146E+03  0.64348320159E+03  0.00000000000E+00 0.  1.
</event>
<event>
 4    1  0.2229986E+005  0.2495040E+02  0.7546771E-02  0.1469359E+00
          2   -1    0    0  503    0  0.00000000000E+00  0.00000000000E+00  0.23056927254E+02  0.23056927254E+02  0.00000000000E+00 0.  1.
         21   -1    0    0  501  502 -0.00000000000E+00 -0.00000000000E+00 -0.81959589439E+02  0.81959589439E+02  0.00000000000E+00 0.  1.
          2    1    1    2  501    0  0.20452236484E+02 -0.14290852803E+02  0.13547036223E+02  0.28390925337E+02  0.00000000000E+00 0.  1.
         21    1    1    2  503  502 -0.20452236484E+02  0.14290852803E+02 -0.72449698408E+02  0.76625591355E+02  0.00000000000E+00 0.  1.
</event>
<event>
 4    1  0.2229986E+005  0.2019335E+02  0.7546771E-02  0.1531100E+00
          2   -1    0    0  503    0  0.00000000000E+00  0.00000000000E+00  0.28191422588E+03  0.28191422588E+03  0.00000000000E+00 0. -1.
         21   -1    0    0  501  502 -0.00000000000E+00 -0.00000000000E+00 -0.12191603107E+02  0.12191603107E+02  0.00000000000E+00 0. -1.
          2    1    1    2  501    0  0.20070788802E+02  0.22214887566E+01  0.27291555660E+03  0.27366160237E+03  0.00000000000E+00 0. -1.
         21    1    1    2  503  502 -0.20070788802E+02 -0.22214887566E+01 -0.31929338327E+01  0.20444226615E+02  0.00000000000E+00 0. -1.
</event>
<event>
 4    1  0.2229986E+005  0.2284313E+02  0.7546771E-02  0.1494477E+00
          2   -1    0    0  502    0  0.00000000000E+00  0.00000000000E+00  0.51686882303E+03  0.51686882303E+03  0.00000000000E+00 0. -1.
         21   -1    0    0  503  502 -0.00000000000E+00 -0.00000000000E+00 -0.43608042937E+02  0.43608042937E+02  0.00000000000E+00 0. -1.
          2    1    1    2  501    0 -0.16665525327E+02  0.15622704500E+02  0.51360596869E+03  0.51411370309E+03  0.00000000000E+00 0. -1.
         21    1    1    2  503  501  0.16665525327E+02 -0.15622704500E+02 -0.40345188589E+02  0.46363162884E+02  0.00000000000E+00 0. -1.
</event>
<event>
 4    1  0.2229986E+005  0.2069162E+02  0.7546771E-02  0.1523714E+00
          2   -1    0    0  503    0  0.00000000000E+00  0.00000000000E+00  0.83080673387E+03  0.83080673387E+03  0.00000000000E+00 0.  1.
         21   -1    0    0  501  502 -0.00000000000E+00 -0.00000000000E+00 -0.71154320999E+03  0.71154320999E+03  0.00000000000E+00 0.  1.
          2    1    1    2  501    0 -0.91739067309E+01 -0.18546769676E+02  0.83052742201E+03  0.83078513585E+03  0.00000000000E+00 0.  1.
         21    1    1    2  503  502  0.91739067309E+01  0.18546769676E+02 -0.71126389813E+03  0.71156480802E+03  0.00000000000E+00 0.  1.
</event>
<event>
 4    1  0.2229986E+005  0.2431144E+02  0.7546771E-02  0.1476656E+00
          2   -1    0    0  502    0  0.00000000000E+00  0.00000000000E+00  0.37681107319E+02  0.37681107319E+02  0.00000000000E+00 0.  1.
         21   -1    0    0  503  502 -0.00000000000E+00 -0.00000000000E+00 -0.61960657873E+02  0.61960657873E+02  0.00000000000E+00 0. -1.
          2    1    1    2  501    0  0.20939439130E+02 -0.12352561899E+02  0.30915611988E+02  0.39329644813E+02  0.00000000000E+00 0.  1.
         21    1    1    2  503  501 -0.20939439130E+02  0.12352561899E+02 -0.55195162542E+02  0.60312120379E+02  0.00000000000E+00 0. -1.
</event>
<event>
 4    1  0.2229986E+005  0.3197291E+02  0.7546771E-02  0.1403193E+00
          2   -1    0    0  502    0  0.00000000000E+00  0.00000000000E+00  0.71051409520E+03  0.71051409520E+03  0.00000000000E+00 0.  1.
         21   -1    0    0  503  502 -0.00000000000E+00 -0.00000000000E+00 -0.43739424572E+02  0.43739424572E+02  0.00000000000E+00 0. -1.
          2    1    1    2  501    0 -0.22310408188E+02 -0.22902245309E+02  0.70425959930E+03  0.70498500009E+03  0.00000000000E+00 0.  1.
         21    1    1    2  503  501  0.22310408188E+02  0.22902245309E+02 -0.37484928671E+02  0.49268519677E+02  0.00000000000E+00 0. -1.
</event>
<event>
 4    1  0.2229986E+005  0.3586737E+02  0.7546771E-02  0.1374566E+00
          2   -1    0    0  503    0  0.00000000000E+00  0.00000000000E+00  0.12945562489E+03  0.12945562489E+03  0.00000000000E+00 0. -1.
         21   -1    0    0  501  502 -0.00000000000E+00 -0.00000000000E+00 -0.22338151067E+02  0.22338151067E+02  0.00000000000E+00 0. -1.
          2    1    1    2  501    0  0.35551948798E+02 -0.47463030731E+01  0.11010737761E+03  0.11580199938E+03  0.00000000000E+00 0. -1.
         21    1    1    2  503  502 -0.35551948798E+02  0.47463030731E+01 -0.29899037917E+01  0.35991776573E+02  0.00000000000E+00 0. -1.
</event>
<event>
 4    1  0.2229986E+005  0.4744494E+02  0.7546771E-02  0.1309647E+00
          2   -1    0    0  503    0  0.00000000000E+00  0.00000000000E+00  0.85646269154E+03  0.85646269154E+03  0.00000000000E+00 0. -1.
         21   -1    0    0  501  502 -0.00000000000E+00 -0.00000000000E+00 -0.97749163020E+01  0.97749163020E+01  0.00000000000E+00 0. -1.
          2    1    1    2  501    0  0.44720111859E+02 -0.15847212233E+02  0.79368455026E+03  0.79510136955E+03  0.00000000000E+00 0. -1.
         21    1    1    2  503  502 -0.44720111859E+02  0.15847212233E+02  0.53003224980E+02  0.71136238293E+02  0.00000000000E+00 0. -1.
</event>
<event>
 4    1  0.2229986E+005  0.2522586E+02  0.7546771E-02  0.1466292E+00
          2   -1    0    0  503    0  0.00000000000E+00  0.00000000000E+00  0.45159728741E+03  0.45159728741E+03  0.00000000000E+00 0. -1.
         21   -1    0    0  501  502 -0.00000000000E+00 -0.00000000000E+00 -0.33814874196E+01  0.33814874196E+01  0.00000000000E+00 0. -1.
          2    1    1    2  501    0  0.12889452208E+02 -0.21684231808E+02  0.39784949983E+03  0.39864842706E+03  0.00000000000E+00 0. -1.
         21    1    1    2  503  502 -0.12889452208E+02  0.21684231808E+02  0.50366300165E+02  0.56330347768E+02  0.00000000000E+00 0. -1.
</event>
<event>
 4    1  0.2229986E+005  0.2335157E+02  0.7546771E-02  0.1488130E+00
          2   -1    0    0  503    0  0.00000000000E+00  0.00000000000E+00  0.79896519014E+03  0.79896519014E+03  0.00000000000E+00 0.  1.
         21   -1    0    0  501  502 -0.00000000000E+00 -0.00000000000E+00 -0.30275646407E+01  0.30275646407E+01  0.00000000000E+00 0.  1.
          2    1    1    2  501    0  0.21858548172E+02 -0.82158085546E+01  0.75088446999E+03  0.75124748446E+03  0.00000000000E+00 0.  1.
         21    1    1    2  503  502 -0.21858548172E+02  0.82158085546E+01  0.45053155513E+02  0.50745270323E+02  0.00000000000E+00 0.  1.
</event>
<event>
 4    1  0.2229986E+005  0.2353628E+02  0.7546771E-02  0.1485872E+00
          2   -1    0    0  503    0  0.00000000000E+00  0.00000000000E+00  0.34013399493E+02  0.34013399493E+02  0.00000000000E+00 0.  1.
         21   -1    0    0  501  502 -0.00000000000E+00 -0.00000000000E+00 -0.25291844549E+02  0.25291844549E+02  0.00000000000E+00 0.  1.
          2    1    1    2  501    0  0.18738262596E+02  0.14241977721E+02 -0.13333181392E+02  0.27050510911E+02  0.00000000000E+00 0.  1.
         21    1    1    2  503  502 -0.18738262596E+02 -0.14241977721E+02  0.22054736336E+02  0.32254733131E+02  0.00000000000E+00 0.  1.
</event>
<event>
 4    1  0.2229986E+005  0.3310678E+02  0.7546771E-02  0.1394385E+00
          2   -1    0    0  502    0  0.00000000000E+00  0.00000000000E+00  0.29761225918E+03  0.29761225918E+03  0.00000000000E+00 0.  1.
         21   -1    0    0  503  502 -0.00000000000E+00 -0.00000000000E+00 -0.12044463340E+02  0.12044463340E+02  0.00000000000E+00 0.  1.
          2    1    1    2  501    0  0.32616380971E+02  0.56772142042E+01  0.27178755615E+03  0.27379652070E+03  0.00000000000E+00 0.  1.
         21    1    1    2  503  501 -0.32616380971E+02 -0.56772142042E+01  0.13780239692E+02  0.35860201822E+02  0.00000000000E+00 0.  1.
</event>
<event>
 4    1  0.2229986E+005  0.3707771E+02  0.7546771E-02  0.1366517E+00
          2   -1    0    0  502    0  0.00000000000E+00  0.00000000000E+00  0.14764072894E+04  0.14764072894E+04  0.00000000000E+00 0. -1.
         21   -1    0    0  503  502 -0.00000000000E+00 -0.00000000000E+00 -0.22886679900E+02  0.22886679900E+02  0.00000000000E+00 0. -1.
          2    1    1    2  501    0 -0.32574838738E+02  0.17709791967E+02  0.14609991563E+04  0.14614695657E+04  0.00000000000E+00 0. -1.
         21    1    1    2  503  501  0.32574838738E+02 -0.17709791967E+02 -0.74785467207E+01  0.37824403649E+02  0.00000000000E+00 0. -1.
</event>
<event>
 4    1  0.2229986E+005  0.2517219E+02  0.7546771E-02  0.1466886E+00
          2   -1    0    0  503    0  0.00000000000E+00  0.00000000000E+00  0.15016723335E+04  0.15016723335E+04  0.00000000000E+00 0. -1.
         21   -1    0    0  501  502 -0.00000000000E+00 -0.00000000000E+00 -0.48035362621E+01  0.48035362621E+01  0.00000000000E+00 0. -1.
          2    1    1    2  501    0 -0.20783614391E+02  0.14201418605E+02  0.14678288059E+04  0.14680446323E+04  0.00000000000E+00 0. -1.
         21    1    1    2  503  502  0.20783614391E+02 -0.14201418605E+02  0.29039991314E+02  0.38431237464E+02  0.00000000000E+00 0. -1.
</event>
<event>
 4    1  0.2229986E+005  0.2162235E+02  0.7546771E-02  0.1510562E+00
          2   -1    0    0  502    0  0.00000000000E+00  0.00000000000E+00  0.15053069703E+04  0.15053069703E+04  0.00000000000E+00 0. -1.
         21   -1    0    0  503  502 -0.00000000000E+00 -0.00000000000E+00 -0.43711000623E+00  0.43711000623E+00  0.00000000000E+00 0. -1.
          2    1    1    2  501    0 -0.20890553349E+02  0.55776924517E+01  0.11574897985E+04  0.11576917377E+04  0.00000000000E+00 0. -1.
         21    1    1    2  503  501  0.20890553349E+02 -0.55776924517E+01  0.34738006178E+03  0.34805234260E+03  0.00000000000E+00 0. -1.
</event>
<event>
 4    1  0.2229986E+005  0.5651176E+02  0.7546771E-02  0.1272168E+00
          2   -1    0    0  502    0  0.00000000000E+00  0.00000000000E+00  0.26837165914E+04  0.26837165914E+04  0.00000000000E+00 0. -1.
         21   -1    0    0  503  502 -0.00000000000E+00 -0.00000000000E+00 -0.94107546367E+01  0.94107546367E+01  0.00000000000E+00 0. -1.
          2    1    1    2  501    0 -0.39511074341E+02 -0.40403635027E+02  0.25957042841E+04  0.25963193774E+04  0.00000000000E+00 0. -1.
         21    1    1    2  503  501  0.39511074341E+02  0.40403635027E+02  0.78601552644E+02  0.96807968665E+02  0.00000000000E+00 0. -1.
</event>
<event>
 4    1  0.2229986E+005  0.3060734E+02  0.7546771E-02  0.1414391E+00
          2   -1    0    0  503    0  0.00000000000E+00  0.00000000000E+00  0.13389904248E+03  0.13389904248E+03  0.00000000000E+00 0.  1.
         21   -1    0    0  501  502 -0.00000000000E+00 -0.00000000000E+00 -0.10249898806E+02  0.10249898806E+02  0.00000000000E+00 0.  1.
          2    1    1    2  501    0 -0.28276850650E+02  0.11714467511E+02  0.10243131040E+03  0.10690641881E+03  0.00000000000E+00 0.  1.
         21    1    1    2  503  502  0.28276850650E+02 -0.11714467511E+02  0.21217833270E+02  0.37242522476E+02  0.00000000000E+00 0.  1.
</event>
<event>
 4    1  0.2229986E+005  0.2014779E+02  0.7546771E-02  0.1531788E+00
          2   -1    0    0  502    0  0.00000000000E+00  0.00000000000E+00  0.29253782193E+02  0.29253782193E+02  0.00000000000E+00 0. -1.
         21   -1    0    0  503  502 -0.00000000000E+00 -0.00000000000E+00 -0.11943413746E+03  0.11943413746E+03  0.00000000000E+00 0. -1.
          2    1    1    2  501    0 -0.19595961248E+02 -0.46831151560E+01  0.24801708827E+02  0.31953998584E+02  0.00000000000E+00 0. -1.
         21    1    1    2  503  501  0.19595961248E+02  0.46831151560E+01 -0.11498206409E+03  0.11673392107E+03  0.00000000000E+00 0. -1.
</event>
<event>
 4    1  0.2229986E+005  0.2405048E+02  0.7546771E-02  0.1479712E+00
          2   -1    0    0  503    0  0.00000000000E+00  0.00000000000E+00  0.22743919417E+01  0.22743919417E+01  0.00000000000E+00 0.  1.
         21   -1    0    0  501  502 -0.00000000000E+00 -0.00000000000E+00 -0.40922973867E+03  0.40922973867E+03  0.00000000000E+00 0.  1.
          2    1    1    2  501    0 -0.16131479697E+02 -0.17838189510E+02 -0.76887917201E+02  0.80561637606E+02  0.00000000000E+00 0.  1.
         21    1    1    2  503  502  0.16131479697E+02  0.17838189510E+02 -0.33006742953E+03  0.33094249301E+03  0.00000000000E+00 0.  1.
</event>
<event>
 4    1  0.2229986E+005  0.2023459E+02  0.7546771E-02  0.1530479E+00
          2   -1    0    0  503    0  0.00000000000E+00  0.00000000000E+00  0.53643085539E+02  0.53643085539E+02  0.00000000000E+00 0. -1.
         21   -1    0    0  501  502 -0.00000000000E+00 -0.00000000000E+00 -0.11170679860E+02  0.11170679860E+02  0.00000000000E+00 0. -1.
          2    1    1    2  501    0 -0.18420168127E+02  0.83747330609E+01  0.39474251580E+02  0.44358260623E+02  0.00000000000E+00 0. -1.
         21    1    1    2  503  502  0.18420168127E+02 -0.83747330609E+01  0.29981540981E+01  0.20455504776E+02  0.00000000000E+00 0. -1.
</event>
<event>
 4    1  0.2229986E+005  0.2808921E+02  0.7546771E-02  0.1436963E+00
          2   -1    0    0  502    0  0.00000000000E+00  0.00000000000E+00  0.18260105530E+04  0.18260105530E+04  0.00000000000E+00 0.  1.
         21   -1    0    0  503  502 -0.00000000000E+00 -0.00000000000E+00 -0.34948358023E+01  0.34948358023E+01  0.00000000000E+00 0.  1.
          2    1    1    2  501    0 -0.18231385511E+02  0.21368672856E+02  0.17675967754E+04  0.17678199468E+04  0.00000000000E+00 0.  1.
         21    1    1    2  503  501  0.18231385511E+02 -0.21368672856E+02  0.54918941790E+02  0.61685442080E+02  0.00000000000E+00 0.  1.
</event>
<event>
 4    1  0.2229986E+005  0.2082874E+02  0.7546771E-02  0.1521724E+00
          2   -1    0    0  503    0  0.00000000000E+00  0.00000000000E+00  0.11462005161E+01  0.11462005161E+01  0.00000000000E+00 0.  1.
         21   -1    0    0  501  502 -0.00000000000E+00 -0.00000000000E+00 -0.45914569812E+03  0.45914569812E+03  0.00000000000E+00 0. -1.
          2    1    1    2  501    0 -0.13085507846E+02 -0.16205113973E+02 -0.13254575140E+03  0.13417232370E+03  0.00000000000E+00 0.  1.
         21    1    1    2  503  502  0.13085507846E+02  0.16205113973E+02 -0.32545374620E+03  0.32611957493E+03  0.00000000000E+00 0. -1.
</event>
<event>
 4    1  0.2229986E+005  0.2650843E+02  0.7546771E-02  0.1452609E+00
          2   -1    0    0  502    0  0.00000000000E+00  0.00000000000E+00  0.72603034805E+02  0.72603034805E+02  0.00000000000E+00 0.  1.
         21   -1    0    0  503  502 -0.00000000000E+00 -0.00000000000E+00 -0.17283404842E+02  0.17283404842E+02  0.00000000000E+00 0. -1.
          2    1    1    2  501    0  0.10890543525E+02  0.24168014982E+02  0.57471952403E+02  0.63290774995E+02  0.00000000000E+00 0.  1.
         21    1    1    2  503  501 -0.10890543525E+02 -0.24168014982E+02 -0.21523224406E+01  0.26595664653E+02  0.00000000000E+00 0. -1.
</event>
<event>
 4    1  0.2229986E+005  0.2483597E+02  0.7546771E-02  0.1470647E+00
          2   -1    0    0  502    0  0.00000000000E+00  0.00000000000E+00  0.12879152955E+04  0.12879152955E+04  0.00000000000E+00 0. -1.
         21   -1    0    0  503  502 -0.00000000000E+00 -0.00000000000E+00 -0.22671793512E+01  0.22671793512E+01  0.00000000000E+00 0. -1.
          2    1    1    2  501    0 -0.20486023080E+02 -0.14040943546E+02  0.12157412679E+04  0.12159949243E+04  0.00000000000E+00 0. -1.
         21    1    1    2  503  501  0.20486023080E+02  0.14040943546E+02  0.69906848217E+02  0.74187550606E+02  0.00000000000E+00 0. -1.
</event>
<event>
 4    1  0.2229986E+005  0.7723932E+02  0.7546771E-02  0.1210406E+00
          2   -1    0    0  502    0  0.00000000000E+00  0.00000000000E+00  0.29942269932E+02  0.29942269932E+02  0.00000000000E+00 0. -1.
         21   -1    0    0  503  502 -0.00000000000E+00 -0.00000000000E+00 -0.60875855898E+03  0.60875855898E+03  0.00000000000E+00 0.  1.
          2    1    1    2  501    0 -0.25840020403E+02  0.72788779884E+02 -0.27482557533E+02  0.81982950056E+02  0.00000000000E+00 0. -1.
         21    1    1    2  503  501  0.25840020403E+02 -0.72788779884E+02 -0.55133373151E+03  0.55671787885E+03  0.00000000000E+00 0.  1.
</event>
<event>
 4    1  0.2229986E+005  0.8663400E+02  0.7546771E-02  0.1189231E+00
          2   -1    0    0  503    0  0.00000000000E+00  0.00000000000E+00  0.54081513152E+03  0.54081513152E+03  0.00000000000E+00 0.  1.
         21   -1    0    0  501  502 -0.00000000000E+00 -0.00000000000E+00 -0.14932806170E+02  0.14932806170E+02  0.00000000000E+00 0.  1.
          2    1    1    2  501    0  0.86631235344E+02 -0.69200787302E+00  0.33679224271E+03  0.34775632930E+03  0.00000000000E+00 0.  1.
         21    1    1    2  503  502 -0.86631235344E+02  0.69200787302E+00  0.18909008264E+03  0.20799160840E+03  0.00000000000E+00 0.  1.
</event>
<event>
 4    1  0.2229986E+005  0.3640781E+02  0.7546771E-02  0.1370927E+00
          2   -1    0    0  503    0  0.00000000000E+00  0.00000000000E+00  0.81197503905E+02  0.81197503905E+02  0.00000000000E+00 0. -1.
         21   -1    0    0  501  502 -0.00000000000E+00 -0.00000000000E+00 -0.17978645857E+02  0.17978645857E+02  0.00000000000E+00 0. -1.
          2    1    1    2  501    0 -0.36240480420E+02 -0.34865450276E+01  0.46649632215E+02  0.59175303996E+02  0.00000000000E+00 0. -1.
         21    1    1    2  503  502  0.36240480420E+02  0.34865450276E+01  0.16569225833E+02  0.40000845766E+02  0.00000000000E+00 0. -1.
</event>
<event>
 4    1  0.2229986E+005  0.2130792E+02  0.7546771E-02  0.1514914E+00
          2   -1    0    0  503    0  0.00000000000E+00  0.00000000000E+00  0.18706864518E+03  0.18706864518E+03  0.00000000000E+00 0. -1.
         21   -1    0    0  501  502 -0.00000000000E+00 -0.00000000000E+00 -0.35430420764E+01  0.35430420764E+01  0.00000000000E+00 0. -1.
          2    1    1    2  501    0  0.21030416054E+02  0.34277009591E+01  0.14525115746E+03  0.14680574334E+03  0.00000000000E+00 0. -1.
         21    1    1    2  503  502 -0.21030416054E+02 -0.34277009591E+01  0.38274445639E+02  0.43805943915E+02  0.00000000000E+00 0. -1.
</event>
<event>
 4    1  0.2229986E+005  0.3015371E+02  0.7546771E-02  0.1418265E+00
          2   -1    0    0  502    0  0.00000000000E+00  0.00000000000E+00  0.28692220465E+03  0.28692220465E+03  0.00000000000E+00 0. -1.
         21   -1    0    0  503  502 -0.00000000000E+00 -0.00000000000E+00 -0.16868667342E+03  0.16868667342E+03  0.00000000000E+00 0. -1.
          2    1    1    2  501    0 -0.20318466818E+02  0.22280177791E+02  0.28477228095E+03  0.28636427573E+03  0.00000000000E+00 0. -1.
         21    1    1    2  503  501  0.20318466818E+02 -0.22280177791E+02 -0.16653674971E+03  0.16924460234E+03  0.00000000000E+00 0. -1.
</event>
<event>
 4    1  0.2229986E+005  0.2084836E+02  0.7546771E-02  0.1521441E+00
          2   -1    0    0  502    0  0.00000000000E+00  0.00000000000E+00  0.14304926448E+04  0.14304926448E+04  0.00000000000E+00 0.  1.
         21   -1    0    0  503  502 -0.00000000000E+00 -0.00000000000E+00 -0.42830412010E+01  0.42830412010E+01  0.00000000000E+00 0. -1.
          2    1    1    2  501    0  0.16490142258E+02 -0.12756532382E+02  0.14045779809E+04  0.14047327000E+04  0.00000000000E+00 0.  1.
         21    1    1    2  503  501 -0.16490142258E+02  0.12756532382E+02  0.21631622729E+02  0.30042986070E+02  0.00000000000E+00 0. -1.
</event>
<event>
 4    1  0.2229986E+005  0.2419107E+02  0.7546771E-02  0.1478060E+00
          2   -1    0    0  503    0  0.00000000000E+00  0.00000000000E+00  0.17186415690E+04  0.17186415690E+04  0.00000000000E+00 0. -1.
         21   -1    0    0  501  502 -0.00000000000E+00 -0.00000000000E+00 -0.49197370862E+02  0.49197370862E+02  0.00000000000E+00 0.  1.
          2    1    1    2  501    0 -0.24090275605E+02 -0.22060522436E+01  0.17155773542E+04  0.17157479029E+04  0.00000000000E+00 0. -1.
         21    1    1    2  503  502  0.24090275605E+02  0.22060522436E+01 -0.46133156056E+02  0.52091036973E+02  0.00000000000E+00 0.  1.
</event>
<event>
 4    1  0.2229986E+005  0.6707629E+02  0.7546771E-02  0.1237516E+00
          2   -1    0    0  502    0  0.00000000000E+00  0.00000000000E+00  0.19782237580E+03  0.19782237580E+03  0.00000000000E+00 0. -1.
         21   -1    0    0  503  502 -0.00000000000E+00 -0.00000000000E+00 -0.12199461270E+03  0.12199461270E+03  0.00000000000E+00 0. -1.
          2    1    1    2  501    0 -0.53444569205E+02 -0.40532786053E+02  0.18214809338E+03  0.19410604485E+03  0.00000000000E+00 0. -1.
         21    1    1    2  503  501  0.53444569205E+02  0.40532786053E+02 -0.10632033028E+03  0.12571094365E+03  0.00000000000E+00 0. -1.
</event>
<event>
 4    1  0.2229986E+005  0.2662983E+02  0.7546771E-02  0.1451362E+00
          2   -1    0    0  502    0  0.00000000000E+00  0.00000000000E+00  0.16495456452E+04  0.16495456452E+04  0.00000000000E+00 0. -1.
         21   -1    0    0  503  502 -0.00000000000E+00 -0.00000000000E+00 -0.10635628015E+01  0.10635628015E+01  0.00000000000E+00 0. -1.
          2    1    1    2  501    0  0.23857328655E+02  0.11831127321E+02  0.14612714093E+04  0.14615140367E+04  0.00000000000E+00 0. -1.
         21    1    1    2  503  501 -0.23857328655E+02 -0.11831127321E+02  0.18721067309E+03  0.18909517133E+03  0.00000000000E+00 0. -1.
</event>
<event>
 4    1  0.2229986E+005  0.2058901E+02  0.7546771E-02  0.1525214E+00
          2   -1    0    0  502    0  0.00000000000E+00  0.00000000000E+00  0.28646671541E+03  0.28646671541E+03  0.00000000000E+00 0.  1.
         21   -1    0    0  503  502 -0.00000000000E+00 -0.00000000000E+00 -0.44092033262E+01  0.44092033262E+01  0.00000000000E+00 0.  1.
          2    1    1    2  501    0 -0.67977824002E+01 -0.19434441132E+02  0.25957529315E+03  0.26039055314E+03  0.00000000000E+00 0.  1.
         21    1    1    2  503  501  0.67977824002E+01  0.19434441132E+02  0.22482218932E+02  0.30485365601E+02  0.00000000000E+00 0.  1.
</event>
<event>
 4    1  0.2229986E+005  0.2255367E+02  0.7546771E-02  0.1498180E+00
          2   -1    0    0  502    0  0.00000000000E+00  0.00000000000E+00  0.10888757757E+03  0.10888757757E+03  0.00000000000E+00 0. -1.
         21   -1    0    0  503  502 -0.00000000000E+00 -0.00000000000E+00 -0.48697860271E+03  0.48697860271E+03  0.00000000000E+00 0.  1.
          2    1    1    2  501    0 -0.47164829934E+01  0.22054997595E+02  0.10745512466E+03  0.10979650243E+03  0.00000000000E+00 0. -1.
         21    1    1    2  503  501  0.47164829934E+01 -0.22054997595E+02 -0.48554614980E+03  0.48606967785E+03  0.00000000000E+00 0.  1.
</event>
<event>
 4    1  0.2229986E+005  0.2262118E+02  0.7546771E-02  0.1497311E+00
          2   -1    0    0  502    0  0.00000000000E+00  0.00000000000E+00  0.10106920646E+04  0.10106920646E+04  0.00000000000E+00 0.  1.
         21   -1    0    0  503  502 -0.00000000000E+00 -0.00000000000E+00 -0.23586673516E+01  0.23586673516E+01  0.00000000000E+00 0.  1.
          2    1    1    2  501    0 -0.21301581217E+02  0.76131832026E+01  0.95304734894E+03  0.95331577520E+03  0.00000000000E+00 0.  1.
         21    1    1    2  503  501  0.21301581217E+02 -0.76131832026E+01  0.55286048318E+02  0.59734956763E+02  0.00000000000E+00 0.  1.
</event>
<event>
 4    1  0.2229986E+005  0.2316117E+02  0.7546771E-02  0.1490484E+00
          2   -1    0    0  502    0  0.00000000000E+00  0.00000000000E+00  0.30670549718E+03  0.30670549718E+03  0.00000000000E+00 0.  1.
         21   -1    0    0  503  502 -0.00000000000E+00 -0.00000000000E+00 -0.29184295195E+01  0.29184295195E+01  0.00000000000E+00 0.  1.
          2    1    1    2  501    0  0.20322918780E+02  0.11109392324E+02  0.24988987244E+03  0.25096092918E+03  0.00000000000E+00 0.  1.
         21    1    1    2  503  501 -0.20322918780E+02 -0.11109392324E+02  0.53897195212E+02  0.58662997514E+02  0.00000000000E+00 0.  1.
</event>
<event>
 4    1  0.2229986E+005  0.7587007E+02  0.7546771E-02  0.1213774E+00
          2   -1    0    0  503    0  0.00000000000E+00  0.00000000000E+00  0.16315817697E+03  0.16315817697E+03  0.00000000000E+00 0. -1.
         21   -1    0    0  501  502 -0.00000000000E+00 -0.00000000000E+00 -0.35779871637E+03  0.35779871637E+03  0.00000000000E+00 0.  1.
          2    1    1    2  501    0  0.44576931819E+01 -0.75738999682E+02  0.14998289456E+03  0.16808074179E+03  0.00000000000E+00 0. -1.
         21    1    1    2  503  502 -0.44576931819E+01  0.75738999682E+02 -0.34462343396E+03  0.35287615155E+03  0.00000000000E+00 0.  1.
</event>
<event>
 4    1  0.2229986E+005  0.8915817E+02  0.7546771E-02  0.1184049E+00
          2   -1    0    0  502    0  0.00000000000E+00  0.00000000000E+00  0.12785592024E+04  0.12785592024E+04  0.00000000000E+00 0.  1.
         21   -1    0    0  503  502 -0.00000000000E+00 -0.00000000000E+00 -0.15894509242E+02  0.15894509242E+02  0.00000000000E+00 0. -1.
          2    1    1    2  501    0 -0.87906049484E+02  0.14889770595E+02  0.11363518635E+04  0.11398441720E+04  0.00000000000E+00 0.  1.
         21    1    1    2  503  501  0.87906049484E+02 -0.14889770595E+02  0.12631282962E+03  0.15460953959E+03  0.00000000000E+00 0. -1.
</event>
<event>
 4    1  0.2229986E+005  0.3757247E+02  0.7546771E-02  0.1363330E+00
          2   -1    0    0  503    0  0.00000000000E+00  0.00000000000E+00  0.45183429704E+02  0.45183429704E+02  0.00000000000E+00 0.  1.
         21   -1    0    0  501  502 -0.00000000000E+00 -0.00000000000E+00 -0.61317184766E+02  0.61317184766E+02  0.00000000000E+00 0.  1.
          2    1    1    2  501    0  0.36183908201E+02 -0.10120034166E+02  0.29225841172E+02  0.47600841341E+02  0.00000000000E+00 0.  1.
         21    1    1    2  503  502 -0.36183908201E+02  0.10120034166E+02 -0.45359596234E+02  0.58899773129E+02  0.00000000000E+00 0.  1.
</event>
<event>
 4    1  0.2229986E+005  0.2632342E+02  0.7546771E-02  0.1454525E+00
          2   -1    0    0  503    0  0.00000000000E+00  0.00000000000E+00  0.60982915487E+03  0.60982915487E+03  0.00000000000E+00 0.  1.
         21   -1    0    0  501  502 -0.00000000000E+00 -0.00000000000E+00 -0.11417975009E+01  0.11417975009E+01  0.00000000000E+00 0.  1.
          2    1    1    2  501    0 -0.10575763400E+02 -0.24105514715E+02  0.32562373524E+03  0.32668599536E+03  0.00000000000E+00 0.  1.
         21    1    1    2  503  502  0.10575763400E+02  0.24105514715E+02  0.28306362213E+03  0.28428495702E+03  0.00000000000E+00 0.  1.
</event>
<event>
 4    1  0.2229986E+005  0.2266934E+02  0.7546771E-02  0.1496693E+00
          2   -1    0    0  503    0  0.00000000000E+00  0.00000000000E+00  0.16046847787E+04  0.16046847787E+04  0.00000000000E+00 0.  1.
         21   -1    0    0  501  502 -0.00000000000E+00 -0.00000000000E+00 -0.61415334865E+01  0.61415334865E+01  0.00000000000E+00 0.  1.
          2    1    1    2  501    0 -0.20880036545E+02  0.88273924199E+01  0.15834045968E+04  0.15835668651E+04  0.00000000000E+00 0.  1.
         21    1    1    2  503  502  0.20880036545E+02 -0.88273924199E+01  0.15138648344E+02  0.27259447110E+02  0.00000000000E+00 0.  1.
</event>
<event>
 4    1  0.2229986E+005  0.2040675E+02  0.7546771E-02  0.1527906E+00
          2   -1    0    0  503    0  0.00000000000E+00  0.00000000000E+00  0.37195385842E+02  0.37195385842E+02  0.00000000000E+00 0.  1.
         21   -1    0    0  501  502 -0.00000000000E+00 -0.00000000000E+00 -0.18899510799E+03  0.18899510799E+03  0.00000000000E+00 0. -1.
          2    1    1    2  501    0  0.18911447127E+02 -0.76676315123E+01  0.33794422562E+02  0.39477821644E+02  0.00000000000E+00 0.  1.
         21    1    1    2  503  502 -0.18911447127E+02  0.76676315123E+01 -0.18559414471E+03  0.18671267219E+03  0.00000000000E+00 0. -1.
</event>
<event>
 4    1  0.2229986E+005  0.4838166E+02  0.7546771E-02  0.1305346E+00
          2   -1    0    0  503    0  0.00000000000E+00  0.00000000000E+00  0.21738707089E+04  0.21738707089E+04  0.00000000000E+00 0. -1.
         21   -1    0    0  501  502 -0.00000000000E+00 -0.00000000000E+00 -0.11464179469E+01  0.11464179469E+01  0.00000000000E+00 0. -1.
          2    1    1    2  501    0 -0.43242980574E+02 -0.21698610840E+02  0.13543885668E+04  0.13552524396E+04  0.00000000000E+00 0. -1.
         21    1    1    2  503  502  0.43242980574E+02  0.21698610840E+02  0.81833572413E+03  0.81976468726E+03  0.00000000000E+00 0. -1.
</event>
<event>
 4    1  0.2229986E+005  0.2307800E+02  0.7546771E-02  0.1491521E+00
          2   -1    0    0  503    0  0.00000000000E+00  0.00000000000E+00  0.54416343964E+03  0.54416343964E+03  0.00000000000E+00 0. -1.
         21   -1    0    0  501  502 -0.00000000000E+00 -0.00000000000E+00 -0.18201112939E+01  0.18201112939E+01  0.00000000000E+00 0.  1.
          2    1    1    2  501    0  0.32524364019E+01  0.22847667317E+02  0.45677875731E+03  0.45736137504E+03  0.00000000000E+00 0. -1.
         21    1    1    2  503  502 -0.32524364019E+01 -0.22847667317E+02  0.85564571031E+02  0.88622175893E+02  0.00000000000E+00 0.  1.
</event>
<event>
 4    1  0.2229986E+005  0.2095744E+02  0.7546771E-02  0.1519873E+00
          2   -1    0    0  503    0  0.00000000000E+00  0.00000000000E+00  0.45677691373E+03  0.45677691373E+03  0.00000000000E+00 0. -1.
         21   -1    0    0  501  502 -0.00000000000E+00 -0.00000000000E+00 -0.18360118439E+01  0.18360118439E+01  0.00000000000E+00 0.  1.
          2    1    1    2  501    0  0.19731122419E+02  0.70637950405E+01  0.38572226189E+03  0.38629118254E+03  0.00000000000E+00 0. -1.
         21    1    1    2  503  502 -0.19731122419E+02 -0.70637950405E+01  0.69218640001E+02  0.72321743037E+02  0.00000000000E+00 0.  1.
</event>
<event>
 4    1  0.2229986E+005  0.2154279E+02  0.7546771E-02  0.1511654E+00
          2   -1    0    0  503    0  0.00000000000E+00  0.00000000000E+00  0.52939590940E+01  0.52939590940E+01  0.00000000000E+00 0. -1.
         21   -1    0    0  501  502 -0.00000000000E+00 -0.00000000000E+00 -0.15437666174E+03  0.15437666174E+03  0.00000000000E+00 0. -1.
          2    1    1    2  501    0 -0.12506801449E+02  0.17540570139E+02 -0.22059751251E+02  0.30833817613E+02  0.00000000000E+00 0. -1.
         21    1    1    2  503  502  0.12506801449E+02 -0.17540570139E+02 -0.12702295140E+03  0.12883680322E+03  0.00000000000E+00 0. -1.
</event>
<event>
 4    1  0.2229986E+005  0.3086639E+02  0.7546771E-02  0.1412214E+00
          2   -1    0    0  503    0  0.00000000000E+00  0.00000000000E+00  0.58196931097E+03  0.58196931097E+03  0.00000000000E+00 0.  1.
         21   -1    0    0  501  502 -0.00000000000E+00 -0.00000000000E+00 -0.26865234232E+02  0.26865234232E+02  0.00000000000E+00 0.  1.
          2    1    1    2  501    0  0.30645229203E+02  0.36883152247E+01  0.57254840230E+03  0.57337981017E+03  0.00000000000E+00 0.  1.
         21    1    1    2  503  502 -0.30645229203E+02 -0.36883152247E+01 -0.17444325556E+02  0.35454735032E+02  0.00000000000E+00 0.  1.
</event>
<event>
 4    1  0.2229986E+005  0.3095255E+02  0.7546771E-02  0.1411495E+00
          2   -1    0    0  502    0  0.00000000000E+00  0.00000000000E+00  0.13659300479E+04  0.13659300479E+04  0.00000000000E+00 0. -1.
         21   -1    0    0  503  502 -0.00000000000E+00 -0.00000000000E+00 -0.64711347104E+02  0.64711347104E+02  0.00000000000E+00 0.  1.
          2    1    1    2  501    0  0.29587995187E+02  0.90890590271E+01  0.13620428519E+04  0.13623945063E+04  0.00000000000E+00 0. -1.
         21    1    1    2  503  501 -0.29587995187E+02 -0.90890590271E+01 -0.60824151118E+02  0.68246888665E+02  0.00000000000E+00 0.  1.
</event>
<event>
 4    1  0.2229986E+005  0.3131999E+02  0.7546771E-02  0.1408462E+00
          2   -1    0    0  503    0  0.00000000000E+00  0.00000000000E+00  0.24167210130E+03  0.24167210130E+03  0.00000000000E+00 0. -1.
         21   -1    0    0  501  502 -0.00000000000E+00 -0.00000000000E+00 -0.10709062800E+03  0.10709062800E+03  0.00000000000E+00 0.  1.
          2    1    1    2  501    0  0.29013082622E+02  0.11797566008E+02  0.23833545515E+03  0.24038454757E+03  0.00000000000E+00 0. -1.
         21    1    1    2  503  502 -0.29013082622E+02 -0.11797566008E+02 -0.10375398185E+03  0.10837818173E+03  0.00000000000E+00 0.  1.
</event>
<event>
 4    1  0.2229986E+005  0.3537096E+02  0.7546771E-02  0.1377974E+00
          2   -1    0    0  502    0  0.00000000000E+00  0.00000000000E+00  0.22227503990E+03  0.22227503990E+03  0.00000000000E+00 0. -1.
         21   -1    0    0  503  502 -0.00000000000E+00 -0.00000000000E+00 -0.78934842349E+02  0.78934842349E+02  0.00000000000E+00 0. -1.
          2    1    1    2  501    0 -0.30525366246E+02 -0.17869159655E+02  0.21680612433E+03  0.21967248439E+03  0.00000000000E+00 0. -1.
         21    1    1    2  503  501  0.30525366246E+02  0.17869159655E+02 -0.73465926782E+02  0.81537397856E+02  0.00000000000E+00 0. -1.
</event>
<event>
 4    1  0.2229986E+005  0.2951799E+02  0.7546771E-02  0.1423832E+00
          2   -1    0    0  503    0  0.00000000000E+00  0.00000000000E+00  0.49626955433E+03  0.49626955433E+03  0.00000000000E+00 0.  1.
         21   -1    0    0  501  502 -0.00000000000E+00 -0.00000000000E+00 -0.22299624871E+02  0.22299624871E+02  0.00000000000E+00 0. -1.
          2    1    1    2  501    0  0.27710153347E+02  0.10171491172E+02  0.48585315730E+03  0.48674901365E+03  0.00000000000E+00 0.  1.
         21    1    1    2  503  502 -0.27710153347E+02 -0.10171491172E+02 -0.11883227848E+02  0.31820165544E+02  0.00000000000E+00 0. -1.
</event>
<event>
 4    1  0.2229986E+005  0.2543969E+02  0.7546771E-02  0.1463944E+00
          2   -1    0    0  503    0  0.00000000000E+00  0.00000000000E+00  0.85250847044E+02  0.85250847044E+02  0.00000000000E+00 0.  1.
         21   -1    0    0  501  502 -0.00000000000E+00 -0.00000000000E+00 -0.12666398285E+02  0.12666398285E+02  0.00000000000E+00 0.  1.
          2    1    1    2  501    0 -0.16492807132E+02  0.19369182557E+02  0.67281986505E+02  0.71930825298E+02  0.00000000000E+00 0.  1.
         21    1    1    2  503  502  0.16492807132E+02 -0.19369182557E+02  0.53024622539E+01  0.25986420030E+02  0.00000000000E+00 0.  1.
</event>
<event>
 4    1  0.2229986E+005  0.2105965E+02  0.7546771E-02  0.1518415E+00
          2   -1    0    0  503    0  0.00000000000E+00  0.00000000000E+00  0.17429634886E+03  0.17429634886E+03  0.00000000000E+00 0.  1.
         21   -1    0    0  501  502 -0.00000000000E+00 -0.00000000000E+00 -0.44441308913E+01  0.44441308913E+01  0.00000000000E+00 0.  1.
          2    1    1    2  501    0  0.44793068233E+00  0.21054890091E+02  0.14335481362E+03  0.14489344922E+03  0.00000000000E+00 0.  1.
         21    1    1    2  503  502 -0.44793068233E+00 -0.21054890091E+02  0.26497404349E+02  0.33847030532E+02  0.00000000000E+00 0.  1.
</event>
<event>
 4    1  0.2229986E+005  0.6053355E+02  0.7546771E-02  0.1258030E+00
          2   -1    0    0  502    0  0.00000000000E+00  0.00000000000E+00  0.29266288714E+04  0.29266288714E+04  0.00000000000E+00 0. -1.
         21   -1    0    0  503  502 -0.00000000000E+00 -0.00000000000E+00 -0.13049041875E+02  0.13049041875E+02  0.00000000000E+00 0.  1.
          2    1    1    2  501    0  0.73901109818E+01  0.60080754537E+02  0.28543353096E+04  0.28549771226E+04  0.00000000000E+00 0. -1.
         21    1    1    2  503  501 -0.73901109818E+01 -0.60080754537E+02  0.59244519970E+02  0.84700790743E+02  0.00000000000E+00 0.  1.
</event>
<event>
 4    1  0.2229986E+005  0.2521401E+02  0.7546771E-02  0.1466423E+00
          2   -1    0    0  502    0  0.00000000000E+00  0.00000000000E+00  0.80094809867E+02  0.80094809867E+02  0.00000000000E+00 0. -1.
         21   -1    0    0  503  502 -0.00000000000E+00 -0.00000000000E+00 -0.27134532819E+03  0.27134532819E+03  0.00000000000E+00 0.  1.
          2    1    1    2  501    0 -0.24058507039E+02 -0.75454887620E+01  0.77505644342E+02  0.81503810135E+02  0.00000000000E+00 0. -1.
         21    1    1    2  503  501  0.24058507039E+02  0.75454887620E+01 -0.26875616267E+03  0.26993632792E+03  0.00000000000E+00 0.  1.
</event>
<event>
 4    1  0.2229986E+005  0.2865215E+02  0.7546771E-02  0.1431682E+00
          2   -1    0    0  503    0  0.00000000000E+00  0.00000000000E+00  0.82317522711E+03  0.82317522711E+03  0.00000000000E+00 0. -1.
         21   -1    0    0  501  502 -0.00000000000E+00 -0.00000000000E+00 -0.23632207287E+01  0.23632207287E+01  0.00000000000E+00 0.  1.
          2    1    1    2  501    0  0.22808251657E+02  0.17341552033E+02  0.72421778326E+03  0.72478434266E+03  0.00000000000E+00 0. -1.
         21    1    1    2  503  502 -0.22808251657E+02 -0.17341552033E+02  0.96594223115E+02  0.10075410518E+03  0.00000000000E+00 0.  1.
</event>
<event>
 4    1  0.2229986E+005  0.3413667E+02  0.7546771E-02  0.1386736E+00
          2   -1    0    0  503    0  0.00000000000E+00  0.00000000000E+00  0.13412309559E+03  0.13412309559E+03  0.00000000000E+00 0.  1.
         21   -1    0    0  501  502 -0.00000000000E+00 -0.00000000000E+00 -0.86883867993E+01  0.86883867993E+01  0.00000000000E+00 0. -1.
          2    1    1    2  501    0  0.19872658636E+02 -0.27755899690E+02  0.62658031077E+02  0.71353636119E+02  0.00000000000E+00 0.  1.
         21    1    1    2  503  502 -0.19872658636E+02  0.27755899690E+02  0.62776677715E+02  0.71457846272E+02  0.00000000000E+00 0. -1.
</event>
<event>
 4    1  0.2229986E+005  0.3173485E+02  0.7546771E-02  0.1405097E+00
          2   -1    0    0  502    0  0.00000000000E+00  0.00000000000E+00  0.19639787573E+04  0.19639787573E+04  0.00000000000E+00 0.  1.
         21   -1    0    0  503  502 -0.00000000000E+00 -0.00000000000E+00 -0.86742259258E+01  0.86742259258E+01  0.00000000000E+00 0. -1.
          2    1    1    2  501    0 -0.25082854517E+02  0.19440968243E+02  0.19343808001E+04  0.19346410987E+04  0.00000000000E+00 0.  1.
         21    1    1    2  503  501  0.25082854517E+02 -0.19440968243E+02  0.20923731253E+02  0.38011884543E+02  0.00000000000E+00 0. -1.
</event>
<event>
 4    1  0.2229986E+005  0.3064620E+02  0.7546771E-02  0.1414063E+00
          2   -1    0    0  502    0  0.00000000000E+00  0.00000000000E+00  0.17021064336E+04  0.17021064336E+04  0.00000000000E+00 0. -1.
         21   -1    0    0  503  502 -0.00000000000E+00 -0.00000000000E+00 -0.29184095604E+03  0.29184095604E+03  0.00000000000E+00 0.  1.
          2    1    1    2  501    0  0.29223998109E+02 -0.92275326848E+01  0.17011635038E+04  0.17014395246E+04  0.00000000000E+00 0. -1.
         21    1    1    2  503  501 -0.29223998109E+02  0.92275326848E+01 -0.29089802622E+03  0.29250786500E+03  0.00000000000E+00 0.  1.
</event>
<event>
 4    1  0.2229986E+005  0.2378052E+02  0.7546771E-02  0.1482923E+00
          2   -1    0    0  503    0  0.00000000000E+00  0.00000000000E+00  0.17258755710E+04  0.17258755710E+04  0.00000000000E+00 0.  1.
         21   -1    0    0  501  502 -0.00000000000E+00 -0.00000000000E+00 -0.27034146070E+01  0.27034146070E+01  0.00000000000E+00 0. -1.
          2    1    1    2  501    0  0.19755207940E+02 -0.13238017955E+02  0.16718061697E+04  0.16719752936E+04  0.00000000000E+00 0.  1.
         21    1    1    2  503  502 -0.19755207940E+02  0.13238017955E+02  0.51365986711E+02  0.56603692025E+02  0.00000000000E+00 0. -1.
</event>
<event>
 4    1  0.2229986E+005  0.2213816E+02  0.7546771E-02  0.1503613E+00
          2   -1    0    0  503    0  0.00000000000E+00  0.00000000000E+00  0.10885856117E+04  0.10885856117E+04  0.00000000000E+00 0. -1.
         21   -1    0    0  501  502 -0.00000000000E+00 -0.00000000000E+00 -0.50378609240E+02  0.50378609240E+02  0.00000000000E+00 0.  1.
          2    1    1    2  501    0 -0.20634268103E+02 -0.80203066664E+01  0.10860352715E+04  0.10862608846E+04  0.00000000000E+00 0. -1.
         21    1    1    2  503  502  0.20634268103E+02  0.80203066664E+01 -0.47828269085E+02  0.52703336354E+02  0.00000000000E+00 0.  1.
</event>
<event>
 4    1  0.2229986E+005  0.2109259E+02  0.7546771E-02  0.1517947E+00
          2   -1    0    0  502    0  0.00000000000E+00  0.00000000000E+00  0.21959980995E+03  0.21959980995E+03  0.00000000000E+00 0.  1.
         21   -1    0    0  503  502 -0.00000000000E+00 -0.00000000000E+00 -0.10252587227E+02  0.10252587227E+02  0.00000000000E+00 0. -1.
          2    1    1    2  501    0 -0.13356706321E+02 -0.16324700654E+02  0.20762058222E+03  0.20868925132E+03  0.00000000000E+00 0.  1.
         21    1    1    2  503  501  0.13356706321E+02  0.16324700654E+02  0.17266405052E+01  0.21163145859E+02  0.00000000000E+00 0. -1.
</event>
<event>
 4    1  0.2229986E+005  0.2295011E+02  0.7546771E-02  0.1493126E+00
          2   -1    0    0  503    0  0.00000000000E+00  0.00000000000E+00  0.56042550972E+02  0.56042550972E+02  0.00000000000E+00 0. -1.
         21   -1    0    0  501  502 -0.00000000000E+00 -0.00000000000E+00 -0.57500439973E+02  0.57500439973E+02  0.00000000000E+00 0.  1.
          2    1    1    2  501    0  0.28026950450E+01 -0.22778331091E+02  0.51196082043E+02  0.56104779505E+02  0.00000000000E+00 0. -1.
         21    1    1    2  503  502 -0.28026950450E+01  0.22778331091E+02 -0.52653971044E+02  0.57438211440E+02  0.00000000000E+00 0.  1.
</event>
<event>
 4    1  0.2229986E+005  0.2222857E+02  0.7546771E-02  0.1502419E+00
          2   -1    0    0  503    0  0.00000000000E+00  0.00000000000E+00  0.44534709260E+01  0.44534709260E+01  0.00000000000E+00 0. -1.
         21   -1    0    0  501  502 -0.00000000000E+00 -0.00000000000E+00 -0.13251366838E+03  0.13251366838E+03  0.00000000000E+00 0. -1.
          2    1    1    2  501    0 -0.20114390170E+02 -0.94615319789E+01 -0.36403661547E+02  0.42653673386E+02  0.00000000000E+00 0. -1.
         21    1    1    2  503  502  0.20114390170E+02  0.94615319789E+01 -0.91656535903E+02  0.94313465916E+02  0.00000000000E+00 0. -1.
</event>
<event>
 4    1  0.2229986E+005  0.3094923E+02  0.7546771E-02  0.1411523E+00
          2   -1    0    0  503    0  0.00000000000E+00  0.00000000000E+00  0.10848139215E+03  0.10848139215E+03  0.00000000000E+00 0. -1.
         21   -1    0    0  501  502 -0.00000000000E+00 -0.00000000000E+00 -0.98081905495E+01  0.98081905495E+01  0.00000000000E+00 0. -1.
          2    1    1    2  501    0 -0.29094803649E+02  0.10552122063E+02  0.68017899364E+02  0.74728103905E+02  0.00000000000E+00 0. -1.
         21    1    1    2  503  502  0.29094803649E+02 -0.10552122063E+02  0.30655302232E+02  0.43561478790E+02  0.00000000000E+00 0. -1.
</event>
<event>
 4    1  0.2229986E+005  0.2512929E+02  0.7546771E-02  0.1467362E+00
          2   -1    0    0  502    0  0.00000000000E+00  0.00000000000E+00  0.27125866740E+03  0.27125866740E+03  0.00000000000E+00 0.  1.
         21   -1    0    0  503  502 -0.00000000000E+00 -0.00000000000E+00 -0.30163743393E+01  0.30163743393E+01  0.00000000000E+00 0.  1.
          2    1    1    2  501    0 -0.24563042244E+02 -0.53045632966E+01  0.19963545741E+03  0.20121082797E+03  0.00000000000E+00 0.  1.
         21    1    1    2  503  501  0.24563042244E+02  0.53045632966E+01  0.68606835641E+02  0.73064213763E+02  0.00000000000E+00 0.  1.
</event>
<event>
 4    1  0.2229986E+005  0.2377469E+02  0.7546771E-02  0.1482993E+00
          2   -1    0    0  502    0  0.00000000000E+00  0.00000000000E+00  0.16992443794E+03  0.16992443794E+03  0.00000000000E+00 0. -1.
         21   -1    0    0  503  502 -0.00000000000E+00 -0.00000000000E+00 -0.49222439054E+01  0.49222439054E+01  0.00000000000E+00 0. -1.
          2    1    1    2  501    0  0.23764284708E+02 -0.70316262999E+00  0.13227959955E+03  0.13439913736E+03  0.00000000000E+00 0. -1.
         21    1    1    2  503  501 -0.23764284708E+02  0.70316262999E+00  0.32722594489E+02  0.40447544492E+02  0.00000000000E+00 0. -1.
</event>
<event>
 4    1  0.2229986E+005  0.4068556E+02  0.7546771E-02  0.1344515E+00
          2   -1    0    0  502    0  0.00000000000E+00  0.00000000000E+00  0.21234683204E+03  0.21234683204E+03  0.00000000000E+00 0.  1.
         21   -1    0    0  503  502 -0.00000000000E+00 -0.00000000000E+00 -0.89034244300E+02  0.89034244300E+02  0.00000000000E+00 0. -1.
          2    1    1    2  501    0  0.28469051436E+02 -0.29065928122E+02  0.20559894019E+03  0.20958587566E+03  0.00000000000E+00 0.  1.
         21    1    1    2  503  501 -0.28469051436E+02  0.29065928122E+02 -0.82286352455E+02  0.91795200679E+02  0.00000000000E+00 0. -1.
</event>
<event>
 4    1  0.2229986E+005  0.3469657E+02  0.7546771E-02  0.1382709E+00
          2   -1    0    0  503    0  0.00000000000E+00  0.00000000000E+00  0.16362683203E+03  0.16362683203E+03  0.00000000000E+00 0.  1.
         21   -1    0    0  501  502 -0.00000000000E+00 -0.00000000000E+00 -0.27676956732E+02  0.27676956732E+02  0.00000000000E+00 0.  1.
          2    1    1    2  501    0  0.30744625833E+02  0.16081666411E+02  0.14993316767E+03  0.15389544106E+03  0.00000000000E+00 0.  1.
         21    1    1    2  503  502 -0.30744625833E+02 -0.16081666411E+02 -0.13983292371E+02  0.37408347700E+02  0.00000000000E+00 0.  1.
</event>
<event>
 4    1  0.2229986E+005  0.2301836E+02  0.7546771E-02  0.1492268E+00
          2   -1    0    0  502    0  0.00000000000E+00  0.00000000000E+00  0.37967804174E+03  0.37967804174E+03  0.00000000000E+00 0. -1.
         21   -1    0    0  503  502 -0.00000000000E+00 -0.00000000000E+00 -0.91658415373E+01  0.91658415373E+01  0.00000000000E+00 0. -1.
          2    1    1    2  501    0 -0.80541376679E+01 -0.21563294494E+02  0.36426674464E+03  0.36499329590E+03  0.00000000000E+00 0. -1.
         21    1    1    2  503  501  0.80541376679E+01  0.21563294494E+02  0.62454555645E+01  0.23850587377E+02  0.00000000000E+00 0. -1.
</event>
<event>
 4    1  0.2229986E+005  0.2098658E+02  0.7546771E-02  0.1519456E+00
          2   -1    0    0  503    0  0.00000000000E+00  0.00000000000E+00  0.64146558174E+02  0.64146558174E+02  0.00000000000E+00 0. -1.
         21   -1    0    0  501  502 -0.00000000000E+00 -0.00000000000E+00 -0.35489036466E+02  0.35489036466E+02  0.00000000000E+00 0. -1.
          2    1    1    2  501    0 -0.29243101132E+00 -0.20984546400E+02  0.59068609249E+02  0.62686021585E+02  0.00000000000E+00 0. -1.
         21    1    1    2  503  502  0.29243101132E+00  0.20984546400E+02 -0.30411087542E+02  0.36949573055E+02  0.00000000000E+00 0. -1.
</event>
<event>
 4    1  0.2229986E+005  0.2597262E+02  0.7546771E-02  0.1458211E+00
          2   -1    0    0  503    0  0.00000000000E+00  0.00000000000E+00  0.17072325419E+02  0.17072325419E+02  0.00000000000E+00 0.  1.
         21   -1    0    0  501  502 -0.00000000000E+00 -0.00000000000E+00 -0.10989506292E+03  0.10989506292E+03  0.00000000000E+00 0. -1.
          2    1    1    2  501    0  0.12067791530E+02 -0.22998810020E+02  0.43933961821E+01  0.26341579010E+02  0.00000000000E+00 0.  1.
         21    1    1    2  503  502 -0.12067791530E+02  0.22998810020E+02 -0.97216133683E+02  0.10062580933E+03  0.00000000000E+00 0. -1.
</event>
<event>
 4    1  0.2229986E+005  0.5157412E+02  0.7546771E-02  0.1291488E+00
          2   -1    0    0  502    0  0.00000000000E+00  0.00000000000E+00  0.18493858519E+03  0.18493858519E+03  0.00000000000E+00 0.  1.
         21   -1    0    0  503  502 -0.00000000000E+00 -0.00000000000E+00 -0.33637258019E+03  0.33637258019E+03  0.00000000000E+00 0.  1.
          2    1    1    2  501    0  0.23607928647E+02  0.45853630002E+02  0.17930517767E+03  0.18657501552E+03  0.00000000000E+00 0.  1.
         21    1    1    2  503  501 -0.23607928647E+02 -0.45853630002E+02 -0.33073917267E+03  0.33473614985E+03  0.00000000000E+00 0.  1.
</event>
<event>
 4    1  0.2229986E+005  0.2423684E+02  0.7546771E-02  0.1477525E+00
          2   -1    0    0  503    0  0.00000000000E+00  0.00000000000E+00  0.19007353024E+03  0.19007353024E+03  0.00000000000E+00 0. -1.
         21   -1    0    0  501  502 -0.00000000000E+00 -0.00000000000E+00 -0.23468154877E+02  0.23468154877E+02  0.00000000000E+00 0.  1.
          2    1    1    2  501    0 -0.21235715048E+02 -0.11681978337E+02  0.18279515203E+03  0.18439493436E+03  0.00000000000E+00 0. -1.
         21    1    1    2  503  502  0.21235715048E+02  0.11681978337E+02 -0.16189776664E+02  0.29146750761E+02  0.00000000000E+00 0.  1.
</event>
<event>
 4    1  0.2229986E+005  0.2374704E+02  0.7546771E-02  0.1483325E+00
          2   -1    0    0  503    0  0.00000000000E+00  0.00000000000E+00  0.20853956394E+01  0.20853956394E+01  0.00000000000E+00 0. -1.
         21   -1    0    0  501  502 -0.00000000000E+00 -0.00000000000E+00 -0.57509811663E+03  0.57509811663E+03  0.00000000000E+00 0.  1.
          2    1    1    2  501    0 -0.20759767631E+02 -0.11530573368E+02 -0.76449337089E+02  0.80052627788E+02  0.00000000000E+00 0. -1.
         21    1    1    2  503  502  0.20759767631E+02  0.11530573368E+02 -0.49656338390E+03  0.49713088449E+03  0.00000000000E+00 0.  1.
</event>
<event>
 4    1  0.2229986E+005  0.1548727E+03  0.7546771E-02  0.1092725E+00
          2   -1    0    0  502    0  0.00000000000E+00  0.00000000000E+00  0.64690749182E+03  0.64690749182E+03  0.00000000000E+00 0. -1.
         21   -1    0    0  503  502 -0.00000000000E+00 -0.00000000000E+00 -0.85265752531E+02  0.85265752531E+02  0.00000000000E+00 0.  1.
          2    1    1    2  501    0 -0.76153450307E+02 -0.13485621990E+03  0.55603344780E+03  0.57719904982E+03  0.00000000000E+00 0. -1.
         21    1    1    2  503  501  0.76153450307E+02  0.13485621990E+03  0.56082914911E+01  0.15497419454E+03  0.00000000000E+00 0.  1.
</event>
<event>
 4    1  0.2229986E+005  0.3010552E+02  0.7546771E-02  0.1418682E+00
          2   -1    0    0  503    0  0.00000000000E+00  0.00000000000E+00  0.20382650696E+04  0.20382650696E+04  0.00000000000E+00 0.  1.
         21   -1    0    0  501  502 -0.00000000000E+00 -0.00000000000E+00 -0.18286396451E+01  0.18286396451E+01  0.00000000000E+00 0. -1.
          2    1    1    2  501    0  0.23688080526E+02  0.18580020452E+02  0.19056200845E+04  0.19058578773E+04  0.00000000000E+00 0.  1.
         21    1    1    2  503  502 -0.23688080526E+02 -0.18580020452E+02  0.13081634552E+03  0.13423583193E+03  0.00000000000E+00 0. -1.
</event>
<event>
 4    1  0.2229986E+005  0.2294756E+02  0.7546771E-02  0.1493158E+00
          2   -1    0    0  503    0  0.00000000000E+00  0.00000000000E+00  0.23439786375E+03  0.23439786375E+03  0.00000000000E+00 0.  1.
         21   -1    0    0  501  502 -0.00000000000E+00 -0.00000000000E+00 -0.10888857799E+02  0.10888857799E+02  0.00000000000E+00 0.  1.
          2    1    1    2  501    0  0.16857399017E+02 -0.15569797570E+02  0.22101604320E+03  0.22220414454E+03  0.00000000000E+00 0.  1.
         21    1    1    2  503  502 -0.16857399017E+02  0.15569797570E+02  0.24929627462E+01  0.23082577006E+02  0.00000000000E+00 0.  1.
</event>
<event>
 4    1  0.2229986E+005  0.2103636E+02  0.7546771E-02  0.1518746E+00
          2   -1    0    0  502    0  0.00000000000E+00  0.00000000000E+00  0.37215625541E+03  0.37215625541E+03  0.00000000000E+00 0.  1.
         21   -1    0    0  503  502 -0.00000000000E+00 -0.00000000000E+00 -0.15749792466E+01  0.15749792466E+01  0.00000000000E+00 0.  1.
          2    1    1    2  501    0  0.18469934098E+02 -0.10069251308E+02  0.27778639265E+03  0.27858178015E+03  0.00000000000E+00 0.  1.
         21    1    1    2  503  501 -0.18469934098E+02  0.10069251308E+02  0.92794883514E+02  0.95149454512E+02  0.00000000000E+00 0.  1.
</event>
<event>
 4    1  0.2229986E+005  0.3439056E+02  0.7546771E-02  0.1384899E+00
          2   -1    0    0  502    0  0.00000000000E+00  0.00000000000E+00  0.74248253369E+03  0.74248253369E+03  0.00000000000E+00 0.  1.
         21   -1    0    0  503  502 -0.00000000000E+00 -0.00000000000E+00 -0.62274112107E+01  0.62274112107E+01  0.00000000000E+00 0.  1.
          2    1    1    2  501    0 -0.32307040762E+02 -0.11788369937E+02  0.69107449383E+03  0.69192966880E+03  0.00000000000E+00 0.  1.
         21    1    1    2  503  501  0.32307040762E+02  0.11788369937E+02  0.45180628652E+02  0.56780276100E+02  0.00000000000E+00 0.  1.
</event>
<event>
 4    1  0.2229986E+005  0.2437762E+02  0.7546771E-02  0.1475888E+00
          2   -1    0    0  502    0  0.00000000000E+00  0.00000000000E+00  0.74002368992E+03  0.74002368992E+03  0.00000000000E+00 0. -1.
         21   -1    0    0  503  502 -0.00000000000E+00 -0.00000000000E+00 -0.38991012268E+01  0.38991012268E+01  0.00000000000E+00 0. -1.
          2    1    1    2  501    0 -0.23407918263E+02  0.68071709823E+01  0.69951412533E+03  0.69993876857E+03  0.00000000000E+00 0. -1.
         21    1    1    2  503  501  0.23407918263E+02 -0.68071709823E+01  0.36610463363E+02  0.43984022575E+02  0.00000000000E+00 0. -1.
</event>
<event>
 4    1  0.2229986E+005  0.2523064E+02  0.7546771E-02  0.1466240E+00
          2   -1    0    0  502    0  0.00000000000E+00  0.00000000000E+00  0.29012157539E+02  0.29012157539E+02  0.00000000000E+00 0.  1.
         21   -1    0    0  503  502 -0.00000000000E+00 -0.00000000000E+00 -0.24920790923E+02  0.24920790923E+02  0.00000000000E+00 0. -1.
          2    1    1    2  501    0  0.17395674787E+02  0.18274995726E+02  0.11368834813E+02  0.27673730776E+02  0.00000000000E+00 0.  1.
         21    1    1    2  503  501 -0.17395674787E+02 -0.18274995726E+02 -0.72774681975E+01  0.26259217685E+02  0.00000000000E+00 0. -1.
</event>
<event>
 4    1  0.2229986E+005  0.2566433E+02  0.7546771E-02  0.1461507E+00
          2   -1    0    0  503    0  0.00000000000E+00  0.00000000000E+00  0.66806559053E+00  0.66806559053E+00  0.00000000000E+00 0.  1.
         21   -1    0    0  501  502 -0.00000000000E+00 -0.00000000000E+00 -0.15871586157E+04  0.15871586157E+04  0.00000000000E+00 0.  1.
          2    1    1    2  501    0 -0.13271183451E+02  0.21966646905E+02 -0.30460743899E+03  0.30568668563E+03  0.00000000000E+00 0.  1.
         21    1    1    2  503  502  0.13271183451E+02 -0.21966646905E+02 -0.12818831112E+04  0.12821399957E+04  0.00000000000E+00 0.  1.
</event>
<event>
 4    1  0.2229986E+005  0.2110506E+02  0.7546771E-02  0.1517770E+00
          2   -1    0    0  503    0  0.00000000000E+00  0.00000000000E+00  0.85704008889E+03  0.85704008889E+03  0.00000000000E+00 0.  1.
         21   -1    0    0  501  502 -0.00000000000E+00 -0.00000000000E+00 -0.78957303585E+00  0.78957303585E+00  0.00000000000E+00 0.  1.
          2    1    1    2  501    0  0.65443309034E+01  0.20064780538E+02  0.67887236139E+03  0.67920034360E+03  0.00000000000E+00 0.  1.
         21    1    1    2  503  502 -0.65443309034E+01 -0.20064780538E+02  0.17737815446E+03  0.17862931833E+03  0.00000000000E+00 0.  1.
</event>
<event>
 4    1  0.2229986E+005  0.2023804E+02  0.7546771E-02  0.1530427E+00
          2   -1    0    0  503    0  0.00000000000E+00  0.00000000000E+00  0.98895951254E+02  0.98895951254E+02  0.00000000000E+00 0. -1.
         21   -1    0    0  501  502 -0.00000000000E+00 -0.00000000000E+00 -0.14930854844E+03  0.14930854844E+03  0.00000000000E+00 0. -1.
          2    1    1    2  501    0 -0.16224186661E+02 -0.12097684355E+02  0.97162679225E+02  0.99247994608E+02  0.00000000000E+00 0. -1.
         21    1    1    2  503  502  0.16224186661E+02  0.12097684355E+02 -0.14757527641E+03  0.14895650508E+03  0.00000000000E+00 0. -1.
</event>
<event>
 4    1  0.2229986E+005  0.2114127E+02  0.7546771E-02  0.1517257E+00
          2   -1    0    0  503    0  0.00000000000E+00  0.00000000000E+00  0.25943180054E+03  0.25943180054E+03  0.00000000000E+00 0.  1.
         21   -1    0    0  501  502 -0.00000000000E+00 -0.00000000000E+00 -0.95181668529E+01  0.95181668529E+01  0.00000000000E+00 0. -1.
          2    1    1    2  501    0  0.65512103599E+01  0.20100620763E+02  0.24665460102E+03  0.24755897382E+03  0.00000000000E+00 0.  1.
         21    1    1    2  503  502 -0.65512103599E+01 -0.20100620763E+02  0.32590326651E+01  0.21390993575E+02  0.00000000000E+00 0. -1.
</event>
<event>
 4    1  0.2229986E+005  0.2868650E+02  0.7546771E-02  0.1431365E+00
          2   -1    0    0  502    0  0.00000000000E+00  0.00000000000E+00  0.28962802823E+02  0.28962802823E+02  0.00000000000E+00 0.  1.
         21   -1    0    0  503  502 -0.00000000000E+00 -0.00000000000E+00 -0.29444295557E+03  0.29444295557E+03  0.00000000000E+00 0.  1.
          2    1    1    2  501    0 -0.10496038764E+02  0.26697348007E+02  0.20963006195E+02  0.35529745976E+02  0.00000000000E+00 0.  1.
         21    1    1    2  503  501  0.10496038764E+02 -0.26697348007E+02 -0.28644315894E+03  0.28787601242E+03  0.00000000000E+00 0.  1.
</event>
<event>
 4    1  0.2229986E+005  0.2392798E+02  0.7546771E-02  0.1481163E+00
          2   -1    0    0  503    0  0.00000000000E+00  0.00000000000E+00  0.63824533391E+03  0.63824533391E+03  0.00000000000E+00 0.  1.
         21   -1    0    0  501  502 -0.00000000000E+00 -0.00000000000E+00 -0.93891294913E+00  0.93891294913E+00  0.00000000000E+00 0.  1.
          2    1    1    2  501    0 -0.72714819359E+01  0.22796354976E+02  0.38612384698E+03  0.38686454148E+03  0.00000000000E+00 0.  1.
         21    1    1    2  503  502  0.72714819359E+01 -0.22796354976E+02  0.25118257398E+03  0.25231970538E+03  0.00000000000E+00 0.  1.
</event>
<event>
 4    1  0.2229986E+005  0.2219414E+02  0.7546771E-02  0.1502873E+00
          2   -1    0    0  503    0  0.00000000000E+00  0.00000000000E+00  0.34665885256E+02  0.34665885256E+02  0.00000000000E+00 0. -1.
         21   -1    0    0  501  502 -0.00000000000E+00 -0.00000000000E+00 -0.31110862339E+02  0.31110862339E+02  0.00000000000E+00 0.  1.
          2    1    1    2  501    0 -0.67537359463E+01  0.21141596665E+02  0.26018427336E+02  0.34198517801E+02  0.00000000000E+00 0. -1.
         21    1    1    2  503  502  0.67537359463E+01 -0.21141596665E+02 -0.22463404420E+02  0.31578229794E+02  0.00000000000E+00 0.  1.
</event>
<event>
 4    1  0.2229986E+005  0.4173015E+02  0.7546771E-02  0.1338635E+00
          2   -1    0    0  502    0  0.00000000000E+00  0.00000000000E+00  0.15823941818E+04  0.15823941818E+04  0.00000000000E+00 0. -1.
         21   -1    0    0  503  502 -0.00000000000E+00 -0.00000000000E+00 -0.44733686223E+01  0.44733686223E+01  0.00000000000E+00 0.  1.
          2    1    1    2  501    0  0.35567924283E+02 -0.21824942953E+02  0.14779201447E+04  0.14785091679E+04  0.00000000000E+00 0. -1.
         21    1    1    2  503  501 -0.35567924283E+02  0.21824942953E+02  0.10000066847E+03  0.10835838254E+03  0.00000000000E+00 0.  1.
</event>
<event>
 4    1  0.2229986E+005  0.2135664E+02  0.7546771E-02  0.1514233E+00
          2   -1    0    0  503    0  0.00000000000E+00  0.00000000000E+00  0.56895236501E+02  0.56895236501E+02  0.00000000000E+00 0.  1.
         21   -1    0    0  501  502 -0.00000000000E+00 -0.00000000000E+00 -0.21024191338E+02  0.21024191338E+02  0.00000000000E+00 0. -1.
          2    1    1    2  501    0  0.21355336038E+02  0.23581085475E+00  0.48580172144E+02  0.53067307352E+02  0.00000000000E+00 0.  1.
         21    1    1    2  503  502 -0.21355336038E+02 -0.23581085475E+00 -0.12709126982E+02  0.24852120487E+02  0.00000000000E+00 0. -1.
</event>
<event>
 4    1  0.2229986E+005  0.5998555E+02  0.7546771E-02  0.1259882E+00
          2   -1    0    0  503    0  0.00000000000E+00  0.00000000000E+00  0.47461807234E+03  0.47461807234E+03  0.00000000000E+00 0. -1.
         21   -1    0    0  501  502 -0.00000000000E+00 -0.00000000000E+00 -0.85705118553E+01  0.85705118553E+01  0.00000000000E+00 0. -1.
          2    1    1    2  501    0  0.13633641926E+02  0.58415665356E+02  0.31509814323E+03  0.32075708257E+03  0.00000000000E+00 0. -1.
         21    1    1    2  503  502 -0.13633641926E+02 -0.58415665356E+02  0.15094941726E+03  0.16243150163E+03  0.00000000000E+00 0. -1.
</event>
<event>
 4    1  0.2229986E+005  0.2341553E+02  0.7546771E-02  0.1487345E+00
          2   -1    0    0  503    0  0.00000000000E+00  0.00000000000E+00  0.46136845864E+01  0.46136845864E+01  0.00000000000E+00 0. -1.
         21   -1    0    0  501  502 -0.00000000000E+00 -0.00000000000E+00 -0.42736928218E+03  0.42736928218E+03  0.00000000000E+00 0.  1.
          2    1    1    2  501    0 -0.13444898402E+02  0.19170856746E+02 -0.27857687785E+02  0.36391452433E+02  0.00000000000E+00 0. -1.
         21    1    1    2  503  502  0.13444898402E+02 -0.19170856746E+02 -0.39489790981E+03  0.39559151433E+03  0.00000000000E+00 0.  1.
</event>
<event>
 4    1  0.2229986E+005  0.3016108E+02  0.7546771E-02  0.1418202E+00
          2   -1    0    0  502    0  0.00000000000E+00  0.00000000000E+00  0.32333821020E+02  0.32333821020E+02  0.00000000000E+00 0.  1.
         21   -1    0    0  503  502 -0.00000000000E+00 -0.00000000000E+00 -0.93789092463E+02  0.93789092463E+02  0.00000000000E+00 0.  1.
          2    1    1    2  501    0  0.17861938546E+02  0.24303126264E+02  0.22034322780E+02  0.37352405213E+02  0.00000000000E+00 0.  1.
         21    1    1    2  503  501 -0.17861938546E+02 -0.24303126264E+02 -0.83489594223E+02  0.88770508269E+02  0.00000000000E+00 0.  1.
</event>
<event>
 4    1  0.2229986E+005  0.2415061E+02  0.7546771E-02  0.1478534E+00
          2   -1    0    0  502    0  0.00000000000E+00  0.00000000000E+00  0.31662042788E+03  0.31662042788E+03  0.00000000000E+00 0.  1.
         21   -1    0    0  503  502 -0.00000000000E+00 -0.00000000000E+00 -0.20469494488E+01  0.20469494488E+01  0.00000000000E+00 0.  1.
          2    1    1    2  501    0  0.23981428614E+02 -0.28535851424E+01  0.20768939851E+03  0.20908882830E+03  0.00000000000E+00 0.  1.
         21    1    1    2  503  501 -0.23981428614E+02  0.28535851424E+01  0.10688407992E+03  0.10957854902E+03  0.00000000000E+00 0.  1.
</event>
<event>
 4    1  0.2229986E+005  0.2645145E+02  0.7546771E-02  0.1453198E+00
          2   -1    0    0  503    0  0.00000000000E+00  0.00000000000E+00  0.10179536547E+04  0.10179536547E+04  0.00000000000E+00 0. -1.
         21   -1    0    0  501  502 -0.00000000000E+00 -0.00000000000E+00 -0.28941340952E+01  0.28941340952E+01  0.00000000000E+00 0.  1.
          2    1    1    2  501    0  0.10401160135E+02  0.24320674493E+02  0.95324005781E+03  0.95360698778E+03  0.00000000000E+00 0. -1.
         21    1    1    2  503  502 -0.10401160135E+02 -0.24320674493E+02  0.61819462776E+02  0.67240800990E+02  0.00000000000E+00 0.  1.
</event>
<event>
 4    1  0.2229986E+005  0.4466539E+02  0.7546771E-02  0.1323121E+00
          2   -1    0    0  503    0  0.00000000000E+00  0.00000000000E+00  0.86981507467E+03  0.86981507467E+03  0.00000000000E+00 0.  1.
         21   -1    0    0  501  502 -0.00000000000E+00 -0.00000000000E+00 -0.15431332749E+02  0.15431332749E+02  0.00000000000E+00 0. -1.
          2    1    1    2  501    0  0.44031409503E+02  0.74988173866E+01  0.83559858360E+03  0.83679148550E+03  0.00000000000E+00 0.  1.
         21    1    1    2  503  502 -0.44031409503E+02 -0.74988173866E+01  0.18785158315E+02  0.48454921916E+02  0.00000000000E+00 0. -1.
</event>
<event>
 4    1  0.2229986E+005  0.5952958E+02  0.7546771E-02  0.1261439E+00
          2   -1    0    0  503    0  0.00000000000E+00  0.00000000000E+00  0.17800792602E+04  0.17800792602E+04  0.00000000000E+00 0.  1.
         21   -1    0    0  501  502 -0.00000000000E+00 -0.00000000000E+00 -0.50851920061E+01  0.50851920061E+01  0.00000000000E+00 0. -1.
          2    1    1    2  501    0  0.75109215635E+01 -0.59053845787E+02  0.15837750152E+04  0.15848933937E+04  0.00000000000E+00 0.  1.
         21    1    1    2  503  502 -0.75109215635E+01  0.59053845787E+02  0.19121905302E+03  0.20027105853E+03  0.00000000000E+00 0. -1.
</event>
<event>
 4    1  0.2229986E+005  0.3018288E+02  0.7546771E-02  0.1418014E+00
          2   -1    0    0  503    0  0.00000000000E+00  0.00000000000E+00  0.38630896865E+02  0.38630896865E+02  0.00000000000E+00 0.  1.
         21   -1    0    0  501  502 -0.00000000000E+00 -0.00000000000E+00 -0.27819355451E+03  0.27819355451E+03  0.00000000000E+00 0.  1.
          2    1    1    2  501    0  0.20235942387E+02 -0.22394481059E+02  0.31767975090E+02  0.43820205243E+02  0.00000000000E+00 0.  1.
         21    1    1    2  503  502 -0.20235942387E+02  0.22394481059E+02 -0.27133063274E+03  0.27300424614E+03  0.00000000000E+00 0.  1.
</event>
<event>
 4    1  0.2229986E+005  0.2206240E+02  0.7546771E-02  0.1504620E+00
          2   -1    0    0  503    0  0.00000000000E+00  0.00000000000E+00  0.13710630234E+04  0.13710630234E+04  0.00000000000E+00 0. -1.
         21   -1    0    0  501  502 -0.00000000000E+00 -0.00000000000E+00 -0.11356464071E+01  0.11356464071E+01  0.00000000000E+00 0.  1.
          2    1    1    2  501    0 -0.36984979776E+01  0.21750183219E+02  0.12538011047E+04  0.12539951992E+04  0.00000000000E+00 0. -1.
         21    1    1    2  503  502  0.36984979776E+01 -0.21750183219E+02  0.11612627225E+03  0.11820347061E+03  0.00000000000E+00 0.  1.
</event>
<event>
 4    1  0.2229986E+005  0.2117191E+02  0.7546771E-02  0.1516824E+00
          2   -1    0    0  503    0  0.00000000000E+00  0.00000000000E+00  0.90853702688E+03  0.90853702688E+03  0.00000000000E+00 0.  1.
         21   -1    0    0  501  502 -0.00000000000E+00 -0.00000000000E+00 -0.42529588093E+01  0.42529588093E+01  0.00000000000E+00 0.  1.
          2    1    1    2  501    0  0.17235054377E+02  0.12296449900E+02  0.88124858777E+03  0.88150287761E+03  0.00000000000E+00 0.  1.
         21    1    1    2  503  502 -0.17235054377E+02 -0.12296449900E+02  0.23035480298E+02  0.31287108081E+02  0.00000000000E+00 0.  1.
</event>
<event>
 4    1  0.2229986E+005  0.2819624E+02  0.7546771E-02  0.1435948E+00
          2   -1    0    0  503    0  0.00000000000E+00  0.00000000000E+00  0.18061803604E+04  0.18061803604E+04  0.00000000000E+00 0. -1.
         21   -1    0    0  501  502 -0.00000000000E+00 -0.00000000000E+00 -0.66338656516E+00  0.66338656516E+00  0.00000000000E+00 0.  1.
          2    1    1    2  501    0  0.87091151990E+01 -0.26817514843E+02  0.14268048753E+04  0.14270834524E+04  0.00000000000E+00 0. -1.
         21    1    1    2  503  502 -0.87091151990E+01  0.26817514843E+02  0.37871209852E+03  0.37976029460E+03  0.00000000000E+00 0.  1.
</event>
<event>
 4    1  0.2229986E+005  0.2006055E+02  0.7546771E-02  0.1533112E+00
          2   -1    0    0  503    0  0.00000000000E+00  0.00000000000E+00  0.49341696897E+03  0.49341696897E+03  0.00000000000E+00 0. -1.
         21   -1    0    0  501  502 -0.00000000000E+00 -0.00000000000E+00 -0.82335606690E+00  0.82335606690E+00  0.00000000000E+00 0. -1.
          2    1    1    2  501    0  0.12891842010E+02  0.15369641806E+02  0.27029846805E+03  0.27104185527E+03  0.00000000000E+00 0. -1.
         21    1    1    2  503  502 -0.12891842010E+02 -0.15369641806E+02  0.22229514485E+03  0.22319846976E+03  0.00000000000E+00 0. -1.
</event>
<event>
 4    1  0.2229986E+005  0.2035537E+02  0.7546771E-02  0.1528671E+00
          2   -1    0    0  503    0  0.00000000000E+00  0.00000000000E+00  0.88113914715E+02  0.88113914715E+02  0.00000000000E+00 0. -1.
         21   -1    0    0  501  502 -0.00000000000E+00 -0.00000000000E+00 -0.33066464123E+02  0.33066464123E+02  0.00000000000E+00 0. -1.
          2    1    1    2  501    0  0.20238429548E+02 -0.21788002372E+01  0.83640558339E+02  0.86081845939E+02  0.00000000000E+00 0. -1.
         21    1    1    2  503  502 -0.20238429548E+02  0.21788002372E+01 -0.28593107747E+02  0.35098532899E+02  0.00000000000E+00 0. -1.
</event>
<event>
 4    1  0.2229986E+005  0.3804337E+02  0.7546771E-02  0.1360349E+00
          2   -1    0    0  502    0  0.00000000000E+00  0.00000000000E+00  0.10069253627E+04  0.10069253627E+04  0.00000000000E+00 0. -1.
         21   -1    0    0  503  502 -0.00000000000E+00 -0.00000000000E+00 -0.17984415231E+03  0.17984415231E+03  0.00000000000E+00 0.  1.
          2    1    1    2  501    0  0.15800071485E+02  0.34607160660E+02  0.10045493921E+04  0.10052695057E+04  0.00000000000E+00 0. -1.
         21    1    1    2  503  501 -0.15800071485E+02 -0.34607160660E+02 -0.17746818178E+03  0.18150000929E+03  0.00000000000E+00 0.  1.
</event>
<event>
 4    1  0.2229986E+005  0.2055303E+02  0.7546771E-02  0.1525743E+00
          2   -1    0    0  502    0  0.00000000000E+00  0.00000000000E+00  0.18676858323E+02  0.18676858323E+02  0.00000000000E+00 0. -1.
         21   -1    0    0  503  502 -0.00000000000E+00 -0.00000000000E+00 -0.40907087214E+02  0.40907087214E+02  0.00000000000E+00 0. -1.
          2    1    1    2  501    0 -0.72728880073E+01 -0.19223218470E+02  0.88053707012E+01  0.22359820694E+02  0.00000000000E+00 0. -1.
         21    1    1    2  503  501  0.72728880073E+01  0.19223218470E+02 -0.31035599591E+02  0.37224124843E+02  0.00000000000E+00 0. -1.
</event>
<event>
 4    1  0.2229986E+005  0.2337506E+02  0.7546771E-02  0.1487841E+00
          2   -1    0    0  503    0  0.00000000000E+00  0.00000000000E+00  0.12161941332E+03  0.12161941332E+03  0.00000000000E+00 0.  1.
         21   -1    0    0  501  502 -0.00000000000E+00 -0.00000000000E+00 -0.88795439003E+01  0.88795439003E+01  0.00000000000E+00 0.  1.
          2    1    1    2  501    0  0.14234009075E+02  0.18541480984E+02  0.10223270155E+03  0.10487096260E+03  0.00000000000E+00 0.  1.
         21    1    1    2  503  502 -0.14234009075E+02 -0.18541480984E+02  0.10507167871E+02  0.25627994617E+02  0.00000000000E+00 0.  1.
</event>
<event>
 4    1  0.2229986E+005  0.3790718E+02  0.7546771E-02  0.1361206E+00
          2   -1    0    0  503    0  0.00000000000E+00  0.00000000000E+00  0.72233747601E+03  0.72233747601E+03  0.00000000000E+00 0. -1.
         21   -1    0    0  501  502 -0.00000000000E+00 -0.00000000000E+00 -0.42227501644E+01  0.42227501644E+01  0.00000000000E+00 0.  1.
          2    1    1    2  501    0  0.37676087980E+02  0.41793047621E+01  0.62325623107E+03  0.62440794659E+03  0.00000000000E+00 0. -1.
         21    1    1    2  503  502 -0.37676087980E+02 -0.41793047621E+01  0.94858494775E+02  0.10215227959E+03  0.00000000000E+00 0.  1.
</event>
<event>
 4    1  0.2229986E+005  0.2186332E+02  0.7546771E-02  0.1507287E+00
          2   -1    0    0  503    0  0.00000000000E+00  0.00000000000E+00  0.52473423366E+02  0.52473423366E+02  0.00000000000E+00 0.  1.
         21   -1    0    0  501  502 -0.00000000000E+00 -0.00000000000E+00 -0.47509022400E+03  0.47509022400E+03  0.00000000000E+00 0. -1.
          2    1    1    2  501    0 -0.10398322876E+02  0.19232250920E+02  0.49932284560E+02  0.54509060123E+02  0.00000000000E+00 0.  1.
         21    1    1    2  503  502  0.10398322876E+02 -0.19232250920E+02 -0.47254908520E+03  0.47305458725E+03  0.00000000000E+00 0. -1.
</event>
<event>
 4    1  0.2229986E+005  0.2702352E+02  0.7546771E-02  0.1447372E+00
          2   -1    0    0  503    0  0.00000000000E+00  0.00000000000E+00  0.11279994764E+02  0.11279994764E+02  0.00000000000E+00 0.  1.
         21   -1    0    0  501  502 -0.00000000000E+00 -0.00000000000E+00 -0.68988257214E+02  0.68988257214E+02  0.00000000000E+00 0.  1.
          2    1    1    2  501    0  0.27007237562E+02 -0.93789984733E+00 -0.18895148773E+02  0.32974189664E+02  0.00000000000E+00 0.  1.
         21    1    1    2  503  502 -0.27007237562E+02  0.93789984733E+00 -0.38813113678E+02  0.47294062314E+02  0.00000000000E+00 0.  1.
</event>
<event>
 4    1  0.2229986E+005  0.3428817E+02  0.7546771E-02  0.1385638E+00
          2   -1    0    0  502    0  0.00000000000E+00  0.00000000000E+00  0.26430327055E+03  0.26430327055E+03  0.00000000000E+00 0.  1.
         21   -1    0    0  503  502 -0.00000000000E+00 -0.00000000000E+00 -0.52226819341E+02  0.52226819341E+02  0.00000000000E+00 0.  1.
          2    1    1    2  501    0  0.20932858369E+02 -0.27156842127E+02  0.25741349584E+03  0.25968709340E+03  0.00000000000E+00 0.  1.
         21    1    1    2  503  501 -0.20932858369E+02  0.27156842127E+02 -0.45337044637E+02  0.56842996493E+02  0.00000000000E+00 0.  1.
</event>
<event>
 4    1  0.2229986E+005  0.2128173E+02  0.7546771E-02  0.1515280E+00
          2   -1    0    0  503    0  0.00000000000E+00  0.00000000000E+00  0.39995114035E+02  0.39995114035E+02  0.00000000000E+00 0.  1.
         21   -1    0    0  501  502 -0.00000000000E+00 -0.00000000000E+00 -0.27691118893E+02  0.27691118893E+02  0.00000000000E+00 0. -1.
          2    1    1    2  501    0 -0.21144185146E+02 -0.24156488083E+01  0.32170590642E+02  0.38572773130E+02  0.00000000000E+00 0.  1.
         21    1    1    2  503  502  0.21144185146E+02  0.24156488083E+01 -0.19866595500E+02  0.29113459798E+02  0.00000000000E+00 0. -1.
</event>
<event>
 4    1  0.2229986E+005  0.2281503E+02  0.7546771E-02  0.1494834E+00
          2   -1    0    0  502    0  0.00000000000E+00  0.00000000000E+00  0.57424144394E+02  0.57424144394E+02  0.00000000000E+00 0. -1.
         21   -1    0    0  503  502 -0.00000000000E+00 -0.00000000000E+00 -0.18482453537E+02  0.18482453537E+02  0.00000000000E+00 0.  1.
          2    1    1    2  501    0 -0.43793567857E-01 -0.22814984185E+02  0.46563170598E+02  0.51852235028E+02  0.00000000000E+00 0. -1.
         21    1    1    2  503  501  0.43793567857E-01  0.22814984185E+02 -0.76214797418E+01  0.24054362903E+02  0.00000000000E+00 0.  1.
</event>
<event>
 4    1  0.2229986E+005  0.2427657E+02  0.7546771E-02  0.1477062E+00
          2   -1    0    0  503    0  0.00000000000E+00  0.00000000000E+00  0.59689627602E+02  0.59689627602E+02  0.00000000000E+00 0. -1.
         21   -1    0    0  501  502 -0.00000000000E+00 -0.00000000000E+00 -0.89666168737E+03  0.89666168737E+03  0.00000000000E+00 0.  1.
          2    1    1    2  501    0 -0.50457312362E+01 -0.23746422047E+02  0.57049619572E+02  0.62000089170E+02  0.00000000000E+00 0. -1.
         21    1    1    2  503  502  0.50457312362E+01  0.23746422047E+02 -0.89402167934E+03  0.89435122580E+03  0.00000000000E+00 0.  1.
</event>
<event>
 4    1  0.2229986E+005  0.2359062E+02  0.7546771E-02  0.1485212E+00
          2   -1    0    0  503    0  0.00000000000E+00  0.00000000000E+00  0.55569399658E+03  0.55569399658E+03  0.00000000000E+00 0.  1.
         21   -1    0    0  501  502 -0.00000000000E+00 -0.00000000000E+00 -0.22542237734E+01  0.22542237734E+01  0.00000000000E+00 0.  1.
          2    1    1    2  501    0 -0.11851211499E+02 -0.20397696078E+02  0.48468776725E+03  0.48526152633E+03  0.00000000000E+00 0.  1.
         21    1    1    2  503  502  0.11851211499E+02  0.20397696078E+02  0.68752005562E+02  0.72686694023E+02  0.00000000000E+00 0.  1.
</event>
<event>
 4    1  0.2229986E+005  0.2022784E+02  0.7546771E-02  0.1530581E+00
          2   -1    0    0  503    0  0.00000000000E+00  0.00000000000E+00  0.31981417244E+03  0.31981417244E+03  0.00000000000E+00 0. -1.
         21   -1    0    0  501  502 -0.00000000000E+00 -0.00000000000E+00 -0.22683837219E+03  0.22683837219E+03  0.00000000000E+00 0. -1.
          2    1    1    2  501    0  0.38004371924E+01  0.19867618974E+02  0.31904229217E+03  0.31968288944E+03  0.00000000000E+00 0. -1.
         21    1    1    2  503  502 -0.38004371924E+01 -0.19867618974E+02 -0.22606649192E+03  0.22696965519E+03  0.00000000000E+00 0. -1.
</event>
<event>
 4    1  0.2229986E+005  0.2103385E+02  0.7546771E-02  0.1518782E+00
          2   -1    0    0  503    0  0.00000000000E+00  0.00000000000E+00  0.25999424010E+03  0.25999424010E+03  0.00000000000E+00 0.  1.
         21   -1    0    0  501  502 -0.00000000000E+00 -0.00000000000E+00 -0.67348540723E+01  0.67348540723E+01  0.00000000000E+00 0. -1.
          2    1    1    2  501    0 -0.20244959514E+02  0.57065177501E+01  0.24192137707E+03  0.24283404913E+03  0.00000000000E+00 0.  1.
         21    1    1    2  503  502  0.20244959514E+02 -0.57065177501E+01  0.11338008951E+02  0.23895045042E+02  0.00000000000E+00 0. -1.
</event>
<event>
 4    1  0.2229986E+005  0.2371335E+02  0.7546771E-02  0.1483730E+00
          2   -1    0    0  502    0  0.00000000000E+00  0.00000000000E+00  0.13193449646E+03  0.13193449646E+03  0.00000000000E+00 0. -1.
         21   -1    0    0  503  502 -0.00000000000E+00 -0.00000000000E+00 -0.13007325582E+02  0.13007325582E+02  0.00000000000E+00 0.  1.
          2    1    1    2  501    0  0.22496690780E+02 -0.74981167517E+01  0.11888654990E+03  0.12122843973E+03  0.00000000000E+00 0. -1.
         21    1    1    2  503  501 -0.22496690780E+02  0.74981167517E+01  0.40620977119E-01  0.23713382317E+02  0.00000000000E+00 0.  1.
</event>
<event>
 4    1  0.2229986E+005  0.3082361E+02  0.7546771E-02  0.1412571E+00
          2   -1    0    0  502    0  0.00000000000E+00  0.00000000000E+00  0.11783031087E+04  0.11783031087E+04  0.00000000000E+00 0.  1.
         21   -1    0    0  503  502 -0.00000000000E+00 -0.00000000000E+00 -0.24650327348E+01  0.24650327348E+01  0.00000000000E+00 0. -1.
          2    1    1    2  501    0  0.30399860384E+02 -0.50934665538E+01  0.10722121125E+04  0.10726550746E+04  0.00000000000E+00 0.  1.
         21    1    1    2  503  501 -0.30399860384E+02  0.50934665538E+01  0.10362596353E+03  0.10811306688E+03  0.00000000000E+00 0. -1.
</event>
<event>
 4    1  0.2229986E+005  0.2071122E+02  0.7546771E-02  0.1523428E+00
          2   -1    0    0  503    0  0.00000000000E+00  0.00000000000E+00  0.93876540620E+03  0.93876540620E+03  0.00000000000E+00 0.  1.
         21   -1    0    0  501  502 -0.00000000000E+00 -0.00000000000E+00 -0.37664199502E+02  0.37664199502E+02  0.00000000000E+00 0.  1.
          2    1    1    2  501    0 -0.72469637054E+01 -0.19401958665E+02  0.93579490613E+03  0.93602407064E+03  0.00000000000E+00 0.  1.
         21    1    1    2  503  502  0.72469637054E+01  0.19401958665E+02 -0.34693699433E+02  0.40405535058E+02  0.00000000000E+00 0.  1.
</event>
<event>
 4    1  0.2229986E+005  0.8564018E+02  0.7546771E-02  0.1191326E+00
          2   -1    0    0  503    0  0.00000000000E+00  0.00000000000E+00  0.10777457491E+03  0.10777457491E+03  0.00000000000E+00 0. -1.
         21   -1    0    0  501  502 -0.00000000000E+00 -0.00000000000E+00 -0.11342616635E+03  0.11342616635E+03  0.00000000000E+00 0. -1.
          2    1    1    2  501    0  0.18766298936E+02  0.83558763912E+02  0.67127118375E+02  0.10881310134E+03  0.00000000000E+00 0. -1.
         21    1    1    2  503  502 -0.18766298936E+02 -0.83558763912E+02 -0.72778709822E+02  0.11238763991E+03  0.00000000000E+00 0. -1.
</event>
<event>
 4    1  0.2229986E+005  0.2032088E+02  0.7546771E-02  0.1529186E+00
          2   -1    0    0  502    0  0.00000000000E+00  0.00000000000E+00  0.63747408631E+03  0.63747408631E+03  0.00000000000E+00 0.  1.
         21   -1    0    0  503  502 -0.00000000000E+00 -0.00000000000E+00 -0.27618063242E+02  0.27618063242E+02  0.00000000000E+00 0. -1.
          2    1    1    2  501    0 -0.20172229492E+02 -0.24534272293E+01  0.63355106801E+03  0.63387687600E+03  0.00000000000E+00 0.  1.
         21    1    1    2  503  501  0.20172229492E+02  0.24534272293E+01 -0.23695044946E+02  0.31215273550E+02  0.00000000000E+00 0. -1.
</event>
<event>
 4    1  0.2229986E+005  0.2218593E+02  0.7546771E-02  0.1502981E+00
          2   -1    0    0  503    0  0.00000000000E+00  0.00000000000E+00  0.36519588326E+03  0.36519588326E+03  0.00000000000E+00 0. -1.
         21   -1    0    0  501  502 -0.00000000000E+00 -0.00000000000E+00 -0.27952877867E+01  0.27952877867E+01  0.00000000000E+00 0. -1.
          2    1    1    2  501    0 -0.14075008878E+02 -0.17149626620E+02  0.31360387596E+03  0.31438766926E+03  0.00000000000E+00 0. -1.
         21    1    1    2  503  502  0.14075008878E+02  0.17149626620E+02  0.48796719514E+02  0.53603501783E+02  0.00000000000E+00 0. -1.
</event>
<event>
 4    1  0.2229986E+005  0.3625006E+02  0.7546771E-02  0.1371982E+00
          2   -1    0    0  502    0  0.00000000000E+00  0.00000000000E+00  0.33545127227E+03  0.33545127227E+03  0.00000000000E+00 0.  1.
         21   -1    0    0  503  502 -0.00000000000E+00 -0.00000000000E+00 -0.32929721494E+02  0.32929721494E+02  0.00000000000E+00 0. -1.
          2    1    1    2  501    0 -0.27633085057E+02 -0.23462296866E+02  0.32414887550E+03  0.32616952686E+03  0.00000000000E+00 0.  1.
         21    1    1    2  503  501  0.27633085057E+02  0.23462296866E+02 -0.21627324720E+02  0.42211466908E+02  0.00000000000E+00 0. -1.
</event>
<event>
 4    1  0.2229986E+005  0.2138323E+02  0.7546771E-02  0.1513863E+00
          2   -1    0    0  503    0  0.00000000000E+00  0.00000000000E+00  0.82048563086E+03  0.82048563086E+03  0.00000000000E+00 0. -1.
         21   -1    0    0  501  502 -0.00000000000E+00 -0.00000000000E+00 -0.21892742501E+01  0.21892742501E+01  0.00000000000E+00 0.  1.
          2    1    1    2  501    0 -0.19683598461E+02  0.83545570215E+01  0.76429430804E+03  0.76459337689E+03  0.00000000000E+00 0. -1.
         21    1    1    2  503  502  0.19683598461E+02 -0.83545570215E+01  0.54002048570E+02  0.58081528227E+02  0.00000000000E+00 0.  1.
</event>
<event>
 4    1  0.2229986E+005  0.2647947E+02  0.7546771E-02  0.1452908E+00
          2   -1    0    0  502    0  0.00000000000E+00  0.00000000000E+00  0.58945327533E+02  0.58945327533E+02  0.00000000000E+00 0. -1.
         21   -1    0    0  503  502 -0.00000000000E+00 -0.00000000000E+00 -0.46656860205E+03  0.46656860205E+03  0.00000000000E+00 0.  1.
          2    1    1    2  501    0 -0.18802461585E+02 -0.18644827195E+02  0.55574219063E+02  0.61560181670E+02  0.00000000000E+00 0. -1.
         21    1    1    2  503  501  0.18802461585E+02  0.18644827195E+02 -0.46319749358E+03  0.46395374792E+03  0.00000000000E+00 0.  1.
</event>
<event>
 4    1  0.2229986E+005  0.5649424E+02  0.7546771E-02  0.1272233E+00
          2   -1    0    0  502    0  0.00000000000E+00  0.00000000000E+00  0.95698578821E+03  0.95698578821E+03  0.00000000000E+00 0. -1.
         21   -1    0    0  503  502 -0.00000000000E+00 -0.00000000000E+00 -0.10924116072E+02  0.10924116072E+02  0.00000000000E+00 0.  1.
          2    1    1    2  501    0  0.82644056763E+01 -0.55886480071E+02  0.87640292522E+03  0.87822188904E+03  0.00000000000E+00 0. -1.
         21    1    1    2  503  501 -0.82644056763E+01  0.55886480071E+02  0.69658746918E+02  0.89688015242E+02  0.00000000000E+00 0.  1.
</event>
<event>
 4    1  0.2229986E+005  0.2752895E+02  0.7546771E-02  0.1442366E+00
          2   -1    0    0  503    0  0.00000000000E+00  0.00000000000E+00  0.34984806436E+03  0.34984806436E+03  0.00000000000E+00 0. -1.
         21   -1    0    0  501  502 -0.00000000000E+00 -0.00000000000E+00 -0.18883494043E+02  0.18883494043E+02  0.00000000000E+00 0. -1.
          2    1    1    2  501    0  0.26984582449E+02  0.54475183033E+01  0.33895135186E+03  0.34006743754E+03  0.00000000000E+00 0. -1.
         21    1    1    2  503  502 -0.26984582449E+02 -0.54475183033E+01 -0.79867815416E+01  0.28664120866E+02  0.00000000000E+00 0. -1.
</event>
<event>
 4    1  0.2229986E+005  0.2642151E+02  0.7546771E-02  0.1453507E+00
          2   -1    0    0  502    0  0.00000000000E+00  0.00000000000E+00  0.48430589222E+03  0.48430589222E+03  0.00000000000E+00 0.  1.
         21   -1    0    0  503  502 -0.00000000000E+00 -0.00000000000E+00 -0.47032975715E+01  0.47032975715E+01  0.00000000000E+00 0. -1.
          2    1    1    2  501    0 -0.21430473591E+02  0.15454166175E+02  0.44342038665E+03  0.44420686143E+03  0.00000000000E+00 0.  1.
         21    1    1    2  503  501  0.21430473591E+02 -0.15454166175E+02  0.36182208006E+02  0.44802328362E+02  0.00000000000E+00 0. -1.
</event>
<event>
 4    1  0.2229986E+005  0.2151704E+02  0.7546771E-02  0.1512009E+00
          2   -1    0    0  502    0  0.00000000000E+00  0.00000000000E+00  0.15378913062E+04  0.15378913062E+04  0.00000000000E+00 0. -1.
         21   -1    0    0  503  502 -0.00000000000E+00 -0.00000000000E+00 -0.52092561803E+01  0.52092561803E+01  0.00000000000E+00 0.  1.
          2    1    1    2  501    0 -0.18343161478E+02 -0.11247722350E+02  0.15152650389E+04  0.15154178041E+04  0.00000000000E+00 0. -1.
         21    1    1    2  503  501  0.18343161478E+02  0.11247722350E+02  0.17417011153E+02  0.27682758326E+02  0.00000000000E+00 0.  1.
</event>
<event>
 4    1  0.2229986E+005  0.2055302E+02  0.7546771E-02  0.1525743E+00
          2   -1    0    0  503    0  0.00000000000E+00  0.00000000000E+00  0.97683099234E+03  0.97683099234E+03  0.00000000000E+00 0. -1.
         21   -1    0    0  501  502 -0.00000000000E+00 -0.00000000000E+00 -0.16348050598E+02  0.16348050598E+02  0.00000000000E+00 0. -1.
          2    1    1    2  501    0  0.20549096709E+02  0.40179629740E+00  0.97021896582E+03  0.97043663804E+03  0.00000000000E+00 0. -1.
         21    1    1    2  503  502 -0.20549096709E+02 -0.40179629740E+00 -0.97360240756E+01  0.22742404900E+02  0.00000000000E+00 0. -1.
</event>
<event>
 4    1  0.2229986E+005  0.2061795E+02  0.7546771E-02  0.1524790E+00
          2   -1    0    0  502    0  0.00000000000E+00  0.00000000000E+00  0.28196892605E+02  0.28196892605E+02  0.00000000000E+00 0. -1.
         21   -1    0    0  503  502 -0.00000000000E+00 -0.00000000000E+00 -0.29256969535E+02  0.29256969535E+02  0.00000000000E+00 0.  1.
          2    1    1    2  501    0  0.14593097545E+02  0.14565068300E+02  0.19469763768E+02  0.28357916209E+02  0.00000000000E+00 0. -1.
         21    1    1    2  503  501 -0.14593097545E+02 -0.14565068300E+02 -0.20529840698E+02  0.29095945931E+02  0.00000000000E+00 0.  1.
</event>
<event>
 4    1  0.2229986E+005  0.2384232E+02  0.7546771E-02  0.1482184E+00
          2   -1    0    0  502    0  0.00000000000E+00  0.00000000000E+00  0.21009419003E+03  0.21009419003E+03  0.00000000000E+00 0.  1.
         21   -1    0    0  503  502 -0.00000000000E+00 -0.00000000000E+00 -0.30449756349E+02  0.30449756349E+02  0.00000000000E+00 0. -1.
          2    1    1    2  501    0 -0.20823109565E+02 -0.11612681712E+02  0.20462630129E+03  0.20601062945E+03  0.00000000000E+00 0.  1.
         21    1    1    2  503  501  0.20823109565E+02  0.11612681712E+02 -0.24981867610E+02  0.34533316924E+02  0.00000000000E+00 0. -1.
</event>
<event>
 4    1  0.2229986E+005  0.2854090E+02  0.7546771E-02  0.1432715E+00
          2   -1    0    0  503    0  0.00000000000E+00  0.00000000000E+00  0.35576014972E+03  0.35576014972E+03  0.00000000000E+00 0. -1.
         21   -1    0    0  501  502 -0.00000000000E+00 -0.00000000000E+00 -0.48485229024E+01  0.48485229024E+01  0.00000000000E+00 0.  1.
          2    1    1    2  501    0  0.13879939806E+02  0.24938528555E+02  0.30644088987E+03  0.30776712287E+03  0.00000000000E+00 0. -1.
         21    1    1    2  503  502 -0.13879939806E+02 -0.24938528555E+02  0.44470736947E+02  0.52841549752E+02  0.00000000000E+00 0.  1.
</event>
<event>
 4    1  0.2229986E+005  0.2284002E+02  0.7546771E-02  0.1494517E+00
          2   -1    0    0  502    0  0.00000000000E+00  0.00000000000E+00  0.91032108513E+02  0.91032108513E+02  0.00000000000E+00 0.  1.
         21   -1    0    0  503  502 -0.00000000000E+00 -0.00000000000E+00 -0.87931515117E+01  0.87931515117E+01  0.00000000000E+00 0. -1.
          2    1    1    2  501    0 -0.21806141854E+02 -0.67940217810E+01  0.70576000771E+02  0.74179771093E+02  0.00000000000E+00 0.  1.
         21    1    1    2  503  501  0.21806141854E+02  0.67940217810E+01  0.11662956230E+02  0.25645488932E+02  0.00000000000E+00 0. -1.
</event>
<event>
 4    1  0.2229986E+005  0.3715609E+02  0.7546771E-02  0.1366008E+00
          2   -1    0    0  503    0  0.00000000000E+00  0.00000000000E+00  0.88964712529E+03  0.88964712529E+03  0.00000000000E+00 0. -1.
         21   -1    0    0  501  502 -0.00000000000E+00 -0.00000000000E+00 -0.14353954650E+02  0.14353954650E+02  0.00000000000E+00 0.  1.
          2    1    1    2  501    0 -0.15495386668E+02  0.33770817445E+02  0.86451528236E+03  0.86531338171E+03  0.00000000000E+00 0. -1.
         21    1    1    2  503  502  0.15495386668E+02 -0.33770817445E+02  0.10777888276E+02  0.38687698233E+02  0.00000000000E+00 0.  1.
</event>
<event>
 4    1  0.2229986E+005  0.2048629E+02  0.7546771E-02  0.1526727E+00
          2   -1    0    0  503    0  0.00000000000E+00  0.00000000000E+00  0.69939811413E+01  0.69939811413E+01  0.00000000000E+00 0.  1.
         21   -1    0    0  501  502 -0.00000000000E+00 -0.00000000000E+00 -0.72456945858E+02  0.72456945858E+02  0.00000000000E+00 0.  1.
          2    1    1    2  501    0  0.17060494990E+02  0.11341407088E+02 -0.16264567147E+02  0.26157678577E+02  0.00000000000E+00 0.  1.
         21    1    1    2  503  502 -0.17060494990E+02 -0.11341407088E+02 -0.49198397569E+02  0.53293248422E+02  0.00000000000E+00 0.  1.
</event>
<event>
 4    1  0.2229986E+005  0.2716731E+02  0.7546771E-02  0.1445935E+00
          2   -1    0    0  502    0  0.00000000000E+00  0.00000000000E+00  0.15506199383E+04  0.15506199383E+04  0.00000000000E+00 0.  1.
         21   -1    0    0  503  502 -0.00000000000E+00 -0.00000000000E+00 -0.23943857752E+01  0.23943857752E+01  0.00000000000E+00 0.  1.
          2    1    1    2  501    0 -0.15502112009E+02  0.22310246558E+02  0.14691671010E+04  0.14694182636E+04  0.00000000000E+00 0.  1.
         21    1    1    2  503  501  0.15502112009E+02 -0.22310246558E+02  0.79058451474E+02  0.83596060480E+02  0.00000000000E+00 0.  1.
</event>
<event>
 4    1  0.2229986E+005  0.2205843E+02  0.7546771E-02  0.1504672E+00
          2   -1    0    0  503    0  0.00000000000E+00  0.00000000000E+00  0.11463925323E+04  0.11463925323E+04  0.00000000000E+00 0.  1.
         21   -1    0    0  501  502 -0.00000000000E+00 -0.00000000000E+00 -0.57185768195E+01  0.57185768195E+01  0.00000000000E+00 0. -1.
          2    1    1    2  501    0  0.17864748872E+02  0.12939288812E+02  0.11246026521E+04  0.11248189630E+04  0.00000000000E+00 0.  1.
         21    1    1    2  503  502 -0.17864748872E+02 -0.12939288812E+02  0.16071303404E+02  0.27292146129E+02  0.00000000000E+00 0. -1.
</event>
<event>
 4    1  0.2229986E+005  0.2369047E+02  0.7546771E-02  0.1484005E+00
          2   -1    0    0  503    0  0.00000000000E+00  0.00000000000E+00  0.68794516310E+02  0.68794516310E+02  0.00000000000E+00 0.  1.
         21   -1    0    0  501  502 -0.00000000000E+00 -0.00000000000E+00 -0.30222604450E+02  0.30222604450E+02  0.00000000000E+00 0. -1.
          2    1    1    2  501    0  0.20780181435E+02  0.11376399583E+02  0.61587927056E+02  0.65987204570E+02  0.00000000000E+00 0.  1.
         21    1    1    2  503  502 -0.20780181435E+02 -0.11376399583E+02 -0.23016015196E+02  0.33029916189E+02  0.00000000000E+00 0. -1.
</event>
<event>
 4    1  0.2229986E+005  0.3097221E+02  0.7546771E-02  0.1411332E+00
          2   -1    0    0  502    0  0.00000000000E+00  0.00000000000E+00  0.33190134795E+03  0.33190134795E+03  0.00000000000E+00 0. -1.
         21   -1    0    0  503  502 -0.00000000000E+00 -0.00000000000E+00 -0.37895403604E+02  0.37895403604E+02  0.00000000000E+00 0. -1.
          2    1    1    2  501    0  0.28873444391E+02 -0.11207219600E+02  0.32471050086E+03  0.32618428370E+03  0.00000000000E+00 0. -1.
         21    1    1    2  503  501 -0.28873444391E+02  0.11207219600E+02 -0.30704556512E+02  0.43612467859E+02  0.00000000000E+00 0. -1.
</event>
<event>
 4    1  0.2229986E+005  0.5166163E+02  0.7546771E-02  0.1291125E+00
          2   -1    0    0  503    0  0.00000000000E+00  0.00000000000E+00  0.45862970215E+03  0.45862970215E+03  0.00000000000E+00 0. -1.
         21   -1    0    0  501  502 -0.00000000000E+00 -0.00000000000E+00 -0.27633332801E+02  0.27633332801E+02  0.00000000000E+00 0.  1.
          2    1    1    2  501    0  0.23885890532E+01  0.51606381330E+02  0.43151729397E+03  0.43459877928E+03  0.00000000000E+00 0. -1.
         21    1    1    2  503  502 -0.23885890532E+01 -0.51606381330E+02 -0.52092462597E+00  0.51664255672E+02  0.00000000000E+00 0.  1.
</event>
<event>
 4    1  0.2229986E+005  0.2781976E+02  0.7546771E-02  0.1439543E+00
          2   -1    0    0  502    0  0.00000000000E+00  0.00000000000E+00  0.13456006640E+04  0.13456006640E+04  0.00000000000E+00 0.  1.
         21   -1    0    0  503  502 -0.00000000000E+00 -0.00000000000E+00 -0.32189267622E+02  0.32189267622E+02  0.00000000000E+00 0.  1.
          2    1    1    2  501    0  0.10959131622E+02  0.25570226961E+02  0.13394182848E+04  0.13397071623E+04  0.00000000000E+00 0.  1.
         21    1    1    2  503  501 -0.10959131622E+02 -0.25570226961E+02 -0.26006888428E+02  0.38082769312E+02  0.00000000000E+00 0.  1.
</event>
<event>
 4    1  0.2229986E+005  0.2866413E+02  0.7546771E-02  0.1431572E+00
          2   -1    0    0  503    0  0.00000000000E+00  0.00000000000E+00  0.11211415843E+04  0.11211415843E+04  0.00000000000E+00 0. -1.
         21   -1    0    0  501  502 -0.00000000000E+00 -0.00000000000E+00 -0.13310824383E+01  0.13310824383E+01  0.00000000000E+00 0. -1.
          2    1    1    2  501    0 -0.98547265193E+01  0.26916845334E+02  0.93615578021E+03  0.93659451045E+03  0.00000000000E+00 0. -1.
         21    1    1    2  503  502  0.98547265193E+01 -0.26916845334E+02  0.18365472163E+03  0.18587815626E+03  0.00000000000E+00 0. -1.
</event>
<event>
 4    1  0.2229986E+005  0.7011388E+02  0.7546771E-02  0.1228869E+00
          2   -1    0    0  503    0  0.00000000000E+00  0.00000000000E+00  0.26443430142E+03  0.26443430142E+03  0.00000000000E+00 0.  1.
         21   -1    0    0  501  502 -0.00000000000E+00 -0.00000000000E+00 -0.87680507205E+03  0.87680507205E+03  0.00000000000E+00 0. -1.
          2    1    1    2  501    0 -0.13325207344E+02  0.68836001738E+02  0.25835260861E+03  0.26769764038E+03  0.00000000000E+00 0.  1.
         21    1    1    2  503  502  0.13325207344E+02 -0.68836001738E+02 -0.87072337925E+03  0.87354173309E+03  0.00000000000E+00 0. -1.
</event>
<event>
 4    1  0.2229986E+005  0.2355008E+02  0.7546771E-02  0.1485704E+00
          2   -1    0    0  502    0  0.00000000000E+00  0.00000000000E+00  0.91131120212E+03  0.91131120212E+03  0.00000000000E+00 0.  1.
         21   -1    0    0  503  502 -0.00000000000E+00 -0.00000000000E+00 -0.90380878585E+00  0.90380878585E+00  0.00000000000E+00 0. -1.
          2    1    1    2  501    0  0.98742562109E+01  0.21380019887E+02  0.71588384230E+03  0.71627109523E+03  0.00000000000E+00 0.  1.
         21    1    1    2  503  501 -0.98742562109E+01 -0.21380019887E+02  0.19452355103E+03  0.19594391568E+03  0.00000000000E+00 0. -1.
</event>
<event>
 4    1  0.2768099E+005  0.2496196E+02  0.7546771E-02  0.1469229E+00
          2   -1    0    0  503    0  0.00000000000E+00  0.00000000000E+00  0.79360571703E+03  0.79360571703E+03  0.00000000000E+00 0.  1.
         21   -1    0    0  501  502 -0.00000000000E+00 -0.00000000000E+00 -0.22197592590E+03  0.22197592590E+03  0.00000000000E+00 0.  1.
          2    1    1    2  501    0 -0.11690819235E+02  0.22055030185E+02  0.79270686912E+03  0.79309979193E+03  0.00000000000E+00 0.  1.
         21    1    1    2  503  502  0.11690819235E+02 -0.22055030185E+02 -0.22107707799E+03  0.22248185099E+03  0.00000000000E+00 0.  1.
</event>
<event>
 4    1  0.2229986E+005  0.3501004E+02  0.7546771E-02  0.1380493E+00
          2   -1    0    0  503    0  0.00000000000E+00  0.00000000000E+00  0.11032077834E+04  0.11032077834E+04  0.00000000000E+00 0. -1.
         21   -1    0    0  501  502 -0.00000000000E+00 -0.00000000000E+00 -0.13222533811E+01  0.13222533811E+01  0.00000000000E+00 0.  1.
          2    1    1    2  501    0 -0.22299110821E+02 -0.26989865705E+02  0.77166971502E+03  0.77246349575E+03  0.00000000000E+00 0. -1.
         21    1    1    2  503  502  0.22299110821E+02  0.26989865705E+02  0.33021581505E+03  0.33206654108E+03  0.00000000000E+00 0.  1.
</event>
<event>
 4    1  0.2229986E+005  0.3800929E+02  0.7546771E-02  0.1360563E+00
          2   -1    0    0  503    0  0.00000000000E+00  0.00000000000E+00  0.17212324455E+04  0.17212324455E+04  0.00000000000E+00 0.  1.
         21   -1    0    0  501  502 -0.00000000000E+00 -0.00000000000E+00 -0.53143249966E+02  0.53143249966E+02  0.00000000000E+00 0.  1.
          2    1    1    2  501    0  0.34338495368E+02  0.16296437617E+02  0.17141984428E+04  0.17146197851E+04  0.00000000000E+00 0.  1.
         21    1    1    2  503  502 -0.34338495368E+02 -0.16296437617E+02 -0.46109247255E+02  0.59755910382E+02  0.00000000000E+00 0.  1.
</event>
<event>
 4    1  0.2229986E+005  0.2164876E+02  0.7546771E-02  0.1510200E+00
          2   -1    0    0  502    0  0.00000000000E+00  0.00000000000E+00  0.26039263850E+01  0.26039263850E+01  0.00000000000E+00 0.  1.
         21   -1    0    0  503  502 -0.00000000000E+00 -0.00000000000E+00 -0.36421660129E+03  0.36421660129E+03  0.00000000000E+00 0. -1.
          2    1    1    2  501    0 -0.29444067067E+01 -0.21447596277E+02 -0.50361986811E+02  0.54817867821E+02  0.00000000000E+00 0.  1.
         21    1    1    2  503  501  0.29444067067E+01  0.21447596277E+02 -0.31125068809E+03  0.31200265985E+03  0.00000000000E+00 0. -1.
</event>
<event>
 4    1  0.2229986E+005  0.2274374E+02  0.7546771E-02  0.1495741E+00
          2   -1    0    0  503    0  0.00000000000E+00  0.00000000000E+00  0.12440931353E+04  0.12440931353E+04  0.00000000000E+00 0. -1.
         21   -1    0    0  501  502 -0.00000000000E+00 -0.00000000000E+00 -0.53522436028E+00  0.53522436028E+00  0.00000000000E+00 0. -1.
          2    1    1    2  501    0 -0.10044664144E+01  0.22721544017E+02  0.32780273258E+03  0.32859079263E+03  0.00000000000E+00 0. -1.
         21    1    1    2  503  502  0.10044664144E+01 -0.22721544017E+02  0.91575517836E+03  0.91603756703E+03  0.00000000000E+00 0. -1.
</event>
<event>
 4    1  0.2229986E+005  0.2346975E+02  0.7546771E-02  0.1486682E+00
          2   -1    0    0  503    0  0.00000000000E+00  0.00000000000E+00  0.61183962220E+03  0.61183962220E+03  0.00000000000E+00 0.  1.
         21   -1    0    0  501  502 -0.00000000000E+00 -0.00000000000E+00 -0.35370234612E+01  0.35370234612E+01  0.00000000000E+00 0.  1.
          2    1    1    2  501    0  0.50265150847E+01 -0.22925164122E+02  0.56981101904E+03  0.57029415780E+03  0.00000000000E+00 0.  1.
         21    1    1    2  503  502 -0.50265150847E+01  0.22925164122E+02  0.38491579703E+02  0.45082487863E+02  0.00000000000E+00 0.  1.
</event>
<event>
 4    1  0.2229986E+005  0.2769448E+02  0.7546771E-02  0.1440754E+00
          2   -1    0    0  503    0  0.00000000000E+00  0.00000000000E+00  0.65918753484E+03  0.65918753484E+03  0.00000000000E+00 0. -1.
         21   -1    0    0  501  502 -0.00000000000E+00 -0.00000000000E+00 -0.13611664636E+01  0.13611664636E+01  0.00000000000E+00 0. -1.
          2    1    1    2  501    0  0.17524035784E+02 -0.21445099583E+02  0.45476321936E+03  0.45560571749E+03  0.00000000000E+00 0. -1.
         21    1    1    2  503  502 -0.17524035784E+02  0.21445099583E+02  0.20306314902E+03  0.20494298381E+03  0.00000000000E+00 0. -1.
</event>
<event>
 4    1  0.2229986E+005  0.2092270E+02  0.7546771E-02  0.1520371E+00
          2   -1    0    0  503    0  0.00000000000E+00  0.00000000000E+00  0.52387771027E+00  0.52387771027E+00  0.00000000000E+00 0. -1.
         21   -1    0    0  501  502 -0.00000000000E+00 -0.00000000000E+00 -0.14303908222E+04  0.14303908222E+04  0.00000000000E+00 0. -1.
          2    1    1    2  501    0 -0.13989551287E+02  0.15558019124E+02 -0.25358037408E+03  0.25444206733E+03  0.00000000000E+00 0. -1.
         21    1    1    2  503  502  0.13989551287E+02 -0.15558019124E+02 -0.11762865704E+04  0.11764726325E+04  0.00000000000E+00 0. -1.
</event>
<event>
 4    1  0.2229986E+005  0.2119019E+02  0.7546771E-02  0.1516567E+00
          2   -1    0    0  502    0  0.00000000000E+00  0.00000000000E+00  0.37897794925E+03  0.37897794925E+03  0.00000000000E+00 0. -1.
         21   -1    0    0  503  502 -0.00000000000E+00 -0.00000000000E+00 -0.78496238255E+01  0.78496238255E+01  0.00000000000E+00 0. -1.
          2    1    1    2  501    0  0.57376359210E+01 -0.20398619354E+02  0.36378414283E+03  0.36440077759E+03  0.00000000000E+00 0. -1.
         21    1    1    2  503  501 -0.57376359210E+01  0.20398619354E+02  0.73441825935E+01  0.22426795479E+02  0.00000000000E+00 0. -1.
</event>
<event>
 4    1  0.2229986E+005  0.2036567E+02  0.7546771E-02  0.1528517E+00
          2   -1    0    0  503    0  0.00000000000E+00  0.00000000000E+00  0.10816891878E+04  0.10816891878E+04  0.00000000000E+00 0. -1.
         21   -1    0    0  501  502 -0.00000000000E+00 -0.00000000000E+00 -0.53093597059E+01  0.53093597059E+01  0.00000000000E+00 0. -1.
          2    1    1    2  501    0  0.74805441121E+01  0.18942071522E+02  0.10616958986E+04  0.10618912099E+04  0.00000000000E+00 0. -1.
         21    1    1    2  503  502 -0.74805441121E+01 -0.18942071522E+02  0.14683929437E+02  0.25107337523E+02  0.00000000000E+00 0. -1.
</event>
<event>
 4    1  0.2229986E+005  0.2126301E+02  0.7546771E-02  0.1515543E+00
          2   -1    0    0  502    0  0.00000000000E+00  0.00000000000E+00  0.53476797687E+03  0.53476797687E+03  0.00000000000E+00 0. -1.
         21   -1    0    0  503  502 -0.00000000000E+00 -0.00000000000E+00 -0.56503774092E+01  0.56503774092E+01  0.00000000000E+00 0. -1.
          2    1    1    2  501    0 -0.27097747340E+01 -0.21089637115E+02  0.51373417020E+03  0.51417401073E+03  0.00000000000E+00 0. -1.
         21    1    1    2  503  501  0.27097747340E+01  0.21089637115E+02  0.15383429257E+02  0.26244343551E+02  0.00000000000E+00 0. -1.
</event>
<event>
 4    1  0.2229986E+005  0.2182526E+02  0.7546771E-02  0.1507801E+00
          2   -1    0    0  503    0  0.00000000000E+00  0.00000000000E+00  0.49444874688E+03  0.49444874688E+03  0.00000000000E+00 0. -1.
         21   -1    0    0  501  502 -0.00000000000E+00 -0.00000000000E+00 -0.15050239850E+01  0.15050239850E+01  0.00000000000E+00 0. -1.
          2    1    1    2  501    0 -0.17306257404E+02  0.13297951776E+02  0.39523537460E+03  0.39583752147E+03  0.00000000000E+00 0. -1.
         21    1    1    2  503  502  0.17306257404E+02 -0.13297951776E+02  0.97708348291E+02  0.10011624939E+03  0.00000000000E+00 0. -1.
</event>
<event>
 4    1  0.2229986E+005  0.2349270E+02  0.7546771E-02  0.1486402E+00
          2   -1    0    0  502    0  0.00000000000E+00  0.00000000000E+00  0.23705758793E+03  0.23705758793E+03  0.00000000000E+00 0.  1.
         21   -1    0    0  503  502 -0.00000000000E+00 -0.00000000000E+00 -0.49967311220E+01  0.49967311220E+01  0.00000000000E+00 0. -1.
          2    1    1    2  501    0  0.15603002526E+02 -0.17562843183E+02  0.20447670030E+03  0.20582183585E+03  0.00000000000E+00 0.  1.
         21    1    1    2  503  501 -0.15603002526E+02  0.17562843183E+02  0.27584156510E+02  0.36232483201E+02  0.00000000000E+00 0. -1.
</event>
<event>
 4    1  0.2229986E+005  0.2433904E+02  0.7546771E-02  0.1476335E+00
          2   -1    0    0  503    0  0.00000000000E+00  0.00000000000E+00  0.95289318763E+03  0.95289318763E+03  0.00000000000E+00 0. -1.
         21   -1    0    0  501  502 -0.00000000000E+00 -0.00000000000E+00 -0.19784878182E+01  0.19784878182E+01  0.00000000000E+00 0. -1.
          2    1    1    2  501    0  0.18301433835E+02  0.16045137506E+02  0.87083166647E+03  0.87117172833E+03  0.00000000000E+00 0. -1.
         21    1    1    2  503  502 -0.18301433835E+02 -0.16045137506E+02  0.80083033340E+02  0.83699947115E+02  0.00000000000E+00 0. -1.
</event>
<event>
 4    1  0.2229986E+005  0.3653117E+02  0.7546771E-02  0.1370107E+00
          2   -1    0    0  503    0  0.00000000000E+00  0.00000000000E+00  0.97893961592E+03  0.97893961592E+03  0.00000000000E+00 0. -1.
         21   -1    0    0  501  502 -0.00000000000E+00 -0.00000000000E+00 -0.90198552554E+02  0.90198552554E+02  0.00000000000E+00 0.  1.
          2    1    1    2  501    0 -0.35013288050E+02  0.10420953477E+02  0.97488456846E+03  0.97556878202E+03  0.00000000000E+00 0. -1.
         21    1    1    2  503  502  0.35013288050E+02 -0.10420953477E+02 -0.86143505099E+02  0.93569386459E+02  0.00000000000E+00 0.  1.
</event>
<event>
 4    1  0.2229986E+005  0.2554060E+02  0.7546771E-02  0.1462846E+00
          2   -1    0    0  502    0  0.00000000000E+00  0.00000000000E+00  0.13526545633E+04  0.13526545633E+04  0.00000000000E+00 0.  1.
         21   -1    0    0  503  502 -0.00000000000E+00 -0.00000000000E+00 -0.38963234704E+01  0.38963234704E+01  0.00000000000E+00 0.  1.
          2    1    1    2  501    0  0.25103093027E+02 -0.47071409274E+01  0.13092929653E+04  0.13095420541E+04  0.00000000000E+00 0.  1.
         21    1    1    2  503  501 -0.25103093027E+02  0.47071409274E+01  0.39465274482E+02  0.47008832629E+02  0.00000000000E+00 0.  1.
</event>
<event>
 4    1  0.2229986E+005  0.2025692E+02  0.7546771E-02  0.1530144E+00
          2   -1    0    0  503    0  0.00000000000E+00  0.00000000000E+00  0.10139690242E+04  0.10139690242E+04  0.00000000000E+00 0.  1.
         21   -1    0    0  501  502 -0.00000000000E+00 -0.00000000000E+00 -0.83785279563E+00  0.83785279563E+00  0.00000000000E+00 0. -1.
          2    1    1    2  501    0  0.18049712029E+02 -0.91951509852E+01  0.87139951988E+03  0.87163493858E+03  0.00000000000E+00 0.  1.
         21    1    1    2  503  502 -0.18049712029E+02  0.91951509852E+01  0.14173165154E+03  0.14317193844E+03  0.00000000000E+00 0. -1.
</event>
<event>
 4    1  0.2229986E+005  0.2253272E+02  0.7546771E-02  0.1498451E+00
          2   -1    0    0  502    0  0.00000000000E+00  0.00000000000E+00  0.40135721407E+03  0.40135721407E+03  0.00000000000E+00 0.  1.
         21   -1    0    0  503  502 -0.00000000000E+00 -0.00000000000E+00 -0.10976026120E+02  0.10976026120E+02  0.00000000000E+00 0. -1.
          2    1    1    2  501    0  0.86580967054E+01  0.20802905470E+02  0.38911299357E+03  0.38976485896E+03  0.00000000000E+00 0.  1.
         21    1    1    2  503  501 -0.86580967054E+01 -0.20802905470E+02  0.12681943828E+01  0.22568381234E+02  0.00000000000E+00 0. -1.
</event>
<event>
 4    1  0.2229986E+005  0.2193198E+02  0.7546771E-02  0.1506363E+00
          2   -1    0    0  503    0  0.00000000000E+00  0.00000000000E+00  0.22434874768E+02  0.22434874768E+02  0.00000000000E+00 0.  1.
         21   -1    0    0  501  502 -0.00000000000E+00 -0.00000000000E+00 -0.59887775702E+02  0.59887775702E+02  0.00000000000E+00 0.  1.
          2    1    1    2  501    0 -0.19186342578E+02 -0.10625243399E+02  0.14253796058E+02  0.26156877506E+02  0.00000000000E+00 0.  1.
         21    1    1    2  503  502  0.19186342578E+02  0.10625243399E+02 -0.51706696992E+02  0.56165772964E+02  0.00000000000E+00 0.  1.
</event>
<event>
 4    1  0.2229986E+005  0.2299862E+02  0.7546771E-02  0.1492515E+00
          2   -1    0    0  502    0  0.00000000000E+00  0.00000000000E+00  0.84265627466E+03  0.84265627466E+03  0.00000000000E+00 0. -1.
         21   -1    0    0  503  502 -0.00000000000E+00 -0.00000000000E+00 -0.77721963385E+00  0.77721963385E+00  0.00000000000E+00 0. -1.
          2    1    1    2  501    0  0.11848437402E+02  0.19711700468E+02  0.60590723175E+03  0.60634355780E+03  0.00000000000E+00 0. -1.
         21    1    1    2  503  501 -0.11848437402E+02 -0.19711700468E+02  0.23597182328E+03  0.23708993649E+03  0.00000000000E+00 0. -1.
</event>
<event>
 4    1  0.2229986E+005  0.3031035E+02  0.7546771E-02  0.1416918E+00
          2   -1    0    0  503    0  0.00000000000E+00  0.00000000000E+00  0.51954995943E+01  0.51954995943E+01  0.00000000000E+00 0. -1.
         21   -1    0    0  501  502 -0.00000000000E+00 -0.00000000000E+00 -0.32164232954E+03  0.32164232954E+03  0.00000000000E+00 0. -1.
          2    1    1    2  501    0  0.12846770699E+01  0.30283109828E+02 -0.48570703714E+02  0.57252339649E+02  0.00000000000E+00 0. -1.
         21    1    1    2  503  502 -0.12846770699E+01 -0.30283109828E+02 -0.26787612623E+03  0.26958548948E+03  0.00000000000E+00 0. -1.
</event>
<event>
 4    1  0.2229986E+005  0.1133971E+03  0.7546771E-02  0.1142423E+00
          2   -1    0    0  503    0  0.00000000000E+00  0.00000000000E+00  0.13793629000E+04  0.13793629000E+04  0.00000000000E+00 0.  1.
         21   -1    0    0  501  502 -0.00000000000E+00 -0.00000000000E+00 -0.37168563822E+03  0.37168563822E+03  0.00000000000E+00 0.  1.
          2    1    1    2  501    0 -0.20253271486E+02  0.11157376401E+03  0.13683135476E+04  0.13730043206E+04  0.00000000000E+00 0.  1.
         21    1    1    2  503  502  0.20253271486E+02 -0.11157376401E+03 -0.36063628583E+03  0.37804421762E+03  0.00000000000E+00 0.  1.
</event>
<event>
 4    1  0.2229986E+005  0.2303011E+02  0.7546771E-02  0.1492120E+00
          2   -1    0    0  502    0  0.00000000000E+00  0.00000000000E+00  0.78072732697E+02  0.78072732697E+02  0.00000000000E+00 0.  1.
         21   -1    0    0  503  502 -0.00000000000E+00 -0.00000000000E+00 -0.53938118300E+02  0.53938118300E+02  0.00000000000E+00 0.  1.
          2    1    1    2  501    0 -0.17936972228E+02  0.14444755334E+02  0.73776216572E+02  0.77287230906E+02  0.00000000000E+00 0.  1.
         21    1    1    2  503  501  0.17936972228E+02 -0.14444755334E+02 -0.49641602176E+02  0.54723620092E+02  0.00000000000E+00 0.  1.
</event>
<event>
 4    1  0.2229986E+005  0.3492342E+02  0.7546771E-02  0.1381102E+00
          2   -1    0    0  503    0  0.00000000000E+00  0.00000000000E+00  0.79271229142E+03  0.79271229142E+03  0.00000000000E+00 0. -1.
         21   -1    0    0  501  502 -0.00000000000E+00 -0.00000000000E+00 -0.40057743683E+02  0.40057743683E+02  0.00000000000E+00 0. -1.
          2    1    1    2  501    0  0.22759502258E+02 -0.26488689218E+02  0.78463755701E+03  0.78541437565E+03  0.00000000000E+00 0. -1.
         21    1    1    2  503  502 -0.22759502258E+02  0.26488689218E+02 -0.31983009280E+02  0.47355659451E+02  0.00000000000E+00 0. -1.
</event>
<event>
 4    1  0.2229986E+005  0.3305008E+02  0.7546771E-02  0.1394815E+00
          2   -1    0    0  502    0  0.00000000000E+00  0.00000000000E+00  0.22273638976E+03  0.22273638976E+03  0.00000000000E+00 0. -1.
         21   -1    0    0  503  502 -0.00000000000E+00 -0.00000000000E+00 -0.14328497109E+02  0.14328497109E+02  0.00000000000E+00 0. -1.
          2    1    1    2  501    0 -0.30108489624E+02  0.13630366083E+02  0.20033530983E+03  0.20304320819E+03  0.00000000000E+00 0. -1.
         21    1    1    2  503  501  0.30108489624E+02 -0.13630366083E+02  0.80725828236E+01  0.34021678683E+02  0.00000000000E+00 0. -1.
</event>
<event>
 4    1  0.2229986E+005  0.2017805E+02  0.7546771E-02  0.1531331E+00
          2   -1    0    0  503    0  0.00000000000E+00  0.00000000000E+00  0.37754560098E+03  0.37754560098E+03  0.00000000000E+00 0. -1.
         21   -1    0    0  501  502 -0.00000000000E+00 -0.00000000000E+00 -0.57619065780E+01  0.57619065780E+01  0.00000000000E+00 0. -1.
          2    1    1    2  501    0  0.15383454060E+01 -0.20119326027E+02  0.35868189848E+03  0.35924901960E+03  0.00000000000E+00 0. -1.
         21    1    1    2  503  502 -0.15383454060E+01  0.20119326027E+02  0.13101795919E+02  0.24058487955E+02  0.00000000000E+00 0. -1.
</event>
<event>
 4    1  0.2229986E+005  0.2498034E+02  0.7546771E-02  0.1469023E+00
          2   -1    0    0  503    0  0.00000000000E+00  0.00000000000E+00  0.39399778189E+03  0.39399778189E+03  0.00000000000E+00 0.  1.
         21   -1    0    0  501  502 -0.00000000000E+00 -0.00000000000E+00 -0.16242230189E+01  0.16242230189E+01  0.00000000000E+00 0.  1.
          2    1    1    2  501    0 -0.11697488413E+01 -0.24952937312E+02  0.22738942750E+03  0.22875744606E+03  0.00000000000E+00 0.  1.
         21    1    1    2  503  502  0.11697488413E+01  0.24952937312E+02  0.16498413138E+03  0.16686455885E+03  0.00000000000E+00 0.  1.
</event>
<event>
 4    1  0.2229986E+005  0.2592602E+02  0.7546771E-02  0.1458705E+00
          2   -1    0    0  503    0  0.00000000000E+00  0.00000000000E+00  0.12684238757E+04  0.12684238757E+04  0.00000000000E+00 0. -1.
         21   -1    0    0  501  502 -0.00000000000E+00 -0.00000000000E+00 -0.36462675146E+01  0.36462675146E+01  0.00000000000E+00 0.  1.
          2    1    1    2  501    0 -0.56932928585E+01 -0.25293174895E+02  0.12203924372E+04  0.12206677923E+04  0.00000000000E+00 0. -1.
         21    1    1    2  503  502  0.56932928585E+01  0.25293174895E+02  0.44385170938E+02  0.51402350910E+02  0.00000000000E+00 0.  1.
</event>
<event>
 4    1  0.2229986E+005  0.2143812E+02  0.7546771E-02  0.1513101E+00
          2   -1    0    0  503    0  0.00000000000E+00  0.00000000000E+00  0.14567592540E+04  0.14567592540E+04  0.00000000000E+00 0. -1.
         21   -1    0    0  501  502 -0.00000000000E+00 -0.00000000000E+00 -0.41648651916E+02  0.41648651916E+02  0.00000000000E+00 0.  1.
          2    1    1    2  501    0  0.29028824468E+01 -0.21240678462E+02  0.14539162356E+04  0.14540742805E+04  0.00000000000E+00 0. -1.
         21    1    1    2  503  502 -0.29028824468E+01  0.21240678462E+02 -0.38805633513E+02  0.44333625392E+02  0.00000000000E+00 0.  1.
</event>
<event>
 4    1  0.2229986E+005  0.2149174E+02  0.7546771E-02  0.1512359E+00
          2   -1    0    0  503    0  0.00000000000E+00  0.00000000000E+00  0.15362011239E+04  0.15362011239E+04  0.00000000000E+00 0.  1.
         21   -1    0    0  501  502 -0.00000000000E+00 -0.00000000000E+00 -0.15450526945E+01  0.15450526945E+01  0.00000000000E+00 0.  1.
          2    1    1    2  501    0  0.20225013039E+02 -0.72693567629E+01  0.14573444364E+04  0.14575028991E+04  0.00000000000E+00 0.  1.
         21    1    1    2  503  502 -0.20225013039E+02  0.72693567629E+01  0.77311634826E+02  0.80243277473E+02  0.00000000000E+00 0.  1.
</event>
<event>
 4    1  0.2229986E+005  0.2522958E+02  0.7546771E-02  0.1466251E+00
          2   -1    0    0  503    0  0.00000000000E+00  0.00000000000E+00  0.35501856689E+02  0.35501856689E+02  0.00000000000E+00 0. -1.
         21   -1    0    0  501  502 -0.00000000000E+00 -0.00000000000E+00 -0.12811570169E+03  0.12811570169E+03  0.00000000000E+00 0. -1.
          2    1    1    2  501    0  0.22695983452E+02  0.11019268230E+02  0.29561710793E+02  0.38864208241E+02  0.00000000000E+00 0. -1.
         21    1    1    2  503  502 -0.22695983452E+02 -0.11019268230E+02 -0.12217555579E+03  0.12475335014E+03  0.00000000000E+00 0. -1.
</event>
<event>
 4    1  0.2229986E+005  0.2355106E+02  0.7546771E-02  0.1485692E+00
          2   -1    0    0  503    0  0.00000000000E+00  0.00000000000E+00  0.15836800456E+03  0.15836800456E+03  0.00000000000E+00 0.  1.
         21   -1    0    0  501  502 -0.00000000000E+00 -0.00000000000E+00 -0.14331785688E+02  0.14331785688E+02  0.00000000000E+00 0. -1.
          2    1    1    2  501    0  0.16622503606E+02  0.16683663297E+02  0.14707932263E+03  0.14895294355E+03  0.00000000000E+00 0.  1.
         21    1    1    2  503  502 -0.16622503606E+02 -0.16683663297E+02 -0.30431037662E+01  0.23746846689E+02  0.00000000000E+00 0. -1.
</event>
<event>
 4    1  0.2229986E+005  0.3855813E+02  0.7546771E-02  0.1357149E+00
          2   -1    0    0  503    0  0.00000000000E+00  0.00000000000E+00  0.11055790418E+04  0.11055790418E+04  0.00000000000E+00 0.  1.
         21   -1    0    0  501  502 -0.00000000000E+00 -0.00000000000E+00 -0.35447104988E+01  0.35447104988E+01  0.00000000000E+00 0. -1.
          2    1    1    2  501    0 -0.11654909893E+02  0.36754491246E+02  0.98790190565E+03  0.98865408750E+03  0.00000000000E+00 0.  1.
         21    1    1    2  503  502  0.11654909893E+02 -0.36754491246E+02  0.11413242570E+03  0.12046966484E+03  0.00000000000E+00 0. -1.
</event>
<event>
 4    1  0.2229986E+005  0.2659805E+02  0.7546771E-02  0.1451688E+00
          2   -1    0    0  503    0  0.00000000000E+00  0.00000000000E+00  0.15655989124E+04  0.15655989124E+04  0.00000000000E+00 0. -1.
         21   -1    0    0  501  502 -0.00000000000E+00 -0.00000000000E+00 -0.16523122005E+03  0.16523122005E+03  0.00000000000E+00 0. -1.
          2    1    1    2  501    0  0.25515343469E+02 -0.75115543055E+01  0.15644147299E+04  0.15646408225E+04  0.00000000000E+00 0. -1.
         21    1    1    2  503  502 -0.25515343469E+02  0.75115543055E+01 -0.16404703758E+03  0.16618930995E+03  0.00000000000E+00 0. -1.
</event>
<event>
 4    1  0.2229986E+005  0.3478843E+02  0.7546771E-02  0.1382057E+00
          2   -1    0    0  502    0  0.00000000000E+00  0.00000000000E+00  0.32123332118E+01  0.32123332118E+01  0.00000000000E+00 0. -1.
         21   -1    0    0  503  502 -0.00000000000E+00 -0.00000000000E+00 -0.11285352369E+04  0.11285352369E+04  0.00000000000E+00 0.  1.
          2    1    1    2  501    0 -0.22536003236E+02 -0.26502146457E+02 -0.10080190159E+03  0.10663610352E+03  0.00000000000E+00 0. -1.
         21    1    1    2  503  501  0.22536003236E+02  0.26502146457E+02 -0.10245210021E+04  0.10251114666E+04  0.00000000000E+00 0.  1.
</event>
<event>
 4    1  0.2229986E+005  0.3482598E+02  0.7546771E-02  0.1381791E+00
          2   -1    0    0  502    0  0.00000000000E+00  0.00000000000E+00  0.77925862143E+03  0.77925862143E+03  0.00000000000E+00 0. -1.
         21   -1    0    0  503  502 -0.00000000000E+00 -0.00000000000E+00 -0.37615408867E+02  0.37615408867E+02  0.00000000000E+00 0.  1.
          2    1    1    2  501    0 -0.12167624486E+02  0.32631234891E+02  0.77071940375E+03  0.77150583141E+03  0.00000000000E+00 0. -1.
         21    1    1    2  503  501  0.12167624486E+02 -0.32631234891E+02 -0.29076191191E+02  0.45368198887E+02  0.00000000000E+00 0.  1.
</event>
<event>
 4    1  0.2229986E+005  0.2647112E+02  0.7546771E-02  0.1452994E+00
          2   -1    0    0  503    0  0.00000000000E+00  0.00000000000E+00  0.93328255571E+03  0.93328255571E+03  0.00000000000E+00 0.  1.
         21   -1    0    0  501  502 -0.00000000000E+00 -0.00000000000E+00 -0.39118406461E+02  0.39118406461E+02  0.00000000000E+00 0.  1.
          2    1    1    2  501    0 -0.26447943824E+02 -0.11074976206E+01  0.92859404594E+03  0.92897127105E+03  0.00000000000E+00 0.  1.
         21    1    1    2  503  502  0.26447943824E+02  0.11074976206E+01 -0.34429896697E+02  0.43429691112E+02  0.00000000000E+00 0.  1.
</event>
<event>
 4    1  0.2229986E+005  0.2732040E+02  0.7546771E-02  0.1444416E+00
          2   -1    0    0  503    0  0.00000000000E+00  0.00000000000E+00  0.15846471907E+03  0.15846471907E+03  0.00000000000E+00 0.  1.
         21   -1    0    0  501  502 -0.00000000000E+00 -0.00000000000E+00 -0.82994757526E+01  0.82994757526E+01  0.00000000000E+00 0.  1.
          2    1    1    2  501    0 -0.26450267320E+02 -0.68401604941E+01  0.12991655529E+03  0.13275811002E+03  0.00000000000E+00 0.  1.
         21    1    1    2  503  502  0.26450267320E+02  0.68401604941E+01  0.20248688025E+02  0.34006084803E+02  0.00000000000E+00 0.  1.
</event>
<event>
 4    1  0.2229986E+005  0.3646425E+02  0.7546771E-02  0.1370551E+00
          2   -1    0    0  503    0  0.00000000000E+00  0.00000000000E+00  0.18822460342E+04  0.18822460342E+04  0.00000000000E+00 0.  1.
         21   -1    0    0  501  502 -0.00000000000E+00 -0.00000000000E+00 -0.82788295161E+01  0.82788295161E+01  0.00000000000E+00 0. -1.
          2    1    1    2  501    0  0.19839932912E+02  0.30594425189E+02  0.18410184982E+04  0.18413795786E+04  0.00000000000E+00 0.  1.
         21    1    1    2  503  502 -0.19839932912E+02 -0.30594425189E+02  0.32948706513E+02  0.49145285139E+02  0.00000000000E+00 0. -1.
</event>
<event>
 4    1  0.2229986E+005  0.2185931E+02  0.7546771E-02  0.1507341E+00
          2   -1    0    0  502    0  0.00000000000E+00  0.00000000000E+00  0.40856007738E+03  0.40856007738E+03  0.00000000000E+00 0. -1.
         21   -1    0    0  503  502 -0.00000000000E+00 -0.00000000000E+00 -0.10135727127E+02  0.10135727127E+02  0.00000000000E+00 0.  1.
          2    1    1    2  501    0 -0.12761442542E+02  0.17747532238E+02  0.39611182383E+03  0.39671451485E+03  0.00000000000E+00 0. -1.
         21    1    1    2  503  501  0.12761442542E+02 -0.17747532238E+02  0.23125264190E+01  0.21981289651E+02  0.00000000000E+00 0.  1.
</event>
<event>
 4    1  0.2229986E+005  0.3387095E+02  0.7546771E-02  0.1388679E+00
          2   -1    0    0  503    0  0.00000000000E+00  0.00000000000E+00  0.13504964552E+04  0.13504964552E+04  0.00000000000E+00 0. -1.
         21   -1    0    0  501  502 -0.00000000000E+00 -0.00000000000E+00 -0.86146839616E+01  0.86146839616E+01  0.00000000000E+00 0. -1.
          2    1    1    2  501    0  0.30225506336E+02  0.15285935034E+02  0.13161214763E+04  0.13165572458E+04  0.00000000000E+00 0. -1.
         21    1    1    2  503  502 -0.30225506336E+02 -0.15285935034E+02  0.25760294840E+02  0.42553893281E+02  0.00000000000E+00 0. -1.
</event>
<event>
 4    1  0.2229986E+005  0.2538891E+02  0.7546771E-02  0.1464499E+00
          2   -1    0    0  502    0  0.00000000000E+00  0.00000000000E+00  0.29808974062E+03  0.29808974062E+03  0.00000000000E+00 0. -1.
         21   -1    0    0  503  502 -0.00000000000E+00 -0.00000000000E+00 -0.59503520246E+02  0.59503520246E+02  0.00000000000E+00 0. -1.
          2    1    1    2  501    0  0.50934777492E+01  0.24872736284E+02  0.29481084059E+03  0.29590205855E+03  0.00000000000E+00 0. -1.
         21    1    1    2  503  501 -0.50934777492E+01 -0.24872736284E+02 -0.56224620210E+02  0.61691202319E+02  0.00000000000E+00 0. -1.
</event>
<event>
 4    1  0.2229986E+005  0.2089035E+02  0.7546771E-02  0.1520836E+00
          2   -1    0    0  503    0  0.00000000000E+00  0.00000000000E+00  0.90276189082E+03  0.90276189082E+03  0.00000000000E+00 0.  1.
         21   -1    0    0  501  502 -0.00000000000E+00 -0.00000000000E+00 -0.19648542661E+01  0.19648542661E+01  0.00000000000E+00 0. -1.
          2    1    1    2  501    0 -0.25900394624E+01  0.20729166254E+02  0.84319221683E+03  0.84345095954E+03  0.00000000000E+00 0.  1.
         21    1    1    2  503  502  0.25900394624E+01 -0.20729166254E+02  0.57604819724E+02  0.61275785539E+02  0.00000000000E+00 0. -1.
</event>
<event>
 4    1  0.2389704E+005  0.2519139E+02  0.7546771E-02  0.1466674E+00
          2   -1    0    0  503    0  0.00000000000E+00  0.00000000000E+00  0.75867707889E+03  0.75867707889E+03  0.00000000000E+00 0.  1.
         21   -1    0    0  501  502 -0.00000000000E+00 -0.00000000000E+00 -0.26495684977E+03  0.26495684977E+03  0.00000000000E+00 0. -1.
          2    1    1    2  501    0  0.23957778742E+02 -0.77865865645E+01  0.75786854175E+03  0.75828710437E+03  0.00000000000E+00 0.  1.
         21    1    1    2  503  502 -0.23957778742E+02  0.77865865645E+01 -0.26414831263E+03  0.26534682428E+03  0.00000000000E+00 0. -1.
</event>
<event>
 4    1  0.2229986E+005  0.2789612E+02  0.7546771E-02  0.1438808E+00
          2   -1    0    0  502    0  0.00000000000E+00  0.00000000000E+00  0.10497577851E+04  0.10497577851E+04  0.00000000000E+00 0. -1.
         21   -1    0    0  503  502 -0.00000000000E+00 -0.00000000000E+00 -0.21664492800E+01  0.21664492800E+01  0.00000000000E+00 0.  1.
          2    1    1    2  501    0 -0.27632760660E+02 -0.38241539898E+01  0.95038421852E+03  0.95079354038E+03  0.00000000000E+00 0. -1.
         21    1    1    2  503  501  0.27632760660E+02  0.38241539898E+01  0.97207117321E+02  0.10113069402E+03  0.00000000000E+00 0.  1.
</event>
<event>
 4    1  0.2229986E+005  0.2501379E+02  0.7546771E-02  0.1468649E+00
          2   -1    0    0  502    0  0.00000000000E+00  0.00000000000E+00  0.11848512547E+04  0.11848512547E+04  0.00000000000E+00 0. -1.
         21   -1    0    0  503  502 -0.00000000000E+00 -0.00000000000E+00 -0.17657993063E+01  0.17657993063E+01  0.00000000000E+00 0. -1.
          2    1    1    2  501    0 -0.14893877820E+02  0.20096319397E+02  0.10882745453E+04  0.10885619760E+04  0.00000000000E+00 0. -1.
         21    1    1    2  503  501  0.14893877820E+02 -0.20096319397E+02  0.94810910127E+02  0.98055078037E+02  0.00000000000E+00 0. -1.
</event>
<event>
 4    1  0.2229986E+005  0.2615028E+02  0.7546771E-02  0.1456336E+00
          2   -1    0    0  503    0  0.00000000000E+00  0.00000000000E+00  0.69277796010E+03  0.69277796010E+03  0.00000000000E+00 0. -1.
         21   -1    0    0  501  502 -0.00000000000E+00 -0.00000000000E+00 -0.11939036483E+01  0.11939036483E+01  0.00000000000E+00 0. -1.
          2    1    1    2  501    0 -0.71124453347E+01  0.25164468802E+02  0.49020693288E+03  0.49090393603E+03  0.00000000000E+00 0. -1.
         21    1    1    2  503  502  0.71124453347E+01 -0.25164468802E+02  0.20137712358E+03  0.20306792772E+03  0.00000000000E+00 0. -1.
</event>
<event>
 4    1  0.2229986E+005  0.2174406E+02  0.7546771E-02  0.1508901E+00
          2   -1    0    0  503    0  0.00000000000E+00  0.00000000000E+00  0.22256920219E+02  0.22256920219E+02  0.00000000000E+00 0. -1.
         21   -1    0    0  501  502 -0.00000000000E+00 -0.00000000000E+00 -0.20196941580E+03  0.20196941580E+03  0.00000000000E+00 0. -1.
          2    1    1    2  501    0 -0.19224522679E+02  0.10159811996E+02  0.16197158480E+02  0.27113686486E+02  0.00000000000E+00 0. -1.
         21    1    1    2  503  502  0.19224522679E+02 -0.10159811996E+02 -0.19590965406E+03  0.19711264953E+03  0.00000000000E+00 0. -1.
</event>
<event>
 4    1  0.2229986E+005  0.5132288E+02  0.7546771E-02  0.1292537E+00
          2   -1    0    0  502    0  0.00000000000E+00  0.00000000000E+00  0.98004753871E+03  0.98004753871E+03  0.00000000000E+00 0. -1.
         21   -1    0    0  503  502 -0.00000000000E+00 -0.00000000000E+00 -0.63589246212E+02  0.63589246212E+02  0.00000000000E+00 0. -1.
          2    1    1    2  501    0  0.51246050486E+02 -0.28071345565E+01  0.96890089763E+03  0.97025923707E+03  0.00000000000E+00 0. -1.
         21    1    1    2  503  501 -0.51246050486E+02  0.28071345565E+01 -0.52442605135E+02  0.73377547848E+02  0.00000000000E+00 0. -1.
</event>
<event>
 4    1  0.2229986E+005  0.4216742E+02  0.7546771E-02  0.1336232E+00
          2   -1    0    0  503    0  0.00000000000E+00  0.00000000000E+00  0.99779823304E+03  0.99779823304E+03  0.00000000000E+00 0. -1.
         21   -1    0    0  501  502 -0.00000000000E+00 -0.00000000000E+00 -0.17848500544E+01  0.17848500544E+01  0.00000000000E+00 0. -1.
          2    1    1    2  501    0 -0.12586852777E+02  0.40245031356E+02  0.51792576970E+03  0.51963948496E+03  0.00000000000E+00 0. -1.
         21    1    1    2  503  502  0.12586852777E+02 -0.40245031356E+02  0.47808761328E+03  0.47994359813E+03  0.00000000000E+00 0. -1.
</event>
<event>
 4    1  0.2229986E+005  0.2848599E+02  0.7546771E-02  0.1433226E+00
          2   -1    0    0  503    0  0.00000000000E+00  0.00000000000E+00  0.16021317753E+03  0.16021317753E+03  0.00000000000E+00 0.  1.
         21   -1    0    0  501  502 -0.00000000000E+00 -0.00000000000E+00 -0.38943392746E+02  0.38943392746E+02  0.00000000000E+00 0.  1.
          2    1    1    2  501    0  0.27166591084E+02  0.85689989500E+01  0.15351234241E+03  0.15613292634E+03  0.00000000000E+00 0.  1.
         21    1    1    2  503  502 -0.27166591084E+02 -0.85689989500E+01 -0.32242557636E+02  0.43023643930E+02  0.00000000000E+00 0.  1.
</event>
<event>
 4    1  0.2229986E+005  0.6003456E+02  0.7546771E-02  0.1259715E+00
          2   -1    0    0  502    0  0.00000000000E+00  0.00000000000E+00  0.35437859593E+04  0.35437859593E+04  0.00000000000E+00 0.  1.
         21   -1    0    0  503  502 -0.00000000000E+00 -0.00000000000E+00 -0.52220320075E+01  0.52220320075E+01  0.00000000000E+00 0.  1.
          2    1    1    2  501    0 -0.43479312069E+02 -0.41396832687E+02  0.33616378957E+04  0.33621739232E+04  0.00000000000E+00 0.  1.
         21    1    1    2  503  501  0.43479312069E+02  0.41396832687E+02  0.17692603161E+03  0.18683406808E+03  0.00000000000E+00 0.  1.
</event>
<event>
 4    1  0.2229986E+005  0.2031648E+02  0.7546771E-02  0.1529251E+00
          2   -1    0    0  503    0  0.00000000000E+00  0.00000000000E+00  0.57342217546E+03  0.57342217546E+03  0.00000000000E+00 0. -1.
         21   -1    0    0  501  502 -0.00000000000E+00 -0.00000000000E+00 -0.12757946219E+01  0.12757946219E+01  0.00000000000E+00 0.  1.
          2    1    1    2  501    0  0.10041542664E+02 -0.17661448619E+02  0.47576462644E+03  0.47619821411E+03  0.00000000000E+00 0. -1.
         21    1    1    2  503  502 -0.10041542664E+02  0.17661448619E+02  0.96381754401E+02  0.98499755979E+02  0.00000000000E+00 0.  1.
</event>
<event>
 4    1  0.2229986E+005  0.2556333E+02  0.7546771E-02  0.1462599E+00
          2   -1    0    0  503    0  0.00000000000E+00  0.00000000000E+00  0.75655458364E+02  0.75655458364E+02  0.00000000000E+00 0. -1.
         21   -1    0    0  501  502 -0.00000000000E+00 -0.00000000000E+00 -0.97846882121E+01  0.97846882121E+01  0.00000000000E+00 0. -1.
          2    1    1    2  501    0 -0.65051783811E+01 -0.24721785419E+02  0.47562235292E+02  0.53996761440E+02  0.00000000000E+00 0. -1.
         21    1    1    2  503  502  0.65051783811E+01  0.24721785419E+02  0.18308534860E+02  0.31443385136E+02  0.00000000000E+00 0. -1.
</event>
<event>
 4    1  0.2229986E+005  0.2187371E+02  0.7546771E-02  0.1507147E+00
          2   -1    0    0  503    0  0.00000000000E+00  0.00000000000E+00  0.95237612039E+02  0.95237612039E+02  0.00000000000E+00 0. -1.
         21   -1    0    0  501  502 -0.00000000000E+00 -0.00000000000E+00 -0.87160636500E+01  0.87160636500E+01  0.00000000000E+00 0. -1.
          2    1    1    2  501    0  0.35346617800E+01  0.21586233549E+02  0.77090086647E+02  0.80133268821E+02  0.00000000000E+00 0. -1.
         21    1    1    2  503  502 -0.35346617800E+01 -0.21586233549E+02  0.94314617419E+01  0.23820406868E+02  0.00000000000E+00 0. -1.
</event>
<event>
 4    1  0.2229986E+005  0.2378698E+02  0.7546771E-02  0.1482846E+00
          2   -1    0    0  502    0  0.00000000000E+00  0.00000000000E+00  0.36648387600E+03  0.36648387600E+03  0.00000000000E+00 0. -1.
         21   -1    0    0  503  502 -0.00000000000E+00 -0.00000000000E+00 -0.24693567629E+01  0.24693567629E+01  0.00000000000E+00 0. -1.
          2    1    1    2  501    0 -0.11727866418E+02  0.20694862667E+02  0.29494102260E+03  0.29589867693E+03  0.00000000000E+00 0. -1.
         21    1    1    2  503  501  0.11727866418E+02 -0.20694862667E+02  0.69073496632E+02  0.73054555837E+02  0.00000000000E+00 0. -1.
</event>
<event>
 4    1  0.2229986E+005  0.3343103E+02  0.7546771E-02  0.1391942E+00
          2   -1    0    0  503    0  0.00000000000E+00  0.00000000000E+00  0.17318633357E+03  0.17318633357E+03  0.00000000000E+00 0.  1.
         21   -1    0    0  501  502 -0.00000000000E+00 -0.00000000000E+00 -0.24515399041E+02  0.24515399041E+02  0.00000000000E+00 0. -1.
          2    1    1    2  501    0  0.20072501923E+02  0.26734408767E+02  0.15918400685E+03  0.16265663830E+03  0.00000000000E+00 0.  1.
         21    1    1    2  503  502 -0.20072501923E+02 -0.26734408767E+02 -0.10513072324E+02  0.35045094311E+02  0.00000000000E+00 0. -1.
</event>
<event>
 4    1  0.2229986E+005  0.2579245E+02  0.7546771E-02  0.1460130E+00
          2   -1    0    0  502    0  0.00000000000E+00  0.00000000000E+00  0.63249901762E+02  0.63249901762E+02  0.00000000000E+00 0.  1.
         21   -1    0    0  503  502 -0.00000000000E+00 -0.00000000000E+00 -0.80119886011E+02  0.80119886011E+02  0.00000000000E+00 0.  1.
          2    1    1    2  501    0 -0.18436778812E+02 -0.18037059048E+02  0.58379179579E+02  0.63823028136E+02  0.00000000000E+00 0.  1.
         21    1    1    2  503  501  0.18436778812E+02  0.18037059048E+02 -0.75249163828E+02  0.79546759637E+02  0.00000000000E+00 0.  1.
</event>
<event>
 4    1  0.2229986E+005  0.2014083E+02  0.7546771E-02  0.1531894E+00
          2   -1    0    0  502    0  0.00000000000E+00  0.00000000000E+00  0.22862071716E+02  0.22862071716E+02  0.00000000000E+00 0. -1.
         21   -1    0    0  503  502 -0.00000000000E+00 -0.00000000000E+00 -0.17750865441E+02  0.17750865441E+02  0.00000000000E+00 0. -1.
          2    1    1    2  501    0 -0.20060035439E+02  0.18022482030E+01  0.29693048728E+01  0.20358533636E+02  0.00000000000E+00 0. -1.
         21    1    1    2  503  501  0.20060035439E+02 -0.18022482030E+01  0.21419014018E+01  0.20254403521E+02  0.00000000000E+00 0. -1.
</event>
<event>
 4    1  0.2229986E+005  0.2229710E+02  0.7546771E-02  0.1501518E+00
          2   -1    0    0  503    0  0.00000000000E+00  0.00000000000E+00  0.15445343418E+03  0.15445343418E+03  0.00000000000E+00 0.  1.
         21   -1    0    0  501  502 -0.00000000000E+00 -0.00000000000E+00 -0.37652701741E+01  0.37652701741E+01  0.00000000000E+00 0.  1.
          2    1    1    2  501    0  0.13206050078E+02  0.17965549821E+02  0.10548090633E+03  0.10781179128E+03  0.00000000000E+00 0.  1.
         21    1    1    2  503  502 -0.13206050078E+02 -0.17965549821E+02  0.45207257681E+02  0.50406913078E+02  0.00000000000E+00 0.  1.
</event>
<event>
 4    1  0.2229986E+005  0.2218156E+02  0.7546771E-02  0.1503039E+00
          2   -1    0    0  502    0  0.00000000000E+00  0.00000000000E+00  0.11360838301E+04  0.11360838301E+04  0.00000000000E+00 0. -1.
         21   -1    0    0  503  502 -0.00000000000E+00 -0.00000000000E+00 -0.51047990989E+01  0.51047990989E+01  0.00000000000E+00 0. -1.
          2    1    1    2  501    0  0.13649579245E+02 -0.17484579032E+02  0.11113431600E+04  0.11115645014E+04  0.00000000000E+00 0. -1.
         21    1    1    2  503  501 -0.13649579245E+02  0.17484579032E+02  0.19635871013E+02  0.29624127801E+02  0.00000000000E+00 0. -1.
</event>
<event>
 4    1  0.2229986E+005  0.3476523E+02  0.7546771E-02  0.1382221E+00
          2   -1    0    0  503    0  0.00000000000E+00  0.00000000000E+00  0.22241328454E+04  0.22241328454E+04  0.00000000000E+00 0. -1.
         21   -1    0    0  501  502 -0.00000000000E+00 -0.00000000000E+00 -0.10630046912E+01  0.10630046912E+01  0.00000000000E+00 0.  1.
          2    1    1    2  501    0 -0.11857334716E+02 -0.32680653318E+02  0.18893958925E+04  0.18897157088E+04  0.00000000000E+00 0. -1.
         21    1    1    2  503  502  0.11857334716E+02  0.32680653318E+02  0.33367394822E+03  0.33548014130E+03  0.00000000000E+00 0.  1.
</event>
<event>
 4    1  0.2229986E+005  0.3177333E+02  0.7546771E-02  0.1404787E+00
          2   -1    0    0  502    0  0.00000000000E+00  0.00000000000E+00  0.20181594902E+04  0.20181594902E+04  0.00000000000E+00 0. -1.
         21   -1    0    0  503  502 -0.00000000000E+00 -0.00000000000E+00 -0.17812443732E+01  0.17812443732E+01  0.00000000000E+00 0. -1.
          2    1    1    2  501    0  0.27819280646E+02 -0.15350318399E+02  0.18646821252E+04  0.18649528071E+04  0.00000000000E+00 0. -1.
         21    1    1    2  503  501 -0.27819280646E+02  0.15350318399E+02  0.15169612059E+03  0.15498792744E+03  0.00000000000E+00 0. -1.
</event>
<event>
 4    1  0.2229986E+005  0.2373257E+02  0.7546771E-02  0.1483498E+00
          2   -1    0    0  503    0  0.00000000000E+00  0.00000000000E+00  0.36221032439E+03  0.36221032439E+03  0.00000000000E+00 0.  1.
         21   -1    0    0  501  502 -0.00000000000E+00 -0.00000000000E+00 -0.40272023207E+01  0.40272023207E+01  0.00000000000E+00 0.  1.
          2    1    1    2  501    0 -0.15089944797E+01 -0.23684551710E+02  0.32256569519E+03  0.32343757167E+03  0.00000000000E+00 0.  1.
         21    1    1    2  503  502  0.15089944797E+01  0.23684551710E+02  0.35617426880E+02  0.42799955042E+02  0.00000000000E+00 0.  1.
</event>
<event>
 4    1  0.2229986E+005  0.2394945E+02  0.7546771E-02  0.1480908E+00
          2   -1    0    0  502    0  0.00000000000E+00  0.00000000000E+00  0.14520003969E+04  0.14520003969E+04  0.00000000000E+00 0. -1.
         21   -1    0    0  503  502 -0.00000000000E+00 -0.00000000000E+00 -0.52415657063E+00  0.52415657063E+00  0.00000000000E+00 0. -1.
          2    1    1    2  501    0  0.15645392975E+02  0.18132779492E+02  0.10862168962E+04  0.10864808887E+04  0.00000000000E+00 0. -1.
         21    1    1    2  503  501 -0.15645392975E+02 -0.18132779492E+02  0.36525934416E+03  0.36604366475E+03  0.00000000000E+00 0. -1.
</event>
<event>
 4    1  0.2229986E+005  0.2316199E+02  0.7546771E-02  0.1490474E+00
          2   -1    0    0  503    0  0.00000000000E+00  0.00000000000E+00  0.94215807090E+03  0.94215807090E+03  0.00000000000E+00 0. -1.
         21   -1    0    0  501  502 -0.00000000000E+00 -0.00000000000E+00 -0.61297308846E+02  0.61297308846E+02  0.00000000000E+00 0.  1.
          2    1    1    2  501    0 -0.18560818154E+02  0.13855461956E+02  0.93982226496E+03  0.94010763613E+03  0.00000000000E+00 0. -1.
         21    1    1    2  503  502  0.18560818154E+02 -0.13855461956E+02 -0.58961502905E+02  0.63347743617E+02  0.00000000000E+00 0.  1.
</event>
<event>
 4    1  0.2229986E+005  0.4807391E+02  0.7546771E-02  0.1306746E+00
          2   -1    0    0  503    0  0.00000000000E+00  0.00000000000E+00  0.45153579696E+04  0.45153579696E+04  0.00000000000E+00 0. -1.
         21   -1    0    0  501  502 -0.00000000000E+00 -0.00000000000E+00 -0.76252211367E+00  0.76252211367E+00  0.00000000000E+00 0. -1.
          2    1    1    2  501    0 -0.47861760999E+02  0.45113820988E+01  0.35520261041E+04  0.35523514107E+04  0.00000000000E+00 0. -1.
         21    1    1    2  503  502  0.47861760999E+02 -0.45113820988E+01  0.96256934345E+03  0.96376908110E+03  0.00000000000E+00 0. -1.
</event>
<event>
 4    1  0.2229986E+005  0.5533922E+02  0.7546771E-02  0.1276547E+00
          2   -1    0    0  502    0  0.00000000000E+00  0.00000000000E+00  0.24052820787E+03  0.24052820787E+03  0.00000000000E+00 0. -1.
         21   -1    0    0  503  502 -0.00000000000E+00 -0.00000000000E+00 -0.28349405939E+02  0.28349405939E+02  0.00000000000E+00 0.  1.
          2    1    1    2  501    0 -0.13788418976E+02  0.53593928194E+02  0.20587220448E+03  0.21318019189E+03  0.00000000000E+00 0. -1.
         21    1    1    2  503  501  0.13788418976E+02 -0.53593928194E+02  0.63065974528E+01  0.55697421921E+02  0.00000000000E+00 0.  1.
</event>
<event>
 4    1  0.2229986E+005  0.2070372E+02  0.7546771E-02  0.1523537E+00
          2   -1    0    0  502    0  0.00000000000E+00  0.00000000000E+00  0.89709137676E+02  0.89709137676E+02  0.00000000000E+00 0. -1.
         21   -1    0    0  503  502 -0.00000000000E+00 -0.00000000000E+00 -0.91250146730E+01  0.91250146730E+01  0.00000000000E+00 0.  1.
          2    1    1    2  501    0  0.69312493731E+01 -0.19509018801E+02  0.74399424578E+02  0.77226410055E+02  0.00000000000E+00 0. -1.
         21    1    1    2  503  501 -0.69312493731E+01  0.19509018801E+02  0.61846984250E+01  0.21607742294E+02  0.00000000000E+00 0.  1.
</event>
<event>
 4    1  0.2229986E+005  0.2674357E+02  0.7546771E-02  0.1450201E+00
          2   -1    0    0  502    0  0.00000000000E+00  0.00000000000E+00  0.74343734281E+03  0.74343734281E+03  0.00000000000E+00 0. -1.
         21   -1    0    0  503  502 -0.00000000000E+00 -0.00000000000E+00 -0.42808697030E+01  0.42808697030E+01  0.00000000000E+00 0. -1.
          2    1    1    2  501    0 -0.13556904520E+02 -0.23052736286E+02  0.69875887267E+03  0.69927046301E+03  0.00000000000E+00 0. -1.
         21    1    1    2  503  501  0.13556904520E+02  0.23052736286E+02  0.40397600444E+02  0.48447749505E+02  0.00000000000E+00 0. -1.
</event>
<event>
 4    1  0.2229986E+005  0.4238414E+02  0.7546771E-02  0.1335054E+00
          2   -1    0    0  503    0  0.00000000000E+00  0.00000000000E+00  0.80647925330E+03  0.80647925330E+03  0.00000000000E+00 0. -1.
         21   -1    0    0  501  502 -0.00000000000E+00 -0.00000000000E+00 -0.25476017365E+01  0.25476017365E+01  0.00000000000E+00 0. -1.
          2    1    1    2  501    0  0.41809130889E+02 -0.69578686311E+01  0.54535806133E+03  0.54700258722E+03  0.00000000000E+00 0. -1.
         21    1    1    2  503  502 -0.41809130889E+02  0.69578686311E+01  0.25857359023E+03  0.26202426782E+03  0.00000000000E+00 0. -1.
</event>
<event>
 4    1  0.2229986E+005  0.5415107E+02  0.7546771E-02  0.1281113E+00
          2   -1    0    0  502    0  0.00000000000E+00  0.00000000000E+00  0.72218497718E+03  0.72218497718E+03  0.00000000000E+00 0. -1.
         21   -1    0    0  503  502 -0.00000000000E+00 -0.00000000000E+00 -0.88761248484E+02  0.88761248484E+02  0.00000000000E+00 0. -1.
          2    1    1    2  501    0  0.52440579593E+02  0.13502721658E+02  0.71280226617E+03  0.71485621529E+03  0.00000000000E+00 0. -1.
         21    1    1    2  503  501 -0.52440579593E+02 -0.13502721658E+02 -0.79378537480E+02  0.96090010369E+02  0.00000000000E+00 0. -1.
</event>
<event>
 4    1  0.2229986E+005  0.2074058E+02  0.7546771E-02  0.1523001E+00
          2   -1    0    0  502    0  0.00000000000E+00  0.00000000000E+00  0.11121270625E+03  0.11121270625E+03  0.00000000000E+00 0. -1.
         21   -1    0    0  503  502 -0.00000000000E+00 -0.00000000000E+00 -0.62141717166E+01  0.62141717166E+01  0.00000000000E+00 0. -1.
          2    1    1    2  501    0 -0.13239834188E+02  0.15964911860E+02  0.88575822758E+02  0.90971687889E+02  0.00000000000E+00 0. -1.
         21    1    1    2  503  501  0.13239834188E+02 -0.15964911860E+02  0.16422711775E+02  0.26455190078E+02  0.00000000000E+00 0. -1.
</event>
<event>
 4    1  0.2229986E+005  0.2678149E+02  0.7546771E-02  0.1449815E+00
          2   -1    0    0  503    0  0.00000000000E+00  0.00000000000E+00  0.13071083567E+04  0.13071083567E+04  0.00000000000E+00 0.  1.
         21   -1    0    0  501  502 -0.00000000000E+00 -0.00000000000E+00 -0.10285282791E+01  0.10285282791E+01  0.00000000000E+00 0. -1.
          2    1    1    2  501    0 -0.45514229765E+01  0.26391910418E+02  0.10997696171E+04  0.11000956591E+04  0.00000000000E+00 0.  1.
         21    1    1    2  503  502  0.45514229765E+01 -0.26391910418E+02  0.20631021134E+03  0.20804122594E+03  0.00000000000E+00 0. -1.
</event>
<event>
 4    1  0.2229986E+005  0.3834261E+02  0.7546771E-02  0.1358482E+00
          2   -1    0    0  503    0  0.00000000000E+00  0.00000000000E+00  0.16265873006E+04  0.16265873006E+04  0.00000000000E+00 0. -1.
         21   -1    0    0  501  502 -0.00000000000E+00 -0.00000000000E+00 -0.22595986539E+02  0.22595986539E+02  0.00000000000E+00 0. -1.
          2    1    1    2  501    0  0.36537160466E+02  0.11627191176E+02  0.16099273736E+04  0.16103838996E+04  0.00000000000E+00 0. -1.
         21    1    1    2  503  502 -0.36537160466E+02 -0.11627191176E+02 -0.59360595912E+01  0.38799387535E+02  0.00000000000E+00 0. -1.
</event>
<event>
 4    1  0.2229986E+005  0.2171351E+02  0.7546771E-02  0.1509317E+00
          2   -1    0    0  503    0  0.00000000000E+00  0.00000000000E+00  0.10577766786E+03  0.10577766786E+03  0.00000000000E+00 0. -1.
         21   -1    0    0  501  502 -0.00000000000E+00 -0.00000000000E+00 -0.80111776060E+01  0.80111776060E+01  0.00000000000E+00 0. -1.
          2    1    1    2  501    0 -0.19103471747E+02 -0.10321527743E+02  0.86777759696E+02  0.89453094667E+02  0.00000000000E+00 0. -1.
         21    1    1    2  503  502  0.19103471747E+02  0.10321527743E+02  0.10988730562E+02  0.24335750802E+02  0.00000000000E+00 0. -1.
</event>
<event>
 4    1  0.2229986E+005  0.4070145E+02  0.7546771E-02  0.1344424E+00
          2   -1    0    0  503    0  0.00000000000E+00  0.00000000000E+00  0.52777159906E+03  0.52777159906E+03  0.00000000000E+00 0.  1.
         21   -1    0    0  501  502 -0.00000000000E+00 -0.00000000000E+00 -0.10828172920E+02  0.10828172920E+02  0.00000000000E+00 0.  1.
          2    1    1    2  501    0 -0.29741714843E+02 -0.27785580944E+02  0.48540697018E+03  0.48711039283E+03  0.00000000000E+00 0.  1.
         21    1    1    2  503  502  0.29741714843E+02  0.27785580944E+02  0.31536455965E+02  0.51489379148E+02  0.00000000000E+00 0.  1.
</event>
<event>
 4    1  0.2229986E+005  0.2366173E+02  0.7546771E-02  0.1484352E+00
          2   -1    0    0  502    0  0.00000000000E+00  0.00000000000E+00  0.64997653449E+02  0.64997653449E+02  0.00000000000E+00 0. -1.
         21   -1    0    0  503  502 -0.00000000000E+00 -0.00000000000E+00 -0.43057905404E+02  0.43057905404E+02  0.00000000000E+00 0.  1.
          2    1    1    2  501    0 -0.22730915011E+02  0.65713851296E+01  0.59292223784E+02  0.63839215228E+02  0.00000000000E+00 0. -1.
         21    1    1    2  503  501  0.22730915011E+02 -0.65713851296E+01 -0.37352475739E+02  0.44216343625E+02  0.00000000000E+00 0.  1.
</event>
<event>
 4    1  0.2229986E+005  0.2855385E+02  0.7546771E-02  0.1432594E+00
          2   -1    0    0  502    0  0.00000000000E+00  0.00000000000E+00  0.27799124917E+03  0.27799124917E+03  0.00000000000E+00 0. -1.
         21   -1    0    0  503  502 -0.00000000000E+00 -0.00000000000E+00 -0.68987393882E+01  0.68987393882E+01  0.00000000000E+00 0.  1.
          2    1    1    2  501    0  0.24369280957E+02 -0.14881546319E+02  0.24354769356E+03  0.24521582598E+03  0.00000000000E+00 0. -1.
         21    1    1    2  503  501 -0.24369280957E+02  0.14881546319E+02  0.27544816222E+02  0.39674162574E+02  0.00000000000E+00 0.  1.
</event>
<event>
 4    1  0.2229986E+005  0.2054631E+02  0.7546771E-02  0.1525842E+00
          2   -1    0    0  503    0  0.00000000000E+00  0.00000000000E+00  0.51648908091E+03  0.51648908091E+03  0.00000000000E+00 0. -1.
         21   -1    0    0  501  502 -0.00000000000E+00 -0.00000000000E+00 -0.31578284128E+01  0.31578284128E+01  0.00000000000E+00 0.  1.
          2    1    1    2  501    0 -0.87755228684E+01 -0.18577967036E+02  0.48035054920E+03  0.48078976776E+03  0.00000000000E+00 0. -1.
         21    1    1    2  503  502  0.87755228684E+01  0.18577967036E+02  0.32980703291E+02  0.38857141562E+02  0.00000000000E+00 0.  1.
</event>
<event>
 4    1  0.2229986E+005  0.2842904E+02  0.7546771E-02  0.1433758E+00
          2   -1    0    0  502    0  0.00000000000E+00  0.00000000000E+00  0.12239550032E+03  0.12239550032E+03  0.00000000000E+00 0.  1.
         21   -1    0    0  503  502 -0.00000000000E+00 -0.00000000000E+00 -0.37340613909E+02  0.37340613909E+02  0.00000000000E+00 0.  1.
          2    1    1    2  501    0  0.22329148281E+01  0.28341218691E+02  0.11499031776E+03  0.11845245360E+03  0.00000000000E+00 0.  1.
         21    1    1    2  503  501 -0.22329148281E+01 -0.28341218691E+02 -0.29935431344E+02  0.41283660633E+02  0.00000000000E+00 0.  1.
</event>
<event>
 4    1  0.2229986E+005  0.2181620E+02  0.7546771E-02  0.1507923E+00
          2   -1    0    0  503    0  0.00000000000E+00  0.00000000000E+00  0.43517489624E+02  0.43517489624E+02  0.00000000000E+00 0.  1.
         21   -1    0    0  501  502 -0.00000000000E+00 -0.00000000000E+00 -0.27301699681E+02  0.27301699681E+02  0.00000000000E+00 0.  1.
          2    1    1    2  501    0  0.14899456629E+02  0.15935897490E+02  0.35522462371E+02  0.41686832089E+02  0.00000000000E+00 0.  1.
         21    1    1    2  503  502 -0.14899456629E+02 -0.15935897490E+02 -0.19306672428E+02  0.29132357215E+02  0.00000000000E+00 0.  1.
</event>
<event>
 4    1  0.2229986E+005  0.3070731E+02  0.7546771E-02  0.1413548E+00
          2   -1    0    0  502    0  0.00000000000E+00  0.00000000000E+00  0.21776957033E+04  0.21776957033E+04  0.00000000000E+00 0. -1.
         21   -1    0    0  503  502 -0.00000000000E+00 -0.00000000000E+00 -0.24540725553E+01  0.24540725553E+01  0.00000000000E+00 0.  1.
          2    1    1    2  501    0  0.25002016733E+02  0.17828006897E+02  0.20768655880E+04  0.20770925856E+04  0.00000000000E+00 0. -1.
         21    1    1    2  503  501 -0.25002016733E+02 -0.17828006897E+02  0.98376042762E+02  0.10305719024E+03  0.00000000000E+00 0.  1.
</event>
<event>
 4    1  0.2229986E+005  0.3295656E+02  0.7546771E-02  0.1395528E+00
          2   -1    0    0  502    0  0.00000000000E+00  0.00000000000E+00  0.11462154619E+04  0.11462154619E+04  0.00000000000E+00 0. -1.
         21   -1    0    0  503  502 -0.00000000000E+00 -0.00000000000E+00 -0.11741901456E+01  0.11741901456E+01  0.00000000000E+00 0. -1.
          2    1    1    2  501    0 -0.15646978823E+02  0.29005289653E+02  0.82454823929E+03  0.82520660061E+03  0.00000000000E+00 0. -1.
         21    1    1    2  503  501  0.15646978823E+02 -0.29005289653E+02  0.32049303249E+03  0.32218305146E+03  0.00000000000E+00 0. -1.
</event>
<event>
 4    1  0.2229986E+005  0.2087769E+02  0.7546771E-02  0.1521018E+00
          2   -1    0    0  502    0  0.00000000000E+00  0.00000000000E+00  0.62002191583E+02  0.62002191583E+02  0.00000000000E+00 0.  1.
         21   -1    0    0  503  502 -0.00000000000E+00 -0.00000000000E+00 -0.51771146601E+02  0.51771146601E+02  0.00000000000E+00 0.  1.
          2    1    1    2  501    0 -0.89991006442E+01 -0.18838633383E+02  0.57998995822E+02  0.61642204994E+02  0.00000000000E+00 0.  1.
         21    1    1    2  503  501  0.89991006442E+01  0.18838633383E+02 -0.47767950841E+02  0.52131133190E+02  0.00000000000E+00 0.  1.
</event>
<event>
 4    1  0.2229986E+005  0.2210231E+02  0.7546771E-02  0.1504089E+00
          2   -1    0    0  502    0  0.00000000000E+00  0.00000000000E+00  0.84856220229E+03  0.84856220229E+03  0.00000000000E+00 0.  1.
         21   -1    0    0  503  502 -0.00000000000E+00 -0.00000000000E+00 -0.16528708317E+01  0.16528708317E+01  0.00000000000E+00 0.  1.
          2    1    1    2  501    0 -0.12231074018E+02  0.18409590760E+02  0.76663535345E+03  0.76695389520E+03  0.00000000000E+00 0.  1.
         21    1    1    2  503  501  0.12231074018E+02 -0.18409590760E+02  0.80273978005E+02  0.83261177918E+02  0.00000000000E+00 0.  1.
</event>
<event>
 4    1  0.2229986E+005  0.2160536E+02  0.7546771E-02  0.1510795E+00
          2   -1    0    0  502    0  0.00000000000E+00  0.00000000000E+00  0.75956722018E+03  0.75956722018E+03  0.00000000000E+00 0. -1.
         21   -1    0    0  503  502 -0.00000000000E+00 -0.00000000000E+00 -0.88303181774E+00  0.88303181774E+00  0.00000000000E+00 0.  1.
          2    1    1    2  501    0  0.94132403111E+01  0.19446919973E+02  0.58899956260E+03  0.58939568758E+03  0.00000000000E+00 0. -1.
         21    1    1    2  503  501 -0.94132403111E+01 -0.19446919973E+02  0.16968462575E+03  0.17105456441E+03  0.00000000000E+00 0.  1.
</event>
<event>
 4    1  0.2229986E+005  0.2500059E+02  0.7546771E-02  0.1468797E+00
          2   -1    0    0  503    0  0.00000000000E+00  0.00000000000E+00  0.12205621887E+02  0.12205621887E+02  0.00000000000E+00 0. -1.
         21   -1    0    0  501  502 -0.00000000000E+00 -0.00000000000E+00 -0.88296607515E+02  0.88296607515E+02  0.00000000000E+00 0.  1.
          2    1    1    2  501    0 -0.47721521602E+01  0.24540907615E+02 -0.54774252861E+01  0.25593588466E+02  0.00000000000E+00 0. -1.
         21    1    1    2  503  502  0.47721521602E+01 -0.24540907615E+02 -0.70613560342E+02  0.74908640936E+02  0.00000000000E+00 0.  1.
</event>
<event>
 4    1  0.2229986E+005  0.2726034E+02  0.7546771E-02  0.1445010E+00
          2   -1    0    0  503    0  0.00000000000E+00  0.00000000000E+00  0.25274082994E+02  0.25274082994E+02  0.00000000000E+00 0.  1.
         21   -1    0    0  501  502 -0.00000000000E+00 -0.00000000000E+00 -0.24751337939E+03  0.24751337939E+03  0.00000000000E+00 0.  1.
          2    1    1    2  501    0 -0.21287562758E+02  0.17028376313E+02  0.16916779744E+02  0.32082758063E+02  0.00000000000E+00 0.  1.
         21    1    1    2  503  502  0.21287562758E+02 -0.17028376313E+02 -0.23915607614E+03  0.24070470432E+03  0.00000000000E+00 0.  1.
</event>
<event>
 4    1  0.2229986E+005  0.2179709E+02  0.7546771E-02  0.1508182E+00
          2   -1    0    0  503    0  0.00000000000E+00  0.00000000000E+00  0.52756953398E+01  0.52756953398E+01  0.00000000000E+00 0. -1.
         21   -1    0    0  501  502 -0.00000000000E+00 -0.00000000000E+00 -0.90094632824E+02  0.90094632824E+02  0.00000000000E+00 0.  1.
          2    1    1    2  501    0  0.21698906863E+02  0.20665618505E+01 -0.41434746275E+02  0.46818281000E+02  0.00000000000E+00 0. -1.
         21    1    1    2  503  502 -0.21698906863E+02 -0.20665618505E+01 -0.43384191209E+02  0.48552047164E+02  0.00000000000E+00 0.  1.
</event>
<event>
 4    1  0.2229986E+005  0.6239951E+02  0.7546771E-02  0.1251891E+00
          2   -1    0    0  502    0  0.00000000000E+00  0.00000000000E+00  0.35403895193E+03  0.35403895193E+03  0.00000000000E+00 0. -1.
         21   -1    0    0  503  502 -0.00000000000E+00 -0.00000000000E+00 -0.15246406303E+02  0.15246406303E+02  0.00000000000E+00 0. -1.
          2    1    1    2  501    0  0.30124467964E+02 -0.54646272986E+02  0.26686482150E+03  0.27406300677E+03  0.00000000000E+00 0. -1.
         21    1    1    2  503  501 -0.30124467964E+02  0.54646272986E+02  0.71927724124E+02  0.95222351467E+02  0.00000000000E+00 0. -1.
</event>
<event>
 4    1  0.2229986E+005  0.2566140E+02  0.7546771E-02  0.1461539E+00
          2   -1    0    0  502    0  0.00000000000E+00  0.00000000000E+00  0.65481692452E+03  0.65481692452E+03  0.00000000000E+00 0.  1.
         21   -1    0    0  503  502 -0.00000000000E+00 -0.00000000000E+00 -0.14705632885E+01  0.14705632885E+01  0.00000000000E+00 0.  1.
          2    1    1    2  501    0 -0.25503131920E+02  0.28456735738E+01  0.51118096754E+03  0.51182466644E+03  0.00000000000E+00 0.  1.
         21    1    1    2  503  501  0.25503131920E+02 -0.28456735738E+01  0.14216539369E+03  0.14446282137E+03  0.00000000000E+00 0.  1.
</event>
<event>
 4    1  0.2229986E+005  0.2887706E+02  0.7546771E-02  0.1429612E+00
          2   -1    0    0  503    0  0.00000000000E+00  0.00000000000E+00  0.31413535164E+02  0.31413535164E+02  0.00000000000E+00 0. -1.
         21   -1    0    0  501  502 -0.00000000000E+00 -0.00000000000E+00 -0.51375623327E+03  0.51375623327E+03  0.00000000000E+00 0.  1.
          2    1    1    2  501    0  0.62499488593E+01  0.28192605500E+02  0.24278012442E+02  0.37726737915E+02  0.00000000000E+00 0. -1.
         21    1    1    2  503  502 -0.62499488593E+01 -0.28192605500E+02 -0.50662071055E+03  0.50744303052E+03  0.00000000000E+00 0.  1.
</event>
<event>
 4    1  0.2229986E+005  0.2349512E+02  0.7546771E-02  0.1486373E+00
          2   -1    0    0  503    0  0.00000000000E+00  0.00000000000E+00  0.11343628454E+04  0.11343628454E+04  0.00000000000E+00 0.  1.
         21   -1    0    0  501  502 -0.00000000000E+00 -0.00000000000E+00 -0.49326078723E+00  0.49326078723E+00  0.00000000000E+00 0. -1.
          2    1    1    2  501    0  0.75669361788E+01 -0.22243250623E+02  0.50117058781E+03  0.50172101691E+03  0.00000000000E+00 0.  1.
         21    1    1    2  503  502 -0.75669361788E+01  0.22243250623E+02  0.63269899681E+03  0.63313508929E+03  0.00000000000E+00 0. -1.
</event>
<event>
 4    1  0.2229986E+005  0.2053953E+02  0.7546771E-02  0.1525942E+00
          2   -1    0    0  502    0  0.00000000000E+00  0.00000000000E+00  0.45150586291E+02  0.45150586291E+02  0.00000000000E+00 0. -1.
         21   -1    0    0  503  502 -0.00000000000E+00 -0.00000000000E+00 -0.10003826090E+03  0.10003826090E+03  0.00000000000E+00 0. -1.
          2    1    1    2  501    0 -0.99956364021E+01  0.17943236315E+02  0.41677299464E+02  0.46463639194E+02  0.00000000000E+00 0. -1.
         21    1    1    2  503  501  0.99956364021E+01 -0.17943236315E+02 -0.96564974073E+02  0.98725207998E+02  0.00000000000E+00 0. -1.
</event>
<event>
 4    1  0.2229986E+005  0.2201646E+02  0.7546771E-02  0.1505232E+00
          2   -1    0    0  502    0  0.00000000000E+00  0.00000000000E+00  0.16403948971E+02  0.16403948971E+02  0.00000000000E+00 0.  1.
         21   -1    0    0  503  502 -0.00000000000E+00 -0.00000000000E+00 -0.89854687517E+02  0.89854687517E+02  0.00000000000E+00 0. -1.
          2    1    1    2  501    0  0.12739485741E+01 -0.21979568603E+02  0.67999646915E+01  0.23042653943E+02  0.00000000000E+00 0.  1.
         21    1    1    2  503  501 -0.12739485741E+01  0.21979568603E+02 -0.80250703237E+02  0.83215982546E+02  0.00000000000E+00 0. -1.
</event>
<event>
 4    1  0.2229986E+005  0.3269163E+02  0.7546771E-02  0.1397561E+00
          2   -1    0    0  502    0  0.00000000000E+00  0.00000000000E+00  0.19434067184E+03  0.19434067184E+03  0.00000000000E+00 0.  1.
         21   -1    0    0  503  502 -0.00000000000E+00 -0.00000000000E+00 -0.27487644610E+02  0.27487644610E+02  0.00000000000E+00 0. -1.
          2    1    1    2  501    0  0.74440389387E+01  0.31832823356E+02  0.18262710299E+03  0.18553005445E+03  0.00000000000E+00 0.  1.
         21    1    1    2  503  501 -0.74440389387E+01 -0.31832823356E+02 -0.15774075754E+02  0.36298262003E+02  0.00000000000E+00 0. -1.
</event>
<event>
 4    1  0.2229986E+005  0.2068447E+02  0.7546771E-02  0.1523818E+00
          2   -1    0    0  502    0  0.00000000000E+00  0.00000000000E+00  0.32279178540E+03  0.32279178540E+03  0.00000000000E+00 0.  1.
         21   -1    0    0  503  502 -0.00000000000E+00 -0.00000000000E+00 -0.48619727937E+02  0.48619727937E+02  0.00000000000E+00 0.  1.
          2    1    1    2  501    0  0.17659787585E+02  0.10769369095E+02  0.32024296102E+03  0.32091027015E+03  0.00000000000E+00 0.  1.
         21    1    1    2  503  501 -0.17659787585E+02 -0.10769369095E+02 -0.46070903557E+02  0.50501243181E+02  0.00000000000E+00 0.  1.
</event>
<event>
 4    1  0.2229986E+005  0.3269696E+02  0.7546771E-02  0.1397520E+00
          2   -1    0    0  503    0  0.00000000000E+00  0.00000000000E+00  0.11393247958E+02  0.11393247958E+02  0.00000000000E+00 0. -1.
         21   -1    0    0  501  502 -0.00000000000E+00 -0.00000000000E+00 -0.11383148007E+03  0.11383148007E+03  0.00000000000E+00 0.  1.
          2    1    1    2  501    0  0.31067790675E+02  0.10192341042E+02 -0.24976933165E+02  0.41145335382E+02  0.00000000000E+00 0. -1.
         21    1    1    2  503  502 -0.31067790675E+02 -0.10192341042E+02 -0.77461298951E+02  0.84079392651E+02  0.00000000000E+00 0.  1.
</event>
<event>
 4    1  0.2229986E+005  0.2310885E+02  0.7546771E-02  0.1491136E+00
          2   -1    0    0  502    0  0.00000000000E+00  0.00000000000E+00  0.22246674830E+04  0.22246674830E+04  0.00000000000E+00 0.  1.
         21   -1    0    0  503  502 -0.00000000000E+00 -0.00000000000E+00 -0.24660592904E+00  0.24660592904E+00  0.00000000000E+00 0.  1.
          2    1    1    2  501    0  0.98987984351E+01  0.20881399941E+02  0.12936711009E+04  0.12938774812E+04  0.00000000000E+00 0.  1.
         21    1    1    2  503  501 -0.98987984351E+01 -0.20881399941E+02  0.93074977618E+03  0.93103660773E+03  0.00000000000E+00 0.  1.
</event>
<event>
 4    1  0.2229986E+005  0.3098650E+02  0.7546771E-02  0.1411213E+00
          2   -1    0    0  502    0  0.00000000000E+00  0.00000000000E+00  0.11057006075E+03  0.11057006075E+03  0.00000000000E+00 0.  1.
         21   -1    0    0  503  502 -0.00000000000E+00 -0.00000000000E+00 -0.86306665436E+02  0.86306665436E+02  0.00000000000E+00 0. -1.
          2    1    1    2  501    0 -0.39159408332E+01  0.30738063164E+02  0.10548661114E+03  0.10994356848E+03  0.00000000000E+00 0.  1.
         21    1    1    2  503  501  0.39159408332E+01 -0.30738063164E+02 -0.81223215827E+02  0.86933157708E+02  0.00000000000E+00 0. -1.
</event>
<event>
 4    1  0.2229986E+005  0.2393317E+02  0.7546771E-02  0.1481101E+00
          2   -1    0    0  503    0  0.00000000000E+00  0.00000000000E+00  0.21514012659E+03  0.21514012659E+03  0.00000000000E+00 0. -1.
         21   -1    0    0  501  502 -0.00000000000E+00 -0.00000000000E+00 -0.16178534381E+02  0.16178534381E+02  0.00000000000E+00 0. -1.
          2    1    1    2  501    0  0.16791513876E+02  0.17054076348E+02  0.20519583767E+03  0.20658685402E+03  0.00000000000E+00 0. -1.
         21    1    1    2  503  502 -0.16791513876E+02 -0.17054076348E+02 -0.62342454616E+01  0.24731806946E+02  0.00000000000E+00 0. -1.
</event>
<event>
 4    1  0.2229986E+005  0.2597915E+02  0.7546771E-02  0.1458141E+00
          2   -1    0    0  503    0  0.00000000000E+00  0.00000000000E+00  0.49242317680E+03  0.49242317680E+03  0.00000000000E+00 0. -1.
         21   -1    0    0  501  502 -0.00000000000E+00 -0.00000000000E+00 -0.74872948740E+02  0.74872948740E+02  0.00000000000E+00 0. -1.
          2    1    1    2  501    0 -0.56142203358E+01  0.25365264954E+02  0.48981499708E+03  0.49050346329E+03  0.00000000000E+00 0. -1.
         21    1    1    2  503  502  0.56142203358E+01 -0.25365264954E+02 -0.72264769012E+02  0.76792662257E+02  0.00000000000E+00 0. -1.
</event>
<event>
 4    1  0.2229986E+005  0.2478084E+02  0.7546771E-02  0.1471270E+00
          2   -1    0    0  502    0  0.00000000000E+00  0.00000000000E+00  0.11875959000E+04  0.11875959000E+04  0.00000000000E+00 0. -1.
         21   -1    0    0  503  502 -0.00000000000E+00 -0.00000000000E+00 -0.18827733330E+01  0.18827733330E+01  0.00000000000E+00 0. -1.
          2    1    1    2  501    0  0.24529675952E+02  0.35192244262E+01  0.10993842490E+04  0.10996635016E+04  0.00000000000E+00 0. -1.
         21    1    1    2  503  501 -0.24529675952E+02 -0.35192244262E+01  0.86328877696E+02  0.89815171698E+02  0.00000000000E+00 0. -1.
</event>
<event>
 4    1  0.2229986E+005  0.2394260E+02  0.7546771E-02  0.1480989E+00
          2   -1    0    0  502    0  0.00000000000E+00  0.00000000000E+00  0.43064250233E+02  0.43064250233E+02  0.00000000000E+00 0.  1.
         21   -1    0    0  503  502 -0.00000000000E+00 -0.00000000000E+00 -0.81613070631E+02  0.81613070631E+02  0.00000000000E+00 0.  1.
          2    1    1    2  501    0  0.47248094642E+01 -0.23471775482E+02  0.37754238005E+02  0.44706046080E+02  0.00000000000E+00 0.  1.
         21    1    1    2  503  501 -0.47248094642E+01  0.23471775482E+02 -0.76303058404E+02  0.79971274784E+02  0.00000000000E+00 0.  1.
</event>
<event>
 4    1  0.2229986E+005  0.2336157E+02  0.7546771E-02  0.1488007E+00
          2   -1    0    0  502    0  0.00000000000E+00  0.00000000000E+00  0.93918066704E+03  0.93918066704E+03  0.00000000000E+00 0. -1.
         21   -1    0    0  503  502 -0.00000000000E+00 -0.00000000000E+00 -0.35569810621E+01  0.35569810621E+01  0.00000000000E+00 0. -1.
          2    1    1    2  501    0 -0.17202963565E+02  0.15805722972E+02  0.89896093829E+03  0.89926443909E+03  0.00000000000E+00 0. -1.
         21    1    1    2  503  501  0.17202963565E+02 -0.15805722972E+02  0.36662747686E+02  0.43473209014E+02  0.00000000000E+00 0. -1.
</event>
<event>
 4    1  0.2229986E+005  0.2154479E+02  0.7546771E-02  0.1511627E+00
          2   -1    0    0  503    0  0.00000000000E+00  0.00000000000E+00  0.12890607210E+03  0.12890607210E+03  0.00000000000E+00 0.  1.
         21   -1    0    0  501  502 -0.00000000000E+00 -0.00000000000E+00 -0.73770165471E+01  0.73770165471E+01  0.00000000000E+00 0. -1.
          2    1    1    2  501    0 -0.78170559072E+01 -0.20076642402E+02  0.10951673269E+03  0.11161582626E+03  0.00000000000E+00 0.  1.
         21    1    1    2  503  502  0.78170559072E+01  0.20076642402E+02  0.12012322871E+02  0.24667262392E+02  0.00000000000E+00 0. -1.
</event>
<event>
 4    1  0.2229986E+005  0.2970647E+02  0.7546771E-02  0.1422165E+00
          2   -1    0    0  503    0  0.00000000000E+00  0.00000000000E+00  0.11141701753E+04  0.11141701753E+04  0.00000000000E+00 0.  1.
         21   -1    0    0  501  502 -0.00000000000E+00 -0.00000000000E+00 -0.15839232078E+01  0.15839232078E+01  0.00000000000E+00 0.  1.
          2    1    1    2  501    0  0.12287420221E+02 -0.27046135247E+02  0.95075072949E+03  0.95121470960E+03  0.00000000000E+00 0.  1.
         21    1    1    2  503  502 -0.12287420221E+02  0.27046135247E+02  0.16183552265E+03  0.16453938896E+03  0.00000000000E+00 0.  1.
</event>
<event>
 4    1  0.2229986E+005  0.3591509E+02  0.7546771E-02  0.1374242E+00
          2   -1    0    0  502    0  0.00000000000E+00  0.00000000000E+00  0.82611512058E+03  0.82611512058E+03  0.00000000000E+00 0. -1.
         21   -1    0    0  503  502 -0.00000000000E+00 -0.00000000000E+00 -0.35166051484E+03  0.35166051484E+03  0.00000000000E+00 0.  1.
          2    1    1    2  501    0  0.32719055636E+02 -0.14810705551E+02  0.82480631493E+03  0.82558788190E+03  0.00000000000E+00 0. -1.
         21    1    1    2  503  501 -0.32719055636E+02  0.14810705551E+02 -0.35035170919E+03  0.35218775352E+03  0.00000000000E+00 0.  1.
</event>
<event>
 4    1  0.2229986E+005  0.2001214E+02  0.7546771E-02  0.1533850E+00
          2   -1    0    0  503    0  0.00000000000E+00  0.00000000000E+00  0.64039592230E+02  0.64039592230E+02  0.00000000000E+00 0. -1.
         21   -1    0    0  501  502 -0.00000000000E+00 -0.00000000000E+00 -0.17845960215E+02  0.17845960215E+02  0.00000000000E+00 0.  1.
          2    1    1    2  501    0  0.10577710637E+02 -0.16988163815E+02  0.56095074131E+02  0.59557896319E+02  0.00000000000E+00 0. -1.
         21    1    1    2  503  502 -0.10577710637E+02  0.16988163815E+02 -0.99014421162E+01  0.22327656127E+02  0.00000000000E+00 0.  1.
</event>
<event>
 4    1  0.2229986E+005  0.5045894E+02  0.7546771E-02  0.1296195E+00
          2   -1    0    0  502    0  0.00000000000E+00  0.00000000000E+00  0.25458441927E+04  0.25458441927E+04  0.00000000000E+00 0.  1.
         21   -1    0    0  503  502 -0.00000000000E+00 -0.00000000000E+00 -0.22198612178E+02  0.22198612178E+02  0.00000000000E+00 0.  1.
          2    1    1    2  501    0  0.21850826832E+02 -0.45482374699E+02  0.25165866921E+04  0.25170925061E+04  0.00000000000E+00 0.  1.
         21    1    1    2  503  501 -0.21850826832E+02  0.45482374699E+02  0.70588883556E+01  0.50950298785E+02  0.00000000000E+00 0.  1.
</event>
<event>
 4    1  0.2229986E+005  0.2068432E+02  0.7546771E-02  0.1523820E+00
          2   -1    0    0  503    0  0.00000000000E+00  0.00000000000E+00  0.32984937389E+01  0.32984937389E+01  0.00000000000E+00 0.  1.
         21   -1    0    0  501  502 -0.00000000000E+00 -0.00000000000E+00 -0.13825240328E+03  0.13825240328E+03  0.00000000000E+00 0. -1.
          2    1    1    2  501    0  0.90258056263E+01  0.18611178997E+02 -0.49882079541E+02  0.54000583425E+02  0.00000000000E+00 0.  1.
         21    1    1    2  503  502 -0.90258056263E+01 -0.18611178997E+02 -0.85071830000E+02  0.87550313594E+02  0.00000000000E+00 0. -1.
</event>
<event>
 4    1  0.2229986E+005  0.2530188E+02  0.7546771E-02  0.1465454E+00
          2   -1    0    0  502    0  0.00000000000E+00  0.00000000000E+00  0.51293757316E+03  0.51293757316E+03  0.00000000000E+00 0.  1.
         21   -1    0    0  503  502 -0.00000000000E+00 -0.00000000000E+00 -0.65339218930E+01  0.65339218930E+01  0.00000000000E+00 0.  1.
          2    1    1    2  501    0 -0.12835124225E+02  0.21804698925E+02  0.48681750439E+03  0.48747458179E+03  0.00000000000E+00 0.  1.
         21    1    1    2  503  501  0.12835124225E+02 -0.21804698925E+02  0.19586146881E+02  0.31996913269E+02  0.00000000000E+00 0.  1.
</event>
<event>
 4    1  0.2229986E+005  0.2933863E+02  0.7546771E-02  0.1425432E+00
          2   -1    0    0  502    0  0.00000000000E+00  0.00000000000E+00  0.14609841451E+04  0.14609841451E+04  0.00000000000E+00 0.  1.
         21   -1    0    0  503  502 -0.00000000000E+00 -0.00000000000E+00 -0.40885831346E+01  0.40885831346E+01  0.00000000000E+00 0. -1.
          2    1    1    2  501    0  0.28717917760E+02 -0.60030392992E+01  0.14061531438E+04  0.14064591779E+04  0.00000000000E+00 0.  1.
         21    1    1    2  503  501 -0.28717917760E+02  0.60030392992E+01  0.50742418150E+02  0.58613550319E+02  0.00000000000E+00 0. -1.
</event>
<event>
 4    1  0.2229986E+005  0.2680862E+02  0.7546771E-02  0.1449540E+00
          2   -1    0    0  503    0  0.00000000000E+00  0.00000000000E+00  0.66789374240E+02  0.66789374240E+02  0.00000000000E+00 0. -1.
         21   -1    0    0  501  502 -0.00000000000E+00 -0.00000000000E+00 -0.21310265540E+02  0.21310265540E+02  0.00000000000E+00 0.  1.
          2    1    1    2  501    0 -0.21804467985E+02  0.15597035094E+02  0.53732753400E+02  0.60049239094E+02  0.00000000000E+00 0. -1.
         21    1    1    2  503  502  0.21804467985E+02 -0.15597035094E+02 -0.82536446992E+01  0.28050400686E+02  0.00000000000E+00 0.  1.
</event>
<event>
 4    1  0.2229986E+005  0.2011116E+02  0.7546771E-02  0.1532343E+00
          2   -1    0    0  502    0  0.00000000000E+00  0.00000000000E+00  0.24504346439E+02  0.24504346439E+02  0.00000000000E+00 0.  1.
         21   -1    0    0  503  502 -0.00000000000E+00 -0.00000000000E+00 -0.10217908117E+03  0.10217908117E+03  0.00000000000E+00 0.  1.
          2    1    1    2  501    0 -0.18566399797E+02  0.77296560797E+01  0.19163172541E+02  0.27779236246E+02  0.00000000000E+00 0.  1.
         21    1    1    2  503  501  0.18566399797E+02 -0.77296560797E+01 -0.96837907272E+02  0.98904191364E+02  0.00000000000E+00 0.  1.
</event>
<event>
 4    1  0.2229986E+005  0.3299610E+02  0.7546771E-02  0.1395226E+00
          2   -1    0    0  503    0  0.00000000000E+00  0.00000000000E+00  0.20037748566E+04  0.20037748566E+04  0.00000000000E+00 0.  1.
         21   -1    0    0  501  502 -0.00000000000E+00 -0.00000000000E+00 -0.58192522587E+00  0.58192522587E+00  0.00000000000E+00 0. -1.
          2    1    1    2  501    0  0.31367406450E+02 -0.10238564032E+02  0.12596382792E+04  0.12600703698E+04  0.00000000000E+00 0.  1.
         21    1    1    2  503  502 -0.31367406450E+02  0.10238564032E+02  0.74355465214E+03  0.74428641200E+03  0.00000000000E+00 0. -1.
</event>
<event>
 4    1  0.2229986E+005  0.2411807E+02  0.7546771E-02  0.1478916E+00
          2   -1    0    0  503    0  0.00000000000E+00  0.00000000000E+00  0.14037942305E+04  0.14037942305E+04  0.00000000000E+00 0. -1.
         21   -1    0    0  501  502 -0.00000000000E+00 -0.00000000000E+00 -0.60979084407E+00  0.60979084407E+00  0.00000000000E+00 0.  1.
          2    1    1    2  501    0  0.21885550909E+02 -0.10134297692E+02  0.10991168991E+04  0.10993814803E+04  0.00000000000E+00 0. -1.
         21    1    1    2  503  502 -0.21885550909E+02  0.10134297692E+02  0.30406754052E+03  0.30502254101E+03  0.00000000000E+00 0.  1.
</event>
<event>
 4    1  0.2229986E+005  0.2589903E+02  0.7546771E-02  0.1458992E+00
          2   -1    0    0  502    0  0.00000000000E+00  0.00000000000E+00  0.30746100377E+03  0.30746100377E+03  0.00000000000E+00 0.  1.
         21   -1    0    0  503  502 -0.00000000000E+00 -0.00000000000E+00 -0.62606891037E+01  0.62606891037E+01  0.00000000000E+00 0.  1.
          2    1    1    2  501    0 -0.22636323715E+02 -0.12583973893E+02  0.27721500211E+03  0.27842219190E+03  0.00000000000E+00 0.  1.
         21    1    1    2  503  501  0.22636323715E+02  0.12583973893E+02  0.23985312559E+02  0.35299500971E+02  0.00000000000E+00 0.  1.
</event>
<event>
 4    1  0.2229986E+005  0.2442818E+02  0.7546771E-02  0.1475303E+00
          2   -1    0    0  503    0  0.00000000000E+00  0.00000000000E+00  0.25592782059E+02  0.25592782059E+02  0.00000000000E+00 0. -1.
         21   -1    0    0  501  502 -0.00000000000E+00 -0.00000000000E+00 -0.21660748450E+03  0.21660748450E+03  0.00000000000E+00 0. -1.
          2    1    1    2  501    0  0.23988619482E+02  0.46132477288E+01  0.18889378928E+02  0.30879516763E+02  0.00000000000E+00 0. -1.
         21    1    1    2  503  502 -0.23988619482E+02 -0.46132477288E+01 -0.20990408137E+03  0.21132074979E+03  0.00000000000E+00 0. -1.
</event>
<event>
 4    1  0.2229986E+005  0.3879047E+02  0.7546771E-02  0.1355723E+00
          2   -1    0    0  503    0  0.00000000000E+00  0.00000000000E+00  0.73136625112E+03  0.73136625112E+03  0.00000000000E+00 0. -1.
         21   -1    0    0  501  502 -0.00000000000E+00 -0.00000000000E+00 -0.23710107786E+01  0.23710107786E+01  0.00000000000E+00 0. -1.
          2    1    1    2  501    0 -0.15018162900E+02  0.35765278545E+02  0.49792691622E+03  0.49943559571E+03  0.00000000000E+00 0. -1.
         21    1    1    2  503  502  0.15018162900E+02 -0.35765278545E+02  0.23106832412E+03  0.23430166618E+03  0.00000000000E+00 0. -1.
</event>
<event>
 4    1  0.2229986E+005  0.2880401E+02  0.7546771E-02  0.1430282E+00
          2   -1    0    0  502    0  0.00000000000E+00  0.00000000000E+00  0.30782133050E+03  0.30782133050E+03  0.00000000000E+00 0.  1.
         21   -1    0    0  503  502 -0.00000000000E+00 -0.00000000000E+00 -0.12260103154E+02  0.12260103154E+02  0.00000000000E+00 0. -1.
          2    1    1    2  501    0 -0.39359512353E+01 -0.28533826998E+02  0.28913895221E+03  0.29057013729E+03  0.00000000000E+00 0.  1.
         21    1    1    2  503  501  0.39359512353E+01  0.28533826998E+02  0.64222751303E+01  0.29511296365E+02  0.00000000000E+00 0. -1.
</event>
<event>
 4    1  0.2229986E+005  0.2169493E+02  0.7546771E-02  0.1509570E+00
          2   -1    0    0  503    0  0.00000000000E+00  0.00000000000E+00  0.10030099646E+04  0.10030099646E+04  0.00000000000E+00 0. -1.
         21   -1    0    0  501  502 -0.00000000000E+00 -0.00000000000E+00 -0.10670768828E+01  0.10670768828E+01  0.00000000000E+00 0. -1.
          2    1    1    2  501    0  0.18149776888E+02  0.11885106968E+02  0.87674317170E+03  0.87701155026E+03  0.00000000000E+00 0. -1.
         21    1    1    2  503  502 -0.18149776888E+02 -0.11885106968E+02  0.12519971604E+03  0.12706549125E+03  0.00000000000E+00 0. -1.
</event>
<event>
 4    1  0.2229986E+005  0.2778739E+02  0.7546771E-02  0.1439855E+00
          2   -1    0    0  503    0  0.00000000000E+00  0.00000000000E+00  0.17484225210E+04  0.17484225210E+04  0.00000000000E+00 0.  1.
         21   -1    0    0  501  502 -0.00000000000E+00 -0.00000000000E+00 -0.97895705874E+01  0.97895705874E+01  0.00000000000E+00 0. -1.
          2    1    1    2  501    0 -0.14079807323E+02  0.23956169953E+02  0.17283648893E+04  0.17285882476E+04  0.00000000000E+00 0.  1.
         21    1    1    2  503  502  0.14079807323E+02 -0.23956169953E+02  0.10268061045E+02  0.29623843955E+02  0.00000000000E+00 0. -1.
</event>
<event>
 4    1  0.2229986E+005  0.2855665E+02  0.7546771E-02  0.1432568E+00
          2   -1    0    0  503    0  0.00000000000E+00  0.00000000000E+00  0.18873306366E+03  0.18873306366E+03  0.00000000000E+00 0. -1.
         21   -1    0    0  501  502 -0.00000000000E+00 -0.00000000000E+00 -0.83035655508E+02  0.83035655508E+02  0.00000000000E+00 0. -1.
          2    1    1    2  501    0  0.28473262706E+02 -0.21807718372E+01  0.18515041066E+03  0.18733968352E+03  0.00000000000E+00 0. -1.
         21    1    1    2  503  502 -0.28473262706E+02  0.21807718372E+01 -0.79453002500E+02  0.84429035653E+02  0.00000000000E+00 0. -1.
</event>
<event>
 4    1  0.2229986E+005  0.3437407E+02  0.7546771E-02  0.1385018E+00
          2   -1    0    0  503    0  0.00000000000E+00  0.00000000000E+00  0.13211266524E+04  0.13211266524E+04  0.00000000000E+00 0.  1.
         21   -1    0    0  501  502 -0.00000000000E+00 -0.00000000000E+00 -0.22277156535E+02  0.22277156535E+02  0.00000000000E+00 0.  1.
          2    1    1    2  501    0  0.24041024431E+02  0.24568386319E+02  0.13075049846E+04  0.13079567505E+04  0.00000000000E+00 0.  1.
         21    1    1    2  503  502 -0.24041024431E+02 -0.24568386319E+02 -0.86554887745E+01  0.35447058381E+02  0.00000000000E+00 0.  1.
</event>
<event>
 4    1  0.2229986E+005  0.2915621E+02  0.7546771E-02  0.1427073E+00
          2   -1    0    0  503    0  0.00000000000E+00  0.00000000000E+00  0.11105619089E+02  0.11105619089E+02  0.00000000000E+00 0.  1.
         21   -1    0    0  501  502 -0.00000000000E+00 -0.00000000000E+00 -0.22622628108E+03  0.22622628108E+03  0.00000000000E+00 0.  1.
          2    1    1    2  501    0 -0.14277061298E+02  0.25421451115E+02 -0.11035804557E+02  0.31174887944E+02  0.00000000000E+00 0.  1.
         21    1    1    2  503  502  0.14277061298E+02 -0.25421451115E+02 -0.20408485744E+03  0.20615701223E+03  0.00000000000E+00 0.  1.
</event>
<event>
 4    1  0.2229986E+005  0.3140080E+02  0.7546771E-02  0.1407802E+00
          2   -1    0    0  503    0  0.00000000000E+00  0.00000000000E+00  0.97495219881E+03  0.97495219881E+03  0.00000000000E+00 0. -1.
         21   -1    0    0  501  502 -0.00000000000E+00 -0.00000000000E+00 -0.19380971689E+01  0.19380971689E+01  0.00000000000E+00 0.  1.
          2    1    1    2  501    0 -0.22059664434E+02 -0.22346851173E+02  0.82426877092E+03  0.82486666635E+03  0.00000000000E+00 0. -1.
         21    1    1    2  503  502  0.22059664434E+02  0.22346851173E+02  0.14874533073E+03  0.15202362963E+03  0.00000000000E+00 0.  1.
</event>
<event>
 4    1  0.2229986E+005  0.2188403E+02  0.7546771E-02  0.1507008E+00
          2   -1    0    0  502    0  0.00000000000E+00  0.00000000000E+00  0.54359599198E+03  0.54359599198E+03  0.00000000000E+00 0. -1.
         21   -1    0    0  503  502 -0.00000000000E+00 -0.00000000000E+00 -0.13024580221E+01  0.13024580221E+01  0.00000000000E+00 0. -1.
          2    1    1    2  501    0  0.36534914713E+01  0.21576902296E+02  0.42612773386E+03  0.42668929712E+03  0.00000000000E+00 0. -1.
         21    1    1    2  503  501 -0.36534914713E+01 -0.21576902296E+02  0.11616580010E+03  0.11820915288E+03  0.00000000000E+00 0. -1.
</event>
<event>
 4    1  0.2229986E+005  0.2656766E+02  0.7546771E-02  0.1452000E+00
          2   -1    0    0  502    0  0.00000000000E+00  0.00000000000E+00  0.15794761237E+04  0.15794761237E+04  0.00000000000E+00 0. -1.
         21   -1    0    0  503  502 -0.00000000000E+00 -0.00000000000E+00 -0.10055017650E+02  0.10055017650E+02  0.00000000000E+00 0.  1.
          2    1    1    2  501    0  0.82040461468E+01  0.25269230256E+02  0.15616142289E+04  0.15618402096E+04  0.00000000000E+00 0. -1.
         21    1    1    2  503  501 -0.82040461468E+01 -0.25269230256E+02  0.78068771423E+01  0.27690931758E+02  0.00000000000E+00 0.  1.
</event>
<event>
 4    1  0.2229986E+005  0.2001847E+02  0.7546771E-02  0.1533753E+00
          2   -1    0    0  503    0  0.00000000000E+00  0.00000000000E+00  0.98652466465E+03  0.98652466465E+03  0.00000000000E+00 0.  1.
         21   -1    0    0  501  502 -0.00000000000E+00 -0.00000000000E+00 -0.44462270537E+00  0.44462270537E+00  0.00000000000E+00 0.  1.
          2    1    1    2  501    0 -0.19115497678E+02 -0.59444793636E+01  0.34799639773E+03  0.34857170269E+03  0.00000000000E+00 0.  1.
         21    1    1    2  503  502  0.19115497678E+02  0.59444793636E+01  0.63808364422E+03  0.63839758467E+03  0.00000000000E+00 0.  1.
</event>
<event>
 4    1  0.2229986E+005  0.2003600E+02  0.7546771E-02  0.1533486E+00
          2   -1    0    0  503    0  0.00000000000E+00  0.00000000000E+00  0.17056103126E+03  0.17056103126E+03  0.00000000000E+00 0.  1.
         21   -1    0    0  501  502 -0.00000000000E+00 -0.00000000000E+00 -0.37816040324E+01  0.37816040324E+01  0.00000000000E+00 0.  1.
          2    1    1    2  501    0 -0.53143577933E+01 -0.19318352428E+02  0.29823302735E+02  0.35928686663E+02  0.00000000000E+00 0.  1.
         21    1    1    2  503  502  0.53143577933E+01  0.19318352428E+02  0.13695612449E+03  0.13841394863E+03  0.00000000000E+00 0.  1.
</event>
<event>
 4    1  0.2229986E+005  0.3227094E+02  0.7546771E-02  0.1400836E+00
          2   -1    0    0  503    0  0.00000000000E+00  0.00000000000E+00  0.84102276841E+03  0.84102276841E+03  0.00000000000E+00 0.  1.
         21   -1    0    0  501  502 -0.00000000000E+00 -0.00000000000E+00 -0.51927273390E+01  0.51927273390E+01  0.00000000000E+00 0. -1.
          2    1    1    2  501    0 -0.26945083529E+02 -0.17758824702E+02  0.78714474671E+03  0.78780598225E+03  0.00000000000E+00 0.  1.
         21    1    1    2  503  502  0.26945083529E+02  0.17758824702E+02  0.48685294356E+02  0.58409513504E+02  0.00000000000E+00 0. -1.
</event>
<event>
 4    1  0.2229986E+005  0.2386921E+02  0.7546771E-02  0.1481863E+00
          2   -1    0    0  502    0  0.00000000000E+00  0.00000000000E+00  0.65218803695E+03  0.65218803695E+03  0.00000000000E+00 0. -1.
         21   -1    0    0  503  502 -0.00000000000E+00 -0.00000000000E+00 -0.49059783785E+01  0.49059783785E+01  0.00000000000E+00 0.  1.
          2    1    1    2  501    0 -0.52310544421E+01  0.23288952709E+02  0.62150388496E+03  0.62196207141E+03  0.00000000000E+00 0. -1.
         21    1    1    2  503  501  0.52310544421E+01 -0.23288952709E+02  0.25778173609E+02  0.35131943918E+02  0.00000000000E+00 0.  1.
</event>
<event>
 4    1  0.2229986E+005  0.3116883E+02  0.7546771E-02  0.1409704E+00
          2   -1    0    0  503    0  0.00000000000E+00  0.00000000000E+00  0.98433088519E+03  0.98433088519E+03  0.00000000000E+00 0. -1.
         21   -1    0    0  501  502 -0.00000000000E+00 -0.00000000000E+00 -0.13946040634E+01  0.13946040634E+01  0.00000000000E+00 0. -1.
          2    1    1    2  501    0  0.31155741329E+02  0.90317103454E+00  0.75793346192E+03  0.75857407591E+03  0.00000000000E+00 0. -1.
         21    1    1    2  503  502 -0.31155741329E+02 -0.90317103454E+00  0.22500281920E+03  0.22715141334E+03  0.00000000000E+00 0. -1.
</event>
<event>
 4    1  0.2229986E+005  0.3004568E+02  0.7546771E-02  0.1419200E+00
          2   -1    0    0  502    0  0.00000000000E+00  0.00000000000E+00  0.73273112546E+02  0.73273112546E+02  0.00000000000E+00 0. -1.
         21   -1    0    0  503  502 -0.00000000000E+00 -0.00000000000E+00 -0.14264333104E+02  0.14264333104E+02  0.00000000000E+00 0. -1.
          2    1    1    2  501    0 -0.21953405183E+02 -0.20513181221E+02  0.45662711600E+02  0.54661008348E+02  0.00000000000E+00 0. -1.
         21    1    1    2  503  501  0.21953405183E+02  0.20513181221E+02  0.13346067842E+02  0.32876437303E+02  0.00000000000E+00 0. -1.
</event>
<event>
 4    1  0.2229986E+005  0.2254852E+02  0.7546771E-02  0.1498247E+00
          2   -1    0    0  502    0  0.00000000000E+00  0.00000000000E+00  0.12078438097E+01  0.12078438097E+01  0.00000000000E+00 0.  1.
         21   -1    0    0  503  502 -0.00000000000E+00 -0.00000000000E+00 -0.75074924445E+03  0.75074924445E+03  0.00000000000E+00 0.  1.
          2    1    1    2  501    0 -0.15869494407E+02  0.16018574960E+02 -0.12557310456E+03  0.12758150409E+03  0.00000000000E+00 0.  1.
         21    1    1    2  503  501  0.15869494407E+02 -0.16018574960E+02 -0.62396829608E+03  0.62437558417E+03  0.00000000000E+00 0.  1.
</event>
<event>
 4    1  0.2229986E+005  0.2831820E+02  0.7546771E-02  0.1434798E+00
          2   -1    0    0  502    0  0.00000000000E+00  0.00000000000E+00  0.28022224685E+03  0.28022224685E+03  0.00000000000E+00 0.  1.
         21   -1    0    0  503  502 -0.00000000000E+00 -0.00000000000E+00 -0.10044401041E+02  0.10044401041E+02  0.00000000000E+00 0.  1.
          2    1    1    2  501    0  0.13676521790E+02  0.24796632607E+02  0.25781818605E+03  0.25936872845E+03  0.00000000000E+00 0.  1.
         21    1    1    2  503  501 -0.13676521790E+02 -0.24796632607E+02  0.12359659762E+02  0.30897919450E+02  0.00000000000E+00 0.  1.
</event>
<event>
 4    1  0.2229986E+005  0.2083230E+02  0.7546771E-02  0.1521673E+00
          2   -1    0    0  503    0  0.00000000000E+00  0.00000000000E+00  0.57258627356E+03  0.57258627356E+03  0.00000000000E+00 0. -1.
         21   -1    0    0  501  502 -0.00000000000E+00 -0.00000000000E+00 -0.30619545363E+01  0.30619545363E+01  0.00000000000E+00 0. -1.
          2    1    1    2  501    0 -0.14155287915E+02  0.15284383249E+02  0.53443463118E+03  0.53484049917E+03  0.00000000000E+00 0. -1.
         21    1    1    2  503  502  0.14155287915E+02 -0.15284383249E+02  0.35089687848E+02  0.40807728931E+02  0.00000000000E+00 0. -1.
</event>
<event>
 4    1  0.2229986E+005  0.2046417E+02  0.7546771E-02  0.1527054E+00
          2   -1    0    0  503    0  0.00000000000E+00  0.00000000000E+00  0.29009987925E+04  0.29009987925E+04  0.00000000000E+00 0.  1.
         21   -1    0    0  501  502 -0.00000000000E+00 -0.00000000000E+00 -0.14451658561E+00  0.14451658561E+00  0.00000000000E+00 0.  1.
          2    1    1    2  501    0 -0.14486229268E+02 -0.14454464195E+02  0.14984797515E+04  0.14986194808E+04  0.00000000000E+00 0.  1.
         21    1    1    2  503  502  0.14486229268E+02  0.14454464195E+02  0.14023745244E+04  0.14025238283E+04  0.00000000000E+00 0.  1.
</event>
<event>
 4    1  0.2229986E+005  0.7694061E+02  0.7546771E-02  0.1211134E+00
          2   -1    0    0  502    0  0.00000000000E+00  0.00000000000E+00  0.65712757681E+03  0.65712757681E+03  0.00000000000E+00 0. -1.
         21   -1    0    0  503  502 -0.00000000000E+00 -0.00000000000E+00 -0.98368654647E+01  0.98368654647E+01  0.00000000000E+00 0. -1.
          2    1    1    2  501    0  0.83908830142E+01 -0.76481705223E+02  0.42040754596E+03  0.42739017637E+03  0.00000000000E+00 0. -1.
         21    1    1    2  503  501 -0.83908830142E+01  0.76481705223E+02  0.22688316538E+03  0.23957426590E+03  0.00000000000E+00 0. -1.
</event>
<event>
 4    1  0.2229986E+005  0.2301241E+02  0.7546771E-02  0.1492342E+00
          2   -1    0    0  502    0  0.00000000000E+00  0.00000000000E+00  0.52575282099E+03  0.52575282099E+03  0.00000000000E+00 0.  1.
         21   -1    0    0  503  502 -0.00000000000E+00 -0.00000000000E+00 -0.11500957005E+01  0.11500957005E+01  0.00000000000E+00 0. -1.
          2    1    1    2  501    0 -0.12795372727E+02 -0.19127195073E+02  0.35514412326E+03  0.35588891447E+03  0.00000000000E+00 0.  1.
         21    1    1    2  503  501  0.12795372727E+02  0.19127195073E+02  0.16945860202E+03  0.17101400222E+03  0.00000000000E+00 0. -1.
</event>
<event>
 4    1  0.2229986E+005  0.2293543E+02  0.7546771E-02  0.1493311E+00
          2   -1    0    0  502    0  0.00000000000E+00  0.00000000000E+00  0.12814494438E+04  0.12814494438E+04  0.00000000000E+00 0.  1.
         21   -1    0    0  503  502 -0.00000000000E+00 -0.00000000000E+00 -0.18091396032E+02  0.18091396032E+02  0.00000000000E+00 0.  1.
          2    1    1    2  501    0 -0.22156915809E+02 -0.59249312923E+01  0.12740354064E+04  0.12742418336E+04  0.00000000000E+00 0.  1.
         21    1    1    2  503  501  0.22156915809E+02  0.59249312923E+01 -0.10677358633E+02  0.25299006233E+02  0.00000000000E+00 0.  1.
</event>
<event>
 4    1  0.2229986E+005  0.2350710E+02  0.7546771E-02  0.1486227E+00
          2   -1    0    0  502    0  0.00000000000E+00  0.00000000000E+00  0.58099981713E+03  0.58099981713E+03  0.00000000000E+00 0. -1.
         21   -1    0    0  503  502 -0.00000000000E+00 -0.00000000000E+00 -0.22180255319E+01  0.22180255319E+01  0.00000000000E+00 0. -1.
          2    1    1    2  501    0  0.20509961586E+02 -0.11485868404E+02  0.50978228511E+03  0.51032397740E+03  0.00000000000E+00 0. -1.
         21    1    1    2  503  501 -0.20509961586E+02  0.11485868404E+02  0.68999506491E+02  0.72893865265E+02  0.00000000000E+00 0. -1.
</event>
<event>
 4    1  0.2229986E+005  0.5237991E+02  0.7546771E-02  0.1288171E+00
          2   -1    0    0  502    0  0.00000000000E+00  0.00000000000E+00  0.14933304481E+03  0.14933304481E+03  0.00000000000E+00 0. -1.
         21   -1    0    0  503  502 -0.00000000000E+00 -0.00000000000E+00 -0.16024288424E+03  0.16024288424E+03  0.00000000000E+00 0. -1.
          2    1    1    2  501    0 -0.50510526188E+02  0.13868743460E+02  0.14018932821E+03  0.14965528071E+03  0.00000000000E+00 0. -1.
         21    1    1    2  503  501  0.50510526188E+02 -0.13868743460E+02 -0.15109916764E+03  0.15992064833E+03  0.00000000000E+00 0. -1.
</event>
<event>
 4    1  0.2229986E+005  0.2909550E+02  0.7546771E-02  0.1427623E+00
          2   -1    0    0  502    0  0.00000000000E+00  0.00000000000E+00  0.24994501513E+02  0.24994501513E+02  0.00000000000E+00 0.  1.
         21   -1    0    0  503  502 -0.00000000000E+00 -0.00000000000E+00 -0.64572105845E+03  0.64572105845E+03  0.00000000000E+00 0. -1.
          2    1    1    2  501    0 -0.16301055874E+02 -0.24100280889E+02  0.16080948935E+02  0.33243719410E+02  0.00000000000E+00 0.  1.
         21    1    1    2  503  501  0.16301055874E+02  0.24100280889E+02 -0.63680750587E+03  0.63747184055E+03  0.00000000000E+00 0. -1.
</event>
<event>
 4    1  0.2229986E+005  0.2183887E+02  0.7546771E-02  0.1507617E+00
          2   -1    0    0  503    0  0.00000000000E+00  0.00000000000E+00  0.11405775849E+03  0.11405775849E+03  0.00000000000E+00 0. -1.
         21   -1    0    0  501  502 -0.00000000000E+00 -0.00000000000E+00 -0.35279192450E+02  0.35279192450E+02  0.00000000000E+00 0.  1.
          2    1    1    2  501    0 -0.19760054871E+02  0.92992783144E+01  0.10949312411E+03  0.11164981224E+03  0.00000000000E+00 0. -1.
         21    1    1    2  503  502  0.19760054871E+02 -0.92992783144E+01 -0.30714558072E+02  0.37687138698E+02  0.00000000000E+00 0.  1.
</event>
<event>
 4    1  0.2229986E+005  0.2200160E+02  0.7546771E-02  0.1505431E+00
          2   -1    0    0  502    0  0.00000000000E+00  0.00000000000E+00  0.11176886974E+04  0.11176886974E+04  0.00000000000E+00 0. -1.
         21   -1    0    0  503  502 -0.00000000000E+00 -0.00000000000E+00 -0.39059357146E+01  0.39059357146E+01  0.00000000000E+00 0.  1.
          2    1    1    2  501    0  0.21731322283E+02 -0.34380552383E+01  0.10856841674E+04  0.10859070780E+04  0.00000000000E+00 0. -1.
         21    1    1    2  503  501 -0.21731322283E+02  0.34380552383E+01  0.28098594215E+02  0.35687555098E+02  0.00000000000E+00 0.  1.
</event>
<event>
 4    1  0.2229986E+005  0.2149654E+02  0.7546771E-02  0.1512292E+00
          2   -1    0    0  503    0  0.00000000000E+00  0.00000000000E+00  0.89352058890E+03  0.89352058890E+03  0.00000000000E+00 0.  1.
         21   -1    0    0  501  502 -0.00000000000E+00 -0.00000000000E+00 -0.54294979400E+00  0.54294979400E+00  0.00000000000E+00 0.  1.
          2    1    1    2  501    0  0.84449236281E+01  0.19768270278E+02  0.54389932499E+03  0.54432396325E+03  0.00000000000E+00 0.  1.
         21    1    1    2  503  502 -0.84449236281E+01 -0.19768270278E+02  0.34907831412E+03  0.34973957544E+03  0.00000000000E+00 0.  1.
</event>
<event>
 4    1  0.2229986E+005  0.2195953E+02  0.7546771E-02  0.1505994E+00
          2   -1    0    0  502    0  0.00000000000E+00  0.00000000000E+00  0.99991425625E+03  0.99991425625E+03  0.00000000000E+00 0. -1.
         21   -1    0    0  503  502 -0.00000000000E+00 -0.00000000000E+00 -0.20496461384E+01  0.20496461384E+01  0.00000000000E+00 0. -1.
          2    1    1    2  501    0  0.17727499022E+02 -0.12959805962E+02  0.93702936582E+03  0.93728664410E+03  0.00000000000E+00 0. -1.
         21    1    1    2  503  501 -0.17727499022E+02  0.12959805962E+02  0.60835244290E+02  0.64677258291E+02  0.00000000000E+00 0. -1.
</event>
<event>
 4    1  0.2229986E+005  0.3361360E+02  0.7546771E-02  0.1390581E+00
          2   -1    0    0  503    0  0.00000000000E+00  0.00000000000E+00  0.44338919383E+03  0.44338919383E+03  0.00000000000E+00 0.  1.
         21   -1    0    0  501  502 -0.00000000000E+00 -0.00000000000E+00 -0.63279776339E+01  0.63279776339E+01  0.00000000000E+00 0.  1.
          2    1    1    2  501    0 -0.65112314503E+01 -0.32976931850E+02  0.39231319908E+03  0.39375058138E+03  0.00000000000E+00 0.  1.
         21    1    1    2  503  502  0.65112314503E+01  0.32976931850E+02  0.44748017119E+02  0.55966590081E+02  0.00000000000E+00 0.  1.
</event>
<event>
 4    1  0.2229986E+005  0.2295750E+02  0.7546771E-02  0.1493032E+00
          2   -1    0    0  503    0  0.00000000000E+00  0.00000000000E+00  0.21126406552E+04  0.21126406552E+04  0.00000000000E+00 0.  1.
         21   -1    0    0  501  502 -0.00000000000E+00 -0.00000000000E+00 -0.25140120205E+00  0.25140120205E+00  0.00000000000E+00 0.  1.
          2    1    1    2  501    0  0.22124402415E+02 -0.61284395944E+01  0.96367543881E+03  0.96394885669E+03  0.00000000000E+00 0.  1.
         21    1    1    2  503  502 -0.22124402415E+02  0.61284395944E+01  0.11487138152E+04  0.11489431997E+04  0.00000000000E+00 0.  1.
</event>
<event>
 4    1  0.2229986E+005  0.2203329E+02  0.7546771E-02  0.1505007E+00
          2   -1    0    0  503    0  0.00000000000E+00  0.00000000000E+00  0.70365172459E+02  0.70365172459E+02  0.00000000000E+00 0.  1.
         21   -1    0    0  501  502 -0.00000000000E+00 -0.00000000000E+00 -0.74923220634E+01  0.74923220634E+01  0.00000000000E+00 0.  1.
          2    1    1    2  501    0  0.21585446594E+02 -0.44197721968E+01  0.42389127339E+02  0.47773465517E+02  0.00000000000E+00 0.  1.
         21    1    1    2  503  502 -0.21585446594E+02  0.44197721968E+01  0.20483723057E+02  0.30084029006E+02  0.00000000000E+00 0.  1.
</event>
<event>
 4    1  0.2229986E+005  0.3261979E+02  0.7546771E-02  0.1398116E+00
          2   -1    0    0  503    0  0.00000000000E+00  0.00000000000E+00  0.55824904784E+01  0.55824904784E+01  0.00000000000E+00 0. -1.
         21   -1    0    0  501  502 -0.00000000000E+00 -0.00000000000E+00 -0.29178378855E+03  0.29178378855E+03  0.00000000000E+00 0.  1.
          2    1    1    2  501    0  0.22002514855E+02 -0.24081946050E+02 -0.55546685997E+02  0.64416497194E+02  0.00000000000E+00 0. -1.
         21    1    1    2  503  502 -0.22002514855E+02  0.24081946050E+02 -0.23065461207E+03  0.23294978183E+03  0.00000000000E+00 0.  1.
</event>
<event>
 4    1  0.2229986E+005  0.2137015E+02  0.7546771E-02  0.1514045E+00
          2   -1    0    0  502    0  0.00000000000E+00  0.00000000000E+00  0.54243475359E+03  0.54243475359E+03  0.00000000000E+00 0.  1.
         21   -1    0    0  503  502 -0.00000000000E+00 -0.00000000000E+00 -0.23967548255E+01  0.23967548255E+01  0.00000000000E+00 0.  1.
          2    1    1    2  501    0  0.14127509204E+02  0.16034238155E+02  0.48943253163E+03  0.48989885316E+03  0.00000000000E+00 0.  1.
         21    1    1    2  503  501 -0.14127509204E+02 -0.16034238155E+02  0.50605467133E+02  0.54932655255E+02  0.00000000000E+00 0.  1.
</event>
<event>
 4    1  0.2229986E+005  0.2119945E+02  0.7546771E-02  0.1516436E+00
          2   -1    0    0  502    0  0.00000000000E+00  0.00000000000E+00  0.80228042767E+03  0.80228042767E+03  0.00000000000E+00 0.  1.
         21   -1    0    0  503  502 -0.00000000000E+00 -0.00000000000E+00 -0.12495815618E+02  0.12495815618E+02  0.00000000000E+00 0. -1.
          2    1    1    2  501    0  0.18894368327E+02 -0.96135097312E+01  0.79304434201E+03  0.79332764046E+03  0.00000000000E+00 0.  1.
         21    1    1    2  503  501 -0.18894368327E+02  0.96135097312E+01 -0.32597299592E+01  0.21448602827E+02  0.00000000000E+00 0. -1.
</event>
<event>
 4    1  0.2229986E+005  0.2132362E+02  0.7546771E-02  0.1514694E+00
          2   -1    0    0  502    0  0.00000000000E+00  0.00000000000E+00  0.52588518375E+03  0.52588518375E+03  0.00000000000E+00 0.  1.
         21   -1    0    0  503  502 -0.00000000000E+00 -0.00000000000E+00 -0.23395943811E+03  0.23395943811E+03  0.00000000000E+00 0.  1.
          2    1    1    2  501    0 -0.86597221469E+01 -0.19486049326E+02  0.52518250454E+03  0.52561522047E+03  0.00000000000E+00 0.  1.
         21    1    1    2  503  501  0.86597221469E+01  0.19486049326E+02 -0.23325675890E+03  0.23422940139E+03  0.00000000000E+00 0.  1.
</event>
<event>
 4    1  0.2229986E+005  0.2143301E+02  0.7546771E-02  0.1513172E+00
          2   -1    0    0  503    0  0.00000000000E+00  0.00000000000E+00  0.23668184878E+03  0.23668184878E+03  0.00000000000E+00 0. -1.
         21   -1    0    0  501  502 -0.00000000000E+00 -0.00000000000E+00 -0.64611895038E+01  0.64611895038E+01  0.00000000000E+00 0.  1.
          2    1    1    2  501    0  0.12991498580E+01  0.21393595588E+02  0.21679585834E+03  0.21785274365E+03  0.00000000000E+00 0. -1.
         21    1    1    2  503  502 -0.12991498580E+01 -0.21393595588E+02  0.13424800938E+02  0.25290294635E+02  0.00000000000E+00 0.  1.
</event>
<event>
 4    1  0.2229986E+005  0.2973103E+02  0.7546771E-02  0.1421948E+00
          2   -1    0    0  503    0  0.00000000000E+00  0.00000000000E+00  0.14022814758E+02  0.14022814758E+02  0.00000000000E+00 0.  1.
         21   -1    0    0  501  502 -0.00000000000E+00 -0.00000000000E+00 -0.19839841632E+03  0.19839841632E+03  0.00000000000E+00 0. -1.
          2    1    1    2  501    0 -0.21231231629E+02  0.20812707172E+02 -0.44576633881E+01  0.30063345443E+02  0.00000000000E+00 0.  1.
         21    1    1    2  503  502  0.21231231629E+02 -0.20812707172E+02 -0.17991793818E+03  0.18235788564E+03  0.00000000000E+00 0. -1.
</event>
<event>
 4    1  0.2229986E+005  0.4917896E+02  0.7546771E-02  0.1301772E+00
          2   -1    0    0  503    0  0.00000000000E+00  0.00000000000E+00  0.14949924590E+03  0.14949924590E+03  0.00000000000E+00 0. -1.
         21   -1    0    0  501  502 -0.00000000000E+00 -0.00000000000E+00 -0.36532418351E+03  0.36532418351E+03  0.00000000000E+00 0.  1.
          2    1    1    2  501    0  0.39222350761E+02 -0.29667779271E+02  0.14373517367E+03  0.15191566765E+03  0.00000000000E+00 0. -1.
         21    1    1    2  503  502 -0.39222350761E+02  0.29667779271E+02 -0.35956011128E+03  0.36290776177E+03  0.00000000000E+00 0.  1.
</event>
<event>
 4    1  0.2229986E+005  0.3036658E+02  0.7546771E-02  0.1416437E+00
          2   -1    0    0  502    0  0.00000000000E+00  0.00000000000E+00  0.42421636796E+02  0.42421636796E+02  0.00000000000E+00 0. -1.
         21   -1    0    0  503  502 -0.00000000000E+00 -0.00000000000E+00 -0.42021675834E+02  0.42021675834E+02  0.00000000000E+00 0. -1.
          2    1    1    2  501    0 -0.29949449952E+02 -0.50159629030E+01  0.29534569932E+02  0.42360597935E+02  0.00000000000E+00 0. -1.
         21    1    1    2  503  501  0.29949449952E+02  0.50159629030E+01 -0.29134608971E+02  0.42082714696E+02  0.00000000000E+00 0. -1.
</event>
<event>
 4    1  0.2229986E+005  0.2225589E+02  0.7546771E-02  0.1502059E+00
          2   -1    0    0  503    0  0.00000000000E+00  0.00000000000E+00  0.66379842145E+03  0.66379842145E+03  0.00000000000E+00 0.  1.
         21   -1    0    0  501  502 -0.00000000000E+00 -0.00000000000E+00 -0.20624352878E+02  0.20624352878E+02  0.00000000000E+00 0.  1.
          2    1    1    2  501    0  0.64899602667E+00  0.22246426811E+02  0.65755071618E+03  0.65792725210E+03  0.00000000000E+00 0.  1.
         21    1    1    2  503  502 -0.64899602667E+00 -0.22246426811E+02 -0.14376647611E+02  0.26495522230E+02  0.00000000000E+00 0.  1.
</event>
<event>
 4    1  0.2229986E+005  0.2074705E+02  0.7546771E-02  0.1522907E+00
          2   -1    0    0  502    0  0.00000000000E+00  0.00000000000E+00  0.94814565758E+01  0.94814565758E+01  0.00000000000E+00 0. -1.
         21   -1    0    0  503  502 -0.00000000000E+00 -0.00000000000E+00 -0.21537520993E+03  0.21537520993E+03  0.00000000000E+00 0.  1.
          2    1    1    2  501    0  0.18202103953E+02  0.99560736589E+01 -0.30681142783E+01  0.20972680235E+02  0.00000000000E+00 0. -1.
         21    1    1    2  503  501 -0.18202103953E+02 -0.99560736589E+01 -0.20282563908E+03  0.20388398627E+03  0.00000000000E+00 0.  1.
</event>
<event>
 4    1  0.2229986E+005  0.2914465E+02  0.7546771E-02  0.1427178E+00
          2   -1    0    0  503    0  0.00000000000E+00  0.00000000000E+00  0.31663607870E+01  0.31663607870E+01  0.00000000000E+00 0. -1.
         21   -1    0    0  501  502 -0.00000000000E+00 -0.00000000000E+00 -0.51715765955E+03  0.51715765955E+03  0.00000000000E+00 0. -1.
          2    1    1    2  501    0  0.50737623070E+01 -0.28699605567E+02 -0.76510230274E+02  0.81873229814E+02  0.00000000000E+00 0. -1.
         21    1    1    2  503  502 -0.50737623070E+01  0.28699605567E+02 -0.43748106849E+03  0.43845079052E+03  0.00000000000E+00 0. -1.
</event>
<event>
 4    1  0.2229986E+005  0.2713135E+02  0.7546771E-02  0.1446293E+00
          2   -1    0    0  503    0  0.00000000000E+00  0.00000000000E+00  0.77716057788E+03  0.77716057788E+03  0.00000000000E+00 0. -1.
         21   -1    0    0  501  502 -0.00000000000E+00 -0.00000000000E+00 -0.94717898818E+00  0.94717898818E+00  0.00000000000E+00 0. -1.
          2    1    1    2  501    0  0.23892235108E+02  0.12855777882E+02  0.38788159511E+03  0.38882932213E+03  0.00000000000E+00 0. -1.
         21    1    1    2  503  502 -0.23892235108E+02 -0.12855777882E+02  0.38833180379E+03  0.38927843475E+03  0.00000000000E+00 0. -1.
</event>
<event>
 4    1  0.2229986E+005  0.3718258E+02  0.7546771E-02  0.1365837E+00
          2   -1    0    0  502    0  0.00000000000E+00  0.00000000000E+00  0.29030213781E+03  0.29030213781E+03  0.00000000000E+00 0.  1.
         21   -1    0    0  503  502 -0.00000000000E+00 -0.00000000000E+00 -0.27274573854E+03  0.27274573854E+03  0.00000000000E+00 0. -1.
          2    1    1    2  501    0 -0.20690001015E+02 -0.30894471016E+02  0.28783345902E+03  0.29022516192E+03  0.00000000000E+00 0.  1.
         21    1    1    2  503  501  0.20690001015E+02  0.30894471016E+02 -0.27027705975E+03  0.27282271443E+03  0.00000000000E+00 0. -1.
</event>
<event>
 4    1  0.2229986E+005  0.2684504E+02  0.7546771E-02  0.1449171E+00
          2   -1    0    0  502    0  0.00000000000E+00  0.00000000000E+00  0.10716176736E+04  0.10716176736E+04  0.00000000000E+00 0. -1.
         21   -1    0    0  503  502 -0.00000000000E+00 -0.00000000000E+00 -0.68570975628E+00  0.68570975628E+00  0.00000000000E+00 0. -1.
          2    1    1    2  501    0 -0.63316027750E+00  0.26837575002E+02  0.60989898631E+03  0.61048950018E+03  0.00000000000E+00 0. -1.
         21    1    1    2  503  501  0.63316027750E+00 -0.26837575002E+02  0.46103297757E+03  0.46181388322E+03  0.00000000000E+00 0. -1.
</event>
<event>
 4    1  0.2229986E+005  0.2048430E+02  0.7546771E-02  0.1526757E+00
          2   -1    0    0  502    0  0.00000000000E+00  0.00000000000E+00  0.10364748213E+03  0.10364748213E+03  0.00000000000E+00 0.  1.
         21   -1    0    0  503  502 -0.00000000000E+00 -0.00000000000E+00 -0.12274102846E+02  0.12274102846E+02  0.00000000000E+00 0. -1.
          2    1    1    2  501    0 -0.19961593738E+02 -0.45979731206E+01  0.93135564103E+02  0.95361626885E+02  0.00000000000E+00 0.  1.
         21    1    1    2  503  501  0.19961593738E+02  0.45979731206E+01 -0.17621848192E+01  0.20559958091E+02  0.00000000000E+00 0. -1.
</event>
<event>
 4    1  0.2229986E+005  0.3487831E+02  0.7546771E-02  0.1381421E+00
          2   -1    0    0  503    0  0.00000000000E+00  0.00000000000E+00  0.31911656707E+03  0.31911656707E+03  0.00000000000E+00 0. -1.
         21   -1    0    0  501  502 -0.00000000000E+00 -0.00000000000E+00 -0.41128709719E+02  0.41128709719E+02  0.00000000000E+00 0.  1.
          2    1    1    2  501    0  0.23840314358E+02 -0.25458516702E+02  0.31056615475E+03  0.31251853247E+03  0.00000000000E+00 0. -1.
         21    1    1    2  503  502 -0.23840314358E+02  0.25458516702E+02 -0.32578297402E+02  0.47726744316E+02  0.00000000000E+00 0.  1.
</event>
<event>
 4    1  0.2229986E+005  0.2112938E+02  0.7546771E-02  0.1517426E+00
          2   -1    0    0  503    0  0.00000000000E+00  0.00000000000E+00  0.82349145215E+02  0.82349145215E+02  0.00000000000E+00 0.  1.
         21   -1    0    0  501  502 -0.00000000000E+00 -0.00000000000E+00 -0.12823826265E+02  0.12823826265E+02  0.00000000000E+00 0.  1.
          2    1    1    2  501    0 -0.15000986076E+02 -0.14880228742E+02  0.70917025367E+02  0.73997805897E+02  0.00000000000E+00 0.  1.
         21    1    1    2  503  502  0.15000986076E+02  0.14880228742E+02 -0.13917064174E+01  0.21175165582E+02  0.00000000000E+00 0.  1.
</event>
<event>
 4    1  0.2229986E+005  0.2111522E+02  0.7546771E-02  0.1517626E+00
          2   -1    0    0  502    0  0.00000000000E+00  0.00000000000E+00  0.59950238712E+03  0.59950238712E+03  0.00000000000E+00 0.  1.
         21   -1    0    0  503  502 -0.00000000000E+00 -0.00000000000E+00 -0.46618322531E+02  0.46618322531E+02  0.00000000000E+00 0.  1.
          2    1    1    2  501    0 -0.76460062132E+01 -0.19682253907E+02  0.59691512827E+03  0.59728847543E+03  0.00000000000E+00 0.  1.
         21    1    1    2  503  501  0.76460062132E+01  0.19682253907E+02 -0.44031063680E+02  0.48832234218E+02  0.00000000000E+00 0.  1.
</event>
<event>
 4    1  0.2229986E+005  0.2560005E+02  0.7546771E-02  0.1462201E+00
          2   -1    0    0  503    0  0.00000000000E+00  0.00000000000E+00  0.14295986450E+04  0.14295986450E+04  0.00000000000E+00 0.  1.
         21   -1    0    0  501  502 -0.00000000000E+00 -0.00000000000E+00 -0.62278980340E+00  0.62278980340E+00  0.00000000000E+00 0.  1.
          2    1    1    2  501    0  0.22967781648E+02  0.11306801822E+02  0.10818614686E+04  0.10821643129E+04  0.00000000000E+00 0.  1.
         21    1    1    2  503  502 -0.22967781648E+02 -0.11306801822E+02  0.34711438658E+03  0.34805712194E+03  0.00000000000E+00 0.  1.
</event>
<event>
 4    1  0.2229986E+005  0.2488843E+02  0.7546771E-02  0.1470055E+00
          2   -1    0    0  503    0  0.00000000000E+00  0.00000000000E+00  0.71158052982E+03  0.71158052982E+03  0.00000000000E+00 0. -1.
         21   -1    0    0  501  502 -0.00000000000E+00 -0.00000000000E+00 -0.22375459330E+01  0.22375459330E+01  0.00000000000E+00 0. -1.
          2    1    1    2  501    0 -0.63294376710E+00  0.24880384887E+02  0.63364462420E+03  0.63413322255E+03  0.00000000000E+00 0. -1.
         21    1    1    2  503  502  0.63294376710E+00 -0.24880384887E+02  0.75698359687E+02  0.79684853198E+02  0.00000000000E+00 0. -1.
</event>
<event>
 4    1  0.2229986E+005  0.2912688E+02  0.7546771E-02  0.1427339E+00
          2   -1    0    0  503    0  0.00000000000E+00  0.00000000000E+00  0.20454455649E+03  0.20454455649E+03  0.00000000000E+00 0.  1.
         21   -1    0    0  501  502 -0.00000000000E+00 -0.00000000000E+00 -0.40250757974E+02  0.40250757974E+02  0.00000000000E+00 0.  1.
          2    1    1    2  501    0 -0.24902923161E+02 -0.15106928426E+02  0.19806693250E+03  0.20019711441E+03  0.00000000000E+00 0.  1.
         21    1    1    2  503  502  0.24902923161E+02  0.15106928426E+02 -0.33773133987E+02  0.44598200050E+02  0.00000000000E+00 0.  1.
</event>
<event>
 4    1  0.2229986E+005  0.2163692E+02  0.7546771E-02  0.1510362E+00
          2   -1    0    0  502    0  0.00000000000E+00  0.00000000000E+00  0.91115814019E+02  0.91115814019E+02  0.00000000000E+00 0.  1.
         21   -1    0    0  503  502 -0.00000000000E+00 -0.00000000000E+00 -0.40248016015E+03  0.40248016015E+03  0.00000000000E+00 0.  1.
          2    1    1    2  501    0 -0.21629561195E+02 -0.56436243110E+00  0.89535450145E+02  0.92112720376E+02  0.00000000000E+00 0.  1.
         21    1    1    2  503  501  0.21629561195E+02  0.56436243110E+00 -0.40089979627E+03  0.40148325379E+03  0.00000000000E+00 0.  1.
</event>
<event>
 4    1  0.2229986E+005  0.2136275E+02  0.7546771E-02  0.1514148E+00
          2   -1    0    0  502    0  0.00000000000E+00  0.00000000000E+00  0.72245022030E+03  0.72245022030E+03  0.00000000000E+00 0.  1.
         21   -1    0    0  503  502 -0.00000000000E+00 -0.00000000000E+00 -0.14501383960E+01  0.14501383960E+01  0.00000000000E+00 0.  1.
          2    1    1    2  501    0  0.75602602477E+01 -0.19980227854E+02  0.63241857965E+03  0.63277928769E+03  0.00000000000E+00 0.  1.
         21    1    1    2  503  501 -0.75602602477E+01  0.19980227854E+02  0.88581502250E+02  0.91121071005E+02  0.00000000000E+00 0.  1.
</event>
<event>
 4    1  0.2229986E+005  0.2253515E+02  0.7546771E-02  0.1498419E+00
          2   -1    0    0  503    0  0.00000000000E+00  0.00000000000E+00  0.61344055594E+03  0.61344055594E+03  0.00000000000E+00 0. -1.
         21   -1    0    0  501  502 -0.00000000000E+00 -0.00000000000E+00 -0.17749950669E+01  0.17749950669E+01  0.00000000000E+00 0. -1.
          2    1    1    2  501    0 -0.22332996676E+02 -0.30116794340E+01  0.53053554149E+03  0.53101392989E+03  0.00000000000E+00 0. -1.
         21    1    1    2  503  502  0.22332996676E+02  0.30116794340E+01  0.81130019383E+02  0.84201621117E+02  0.00000000000E+00 0. -1.
</event>
<event>
 4    1  0.2229986E+005  0.3560436E+02  0.7546771E-02  0.1376363E+00
          2   -1    0    0  503    0  0.00000000000E+00  0.00000000000E+00  0.18069580708E+04  0.18069580708E+04  0.00000000000E+00 0. -1.
         21   -1    0    0  501  502 -0.00000000000E+00 -0.00000000000E+00 -0.27887930567E+01  0.27887930567E+01  0.00000000000E+00 0.  1.
          2    1    1    2  501    0 -0.31820239232E+02 -0.15973195329E+02  0.16849124635E+04  0.16852886044E+04  0.00000000000E+00 0. -1.
         21    1    1    2  503  502  0.31820239232E+02  0.15973195329E+02  0.11925681424E+03  0.12445825941E+03  0.00000000000E+00 0.  1.
</event>
<event>
 4    1  0.2229986E+005  0.3054012E+02  0.7546771E-02  0.1414960E+00
          2   -1    0    0  503    0  0.00000000000E+00  0.00000000000E+00  0.19632709128E+04  0.19632709128E+04  0.00000000000E+00 0.  1.
         21   -1    0    0  501  502 -0.00000000000E+00 -0.00000000000E+00 -0.28022528215E+02  0.28022528215E+02  0.00000000000E+00 0. -1.
          2    1    1    2  501    0  0.25238073309E+02  0.17197057279E+02  0.19547950916E+04  0.19550336440E+04  0.00000000000E+00 0.  1.
         21    1    1    2  503  502 -0.25238073309E+02 -0.17197057279E+02 -0.19546707009E+02  0.36259796998E+02  0.00000000000E+00 0. -1.
</event>
<event>
 4    1  0.2229986E+005  0.2364571E+02  0.7546771E-02  0.1484545E+00
          2   -1    0    0  503    0  0.00000000000E+00  0.00000000000E+00  0.11717302320E+03  0.11717302320E+03  0.00000000000E+00 0. -1.
         21   -1    0    0  501  502 -0.00000000000E+00 -0.00000000000E+00 -0.16599052290E+02  0.16599052290E+02  0.00000000000E+00 0. -1.
          2    1    1    2  501    0  0.22583002684E+02  0.70091169126E+01  0.10674645226E+03  0.10933400569E+03  0.00000000000E+00 0. -1.
         21    1    1    2  503  502 -0.22583002684E+02 -0.70091169126E+01 -0.61724813410E+01  0.24438069809E+02  0.00000000000E+00 0. -1.
</event>
<event>
 4    1  0.2229986E+005  0.2019815E+02  0.7546771E-02  0.1531028E+00
          2   -1    0    0  503    0  0.00000000000E+00  0.00000000000E+00  0.28119339742E+03  0.28119339742E+03  0.00000000000E+00 0.  1.
         21   -1    0    0  501  502 -0.00000000000E+00 -0.00000000000E+00 -0.12790230432E+02  0.12790230432E+02  0.00000000000E+00 0. -1.
          2    1    1    2  501    0  0.16077614833E+02 -0.12226016580E+02  0.27260567150E+03  0.27335291715E+03  0.00000000000E+00 0.  1.
         21    1    1    2  503  502 -0.16077614833E+02  0.12226016580E+02 -0.42025045073E+01  0.20630710707E+02  0.00000000000E+00 0. -1.
</event>
<event>
 4    1  0.2229986E+005  0.2246392E+02  0.7546771E-02  0.1499342E+00
          2   -1    0    0  503    0  0.00000000000E+00  0.00000000000E+00  0.41228027852E+03  0.41228027852E+03  0.00000000000E+00 0.  1.
         21   -1    0    0  501  502 -0.00000000000E+00 -0.00000000000E+00 -0.20450264059E+01  0.20450264059E+01  0.00000000000E+00 0. -1.
          2    1    1    2  501    0 -0.93282305141E+01 -0.20435548858E+02  0.33638077638E+03  0.33713002575E+03  0.00000000000E+00 0.  1.
         21    1    1    2  503  502  0.93282305141E+01  0.20435548858E+02  0.73854475730E+02  0.77195279176E+02  0.00000000000E+00 0. -1.
</event>
<event>
 4    1  0.2229986E+005  0.6767859E+02  0.7546771E-02  0.1235761E+00
          2   -1    0    0  502    0  0.00000000000E+00  0.00000000000E+00  0.13962818964E+04  0.13962818964E+04  0.00000000000E+00 0.  1.
         21   -1    0    0  503  502 -0.00000000000E+00 -0.00000000000E+00 -0.41514298828E+02  0.41514298828E+02  0.00000000000E+00 0. -1.
          2    1    1    2  501    0 -0.56045774795E+01 -0.67446133024E+02  0.13672941422E+04  0.13689681016E+04  0.00000000000E+00 0.  1.
         21    1    1    2  503  501  0.56045774795E+01  0.67446133024E+02 -0.12526544574E+02  0.68828093592E+02  0.00000000000E+00 0. -1.
</event>
<event>
 4    1  0.2229986E+005  0.4286506E+02  0.7546771E-02  0.1332468E+00
          2   -1    0    0  503    0  0.00000000000E+00  0.00000000000E+00  0.14936438553E+04  0.14936438553E+04  0.00000000000E+00 0. -1.
         21   -1    0    0  501  502 -0.00000000000E+00 -0.00000000000E+00 -0.17785312152E+01  0.17785312152E+01  0.00000000000E+00 0.  1.
          2    1    1    2  501    0 -0.36971201983E+02 -0.21692025887E+02  0.11611183361E+04  0.11619092926E+04  0.00000000000E+00 0. -1.
         21    1    1    2  503  502  0.36971201983E+02  0.21692025887E+02  0.33074698799E+03  0.33351309393E+03  0.00000000000E+00 0.  1.
</event>
<event>
 4    1  0.2229986E+005  0.2574594E+02  0.7546771E-02  0.1460629E+00
          2   -1    0    0  502    0  0.00000000000E+00  0.00000000000E+00  0.48373162872E+02  0.48373162872E+02  0.00000000000E+00 0.  1.
         21   -1    0    0  503  502 -0.00000000000E+00 -0.00000000000E+00 -0.19777768443E+02  0.19777768443E+02  0.00000000000E+00 0.  1.
          2    1    1    2  501    0  0.36404183738E+01 -0.25487266972E+02  0.33182871426E+02  0.41999480708E+02  0.00000000000E+00 0.  1.
         21    1    1    2  503  501 -0.36404183738E+01  0.25487266972E+02 -0.45874769968E+01  0.26151450607E+02  0.00000000000E+00 0.  1.
</event>
<event>
 4    1  0.2229986E+005  0.3457705E+02  0.7546771E-02  0.1383561E+00
          2   -1    0    0  503    0  0.00000000000E+00  0.00000000000E+00  0.90515621799E+03  0.90515621799E+03  0.00000000000E+00 0. -1.
         21   -1    0    0  501  502 -0.00000000000E+00 -0.00000000000E+00 -0.14603210703E+01  0.14603210703E+01  0.00000000000E+00 0.  1.
          2    1    1    2  501    0  0.87601176445E+01  0.33448957707E+02  0.31175477787E+03  0.31366640553E+03  0.00000000000E+00 0. -1.
         21    1    1    2  503  502 -0.87601176445E+01 -0.33448957707E+02  0.59194111905E+03  0.59295013353E+03  0.00000000000E+00 0.  1.
</event>
<event>
 4    1  0.2229986E+005  0.4200504E+02  0.7546771E-02  0.1337121E+00
          2   -1    0    0  502    0  0.00000000000E+00  0.00000000000E+00  0.56996435401E+03  0.56996435401E+03  0.00000000000E+00 0. -1.
         21   -1    0    0  503  502 -0.00000000000E+00 -0.00000000000E+00 -0.51348313645E+01  0.51348313645E+01  0.00000000000E+00 0. -1.
          2    1    1    2  501    0 -0.29619957129E+02  0.29783908099E+02  0.46362184992E+03  0.46552082957E+03  0.00000000000E+00 0. -1.
         21    1    1    2  503  501  0.29619957129E+02 -0.29783908099E+02  0.10120767273E+03  0.10957835581E+03  0.00000000000E+00 0. -1.
</event>
<event>
 4    1  0.2229986E+005  0.2318475E+02  0.7546771E-02  0.1490191E+00
          2   -1    0    0  502    0  0.00000000000E+00  0.00000000000E+00  0.17325053218E+04  0.17325053218E+04  0.00000000000E+00 0.  1.
         21   -1    0    0  503  502 -0.00000000000E+00 -0.00000000000E+00 -0.10060152278E+02  0.10060152278E+02  0.00000000000E+00 0.  1.
          2    1    1    2  501    0 -0.95087133435E+01  0.21145139015E+02  0.17189645744E+04  0.17191209209E+04  0.00000000000E+00 0.  1.
         21    1    1    2  503  501  0.95087133435E+01 -0.21145139015E+02  0.34805951402E+01  0.23444553226E+02  0.00000000000E+00 0.  1.
</event>
<event>
 4    1  0.2229986E+005  0.2180386E+02  0.7546771E-02  0.1508090E+00
          2   -1    0    0  503    0  0.00000000000E+00  0.00000000000E+00  0.57937906853E+03  0.57937906853E+03  0.00000000000E+00 0. -1.
         21   -1    0    0  501  502 -0.00000000000E+00 -0.00000000000E+00 -0.53003401709E+02  0.53003401709E+02  0.00000000000E+00 0.  1.
          2    1    1    2  501    0  0.21300391005E+02 -0.46585205330E+01  0.57692203616E+03  0.57733391055E+03  0.00000000000E+00 0. -1.
         21    1    1    2  503  502 -0.21300391005E+02  0.46585205330E+01 -0.50546369336E+02  0.55048559686E+02  0.00000000000E+00 0.  1.
</event>
<event>
 4    1  0.2229986E+005  0.2395189E+02  0.7546771E-02  0.1480879E+00
          2   -1    0    0  503    0  0.00000000000E+00  0.00000000000E+00  0.49173818158E+03  0.49173818158E+03  0.00000000000E+00 0. -1.
         21   -1    0    0  501  502 -0.00000000000E+00 -0.00000000000E+00 -0.14853257523E+02  0.14853257523E+02  0.00000000000E+00 0. -1.
          2    1    1    2  501    0  0.90415756369E+01  0.22179785846E+02  0.48158709510E+03  0.48218235467E+03  0.00000000000E+00 0. -1.
         21    1    1    2  503  502 -0.90415756369E+01 -0.22179785846E+02 -0.47021710443E+01  0.24409084430E+02  0.00000000000E+00 0. -1.
</event>
<event>
 4    1  0.2229986E+005  0.2259003E+02  0.7546771E-02  0.1497711E+00
          2   -1    0    0  503    0  0.00000000000E+00  0.00000000000E+00  0.13190817429E+03  0.13190817429E+03  0.00000000000E+00 0.  1.
         21   -1    0    0  501  502 -0.00000000000E+00 -0.00000000000E+00 -0.25617645476E+02  0.25617645476E+02  0.00000000000E+00 0. -1.
          2    1    1    2  501    0 -0.19967436403E+02  0.10564616468E+02  0.12571766941E+03  0.12773113183E+03  0.00000000000E+00 0.  1.
         21    1    1    2  503  502  0.19967436403E+02 -0.10564616468E+02 -0.19427140592E+02  0.29794687936E+02  0.00000000000E+00 0. -1.
</event>
<event>
 4    1  0.2229986E+005  0.2304731E+02  0.7546771E-02  0.1491905E+00
          2   -1    0    0  503    0  0.00000000000E+00  0.00000000000E+00  0.67576401919E+01  0.67576401919E+01  0.00000000000E+00 0.  1.
         21   -1    0    0  501  502 -0.00000000000E+00 -0.00000000000E+00 -0.16470087925E+03  0.16470087925E+03  0.00000000000E+00 0. -1.
          2    1    1    2  501    0  0.20841313406E+02  0.98396158534E+01 -0.16988346127E+02  0.28631840471E+02  0.00000000000E+00 0.  1.
         21    1    1    2  503  502 -0.20841313406E+02 -0.98396158534E+01 -0.14095489293E+03  0.14282667897E+03  0.00000000000E+00 0. -1.
</event>
<event>
 4    1  0.2229986E+005  0.3370596E+02  0.7546771E-02  0.1389896E+00
          2   -1    0    0  502    0  0.00000000000E+00  0.00000000000E+00  0.31149175499E+03  0.31149175499E+03  0.00000000000E+00 0. -1.
         21   -1    0    0  503  502 -0.00000000000E+00 -0.00000000000E+00 -0.45363427629E+02  0.45363427629E+02  0.00000000000E+00 0. -1.
          2    1    1    2  501    0 -0.22142235612E+02  0.25412850780E+02  0.30416860435E+03  0.30603044204E+03  0.00000000000E+00 0. -1.
         21    1    1    2  503  501  0.22142235612E+02 -0.25412850780E+02 -0.38040276983E+02  0.50824740586E+02  0.00000000000E+00 0. -1.
</event>
<event>
 4    1  0.2299240E+005  0.2506762E+02  0.7546771E-02  0.1468048E+00
          2   -1    0    0  503    0  0.00000000000E+00  0.00000000000E+00  0.63664357244E+03  0.63664357244E+03  0.00000000000E+00 0.  1.
         21   -1    0    0  501  502 -0.00000000000E+00 -0.00000000000E+00 -0.45489291785E+03  0.45489291785E+03  0.00000000000E+00 0. -1.
          2    1    1    2  501    0 -0.19503601685E+02  0.15747865881E+02  0.63605114544E+03  0.63654492801E+03  0.00000000000E+00 0.  1.
         21    1    1    2  503  502  0.19503601685E+02 -0.15747865881E+02 -0.45430049085E+03  0.45499156228E+03  0.00000000000E+00 0. -1.
</event>
<event>
 4    1  0.2229986E+005  0.2464145E+02  0.7546771E-02  0.1472855E+00
          2   -1    0    0  502    0  0.00000000000E+00  0.00000000000E+00  0.34104488599E+03  0.34104488599E+03  0.00000000000E+00 0. -1.
         21   -1    0    0  503  502 -0.00000000000E+00 -0.00000000000E+00 -0.47345615950E+01  0.47345615950E+01  0.00000000000E+00 0.  1.
          2    1    1    2  501    0 -0.23694685056E+02 -0.67648290554E+01  0.30472204815E+03  0.30571674413E+03  0.00000000000E+00 0. -1.
         21    1    1    2  503  501  0.23694685056E+02  0.67648290554E+01  0.31588276243E+02  0.40062703454E+02  0.00000000000E+00 0.  1.
</event>
<event>
 4    1  0.2229986E+005  0.2642009E+02  0.7546771E-02  0.1453522E+00
          2   -1    0    0  503    0  0.00000000000E+00  0.00000000000E+00  0.23206617268E+02  0.23206617268E+02  0.00000000000E+00 0.  1.
         21   -1    0    0  501  502 -0.00000000000E+00 -0.00000000000E+00 -0.80850016435E+02  0.80850016435E+02  0.00000000000E+00 0.  1.
          2    1    1    2  501    0 -0.21154440038E+02 -0.15827538493E+02  0.12407944939E+02  0.29188669132E+02  0.00000000000E+00 0.  1.
         21    1    1    2  503  502  0.21154440038E+02  0.15827538493E+02 -0.70051344106E+02  0.74867964572E+02  0.00000000000E+00 0.  1.
</event>
<event>
 4    1  0.2229986E+005  0.4588689E+02  0.7546771E-02  0.1317063E+00
          2   -1    0    0  502    0  0.00000000000E+00  0.00000000000E+00  0.16119680897E+04  0.16119680897E+04  0.00000000000E+00 0.  1.
         21   -1    0    0  503  502 -0.00000000000E+00 -0.00000000000E+00 -0.72156409542E+01  0.72156409542E+01  0.00000000000E+00 0.  1.
          2    1    1    2  501    0  0.42538097919E+02  0.17208055079E+02  0.15350331197E+04  0.15357188172E+04  0.00000000000E+00 0.  1.
         21    1    1    2  503  501 -0.42538097919E+02 -0.17208055079E+02  0.69719329019E+02  0.83464913425E+02  0.00000000000E+00 0.  1.
</event>
<event>
 4    1  0.2229986E+005  0.3427646E+02  0.7546771E-02  0.1385722E+00
          2   -1    0    0  502    0  0.00000000000E+00  0.00000000000E+00  0.40792164609E+03  0.40792164609E+03  0.00000000000E+00 0. -1.
         21   -1    0    0  503  502 -0.00000000000E+00 -0.00000000000E+00 -0.32885723811E+01  0.32885723811E+01  0.00000000000E+00 0. -1.
          2    1    1    2  501    0 -0.92200198020E+01 -0.33013132311E+02  0.27477427660E+03  0.27690391610E+03  0.00000000000E+00 0. -1.
         21    1    1    2  503  501  0.92200198020E+01  0.33013132311E+02  0.12985879710E+03  0.13430630237E+03  0.00000000000E+00 0. -1.
</event>
<event>
 4    1  0.2229986E+005  0.4045780E+02  0.7546771E-02  0.1345824E+00
          2   -1    0    0  502    0  0.00000000000E+00  0.00000000000E+00  0.15241806165E+04  0.15241806165E+04  0.00000000000E+00 0. -1.
         21   -1    0    0  503  502 -0.00000000000E+00 -0.00000000000E+00 -0.17039817787E+02  0.17039817787E+02  0.00000000000E+00 0. -1.
          2    1    1    2  501    0  0.32982409580E+02  0.23430619239E+02  0.14995021510E+04  0.15000478439E+04  0.00000000000E+00 0. -1.
         21    1    1    2  503  501 -0.32982409580E+02 -0.23430619239E+02  0.76386477532E+01  0.41172590386E+02  0.00000000000E+00 0. -1.
</event>
<event>
 4    1  0.2229986E+005  0.2215749E+02  0.7546771E-02  0.1503357E+00
          2   -1    0    0  503    0  0.00000000000E+00  0.00000000000E+00  0.25415082240E+03  0.25415082240E+03  0.00000000000E+00 0.  1.
         21   -1    0    0  501  502 -0.00000000000E+00 -0.00000000000E+00 -0.56252710077E+02  0.56252710077E+02  0.00000000000E+00 0. -1.
          2    1    1    2  501    0 -0.78387264441E+01  0.20724594720E+02  0.25146269205E+03  0.25243700195E+03  0.00000000000E+00 0.  1.
         21    1    1    2  503  502  0.78387264441E+01 -0.20724594720E+02 -0.53564579735E+02  0.57966530522E+02  0.00000000000E+00 0. -1.
</event>
<event>
 4    1  0.2229986E+005  0.4798016E+02  0.7546771E-02  0.1307176E+00
          2   -1    0    0  503    0  0.00000000000E+00  0.00000000000E+00  0.26026670642E+02  0.26026670642E+02  0.00000000000E+00 0.  1.
         21   -1    0    0  501  502 -0.00000000000E+00 -0.00000000000E+00 -0.89736898308E+02  0.89736898308E+02  0.00000000000E+00 0. -1.
          2    1    1    2  501    0  0.34156798788E+02 -0.33695833625E+02 -0.24927432357E+02  0.54069150086E+02  0.00000000000E+00 0.  1.
         21    1    1    2  503  502 -0.34156798788E+02  0.33695833625E+02 -0.38782795308E+02  0.61694418864E+02  0.00000000000E+00 0. -1.
</event>
<event>
 4    1  0.2229986E+005  0.2887518E+02  0.7546771E-02  0.1429629E+00
          2   -1    0    0  503    0  0.00000000000E+00  0.00000000000E+00  0.51243264706E+03  0.51243264706E+03  0.00000000000E+00 0.  1.
         21   -1    0    0  501  502 -0.00000000000E+00 -0.00000000000E+00 -0.37848684865E+02  0.37848684865E+02  0.00000000000E+00 0.  1.
          2    1    1    2  501    0  0.28407322712E+02 -0.51768857537E+01  0.50645360957E+03  0.50727609325E+03  0.00000000000E+00 0.  1.
         21    1    1    2  503  502 -0.28407322712E+02  0.51768857537E+01 -0.31869647378E+02  0.43005238678E+02  0.00000000000E+00 0.  1.
</event>
<event>
 4    1  0.2229986E+005  0.2347629E+02  0.7546771E-02  0.1486602E+00
          2   -1    0    0  502    0  0.00000000000E+00  0.00000000000E+00  0.14027929452E+04  0.14027929452E+04  0.00000000000E+00 0. -1.
         21   -1    0    0  503  502 -0.00000000000E+00 -0.00000000000E+00 -0.18760291841E+01  0.18760291841E+01  0.00000000000E+00 0. -1.
          2    1    1    2  501    0  0.13627971041E+02 -0.19115817774E+02  0.13249346837E+04  0.13251426535E+04  0.00000000000E+00 0. -1.
         21    1    1    2  503  501 -0.13627971041E+02  0.19115817774E+02  0.75982232317E+02  0.79526320874E+02  0.00000000000E+00 0. -1.
</event>
<event>
 4    1  0.2229986E+005  0.2121041E+02  0.7546771E-02  0.1516282E+00
          2   -1    0    0  502    0  0.00000000000E+00  0.00000000000E+00  0.32812492727E+02  0.32812492727E+02  0.00000000000E+00 0. -1.
         21   -1    0    0  503  502 -0.00000000000E+00 -0.00000000000E+00 -0.15924588381E+02  0.15924588381E+02  0.00000000000E+00 0.  1.
          2    1    1    2  501    0 -0.26755969237E+01 -0.21040979371E+02  0.17530001761E+02  0.27516951022E+02  0.00000000000E+00 0. -1.
         21    1    1    2  503  501  0.26755969237E+01  0.21040979371E+02 -0.64209741602E+00  0.21220130086E+02  0.00000000000E+00 0.  1.
</event>
<event>
 4    1  0.2229986E+005  0.2429815E+02  0.7546771E-02  0.1476810E+00
          2   -1    0    0  503    0  0.00000000000E+00  0.00000000000E+00  0.91525874909E+03  0.91525874909E+03  0.00000000000E+00 0.  1.
         21   -1    0    0  501  502 -0.00000000000E+00 -0.00000000000E+00 -0.13077937144E+01  0.13077937144E+01  0.00000000000E+00 0.  1.
          2    1    1    2  501    0  0.63010827901E+01 -0.23466921345E+02  0.78321213349E+03  0.78358895225E+03  0.00000000000E+00 0.  1.
         21    1    1    2  503  502 -0.63010827901E+01  0.23466921345E+02  0.13073882189E+03  0.13297759056E+03  0.00000000000E+00 0.  1.
</event>
<event>
 4    1  0.2229986E+005  0.2022339E+02  0.7546771E-02  0.1530648E+00
          2   -1    0    0  503    0  0.00000000000E+00  0.00000000000E+00  0.13911893963E+03  0.13911893963E+03  0.00000000000E+00 0.  1.
         21   -1    0    0  501  502 -0.00000000000E+00 -0.00000000000E+00 -0.64865356711E+01  0.64865356711E+01  0.00000000000E+00 0.  1.
          2    1    1    2  501    0 -0.10283047873E+01  0.20197229462E+02  0.12014988825E+03  0.12183998168E+03  0.00000000000E+00 0.  1.
         21    1    1    2  503  502  0.10283047873E+01 -0.20197229462E+02  0.12482515705E+02  0.23765493619E+02  0.00000000000E+00 0.  1.
</event>
<event>
 4    1  0.2229986E+005  0.2332386E+02  0.7546771E-02  0.1488471E+00
          2   -1    0    0  502    0  0.00000000000E+00  0.00000000000E+00  0.36649396896E+03  0.36649396896E+03  0.00000000000E+00 0. -1.
         21   -1    0    0  503  502 -0.00000000000E+00 -0.00000000000E+00 -0.74010126497E+02  0.74010126497E+02  0.00000000000E+00 0. -1.
          2    1    1    2  501    0  0.84917527929E+01  0.21723086971E+02  0.36427410234E+03  0.36502003234E+03  0.00000000000E+00 0. -1.
         21    1    1    2  503  501 -0.84917527929E+01 -0.21723086971E+02 -0.71790259872E+02  0.75484063123E+02  0.00000000000E+00 0. -1.
</event>
<event>
 4    1  0.2229986E+005  0.2083485E+02  0.7546771E-02  0.1521636E+00
          2   -1    0    0  502    0  0.00000000000E+00  0.00000000000E+00  0.57921330270E+03  0.57921330270E+03  0.00000000000E+00 0. -1.
         21   -1    0    0  503  502 -0.00000000000E+00 -0.00000000000E+00 -0.30974218321E+02  0.30974218321E+02  0.00000000000E+00 0.  1.
          2    1    1    2  501    0 -0.20765160090E+02  0.17027023169E+01  0.57549969095E+03  0.57587671020E+03  0.00000000000E+00 0. -1.
         21    1    1    2  503  501  0.20765160090E+02 -0.17027023169E+01 -0.27260606569E+02  0.34310810822E+02  0.00000000000E+00 0.  1.
</event>
<event>
 4    1  0.2229986E+005  0.2056740E+02  0.7546771E-02  0.1525532E+00
          2   -1    0    0  502    0  0.00000000000E+00  0.00000000000E+00  0.66635641733E+01  0.66635641733E+01  0.00000000000E+00 0.  1.
         21   -1    0    0  503  502 -0.00000000000E+00 -0.00000000000E+00 -0.10142933520E+03  0.10142933520E+03  0.00000000000E+00 0.  1.
          2    1    1    2  501    0 -0.69750472538E+01 -0.19348556489E+02 -0.14325028347E+02  0.25064404233E+02  0.00000000000E+00 0.  1.
         21    1    1    2  503  501  0.69750472538E+01  0.19348556489E+02 -0.80440742685E+02  0.83028495145E+02  0.00000000000E+00 0.  1.
</event>
<event>
 4    1  0.2229986E+005  0.2439931E+02  0.7546771E-02  0.1475637E+00
          2   -1    0    0  503    0  0.00000000000E+00  0.00000000000E+00  0.46724869431E+03  0.46724869431E+03  0.00000000000E+00 0. -1.
         21   -1    0    0  501  502 -0.00000000000E+00 -0.00000000000E+00 -0.71489385069E+01  0.71489385069E+01  0.00000000000E+00 0. -1.
          2    1    1    2  501    0  0.51896956305E+01  0.23840998354E+02  0.44507506830E+03  0.44574335953E+03  0.00000000000E+00 0. -1.
         21    1    1    2  503  502 -0.51896956305E+01 -0.23840998354E+02  0.15024687511E+02  0.28654273295E+02  0.00000000000E+00 0. -1.
</event>
<event>
 4    1  0.2229986E+005  0.2179494E+02  0.7546771E-02  0.1508211E+00
          2   -1    0    0  503    0  0.00000000000E+00  0.00000000000E+00  0.90277279755E+03  0.90277279755E+03  0.00000000000E+00 0. -1.
         21   -1    0    0  501  502 -0.00000000000E+00 -0.00000000000E+00 -0.81974068153E+01  0.81974068153E+01  0.00000000000E+00 0. -1.
          2    1    1    2  501    0 -0.18565237333E+02  0.11417152871E+02  0.88791194402E+03  0.88817939615E+03  0.00000000000E+00 0. -1.
         21    1    1    2  503  502  0.18565237333E+02 -0.11417152871E+02  0.66634467161E+01  0.22790808214E+02  0.00000000000E+00 0. -1.
</event>
<event>
 4    1  0.2229986E+005  0.2218360E+02  0.7546771E-02  0.1503012E+00
          2   -1    0    0  503    0  0.00000000000E+00  0.00000000000E+00  0.88014308522E+03  0.88014308522E+03  0.00000000000E+00 0.  1.
         21   -1    0    0  501  502 -0.00000000000E+00 -0.00000000000E+00 -0.14979050145E+01  0.14979050145E+01  0.00000000000E+00 0. -1.
          2    1    1    2  501    0  0.61844008464E+01 -0.21304115156E+02  0.78830295917E+03  0.78861503128E+03  0.00000000000E+00 0.  1.
         21    1    1    2  503  502 -0.61844008464E+01  0.21304115156E+02  0.90342221042E+02  0.93025958954E+02  0.00000000000E+00 0. -1.
</event>
<event>
 4    1  0.2229986E+005  0.2967413E+02  0.7546771E-02  0.1422450E+00
          2   -1    0    0  503    0  0.00000000000E+00  0.00000000000E+00  0.11473876465E+04  0.11473876465E+04  0.00000000000E+00 0.  1.
         21   -1    0    0  501  502 -0.00000000000E+00 -0.00000000000E+00 -0.82738284526E+00  0.82738284526E+00  0.00000000000E+00 0.  1.
          2    1    1    2  501    0  0.22304177727E+02 -0.19572372653E+02  0.72780535162E+03  0.72841003834E+03  0.00000000000E+00 0.  1.
         21    1    1    2  503  502 -0.22304177727E+02  0.19572372653E+02  0.41875491204E+03  0.41980499101E+03  0.00000000000E+00 0.  1.
</event>
<event>
 4    1  0.2229986E+005  0.3815980E+02  0.7546771E-02  0.1359620E+00
          2   -1    0    0  502    0  0.00000000000E+00  0.00000000000E+00  0.50499989654E+03  0.50499989654E+03  0.00000000000E+00 0. -1.
         21   -1    0    0  503  502 -0.00000000000E+00 -0.00000000000E+00 -0.15230664451E+02  0.15230664451E+02  0.00000000000E+00 0. -1.
          2    1    1    2  501    0  0.36467914295E+02 -0.11236619692E+02  0.47908626341E+03  0.48060359776E+03  0.00000000000E+00 0. -1.
         21    1    1    2  503  501 -0.36467914295E+02  0.11236619692E+02  0.10682968684E+02  0.39626963232E+02  0.00000000000E+00 0. -1.
</event>
<event>
 4    1  0.2229986E+005  0.2680360E+02  0.7546771E-02  0.1449591E+00
          2   -1    0    0  502    0  0.00000000000E+00  0.00000000000E+00  0.40555020498E+03  0.40555020498E+03  0.00000000000E+00 0.  1.
         21   -1    0    0  503  502 -0.00000000000E+00 -0.00000000000E+00 -0.29535367520E+02  0.29535367520E+02  0.00000000000E+00 0.  1.
          2    1    1    2  501    0 -0.25691703304E+02 -0.76399769107E+01  0.39892533181E+03  0.39982477816E+03  0.00000000000E+00 0.  1.
         21    1    1    2  503  501  0.25691703304E+02  0.76399769107E+01 -0.22910494357E+02  0.35260794340E+02  0.00000000000E+00 0.  1.
</event>
<event>
 4    1  0.2229986E+005  0.3379730E+02  0.7546771E-02  0.1389221E+00
          2   -1    0    0  502    0  0.00000000000E+00  0.00000000000E+00  0.84992642355E+03  0.84992642355E+03  0.00000000000E+00 0. -1.
         21   -1    0    0  503  502 -0.00000000000E+00 -0.00000000000E+00 -0.18972676856E+02  0.18972676856E+02  0.00000000000E+00 0. -1.
          2    1    1    2  501    0  0.14677582714E+02 -0.30443817344E+02  0.83425649317E+03  0.83494080859E+03  0.00000000000E+00 0. -1.
         21    1    1    2  503  501 -0.14677582714E+02  0.30443817344E+02 -0.33027464783E+01  0.33958291817E+02  0.00000000000E+00 0. -1.
</event>
<event>
 4    1  0.2229986E+005  0.2143834E+02  0.7546771E-02  0.1513098E+00
          2   -1    0    0  503    0  0.00000000000E+00  0.00000000000E+00  0.10266494509E+03  0.10266494509E+03  0.00000000000E+00 0. -1.
         21   -1    0    0  501  502 -0.00000000000E+00 -0.00000000000E+00 -0.45041086305E+01  0.45041086305E+01  0.00000000000E+00 0. -1.
          2    1    1    2  501    0 -0.20966143330E+02  0.44747179651E+01  0.53258875433E+02  0.57411759069E+02  0.00000000000E+00 0. -1.
         21    1    1    2  503  502  0.20966143330E+02 -0.44747179651E+01  0.44901961025E+02  0.49757294650E+02  0.00000000000E+00 0. -1.
</event>
<event>
 4    1  0.2229986E+005  0.2440851E+02  0.7546771E-02  0.1475530E+00
          2   -1    0    0  503    0  0.00000000000E+00  0.00000000000E+00  0.36801867210E+02  0.36801867210E+02  0.00000000000E+00 0. -1.
         21   -1    0    0  501  502 -0.00000000000E+00 -0.00000000000E+00 -0.31339988033E+02  0.31339988033E+02  0.00000000000E+00 0. -1.
          2    1    1    2  501    0 -0.18413506182E+02 -0.16022425253E+02  0.26420606728E+02  0.35969762033E+02  0.00000000000E+00 0. -1.
         21    1    1    2  503  502  0.18413506182E+02  0.16022425253E+02 -0.20958727551E+02  0.32172093209E+02  0.00000000000E+00 0. -1.
</event>
<event>
 4    1  0.2229986E+005  0.2410394E+02  0.7546771E-02  0.1479082E+00
          2   -1    0    0  503    0  0.00000000000E+00  0.00000000000E+00  0.12126788047E+01  0.12126788047E+01  0.00000000000E+00 0.  1.
         21   -1    0    0  501  502 -0.00000000000E+00 -0.00000000000E+00 -0.49807623871E+03  0.49807623871E+03  0.00000000000E+00 0.  1.
          2    1    1    2  501    0  0.60627433722E+00 -0.24096316189E+02 -0.19970966077E+03  0.20115901329E+03  0.00000000000E+00 0.  1.
         21    1    1    2  503  502 -0.60627433722E+00  0.24096316189E+02 -0.29715389913E+03  0.29812990422E+03  0.00000000000E+00 0.  1.
</event>
<event>
 4    1  0.2229986E+005  0.3439946E+02  0.7546771E-02  0.1384835E+00
          2   -1    0    0  503    0  0.00000000000E+00  0.00000000000E+00  0.21881297161E+04  0.21881297161E+04  0.00000000000E+00 0.  1.
         21   -1    0    0  501  502 -0.00000000000E+00 -0.00000000000E+00 -0.64385077734E+00  0.64385077734E+00  0.00000000000E+00 0. -1.
          2    1    1    2  501    0  0.30005354685E+02  0.16822651324E+02  0.65589747027E+03  0.65679891475E+03  0.00000000000E+00 0.  1.
         21    1    1    2  503  502 -0.30005354685E+02 -0.16822651324E+02  0.15315883950E+04  0.15319746521E+04  0.00000000000E+00 0. -1.
</event>
<event>
 4    1  0.2229986E+005  0.3417193E+02  0.7546771E-02  0.1386480E+00
          2   -1    0    0  503    0  0.00000000000E+00  0.00000000000E+00  0.10498157235E+04  0.10498157235E+04  0.00000000000E+00 0. -1.
         21   -1    0    0  501  502 -0.00000000000E+00 -0.00000000000E+00 -0.31552519278E+01  0.31552519278E+01  0.00000000000E+00 0.  1.
          2    1    1    2  501    0 -0.28218947947E+02  0.19272050059E+02  0.94697062031E+03  0.94758697578E+03  0.00000000000E+00 0. -1.
         21    1    1    2  503  502  0.28218947947E+02 -0.19272050059E+02  0.99689851221E+02  0.10538399961E+03  0.00000000000E+00 0.  1.
</event>
<event>
 4    1  0.2229986E+005  0.3905388E+02  0.7546771E-02  0.1354121E+00
          2   -1    0    0  503    0  0.00000000000E+00  0.00000000000E+00  0.10451056967E+03  0.10451056967E+03  0.00000000000E+00 0.  1.
         21   -1    0    0  501  502 -0.00000000000E+00 -0.00000000000E+00 -0.25639699199E+02  0.25639699199E+02  0.00000000000E+00 0. -1.
          2    1    1    2  501    0  0.91258817032E+01 -0.37972673662E+02  0.82148356849E+02  0.90959101770E+02  0.00000000000E+00 0.  1.
         21    1    1    2  503  502 -0.91258817032E+01  0.37972673662E+02 -0.32774863748E+01  0.39191167102E+02  0.00000000000E+00 0. -1.
</event>
<event>
 4    1  0.2229986E+005  0.2532330E+02  0.7546771E-02  0.1465219E+00
          2   -1    0    0  503    0  0.00000000000E+00  0.00000000000E+00  0.23627031226E+03  0.23627031226E+03  0.00000000000E+00 0. -1.
         21   -1    0    0  501  502 -0.00000000000E+00 -0.00000000000E+00 -0.29980073935E+01  0.29980073935E+01  0.00000000000E+00 0.  1.
          2    1    1    2  501    0  0.22843143711E+02  0.10929799489E+02  0.15344902964E+03  0.15552451392E+03  0.00000000000E+00 0. -1.
         21    1    1    2  503  502 -0.22843143711E+02 -0.10929799489E+02  0.79823275227E+02  0.83743805737E+02  0.00000000000E+00 0.  1.
</event>
<event>
 4    1  0.2229986E+005  0.2546064E+02  0.7546771E-02  0.1463716E+00
          2   -1    0    0  503    0  0.00000000000E+00  0.00000000000E+00  0.21918519114E+03  0.21918519114E+03  0.00000000000E+00 0. -1.
         21   -1    0    0  501  502 -0.00000000000E+00 -0.00000000000E+00 -0.18271608329E+03  0.18271608329E+03  0.00000000000E+00 0. -1.
          2    1    1    2  501    0  0.27207263397E+01  0.25314853381E+02  0.21755222118E+03  0.21903701307E+03  0.00000000000E+00 0. -1.
         21    1    1    2  503  502 -0.27207263397E+01 -0.25314853381E+02 -0.18108311333E+03  0.18286426137E+03  0.00000000000E+00 0. -1.
</event>
<event>
 4    1  0.2229986E+005  0.2122633E+02  0.7546771E-02  0.1516058E+00
          2   -1    0    0  503    0  0.00000000000E+00  0.00000000000E+00  0.27228508690E+03  0.27228508690E+03  0.00000000000E+00 0.  1.
         21   -1    0    0  501  502 -0.00000000000E+00 -0.00000000000E+00 -0.11693168157E+02  0.11693168157E+02  0.00000000000E+00 0. -1.
          2    1    1    2  501    0 -0.21160747782E+02  0.16672367580E+01  0.26185544787E+03  0.26271435534E+03  0.00000000000E+00 0.  1.
         21    1    1    2  503  502  0.21160747782E+02 -0.16672367580E+01 -0.12635291268E+01  0.21263899712E+02  0.00000000000E+00 0. -1.
</event>
<event>
 4    1  0.2229986E+005  0.2052486E+02  0.7546771E-02  0.1526158E+00
          2   -1    0    0  503    0  0.00000000000E+00  0.00000000000E+00  0.11825809145E+02  0.11825809145E+02  0.00000000000E+00 0.  1.
         21   -1    0    0  501  502 -0.00000000000E+00 -0.00000000000E+00 -0.81306684523E+02  0.81306684523E+02  0.00000000000E+00 0.  1.
          2    1    1    2  501    0  0.12531897819E+02  0.16254893432E+02  0.16467010756E+00  0.20525524102E+02  0.00000000000E+00 0.  1.
         21    1    1    2  503  502 -0.12531897819E+02 -0.16254893432E+02 -0.69645545486E+02  0.72606969565E+02  0.00000000000E+00 0.  1.
</event>
<event>
 4    1  0.2229986E+005  0.2046705E+02  0.7546771E-02  0.1527012E+00
          2   -1    0    0  502    0  0.00000000000E+00  0.00000000000E+00  0.87484793411E+03  0.87484793411E+03  0.00000000000E+00 0.  1.
         21   -1    0    0  503  502 -0.00000000000E+00 -0.00000000000E+00 -0.49579001249E+00  0.49579001249E+00  0.00000000000E+00 0. -1.
          2    1    1    2  501    0  0.21185866527E+01  0.20357106061E+02  0.51813421257E+03  0.51853829407E+03  0.00000000000E+00 0.  1.
         21    1    1    2  503  501 -0.21185866527E+01 -0.20357106061E+02  0.35621793152E+03  0.35680543005E+03  0.00000000000E+00 0. -1.
</event>
<event>
 4    1  0.2229986E+005  0.2161916E+02  0.7546771E-02  0.1510605E+00
          2   -1    0    0  502    0  0.00000000000E+00  0.00000000000E+00  0.67598377202E+03  0.67598377202E+03  0.00000000000E+00 0.  1.
         21   -1    0    0  503  502 -0.00000000000E+00 -0.00000000000E+00 -0.10115930378E+02  0.10115930378E+02  0.00000000000E+00 0.  1.
          2    1    1    2  501    0 -0.17280185697E+02 -0.12991668406E+02  0.66405263943E+03  0.66440446732E+03  0.00000000000E+00 0.  1.
         21    1    1    2  503  501  0.17280185697E+02  0.12991668406E+02  0.18152022082E+01  0.21695235070E+02  0.00000000000E+00 0.  1.
</event>
<event>
 4    1  0.2229986E+005  0.2698425E+02  0.7546771E-02  0.1447766E+00
          2   -1    0    0  503    0  0.00000000000E+00  0.00000000000E+00  0.11302798975E+04  0.11302798975E+04  0.00000000000E+00 0. -1.
         21   -1    0    0  501  502 -0.00000000000E+00 -0.00000000000E+00 -0.76796356373E+01  0.76796356373E+01  0.00000000000E+00 0. -1.
          2    1    1    2  501    0 -0.17205487849E+02  0.20787520053E+02  0.11058922732E+04  0.11062214380E+04  0.00000000000E+00 0. -1.
         21    1    1    2  503  502  0.17205487849E+02 -0.20787520053E+02  0.16707988648E+02  0.31738095198E+02  0.00000000000E+00 0. -1.
</event>
<event>
 4    1  0.2229986E+005  0.2474148E+02  0.7546771E-02  0.1471716E+00
          2   -1    0    0  503    0  0.00000000000E+00  0.00000000000E+00  0.18017850287E+02  0.18017850287E+02  0.00000000000E+00 0. -1.
         21   -1    0    0  501  502 -0.00000000000E+00 -0.00000000000E+00 -0.16919982664E+03  0.16919982664E+03  0.00000000000E+00 0. -1.
          2    1    1    2  501    0  0.11536290454E+02 -0.21887317735E+02  0.80938004092E+01  0.26031716811E+02  0.00000000000E+00 0. -1.
         21    1    1    2  503  502 -0.11536290454E+02  0.21887317735E+02 -0.15927577676E+03  0.16118596011E+03  0.00000000000E+00 0. -1.
</event>
<event>
 4    1  0.2229986E+005  0.3556472E+02  0.7546771E-02  0.1376636E+00
          2   -1    0    0  503    0  0.00000000000E+00  0.00000000000E+00  0.25442427784E+03  0.25442427784E+03  0.00000000000E+00 0. -1.
         21   -1    0    0  501  502 -0.00000000000E+00 -0.00000000000E+00 -0.10734363768E+02  0.10734363768E+02  0.00000000000E+00 0. -1.
          2    1    1    2  501    0  0.35527816759E+02  0.16196719970E+01  0.21898760807E+03  0.22185675917E+03  0.00000000000E+00 0. -1.
         21    1    1    2  503  502 -0.35527816759E+02 -0.16196719970E+01  0.24702306007E+02  0.43301882443E+02  0.00000000000E+00 0. -1.
</event>
<event>
 4    1  0.2229986E+005  0.3867031E+02  0.7546771E-02  0.1356459E+00
          2   -1    0    0  503    0  0.00000000000E+00  0.00000000000E+00  0.23555808397E+04  0.23555808397E+04  0.00000000000E+00 0. -1.
         21   -1    0    0  501  502 -0.00000000000E+00 -0.00000000000E+00 -0.14603573745E+01  0.14603573745E+01  0.00000000000E+00 0.  1.
          2    1    1    2  501    0  0.31653205386E+02 -0.22214124211E+02  0.20631412259E+04  0.20635036009E+04  0.00000000000E+00 0. -1.
         21    1    1    2  503  502 -0.31653205386E+02  0.22214124211E+02  0.29097925645E+03  0.29353759624E+03  0.00000000000E+00 0.  1.
</event>
<event>
 4    1  0.2229986E+005  0.2698222E+02  0.7546771E-02  0.1447787E+00
          2   -1    0    0  503    0  0.00000000000E+00  0.00000000000E+00  0.14383621598E+01  0.14383621598E+01  0.00000000000E+00 0. -1.
         21   -1    0    0  501  502 -0.00000000000E+00 -0.00000000000E+00 -0.59459997698E+03  0.59459997698E+03  0.00000000000E+00 0.  1.
          2    1    1    2  501    0 -0.10803036338E+02 -0.24725185507E+02 -0.18164435960E+03  0.18363745198E+03  0.00000000000E+00 0. -1.
         21    1    1    2  503  502  0.10803036338E+02  0.24725185507E+02 -0.41151725522E+03  0.41240088717E+03  0.00000000000E+00 0.  1.
</event>
<event>
 4    1  0.2229986E+005  0.4761566E+02  0.7546771E-02  0.1308855E+00
          2   -1    0    0  503    0  0.00000000000E+00  0.00000000000E+00  0.36062657422E+04  0.36062657422E+04  0.00000000000E+00 0.  1.
         21   -1    0    0  501  502 -0.00000000000E+00 -0.00000000000E+00 -0.10688088062E+01  0.10688088062E+01  0.00000000000E+00 0.  1.
          2    1    1    2  501    0 -0.23555379800E+02  0.41381101625E+02  0.29600092072E+04  0.29603921629E+04  0.00000000000E+00 0.  1.
         21    1    1    2  503  502  0.23555379800E+02 -0.41381101625E+02  0.64518772621E+03  0.64694238811E+03  0.00000000000E+00 0.  1.
</event>
<event>
 4    1  0.2229986E+005  0.2562906E+02  0.7546771E-02  0.1461888E+00
          2   -1    0    0  502    0  0.00000000000E+00  0.00000000000E+00  0.37694657847E+03  0.37694657847E+03  0.00000000000E+00 0. -1.
         21   -1    0    0  503  502 -0.00000000000E+00 -0.00000000000E+00 -0.36016490326E+01  0.36016490326E+01  0.00000000000E+00 0. -1.
          2    1    1    2  501    0 -0.24652739046E+02  0.70065191173E+01  0.32337610880E+03  0.32439013024E+03  0.00000000000E+00 0. -1.
         21    1    1    2  503  501  0.24652739046E+02 -0.70065191173E+01  0.49968820638E+02  0.56158097266E+02  0.00000000000E+00 0. -1.
</event>
<event>
 4    1  0.2229986E+005  0.2336830E+02  0.7546771E-02  0.1487924E+00
          2   -1    0    0  502    0  0.00000000000E+00  0.00000000000E+00  0.13774498224E+02  0.13774498224E+02  0.00000000000E+00 0.  1.
         21   -1    0    0  503  502 -0.00000000000E+00 -0.00000000000E+00 -0.10744275878E+03  0.10744275878E+03  0.00000000000E+00 0.  1.
          2    1    1    2  501    0  0.22767856196E+02 -0.52632875192E+01  0.13114536949E+01  0.23405071717E+02  0.00000000000E+00 0.  1.
         21    1    1    2  503  501 -0.22767856196E+02  0.52632875192E+01 -0.94979714248E+02  0.97812185284E+02  0.00000000000E+00 0.  1.
</event>
<event>
 4    1  0.2229986E+005  0.2201463E+02  0.7546771E-02  0.1505257E+00
          2   -1    0    0  503    0  0.00000000000E+00  0.00000000000E+00  0.26106122256E+03  0.26106122256E+03  0.00000000000E+00 0.  1.
         21   -1    0    0  501  502 -0.00000000000E+00 -0.00000000000E+00 -0.13123201737E+03  0.13123201737E+03  0.00000000000E+00 0.  1.
          2    1    1    2  501    0 -0.57633770661E+01 -0.21246820206E+02  0.25966891393E+03  0.26060043888E+03  0.00000000000E+00 0.  1.
         21    1    1    2  503  502  0.57633770661E+01  0.21246820206E+02 -0.12983970874E+03  0.13169280106E+03  0.00000000000E+00 0.  1.
</event>
<event>
 4    1  0.2229986E+005  0.2311136E+02  0.7546771E-02  0.1491105E+00
          2   -1    0    0  502    0  0.00000000000E+00  0.00000000000E+00  0.44141123944E+03  0.44141123944E+03  0.00000000000E+00 0. -1.
         21   -1    0    0  503  502 -0.00000000000E+00 -0.00000000000E+00 -0.33789904763E+01  0.33789904763E+01  0.00000000000E+00 0.  1.
          2    1    1    2  501    0  0.17611070958E+02 -0.14966130030E+02  0.39719425479E+03  0.39786607157E+03  0.00000000000E+00 0. -1.
         21    1    1    2  503  501 -0.17611070958E+02  0.14966130030E+02  0.40837994174E+02  0.46924158347E+02  0.00000000000E+00 0.  1.
</event>
<event>
 4    1  0.2229986E+005  0.2269472E+02  0.7546771E-02  0.1496368E+00
          2   -1    0    0  503    0  0.00000000000E+00  0.00000000000E+00  0.21799510963E+04  0.21799510963E+04  0.00000000000E+00 0. -1.
         21   -1    0    0  501  502 -0.00000000000E+00 -0.00000000000E+00 -0.26704980718E+00  0.26704980718E+00  0.00000000000E+00 0. -1.
          2    1    1    2  501    0  0.35198080093E+01 -0.22420108398E+02  0.14599501040E+04  0.14601264864E+04  0.00000000000E+00 0. -1.
         21    1    1    2  503  502 -0.35198080093E+01  0.22420108398E+02  0.71973394252E+03  0.72009165967E+03  0.00000000000E+00 0. -1.
</event>
<event>
 4    1  0.2229986E+005  0.7215804E+02  0.7546771E-02  0.1223326E+00
          2   -1    0    0  503    0  0.00000000000E+00  0.00000000000E+00  0.26371099230E+02  0.26371099230E+02  0.00000000000E+00 0.  1.
         21   -1    0    0  501  502 -0.00000000000E+00 -0.00000000000E+00 -0.39252079624E+03  0.39252079624E+03  0.00000000000E+00 0.  1.
          2    1    1    2  501    0 -0.50140017858E+02 -0.51891821032E+02 -0.35420983383E+02  0.80383011543E+02  0.00000000000E+00 0.  1.
         21    1    1    2  503  502  0.50140017858E+02  0.51891821032E+02 -0.33072871363E+03  0.33850888393E+03  0.00000000000E+00 0.  1.
</event>
<event>
 4    1  0.2229986E+005  0.2121710E+02  0.7546771E-02  0.1516188E+00
          2   -1    0    0  502    0  0.00000000000E+00  0.00000000000E+00  0.13834786740E+03  0.13834786740E+03  0.00000000000E+00 0. -1.
         21   -1    0    0  503  502 -0.00000000000E+00 -0.00000000000E+00 -0.13511251713E+02  0.13511251713E+02  0.00000000000E+00 0. -1.
          2    1    1    2  501    0 -0.16673045649E+02 -0.13121541409E+02  0.12857616808E+03  0.13031498877E+03  0.00000000000E+00 0. -1.
         21    1    1    2  503  501  0.16673045649E+02  0.13121541409E+02 -0.37395523916E+01  0.21544130344E+02  0.00000000000E+00 0. -1.
</event>
<event>
 4    1  0.2229986E+005  0.2101591E+02  0.7546771E-02  0.1519038E+00
          2   -1    0    0  502    0  0.00000000000E+00  0.00000000000E+00  0.54278049905E+03  0.54278049905E+03  0.00000000000E+00 0. -1.
         21   -1    0    0  503  502 -0.00000000000E+00 -0.00000000000E+00 -0.13997283670E+02  0.13997283670E+02  0.00000000000E+00 0. -1.
          2    1    1    2  501    0  0.11790011880E+02  0.17397244715E+02  0.53456745130E+03  0.53498040010E+03  0.00000000000E+00 0. -1.
         21    1    1    2  503  501 -0.11790011880E+02 -0.17397244715E+02 -0.57842359199E+01  0.21797382618E+02  0.00000000000E+00 0. -1.
</event>
<event>
 4    1  0.2229986E+005  0.2474469E+02  0.7546771E-02  0.1471680E+00
          2   -1    0    0  503    0  0.00000000000E+00  0.00000000000E+00  0.18925606711E+04  0.18925606711E+04  0.00000000000E+00 0.  1.
         21   -1    0    0  501  502 -0.00000000000E+00 -0.00000000000E+00 -0.35774413020E+00  0.35774413020E+00  0.00000000000E+00 0. -1.
          2    1    1    2  501    0 -0.14200799889E+02  0.20264184140E+02  0.12387991737E+04  0.12390462834E+04  0.00000000000E+00 0.  1.
         21    1    1    2  503  502  0.14200799889E+02 -0.20264184140E+02  0.65340375328E+03  0.65387213175E+03  0.00000000000E+00 0. -1.
</event>
<event>
 4    1  0.2229986E+005  0.6675954E+02  0.7546771E-02  0.1238448E+00
          2   -1    0    0  502    0  0.00000000000E+00  0.00000000000E+00  0.64519386727E+03  0.64519386727E+03  0.00000000000E+00 0. -1.
         21   -1    0    0  503  502 -0.00000000000E+00 -0.00000000000E+00 -0.70463384559E+01  0.70463384559E+01  0.00000000000E+00 0. -1.
          2    1    1    2  501    0  0.54661785661E+02  0.38326554027E+02  0.27333703220E+03  0.28137158479E+03  0.00000000000E+00 0. -1.
         21    1    1    2  503  501 -0.54661785661E+02 -0.38326554027E+02  0.36481049662E+03  0.37086862094E+03  0.00000000000E+00 0. -1.
</event>
<event>
 4    1  0.2229986E+005  0.2081484E+02  0.7546771E-02  0.1521925E+00
          2   -1    0    0  502    0  0.00000000000E+00  0.00000000000E+00  0.38444567247E+03  0.38444567247E+03  0.00000000000E+00 0. -1.
         21   -1    0    0  503  502 -0.00000000000E+00 -0.00000000000E+00 -0.18481895870E+03  0.18481895870E+03  0.00000000000E+00 0. -1.
          2    1    1    2  501    0 -0.10588938112E+02 -0.17920149403E+02  0.38357654748E+03  0.38414089231E+03  0.00000000000E+00 0. -1.
         21    1    1    2  503  501  0.10588938112E+02  0.17920149403E+02 -0.18394983371E+03  0.18512373885E+03  0.00000000000E+00 0. -1.
</event>
<event>
 4    1  0.2229986E+005  0.3585988E+02  0.7546771E-02  0.1374617E+00
          2   -1    0    0  503    0  0.00000000000E+00  0.00000000000E+00  0.25755407173E+04  0.25755407173E+04  0.00000000000E+00 0. -1.
         21   -1    0    0  501  502 -0.00000000000E+00 -0.00000000000E+00 -0.12504662386E+03  0.12504662386E+03  0.00000000000E+00 0. -1.
          2    1    1    2  501    0 -0.27028850701E+02  0.23566341020E+02  0.25728422961E+04  0.25730921888E+04  0.00000000000E+00 0. -1.
         21    1    1    2  503  502  0.27028850701E+02 -0.23566341020E+02 -0.12234820265E+03  0.12749515242E+03  0.00000000000E+00 0. -1.
</event>
<event>
 4    1  0.2229986E+005  0.3966997E+02  0.7546771E-02  0.1350431E+00
          2   -1    0    0  502    0  0.00000000000E+00  0.00000000000E+00  0.35320766807E+02  0.35320766807E+02  0.00000000000E+00 0.  1.
         21   -1    0    0  503  502 -0.00000000000E+00 -0.00000000000E+00 -0.21325705966E+03  0.21325705966E+03  0.00000000000E+00 0.  1.
          2    1    1    2  501    0  0.26217687920E+02 -0.29771452304E+02  0.21577399169E+02  0.45158506254E+02  0.00000000000E+00 0.  1.
         21    1    1    2  503  501 -0.26217687920E+02  0.29771452304E+02 -0.19951369202E+03  0.20341932022E+03  0.00000000000E+00 0.  1.
</event>
<event>
 4    1  0.2229986E+005  0.2596204E+02  0.7546771E-02  0.1458323E+00
          2   -1    0    0  502    0  0.00000000000E+00  0.00000000000E+00  0.99021468359E+03  0.99021468359E+03  0.00000000000E+00 0. -1.
         21   -1    0    0  503  502 -0.00000000000E+00 -0.00000000000E+00 -0.14234320978E+02  0.14234320978E+02  0.00000000000E+00 0.  1.
          2    1    1    2  501    0  0.61411355360E+01  0.25225264511E+02  0.97805934435E+03  0.97840385761E+03  0.00000000000E+00 0. -1.
         21    1    1    2  503  501 -0.61411355360E+01 -0.25225264511E+02 -0.20789817331E+01  0.26045146964E+02  0.00000000000E+00 0.  1.
</event>
<event>
 4    1  0.2229986E+005  0.2586554E+02  0.7546771E-02  0.1459349E+00
          2   -1    0    0  503    0  0.00000000000E+00  0.00000000000E+00  0.69055020593E+03  0.69055020593E+03  0.00000000000E+00 0.  1.
         21   -1    0    0  501  502 -0.00000000000E+00 -0.00000000000E+00 -0.22312839070E+02  0.22312839070E+02  0.00000000000E+00 0.  1.
          2    1    1    2  501    0  0.23377258990E+02 -0.11069321253E+02  0.68272614807E+03  0.68321593904E+03  0.00000000000E+00 0.  1.
         21    1    1    2  503  502 -0.23377258990E+02  0.11069321253E+02 -0.14488781204E+02  0.29647105958E+02  0.00000000000E+00 0.  1.
</event>
<event>
 4    1  0.2229986E+005  0.2070593E+02  0.7546771E-02  0.1523505E+00
          2   -1    0    0  503    0  0.00000000000E+00  0.00000000000E+00  0.15649873647E+04  0.15649873647E+04  0.00000000000E+00 0.  1.
         21   -1    0    0  501  502 -0.00000000000E+00 -0.00000000000E+00 -0.84990307399E+00  0.84990307399E+00  0.00000000000E+00 0. -1.
          2    1    1    2  501    0 -0.18898321485E+02  0.84610209861E+01  0.14265699737E+04  0.14267202337E+04  0.00000000000E+00 0.  1.
         21    1    1    2  503  502  0.18898321485E+02 -0.84610209861E+01  0.13756748797E+03  0.13911703411E+03  0.00000000000E+00 0. -1.
</event>
<event>
 4    1  0.2229986E+005  0.2223502E+02  0.7546771E-02  0.1502334E+00
          2   -1    0    0  503    0  0.00000000000E+00  0.00000000000E+00  0.15092977969E+03  0.15092977969E+03  0.00000000000E+00 0.  1.
         21   -1    0    0  501  502 -0.00000000000E+00 -0.00000000000E+00 -0.12230349165E+02  0.12230349165E+02  0.00000000000E+00 0.  1.
          2    1    1    2  501    0  0.22156237093E+02  0.18701399115E+01  0.13915521054E+03  0.14092043459E+03  0.00000000000E+00 0.  1.
         21    1    1    2  503  502 -0.22156237093E+02 -0.18701399115E+01 -0.45578001643E+00  0.22239694261E+02  0.00000000000E+00 0.  1.
</event>
<event>
 4    1  0.2229986E+005  0.2508443E+02  0.7546771E-02  0.1467861E+00
          2   -1    0    0  503    0  0.00000000000E+00  0.00000000000E+00  0.56386472473E+02  0.56386472473E+02  0.00000000000E+00 0. -1.
         21   -1    0    0  501  502 -0.00000000000E+00 -0.00000000000E+00 -0.37006442916E+03  0.37006442916E+03  0.00000000000E+00 0.  1.
          2    1    1    2  501    0  0.23957092588E+02  0.74354860479E+01  0.53146979840E+02  0.58769296441E+02  0.00000000000E+00 0. -1.
         21    1    1    2  503  502 -0.23957092588E+02 -0.74354860479E+01 -0.36682493653E+03  0.36768160520E+03  0.00000000000E+00 0.  1.
</event>
<event>
 4    1  0.2229986E+005  0.2264474E+02  0.7546771E-02  0.1497008E+00
          2   -1    0    0  503    0  0.00000000000E+00  0.00000000000E+00  0.13606111132E+04  0.13606111132E+04  0.00000000000E+00 0.  1.
         21   -1    0    0  501  502 -0.00000000000E+00 -0.00000000000E+00 -0.98047739245E+00  0.98047739245E+00  0.00000000000E+00 0. -1.
          2    1    1    2  501    0  0.89483824625E+01 -0.20801694848E+02  0.12139767887E+04  0.12141879704E+04  0.00000000000E+00 0.  1.
         21    1    1    2  503  502 -0.89483824625E+01  0.20801694848E+02  0.14565384717E+03  0.14740362022E+03  0.00000000000E+00 0. -1.
</event>
<event>
 4    1  0.2229986E+005  0.2038603E+02  0.7546771E-02  0.1528214E+00
          2   -1    0    0  503    0  0.00000000000E+00  0.00000000000E+00  0.23334317962E+02  0.23334317962E+02  0.00000000000E+00 0.  1.
         21   -1    0    0  501  502 -0.00000000000E+00 -0.00000000000E+00 -0.39081813785E+02  0.39081813785E+02  0.00000000000E+00 0. -1.
          2    1    1    2  501    0  0.10515362027E+02 -0.17464751570E+02  0.15150160805E+02  0.25399168459E+02  0.00000000000E+00 0.  1.
         21    1    1    2  503  502 -0.10515362027E+02  0.17464751570E+02 -0.30897656628E+02  0.37016963288E+02  0.00000000000E+00 0. -1.
</event>
<event>
 4    1  0.2229986E+005  0.3085944E+02  0.7546771E-02  0.1412272E+00
          2   -1    0    0  503    0  0.00000000000E+00  0.00000000000E+00  0.11565045533E+04  0.11565045533E+04  0.00000000000E+00 0.  1.
         21   -1    0    0  501  502 -0.00000000000E+00 -0.00000000000E+00 -0.10435870208E+01  0.10435870208E+01  0.00000000000E+00 0.  1.
          2    1    1    2  501    0 -0.84035744804E+01 -0.29693182710E+02  0.84356236250E+03  0.84412662829E+03  0.00000000000E+00 0.  1.
         21    1    1    2  503  502  0.84035744804E+01  0.29693182710E+02  0.31189860375E+03  0.31342151200E+03  0.00000000000E+00 0.  1.
</event>
<event>
 4    1  0.2229986E+005  0.2234945E+02  0.7546771E-02  0.1500833E+00
          2   -1    0    0  503    0  0.00000000000E+00  0.00000000000E+00  0.24915642224E+01  0.24915642224E+01  0.00000000000E+00 0. -1.
         21   -1    0    0  501  502 -0.00000000000E+00 -0.00000000000E+00 -0.41315339114E+03  0.41315339114E+03  0.00000000000E+00 0. -1.
          2    1    1    2  501    0 -0.18944534886E+02 -0.11857593138E+02 -0.56223961249E+02  0.60503154757E+02  0.00000000000E+00 0. -1.
         21    1    1    2  503  502  0.18944534886E+02  0.11857593138E+02 -0.35443786567E+03  0.35514180061E+03  0.00000000000E+00 0. -1.
</event>
<event>
 4    1  0.2229986E+005  0.4359945E+02  0.7546771E-02  0.1328593E+00
          2   -1    0    0  503    0  0.00000000000E+00  0.00000000000E+00  0.53865575628E+03  0.53865575628E+03  0.00000000000E+00 0. -1.
         21   -1    0    0  501  502 -0.00000000000E+00 -0.00000000000E+00 -0.45185824655E+01  0.45185824655E+01  0.00000000000E+00 0. -1.
          2    1    1    2  501    0  0.37562617205E+02 -0.22135073384E+02  0.39416578094E+03  0.39656976000E+03  0.00000000000E+00 0. -1.
         21    1    1    2  503  502 -0.37562617205E+02  0.22135073384E+02  0.13997139288E+03  0.14660457875E+03  0.00000000000E+00 0. -1.
</event>
<event>
 4    1  0.2229986E+005  0.5113158E+02  0.7546771E-02  0.1293339E+00
          2   -1    0    0  502    0  0.00000000000E+00  0.00000000000E+00  0.71818718181E+03  0.71818718181E+03  0.00000000000E+00 0. -1.
         21   -1    0    0  503  502 -0.00000000000E+00 -0.00000000000E+00 -0.36465315907E+01  0.36465315907E+01  0.00000000000E+00 0. -1.
          2    1    1    2  501    0 -0.50309558917E+02 -0.91316531864E+01  0.34238713374E+03  0.34618403799E+03  0.00000000000E+00 0. -1.
         21    1    1    2  503  501  0.50309558917E+02  0.91316531864E+01  0.37215351648E+03  0.37564967541E+03  0.00000000000E+00 0. -1.
</event>
<event>
 4    1  0.2229986E+005  0.3404841E+02  0.7546771E-02  0.1387379E+00
          2   -1    0    0  502    0  0.00000000000E+00  0.00000000000E+00  0.23054065498E+04  0.23054065498E+04  0.00000000000E+00 0. -1.
         21   -1    0    0  503  502 -0.00000000000E+00 -0.00000000000E+00 -0.82650237678E+01  0.82650237678E+01  0.00000000000E+00 0.  1.
          2    1    1    2  501    0 -0.25413330690E+02  0.22659588872E+02  0.22696623445E+04  0.22699177193E+04  0.00000000000E+00 0. -1.
         21    1    1    2  503  501  0.25413330690E+02 -0.22659588872E+02  0.27479181498E+02  0.43753854235E+02  0.00000000000E+00 0.  1.
</event>
<event>
 4    1  0.2229986E+005  0.2005578E+02  0.7546771E-02  0.1533185E+00
          2   -1    0    0  503    0  0.00000000000E+00  0.00000000000E+00  0.51690639163E+03  0.51690639163E+03  0.00000000000E+00 0. -1.
         21   -1    0    0  501  502 -0.00000000000E+00 -0.00000000000E+00 -0.12557880842E+02  0.12557880842E+02  0.00000000000E+00 0. -1.
          2    1    1    2  501    0  0.13469072757E+02  0.14859960209E+02  0.50857308560E+03  0.50896838579E+03  0.00000000000E+00 0. -1.
         21    1    1    2  503  502 -0.13469072757E+02 -0.14859960209E+02 -0.42245748152E+01  0.20495886678E+02  0.00000000000E+00 0. -1.
</event>
<event>
 4    1  0.2229986E+005  0.2263526E+02  0.7546771E-02  0.1497130E+00
          2   -1    0    0  502    0  0.00000000000E+00  0.00000000000E+00  0.11129206140E+04  0.11129206140E+04  0.00000000000E+00 0.  1.
         21   -1    0    0  503  502 -0.00000000000E+00 -0.00000000000E+00 -0.58871564497E+02  0.58871564497E+02  0.00000000000E+00 0.  1.
          2    1    1    2  501    0  0.19574881232E+02  0.11365687454E+02  0.11106252942E+04  0.11108559307E+04  0.00000000000E+00 0.  1.
         21    1    1    2  503  501 -0.19574881232E+02 -0.11365687454E+02 -0.56576244678E+02  0.60936247738E+02  0.00000000000E+00 0.  1.
</event>
<event>
 4    1  0.2229986E+005  0.2567200E+02  0.7546771E-02  0.1461424E+00
          2   -1    0    0  502    0  0.00000000000E+00  0.00000000000E+00  0.29420836449E+02  0.29420836449E+02  0.00000000000E+00 0.  1.
         21   -1    0    0  503  502 -0.00000000000E+00 -0.00000000000E+00 -0.40238461282E+02  0.40238461282E+02  0.00000000000E+00 0.  1.
          2    1    1    2  501    0  0.22588534132E+02 -0.12198757461E+02  0.17780978798E+02  0.31228428792E+02  0.00000000000E+00 0.  1.
         21    1    1    2  503  501 -0.22588534132E+02  0.12198757461E+02 -0.28598603631E+02  0.38430868940E+02  0.00000000000E+00 0.  1.
</event>
<event>
 4    1  0.2229986E+005  0.2591070E+02  0.7546771E-02  0.1458868E+00
          2   -1    0    0  502    0  0.00000000000E+00  0.00000000000E+00  0.54521286095E+03  0.54521286095E+03  0.00000000000E+00 0.  1.
         21   -1    0    0  503  502 -0.00000000000E+00 -0.00000000000E+00 -0.63094631627E+02  0.63094631627E+02  0.00000000000E+00 0. -1.
          2    1    1    2  501    0 -0.24771619547E+02  0.75980981735E+01  0.54223024376E+03  0.54284896746E+03  0.00000000000E+00 0.  1.
         21    1    1    2  503  501  0.24771619547E+02 -0.75980981735E+01 -0.60112014434E+02  0.65458525114E+02  0.00000000000E+00 0. -1.
</event>
<event>
 4    1  0.2229986E+005  0.2411892E+02  0.7546771E-02  0.1478906E+00
          2   -1    0    0  502    0  0.00000000000E+00  0.00000000000E+00  0.89703534985E+03  0.89703534985E+03  0.00000000000E+00 0. -1.
         21   -1    0    0  503  502 -0.00000000000E+00 -0.00000000000E+00 -0.21131740018E+02  0.21131740018E+02  0.00000000000E+00 0. -1.
          2    1    1    2  501    0 -0.10725169817E+02  0.21603075555E+02  0.88993624741E+03  0.89026302102E+03  0.00000000000E+00 0. -1.
         21    1    1    2  503  501  0.10725169817E+02 -0.21603075555E+02 -0.14032637576E+02  0.27904068850E+02  0.00000000000E+00 0. -1.
</event>
<event>
 4    1  0.2229986E+005  0.3238177E+02  0.7546771E-02  0.1399968E+00
          2   -1    0    0  503    0  0.00000000000E+00  0.00000000000E+00  0.10468150689E+04  0.10468150689E+04  0.00000000000E+00 0. -1.
         21   -1    0    0  501  502 -0.00000000000E+00 -0.00000000000E+00 -0.47381082945E+01  0.47381082945E+01  0.00000000000E+00 0.  1.
          2    1    1    2  501    0 -0.49199984762E-01 -0.32381734108E+02  0.98794160326E+03  0.98847214962E+03  0.00000000000E+00 0. -1.
         21    1    1    2  503  502  0.49199984762E-01  0.32381734108E+02  0.54135357329E+02  0.63081027557E+02  0.00000000000E+00 0.  1.
</event>
<event>
 4    1  0.2229986E+005  0.4488626E+02  0.7546771E-02  0.1322009E+00
          2   -1    0    0  503    0  0.00000000000E+00  0.00000000000E+00  0.23399690584E+04  0.23399690584E+04  0.00000000000E+00 0. -1.
         21   -1    0    0  501  502 -0.00000000000E+00 -0.00000000000E+00 -0.15409593655E+01  0.15409593655E+01  0.00000000000E+00 0.  1.
          2    1    1    2  501    0 -0.38059095981E+02 -0.23796671677E+02  0.19468983137E+04  0.19474156774E+04  0.00000000000E+00 0. -1.
         21    1    1    2  503  502  0.38059095981E+02  0.23796671677E+02  0.39152978531E+03  0.39409434043E+03  0.00000000000E+00 0.  1.
</event>
<event>
 4    1  0.2229986E+005  0.5493049E+02  0.7546771E-02  0.1278103E+00
          2   -1    0    0  503    0  0.00000000000E+00  0.00000000000E+00  0.14150252955E+03  0.14150252955E+03  0.00000000000E+00 0.  1.
         21   -1    0    0  501  502 -0.00000000000E+00 -0.00000000000E+00 -0.41919723545E+02  0.41919723545E+02  0.00000000000E+00 0.  1.
          2    1    1    2  501    0  0.49006998566E+01  0.54711440467E+02  0.11407563089E+03  0.12661203790E+03  0.00000000000E+00 0.  1.
         21    1    1    2  503  502 -0.49006998566E+01 -0.54711440467E+02 -0.14492824891E+02  0.56810215194E+02  0.00000000000E+00 0.  1.
</event>
<event>
 4    1  0.2229986E+005  0.2413705E+02  0.7546771E-02  0.1478693E+00
          2   -1    0    0  503    0  0.00000000000E+00  0.00000000000E+00  0.14568475104E+02  0.14568475104E+02  0.00000000000E+00 0. -1.
         21   -1    0    0  501  502 -0.00000000000E+00 -0.00000000000E+00 -0.61054424391E+02  0.61054424391E+02  0.00000000000E+00 0. -1.
          2    1    1    2  501    0 -0.14699229406E+02  0.19144968960E+02 -0.45452374525E+02  0.51463730254E+02  0.00000000000E+00 0. -1.
         21    1    1    2  503  502  0.14699229406E+02 -0.19144968960E+02 -0.10335747625E+01  0.24159169241E+02  0.00000000000E+00 0. -1.
</event>
<event>
 4    1  0.2229986E+005  0.2116590E+02  0.7546771E-02  0.1516909E+00
          2   -1    0    0  503    0  0.00000000000E+00  0.00000000000E+00  0.14573167902E+02  0.14573167902E+02  0.00000000000E+00 0. -1.
         21   -1    0    0  501  502 -0.00000000000E+00 -0.00000000000E+00 -0.45671359878E+02  0.45671359878E+02  0.00000000000E+00 0.  1.
          2    1    1    2  501    0 -0.12126383880E+02 -0.17347795715E+02  0.16735284196E+01  0.21231954680E+02  0.00000000000E+00 0. -1.
         21    1    1    2  503  502  0.12126383880E+02  0.17347795715E+02 -0.32771720396E+02  0.39012573100E+02  0.00000000000E+00 0.  1.
</event>
<event>
 4    1  0.2229986E+005  0.2862553E+02  0.7546771E-02  0.1431929E+00
          2   -1    0    0  503    0  0.00000000000E+00  0.00000000000E+00  0.49529142124E+03  0.49529142124E+03  0.00000000000E+00 0. -1.
         21   -1    0    0  501  502 -0.00000000000E+00 -0.00000000000E+00 -0.99096055644E+01  0.99096055644E+01  0.00000000000E+00 0. -1.
          2    1    1    2  501    0  0.23788331100E+02  0.15922828307E+02  0.47324317908E+03  0.47410813925E+03  0.00000000000E+00 0. -1.
         21    1    1    2  503  502 -0.23788331100E+02 -0.15922828307E+02  0.12138636589E+02  0.31092887548E+02  0.00000000000E+00 0. -1.
</event>
<event>
 4    1  0.2229986E+005  0.2093552E+02  0.7546771E-02  0.1520187E+00
          2   -1    0    0  503    0  0.00000000000E+00  0.00000000000E+00  0.62747009170E+03  0.62747009170E+03  0.00000000000E+00 0. -1.
         21   -1    0    0  501  502 -0.00000000000E+00 -0.00000000000E+00 -0.75010643833E+00  0.75010643833E+00  0.00000000000E+00 0. -1.
          2    1    1    2  501    0  0.15668840070E+02 -0.13884647798E+02  0.23098074139E+03  0.23192757250E+03  0.00000000000E+00 0. -1.
         21    1    1    2  503  502 -0.15668840070E+02  0.13884647798E+02  0.39573924387E+03  0.39629262564E+03  0.00000000000E+00 0. -1.
</event>
<event>
 4    1  0.2229986E+005  0.3009861E+02  0.7546771E-02  0.1418741E+00
          2   -1    0    0  503    0  0.00000000000E+00  0.00000000000E+00  0.43105693892E+02  0.43105693892E+02  0.00000000000E+00 0. -1.
         21   -1    0    0  501  502 -0.00000000000E+00 -0.00000000000E+00 -0.21122523270E+02  0.21122523270E+02  0.00000000000E+00 0. -1.
          2    1    1    2  501    0 -0.10893289724E+02  0.28058195130E+02  0.13267985977E+02  0.32893244395E+02  0.00000000000E+00 0. -1.
         21    1    1    2  503  502  0.10893289724E+02 -0.28058195130E+02  0.87151846457E+01  0.31334972768E+02  0.00000000000E+00 0. -1.
</event>
<event>
 4    1  0.2229986E+005  0.2770359E+02  0.7546771E-02  0.1440666E+00
          2   -1    0    0  503    0  0.00000000000E+00  0.00000000000E+00  0.48148974174E+03  0.48148974174E+03  0.00000000000E+00 0.  1.
         21   -1    0    0  501  502 -0.00000000000E+00 -0.00000000000E+00 -0.45600576436E+01  0.45600576436E+01  0.00000000000E+00 0.  1.
          2    1    1    2  501    0  0.22896598778E+02  0.15595985828E+02  0.43446492589E+03  0.43534728762E+03  0.00000000000E+00 0.  1.
         21    1    1    2  503  502 -0.22896598778E+02 -0.15595985828E+02  0.42464758204E+02  0.50702511761E+02  0.00000000000E+00 0.  1.
</event>
<event>
 4    1  0.2229986E+005  0.2257995E+02  0.7546771E-02  0.1497841E+00
          2   -1    0    0  502    0  0.00000000000E+00  0.00000000000E+00  0.31343231389E+02  0.31343231389E+02  0.00000000000E+00 0.  1.
         21   -1    0    0  503  502 -0.00000000000E+00 -0.00000000000E+00 -0.25984335881E+02  0.25984335881E+02  0.00000000000E+00 0.  1.
          2    1    1    2  501    0  0.17088134992E+02 -0.14759739856E+02  0.20208387123E+02  0.30302362750E+02  0.00000000000E+00 0.  1.
         21    1    1    2  503  501 -0.17088134992E+02  0.14759739856E+02 -0.14849491615E+02  0.27025204520E+02  0.00000000000E+00 0.  1.
</event>
<event>
 4    1  0.2229986E+005  0.3219049E+02  0.7546771E-02  0.1401469E+00
          2   -1    0    0  503    0  0.00000000000E+00  0.00000000000E+00  0.13005322819E+04  0.13005322819E+04  0.00000000000E+00 0.  1.
         21   -1    0    0  501  502 -0.00000000000E+00 -0.00000000000E+00 -0.32933083321E+02  0.32933083321E+02  0.00000000000E+00 0. -1.
          2    1    1    2  501    0 -0.11715119525E+02  0.29983057432E+02  0.12924175459E+04  0.12928183711E+04  0.00000000000E+00 0.  1.
         21    1    1    2  503  502  0.11715119525E+02 -0.29983057432E+02 -0.24818347375E+02  0.40646994045E+02  0.00000000000E+00 0. -1.
</event>
<event>
 4    1  0.2229986E+005  0.2507973E+02  0.7546771E-02  0.1467913E+00
          2   -1    0    0  502    0  0.00000000000E+00  0.00000000000E+00  0.13426294797E+03  0.13426294797E+03  0.00000000000E+00 0. -1.
         21   -1    0    0  503  502 -0.00000000000E+00 -0.00000000000E+00 -0.66725619481E+02  0.66725619481E+02  0.00000000000E+00 0.  1.
          2    1    1    2  501    0  0.23781028378E+02  0.79659024622E+01  0.13067091636E+03  0.13305593296E+03  0.00000000000E+00 0. -1.
         21    1    1    2  503  501 -0.23781028378E+02 -0.79659024622E+01 -0.63133587867E+02  0.67932634497E+02  0.00000000000E+00 0.  1.
</event>
<event>
 4    1  0.2229986E+005  0.2063467E+02  0.7546771E-02  0.1524545E+00
          2   -1    0    0  502    0  0.00000000000E+00  0.00000000000E+00  0.86634132163E+03  0.86634132163E+03  0.00000000000E+00 0. -1.
         21   -1    0    0  503  502 -0.00000000000E+00 -0.00000000000E+00 -0.16917959002E+01  0.16917959002E+01  0.00000000000E+00 0.  1.
          2    1    1    2  501    0  0.88244281421E+01 -0.18652591233E+02  0.79790275276E+03  0.79816952620E+03  0.00000000000E+00 0. -1.
         21    1    1    2  503  501 -0.88244281421E+01  0.18652591233E+02  0.66746772972E+02  0.69863591333E+02  0.00000000000E+00 0.  1.
</event>
<event>
 4    1  0.2229986E+005  0.8111144E+02  0.7546771E-02  0.1201291E+00
          2   -1    0    0  502    0  0.00000000000E+00  0.00000000000E+00  0.21286328321E+04  0.21286328321E+04  0.00000000000E+00 0.  1.
         21   -1    0    0  503  502 -0.00000000000E+00 -0.00000000000E+00 -0.41403887945E+02  0.41403887945E+02  0.00000000000E+00 0. -1.
          2    1    1    2  501    0  0.65949850445E+02  0.47219520264E+02  0.20873498459E+04  0.20889251889E+04  0.00000000000E+00 0.  1.
         21    1    1    2  503  501 -0.65949850445E+02 -0.47219520264E+02 -0.12090168903E+00  0.81111531146E+02  0.00000000000E+00 0. -1.
</event>
<event>
 4    1  0.2229986E+005  0.2160897E+02  0.7546771E-02  0.1510745E+00
          2   -1    0    0  503    0  0.00000000000E+00  0.00000000000E+00  0.49376729048E+02  0.49376729048E+02  0.00000000000E+00 0.  1.
         21   -1    0    0  501  502 -0.00000000000E+00 -0.00000000000E+00 -0.43976693145E+03  0.43976693145E+03  0.00000000000E+00 0. -1.
          2    1    1    2  501    0 -0.90168999025E+01 -0.19637801056E+02  0.46732776532E+02  0.51486892668E+02  0.00000000000E+00 0.  1.
         21    1    1    2  503  502  0.90168999025E+01  0.19637801056E+02 -0.43712297894E+03  0.43765676783E+03  0.00000000000E+00 0. -1.
</event>
<event>
 4    1  0.2229986E+005  0.2518357E+02  0.7546771E-02  0.1466760E+00
          2   -1    0    0  502    0  0.00000000000E+00  0.00000000000E+00  0.17026430319E+04  0.17026430319E+04  0.00000000000E+00 0.  1.
         21   -1    0    0  503  502 -0.00000000000E+00 -0.00000000000E+00 -0.10662325000E+01  0.10662325000E+01  0.00000000000E+00 0. -1.
          2    1    1    2  501    0 -0.17343107915E+02  0.18260026369E+02  0.15379196519E+04  0.15381258296E+04  0.00000000000E+00 0.  1.
         21    1    1    2  503  501  0.17343107915E+02 -0.18260026369E+02  0.16365714748E+03  0.16558343479E+03  0.00000000000E+00 0. -1.
</event>
<event>
 4    1  0.2229986E+005  0.2405924E+02  0.7546771E-02  0.1479609E+00
          2   -1    0    0  502    0  0.00000000000E+00  0.00000000000E+00  0.71246093235E+02  0.71246093235E+02  0.00000000000E+00 0. -1.
         21   -1    0    0  503  502 -0.00000000000E+00 -0.00000000000E+00 -0.49559345940E+02  0.49559345940E+02  0.00000000000E+00 0.  1.
          2    1    1    2  501    0  0.23749851055E+02  0.38459653714E+01  0.66073493573E+02  0.70317518640E+02  0.00000000000E+00 0. -1.
         21    1    1    2  503  501 -0.23749851055E+02 -0.38459653714E+01 -0.44386746278E+02  0.50487920535E+02  0.00000000000E+00 0.  1.
</event>
<event>
 4    1  0.2229986E+005  0.3055419E+02  0.7546771E-02  0.1414841E+00
          2   -1    0    0  503    0  0.00000000000E+00  0.00000000000E+00  0.72848716915E+03  0.72848716915E+03  0.00000000000E+00 0.  1.
         21   -1    0    0  501  502 -0.00000000000E+00 -0.00000000000E+00 -0.31919636020E+01  0.31919636020E+01  0.00000000000E+00 0. -1.
          2    1    1    2  501    0  0.27412789994E+01  0.30430968602E+02  0.64567648513E+03  0.64639901138E+03  0.00000000000E+00 0.  1.
         21    1    1    2  503  502 -0.27412789994E+01 -0.30430968602E+02  0.79618720420E+02  0.85280121376E+02  0.00000000000E+00 0. -1.
</event>
<event>
 4    1  0.2229986E+005  0.2300035E+02  0.7546771E-02  0.1492494E+00
          2   -1    0    0  502    0  0.00000000000E+00  0.00000000000E+00  0.60134732931E+03  0.60134732931E+03  0.00000000000E+00 0.  1.
         21   -1    0    0  503  502 -0.00000000000E+00 -0.00000000000E+00 -0.11381934847E+01  0.11381934847E+01  0.00000000000E+00 0.  1.
          2    1    1    2  501    0 -0.99508475010E+01 -0.20736364116E+02  0.44365950125E+03  0.44425529733E+03  0.00000000000E+00 0.  1.
         21    1    1    2  503  501  0.99508475010E+01  0.20736364116E+02  0.15654963458E+03  0.15823022546E+03  0.00000000000E+00 0.  1.
</event>
<event>
 4    1  0.2229986E+005  0.2626345E+02  0.7546771E-02  0.1455151E+00
          2   -1    0    0  502    0  0.00000000000E+00  0.00000000000E+00  0.35353581111E+02  0.35353581111E+02  0.00000000000E+00 0.  1.
         21   -1    0    0  503  502 -0.00000000000E+00 -0.00000000000E+00 -0.26209623030E+02  0.26209623030E+02  0.00000000000E+00 0. -1.
          2    1    1    2  501    0 -0.23736081129E+02  0.11241315029E+02  0.20134049028E+02  0.33093030100E+02  0.00000000000E+00 0.  1.
         21    1    1    2  503  501  0.23736081129E+02 -0.11241315029E+02 -0.10990090947E+02  0.28470174041E+02  0.00000000000E+00 0. -1.
</event>
<event>
 4    1  0.2229986E+005  0.3408814E+02  0.7546771E-02  0.1387090E+00
          2   -1    0    0  502    0  0.00000000000E+00  0.00000000000E+00  0.25100312845E+03  0.25100312845E+03  0.00000000000E+00 0.  1.
         21   -1    0    0  503  502 -0.00000000000E+00 -0.00000000000E+00 -0.69021500798E+01  0.69021500798E+01  0.00000000000E+00 0. -1.
          2    1    1    2  501    0  0.30426228147E+02 -0.15370291113E+02  0.19604697390E+03  0.19898848505E+03  0.00000000000E+00 0.  1.
         21    1    1    2  503  501 -0.30426228147E+02  0.15370291113E+02  0.48054004476E+02  0.58916793483E+02  0.00000000000E+00 0. -1.
</event>
<event>
 4    1  0.2229986E+005  0.2014250E+02  0.7546771E-02  0.1531868E+00
          2   -1    0    0  502    0  0.00000000000E+00  0.00000000000E+00  0.47539636055E+03  0.47539636055E+03  0.00000000000E+00 0. -1.
         21   -1    0    0  503  502 -0.00000000000E+00 -0.00000000000E+00 -0.60621624557E+01  0.60621624557E+01  0.00000000000E+00 0. -1.
          2    1    1    2  501    0 -0.15932723995E+02 -0.12323492747E+02  0.45780887800E+03  0.45825177462E+03  0.00000000000E+00 0. -1.
         21    1    1    2  503  501  0.15932723995E+02  0.12323492747E+02  0.11525320097E+02  0.23206748387E+02  0.00000000000E+00 0. -1.
</event>
<event>
 4    1  0.2229986E+005  0.2059676E+02  0.7546771E-02  0.1525101E+00
          2   -1    0    0  503    0  0.00000000000E+00  0.00000000000E+00  0.17788974343E+04  0.17788974343E+04  0.00000000000E+00 0.  1.
         21   -1    0    0  501  502 -0.00000000000E+00 -0.00000000000E+00 -0.25788528951E+00  0.25788528951E+00  0.00000000000E+00 0.  1.
          2    1    1    2  501    0 -0.20006921958E+02  0.48938128978E+01  0.64527871085E+03  0.64560734274E+03  0.00000000000E+00 0.  1.
         21    1    1    2  503  502  0.20006921958E+02 -0.48938128978E+01  0.11333608382E+04  0.11335479769E+04  0.00000000000E+00 0.  1.
</event>
<event>
 4    1  0.2229986E+005  0.2222406E+02  0.7546771E-02  0.1502479E+00
          2   -1    0    0  502    0  0.00000000000E+00  0.00000000000E+00  0.50512481541E+03  0.50512481541E+03  0.00000000000E+00 0. -1.
         21   -1    0    0  503  502 -0.00000000000E+00 -0.00000000000E+00 -0.65382738294E+03  0.65382738294E+03  0.00000000000E+00 0. -1.
          2    1    1    2  501    0 -0.42924983796E+01 -0.21805575171E+02  0.50469135163E+03  0.50518043218E+03  0.00000000000E+00 0. -1.
         21    1    1    2  503  501  0.42924983796E+01  0.21805575171E+02 -0.65339391916E+03  0.65377176617E+03  0.00000000000E+00 0. -1.
</event>
<event>
 4    1  0.2229986E+005  0.2123628E+02  0.7546771E-02  0.1515918E+00
          2   -1    0    0  503    0  0.00000000000E+00  0.00000000000E+00  0.59726828899E+03  0.59726828899E+03  0.00000000000E+00 0.  1.
         21   -1    0    0  501  502 -0.00000000000E+00 -0.00000000000E+00 -0.12167197028E+02  0.12167197028E+02  0.00000000000E+00 0. -1.
          2    1    1    2  501    0  0.20629559492E+02  0.50399282976E+01  0.58766179459E+03  0.58804537616E+03  0.00000000000E+00 0.  1.
         21    1    1    2  503  502 -0.20629559492E+02 -0.50399282976E+01 -0.25607026224E+01  0.21390109864E+02  0.00000000000E+00 0. -1.
</event>
<event>
 4    1  0.2229986E+005  0.2682844E+02  0.7546771E-02  0.1449339E+00
          2   -1    0    0  503    0  0.00000000000E+00  0.00000000000E+00  0.30183687340E+03  0.30183687340E+03  0.00000000000E+00 0.  1.
         21   -1    0    0  501  502 -0.00000000000E+00 -0.00000000000E+00 -0.95142108243E+01  0.95142108243E+01  0.00000000000E+00 0.  1.
          2    1    1    2  501    0 -0.15880054550E+02  0.21623808377E+02  0.28092300856E+03  0.28220117285E+03  0.00000000000E+00 0.  1.
         21    1    1    2  503  502  0.15880054550E+02 -0.21623808377E+02  0.11399654015E+02  0.29149911370E+02  0.00000000000E+00 0.  1.
</event>
<event>
 4    1  0.2229986E+005  0.2897830E+02  0.7546771E-02  0.1428688E+00
          2   -1    0    0  503    0  0.00000000000E+00  0.00000000000E+00  0.55930976142E+03  0.55930976142E+03  0.00000000000E+00 0. -1.
         21   -1    0    0  501  502 -0.00000000000E+00 -0.00000000000E+00 -0.15586790656E+01  0.15586790656E+01  0.00000000000E+00 0. -1.
          2    1    1    2  501    0  0.28803928188E+02  0.31742415432E+01  0.33263915921E+03  0.33389901517E+03  0.00000000000E+00 0. -1.
         21    1    1    2  503  502 -0.28803928188E+02 -0.31742415432E+01  0.22511192314E+03  0.22696942532E+03  0.00000000000E+00 0. -1.
</event>
<event>
 4    1  0.2229986E+005  0.5462793E+02  0.7546771E-02  0.1279265E+00
          2   -1    0    0  503    0  0.00000000000E+00  0.00000000000E+00  0.31865710175E+03  0.31865710175E+03  0.00000000000E+00 0.  1.
         21   -1    0    0  501  502 -0.00000000000E+00 -0.00000000000E+00 -0.37108660796E+02  0.37108660796E+02  0.00000000000E+00 0. -1.
          2    1    1    2  501    0  0.43056628666E+02 -0.33620497112E+02  0.29458214383E+03  0.29960449023E+03  0.00000000000E+00 0.  1.
         21    1    1    2  503  502 -0.43056628666E+02  0.33620497112E+02 -0.13033702876E+02  0.56161272322E+02  0.00000000000E+00 0. -1.
</event>
<event>
 4    1  0.2229986E+005  0.2780073E+02  0.7546771E-02  0.1439726E+00
          2   -1    0    0  502    0  0.00000000000E+00  0.00000000000E+00  0.75614720046E+03  0.75614720046E+03  0.00000000000E+00 0. -1.
         21   -1    0    0  503  502 -0.00000000000E+00 -0.00000000000E+00 -0.15705408382E+02  0.15705408382E+02  0.00000000000E+00 0. -1.
          2    1    1    2  501    0 -0.27796717572E+02 -0.47207134505E+00  0.74337763377E+03  0.74389729583E+03  0.00000000000E+00 0. -1.
         21    1    1    2  503  501  0.27796717572E+02  0.47207134505E+00 -0.29358416893E+01  0.27955313011E+02  0.00000000000E+00 0. -1.
</event>
<event>
 4    1  0.2229986E+005  0.2393419E+02  0.7546771E-02  0.1481089E+00
          2   -1    0    0  502    0  0.00000000000E+00  0.00000000000E+00  0.45870943953E+02  0.45870943953E+02  0.00000000000E+00 0. -1.
         21   -1    0    0  503  502 -0.00000000000E+00 -0.00000000000E+00 -0.31765388633E+02  0.31765388633E+02  0.00000000000E+00 0.  1.
          2    1    1    2  501    0  0.19430180770E+02 -0.13975459390E+02  0.37292640061E+02  0.44312372907E+02  0.00000000000E+00 0. -1.
         21    1    1    2  503  501 -0.19430180770E+02  0.13975459390E+02 -0.23187084741E+02  0.33323959679E+02  0.00000000000E+00 0.  1.
</event>
<event>
 4    1  0.2229986E+005  0.2167854E+02  0.7546771E-02  0.1509794E+00
          2   -1    0    0  503    0  0.00000000000E+00  0.00000000000E+00  0.34312553461E+02  0.34312553461E+02  0.00000000000E+00 0.  1.
         21   -1    0    0  501  502 -0.00000000000E+00 -0.00000000000E+00 -0.16443577266E+02  0.16443577266E+02  0.00000000000E+00 0.  1.
          2    1    1    2  501    0 -0.15287985635E+01 -0.21624570853E+02  0.19307426151E+02  0.29029915504E+02  0.00000000000E+00 0.  1.
         21    1    1    2  503  502  0.15287985635E+01  0.21624570853E+02 -0.14384499557E+01  0.21726215223E+02  0.00000000000E+00 0.  1.
</event>
<event>
 4    1  0.2229986E+005  0.2866768E+02  0.7546771E-02  0.1431539E+00
          2   -1    0    0  502    0  0.00000000000E+00  0.00000000000E+00  0.21300019426E+04  0.21300019426E+04  0.00000000000E+00 0. -1.
         21   -1    0    0  503  502 -0.00000000000E+00 -0.00000000000E+00 -0.59230128776E+02  0.59230128776E+02  0.00000000000E+00 0.  1.
          2    1    1    2  501    0 -0.12607218703E+02 -0.25746724085E+02  0.21264308330E+04  0.21266240672E+04  0.00000000000E+00 0. -1.
         21    1    1    2  503  501  0.12607218703E+02  0.25746724085E+02 -0.55659019192E+02  0.62608004136E+02  0.00000000000E+00 0.  1.
</event>
<event>
 4    1  0.2229986E+005  0.3128778E+02  0.7546771E-02  0.1408726E+00
          2   -1    0    0  503    0  0.00000000000E+00  0.00000000000E+00  0.13591911504E+04  0.13591911504E+04  0.00000000000E+00 0. -1.
         21   -1    0    0  501  502 -0.00000000000E+00 -0.00000000000E+00 -0.75114601219E+00  0.75114601219E+00  0.00000000000E+00 0. -1.
          2    1    1    2  501    0  0.17035198818E+02  0.26243614621E+02  0.81717757308E+03  0.81777632104E+03  0.00000000000E+00 0. -1.
         21    1    1    2  503  502 -0.17035198818E+02 -0.26243614621E+02  0.54126243133E+03  0.54216597540E+03  0.00000000000E+00 0. -1.
</event>
<event>
 4    1  0.2229986E+005  0.2242281E+02  0.7546771E-02  0.1499876E+00
          2   -1    0    0  503    0  0.00000000000E+00  0.00000000000E+00  0.10365665560E+03  0.10365665560E+03  0.00000000000E+00 0. -1.
         21   -1    0    0  501  502 -0.00000000000E+00 -0.00000000000E+00 -0.14064383479E+02  0.14064383479E+02  0.00000000000E+00 0.  1.
          2    1    1    2  501    0 -0.19800697655E+02 -0.10522113154E+02  0.92437702765E+02  0.95118407185E+02  0.00000000000E+00 0. -1.
         21    1    1    2  503  502  0.19800697655E+02  0.10522113154E+02 -0.28454306465E+01  0.22602631891E+02  0.00000000000E+00 0.  1.
</event>
<event>
 4    1  0.2229986E+005  0.2105766E+02  0.7546771E-02  0.1518443E+00
          2   -1    0    0  502    0  0.00000000000E+00  0.00000000000E+00  0.13835082134E+04  0.13835082134E+04  0.00000000000E+00 0. -1.
         21   -1    0    0  503  502 -0.00000000000E+00 -0.00000000000E+00 -0.34555872117E+01  0.34555872117E+01  0.00000000000E+00 0.  1.
          2    1    1    2  501    0 -0.40959018998E+01  0.20655478924E+02  0.13505653245E+04  0.13507294773E+04  0.00000000000E+00 0. -1.
         21    1    1    2  503  501  0.40959018998E+01 -0.20655478924E+02  0.29487301693E+02  0.36234323274E+02  0.00000000000E+00 0.  1.
</event>
<event>
 4    1  0.2229986E+005  0.3478252E+02  0.7546771E-02  0.1382099E+00
          2   -1    0    0  503    0  0.00000000000E+00  0.00000000000E+00  0.42475006211E+02  0.42475006211E+02  0.00000000000E+00 0.  1.
         21   -1    0    0  501  502 -0.00000000000E+00 -0.00000000000E+00 -0.29595138179E+02  0.29595138179E+02  0.00000000000E+00 0.  1.
          2    1    1    2  501    0  0.24661712434E+02  0.24528010377E+02  0.13424814039E+02  0.37283360702E+02  0.00000000000E+00 0.  1.
         21    1    1    2  503  502 -0.24661712434E+02 -0.24528010377E+02 -0.54494600674E+00  0.34786783688E+02  0.00000000000E+00 0.  1.
</event>
<event>
 4    1  0.2229986E+005  0.4085606E+02  0.7546771E-02  0.1343541E+00
          2   -1    0    0  502    0  0.00000000000E+00  0.00000000000E+00  0.16830994164E+04  0.16830994164E+04  0.00000000000E+00 0.  1.
         21   -1    0    0  503  502 -0.00000000000E+00 -0.00000000000E+00 -0.48282410113E+01  0.48282410113E+01  0.00000000000E+00 0.  1.
          2    1    1    2  501    0 -0.17109376438E+02  0.37101036088E+02  0.15914447104E+04  0.15919690587E+04  0.00000000000E+00 0.  1.
         21    1    1    2  503  501  0.17109376438E+02 -0.37101036088E+02  0.86826464950E+02  0.95958598659E+02  0.00000000000E+00 0.  1.
</event>
<event>
 4    1  0.2229986E+005  0.2022864E+02  0.7546771E-02  0.1530569E+00
          2   -1    0    0  502    0  0.00000000000E+00  0.00000000000E+00  0.12323279465E+04  0.12323279465E+04  0.00000000000E+00 0. -1.
         21   -1    0    0  503  502 -0.00000000000E+00 -0.00000000000E+00 -0.10393760180E+01  0.10393760180E+01  0.00000000000E+00 0.  1.
          2    1    1    2  501    0  0.17650219221E+02 -0.98826982491E+01  0.11243715908E+04  0.11245535435E+04  0.00000000000E+00 0. -1.
         21    1    1    2  503  501 -0.17650219221E+02  0.98826982491E+01  0.10691697963E+03  0.10881377898E+03  0.00000000000E+00 0.  1.
</event>
<event>
 4    1  0.2229986E+005  0.3738968E+02  0.7546771E-02  0.1364501E+00
          2   -1    0    0  503    0  0.00000000000E+00  0.00000000000E+00  0.39033819822E+03  0.39033819822E+03  0.00000000000E+00 0.  1.
         21   -1    0    0  501  502 -0.00000000000E+00 -0.00000000000E+00 -0.98123794721E+01  0.98123794721E+01  0.00000000000E+00 0. -1.
          2    1    1    2  501    0 -0.33349636386E+02  0.16905330600E+02  0.34969717189E+03  0.35169034743E+03  0.00000000000E+00 0.  1.
         21    1    1    2  503  502  0.33349636386E+02 -0.16905330600E+02  0.30828646862E+02  0.48460230263E+02  0.00000000000E+00 0. -1.
</event>
<event>
 4    1  0.2229986E+005  0.2566989E+02  0.7546771E-02  0.1461447E+00
          2   -1    0    0  503    0  0.00000000000E+00  0.00000000000E+00  0.36785307795E+03  0.36785307795E+03  0.00000000000E+00 0. -1.
         21   -1    0    0  501  502 -0.00000000000E+00 -0.00000000000E+00 -0.21213817087E+01  0.21213817087E+01  0.00000000000E+00 0. -1.
          2    1    1    2  501    0 -0.21468913210E+02  0.14072277451E+02  0.25583322695E+03  0.25711783921E+03  0.00000000000E+00 0. -1.
         21    1    1    2  503  502  0.21468913210E+02 -0.14072277451E+02  0.10989846929E+03  0.11285662045E+03  0.00000000000E+00 0. -1.
</event>
<event>
 4    1  0.2229986E+005  0.2640358E+02  0.7546771E-02  0.1453693E+00
          2   -1    0    0  502    0  0.00000000000E+00  0.00000000000E+00  0.15051491960E+04  0.15051491960E+04  0.00000000000E+00 0.  1.
         21   -1    0    0  503  502 -0.00000000000E+00 -0.00000000000E+00 -0.25751784487E+02  0.25751784487E+02  0.00000000000E+00 0.  1.
          2    1    1    2  501    0 -0.25471614660E+02  0.69531236516E+01  0.14982341986E+04  0.14984668375E+04  0.00000000000E+00 0.  1.
         21    1    1    2  503  501  0.25471614660E+02 -0.69531236516E+01 -0.18836787135E+02  0.32434142990E+02  0.00000000000E+00 0.  1.
</event>
<event>
 4    1  0.2229986E+005  0.2451828E+02  0.7546771E-02  0.1474265E+00
          2   -1    0    0  503    0  0.00000000000E+00  0.00000000000E+00  0.19375522570E+04  0.19375522570E+04  0.00000000000E+00 0. -1.
         21   -1    0    0  501  502 -0.00000000000E+00 -0.00000000000E+00 -0.35383401371E+00  0.35383401371E+00  0.00000000000E+00 0. -1.
          2    1    1    2  501    0  0.12952773069E+02  0.20817584388E+02  0.62857200042E+03  0.62905000267E+03  0.00000000000E+00 0. -1.
         21    1    1    2  503  502 -0.12952773069E+02 -0.20817584388E+02  0.13086264226E+04  0.13088560884E+04  0.00000000000E+00 0. -1.
</event>
<event>
 4    1  0.2229986E+005  0.3814434E+02  0.7546771E-02  0.1359717E+00
          2   -1    0    0  502    0  0.00000000000E+00  0.00000000000E+00  0.87237528371E+03  0.87237528371E+03  0.00000000000E+00 0. -1.
         21   -1    0    0  503  502 -0.00000000000E+00 -0.00000000000E+00 -0.47642403918E+01  0.47642403918E+01  0.00000000000E+00 0. -1.
          2    1    1    2  501    0  0.37815515842E+02  0.49977668926E+01  0.78737089364E+03  0.78829430739E+03  0.00000000000E+00 0. -1.
         21    1    1    2  503  501 -0.37815515842E+02 -0.49977668926E+01  0.80240149685E+02  0.88845216719E+02  0.00000000000E+00 0. -1.
</event>
<event>
 4    1  0.2229986E+005  0.3722888E+02  0.7546771E-02  0.1365537E+00
          2   -1    0    0  502    0  0.00000000000E+00  0.00000000000E+00  0.55462661939E+03  0.55462661939E+03  0.00000000000E+00 0. -1.
         21   -1    0    0  503  502 -0.00000000000E+00 -0.00000000000E+00 -0.14997770735E+02  0.14997770735E+02  0.00000000000E+00 0. -1.
          2    1    1    2  501    0 -0.29560553676E+02  0.22631028315E+02  0.52981814952E+03  0.53112452527E+03  0.00000000000E+00 0. -1.
         21    1    1    2  503  501  0.29560553676E+02 -0.22631028315E+02  0.98106991258E+01  0.38499864851E+02  0.00000000000E+00 0. -1.
</event>
<event>
 4    1  0.2229986E+005  0.3089745E+02  0.7546771E-02  0.1411954E+00
          2   -1    0    0  502    0  0.00000000000E+00  0.00000000000E+00  0.44873380445E+02  0.44873380445E+02  0.00000000000E+00 0.  1.
         21   -1    0    0  503  502 -0.00000000000E+00 -0.00000000000E+00 -0.37933194922E+02  0.37933194922E+02  0.00000000000E+00 0.  1.
          2    1    1    2  501    0 -0.12736671801E+02 -0.28150126164E+02  0.30907776151E+02  0.43702895078E+02  0.00000000000E+00 0.  1.
         21    1    1    2  503  501  0.12736671801E+02  0.28150126164E+02 -0.23967590629E+02  0.39103680289E+02  0.00000000000E+00 0.  1.
</event>
<event>
 4    1  0.2229986E+005  0.3437276E+02  0.7546771E-02  0.1385027E+00
          2   -1    0    0  503    0  0.00000000000E+00  0.00000000000E+00  0.57538307962E+01  0.57538307962E+01  0.00000000000E+00 0. -1.
         21   -1    0    0  501  502 -0.00000000000E+00 -0.00000000000E+00 -0.23908673137E+03  0.23908673137E+03  0.00000000000E+00 0. -1.
          2    1    1    2  501    0 -0.18107579688E+02 -0.29216473358E+02 -0.70672901008E+02  0.78588457769E+02  0.00000000000E+00 0. -1.
         21    1    1    2  503  502  0.18107579688E+02  0.29216473358E+02 -0.16265999956E+03  0.16625210440E+03  0.00000000000E+00 0. -1.
</event>
<event>
 4    1  0.2229986E+005  0.2498719E+02  0.7546771E-02  0.1468947E+00
          2   -1    0    0  503    0  0.00000000000E+00  0.00000000000E+00  0.13231534916E+04  0.13231534916E+04  0.00000000000E+00 0.  1.
         21   -1    0    0  501  502 -0.00000000000E+00 -0.00000000000E+00 -0.22301898153E+01  0.22301898153E+01  0.00000000000E+00 0.  1.
          2    1    1    2  501    0  0.16354016817E+02 -0.18891947160E+02  0.12488842658E+04  0.12491342077E+04  0.00000000000E+00 0.  1.
         21    1    1    2  503  502 -0.16354016817E+02  0.18891947160E+02  0.72039036028E+02  0.76249473738E+02  0.00000000000E+00 0.  1.
</event>
<event>
 4    1  0.2229986E+005  0.2192536E+02  0.7546771E-02  0.1506452E+00
          2   -1    0    0  503    0  0.00000000000E+00  0.00000000000E+00  0.26005423556E+02  0.26005423556E+02  0.00000000000E+00 0.  1.
         21   -1    0    0  501  502 -0.00000000000E+00 -0.00000000000E+00 -0.19789631864E+02  0.19789631864E+02  0.00000000000E+00 0.  1.
          2    1    1    2  501    0  0.10595136107E+02  0.19195423766E+02  0.89860861567E+01  0.23695378180E+02  0.00000000000E+00 0.  1.
         21    1    1    2  503  502 -0.10595136107E+02 -0.19195423766E+02 -0.27702944640E+01  0.22099677240E+02  0.00000000000E+00 0.  1.
</event>
<event>
 4    1  0.2229986E+005  0.3757527E+02  0.7546771E-02  0.1363312E+00
          2   -1    0    0  502    0  0.00000000000E+00  0.00000000000E+00  0.63573670344E+03  0.63573670344E+03  0.00000000000E+00 0.  1.
         21   -1    0    0  503  502 -0.00000000000E+00 -0.00000000000E+00 -0.37740256704E+01  0.37740256704E+01  0.00000000000E+00 0.  1.
          2    1    1    2  501    0  0.34502079615E+02  0.14883133076E+02  0.52110707010E+03  0.52246002685E+03  0.00000000000E+00 0.  1.
         21    1    1    2  503  501 -0.34502079615E+02 -0.14883133076E+02  0.11085560767E+03  0.11705070226E+03  0.00000000000E+00 0.  1.
</event>
<event>
 4    1  0.2229986E+005  0.7554572E+02  0.7546771E-02  0.1214584E+00
          2   -1    0    0  503    0  0.00000000000E+00  0.00000000000E+00  0.77612829608E+02  0.77612829608E+02  0.00000000000E+00 0. -1.
         21   -1    0    0  501  502 -0.00000000000E+00 -0.00000000000E+00 -0.76843012764E+02  0.76843012764E+02  0.00000000000E+00 0.  1.
          2    1    1    2  501    0  0.43121463476E+02 -0.62029787996E+02  0.16411599456E+02  0.77307799140E+02  0.00000000000E+00 0. -1.
         21    1    1    2  503  502 -0.43121463476E+02  0.62029787996E+02 -0.15641782613E+02  0.77148043232E+02  0.00000000000E+00 0.  1.
</event>
<event>
 4    1  0.2229986E+005  0.3540238E+02  0.7546771E-02  0.1377756E+00
          2   -1    0    0  503    0  0.00000000000E+00  0.00000000000E+00  0.16926984370E+03  0.16926984370E+03  0.00000000000E+00 0.  1.
         21   -1    0    0  501  502 -0.00000000000E+00 -0.00000000000E+00 -0.37127466213E+03  0.37127466213E+03  0.00000000000E+00 0.  1.
          2    1    1    2  501    0  0.27208473718E+02  0.22650103869E+02  0.16656125511E+03  0.17028205998E+03  0.00000000000E+00 0.  1.
         21    1    1    2  503  502 -0.27208473718E+02 -0.22650103869E+02 -0.36856607354E+03  0.37026244586E+03  0.00000000000E+00 0.  1.
</event>
<event>
 4    1  0.2229986E+005  0.2770224E+02  0.7546771E-02  0.1440679E+00
          2   -1    0    0  502    0  0.00000000000E+00  0.00000000000E+00  0.54144506084E+03  0.54144506084E+03  0.00000000000E+00 0.  1.
         21   -1    0    0  503  502 -0.00000000000E+00 -0.00000000000E+00 -0.16524744907E+01  0.16524744907E+01  0.00000000000E+00 0. -1.
          2    1    1    2  501    0  0.26772696395E+02  0.71159751761E+01  0.37232793487E+03  0.37335707501E+03  0.00000000000E+00 0.  1.
         21    1    1    2  503  501 -0.26772696395E+02 -0.71159751761E+01  0.16746465148E+03  0.16974046032E+03  0.00000000000E+00 0. -1.
</event>
<event>
 4    1  0.2229986E+005  0.2305780E+02  0.7546771E-02  0.1491774E+00
          2   -1    0    0  502    0  0.00000000000E+00  0.00000000000E+00  0.37486944786E+03  0.37486944786E+03  0.00000000000E+00 0. -1.
         21   -1    0    0  503  502 -0.00000000000E+00 -0.00000000000E+00 -0.22432331031E+01  0.22432331031E+01  0.00000000000E+00 0. -1.
          2    1    1    2  501    0  0.14394629481E+02 -0.18012688219E+02  0.30065986827E+03  0.30154273110E+03  0.00000000000E+00 0. -1.
         21    1    1    2  503  501 -0.14394629481E+02  0.18012688219E+02  0.71966346494E+02  0.75569949864E+02  0.00000000000E+00 0. -1.
</event>
<event>
 4    1  0.2229986E+005  0.2907052E+02  0.7546771E-02  0.1427849E+00
          2   -1    0    0  502    0  0.00000000000E+00  0.00000000000E+00  0.13213563720E+04  0.13213563720E+04  0.00000000000E+00 0.  1.
         21   -1    0    0  503  502 -0.00000000000E+00 -0.00000000000E+00 -0.84866642731E+01  0.84866642731E+01  0.00000000000E+00 0.  1.
          2    1    1    2  501    0 -0.25257033336E+02  0.14393665934E+02  0.12958109667E+04  0.12961370131E+04  0.00000000000E+00 0.  1.
         21    1    1    2  503  501  0.25257033336E+02 -0.14393665934E+02  0.17058741038E+02  0.33706023167E+02  0.00000000000E+00 0.  1.
</event>
<event>
 4    1  0.2229986E+005  0.6806055E+02  0.7546771E-02  0.1234659E+00
          2   -1    0    0  503    0  0.00000000000E+00  0.00000000000E+00  0.18879050653E+02  0.18879050653E+02  0.00000000000E+00 0.  1.
         21   -1    0    0  501  502 -0.00000000000E+00 -0.00000000000E+00 -0.10802518791E+04  0.10802518791E+04  0.00000000000E+00 0.  1.
          2    1    1    2  501    0 -0.12130586604E+02 -0.66970798607E+02 -0.47548631759E+02  0.83024763653E+02  0.00000000000E+00 0.  1.
         21    1    1    2  503  502  0.12130586604E+02  0.66970798607E+02 -0.10138241967E+04  0.10161061661E+04  0.00000000000E+00 0.  1.
</event>
<event>
 4    1  0.2229986E+005  0.2737471E+02  0.7546771E-02  0.1443880E+00
          2   -1    0    0  502    0  0.00000000000E+00  0.00000000000E+00  0.59445655285E+03  0.59445655285E+03  0.00000000000E+00 0. -1.
         21   -1    0    0  503  502 -0.00000000000E+00 -0.00000000000E+00 -0.16085345390E+02  0.16085345390E+02  0.00000000000E+00 0.  1.
          2    1    1    2  501    0 -0.15853881655E+02  0.22316561815E+02  0.58225052627E+03  0.58289368656E+03  0.00000000000E+00 0. -1.
         21    1    1    2  503  501  0.15853881655E+02 -0.22316561815E+02 -0.38793188046E+01  0.27648211681E+02  0.00000000000E+00 0.  1.
</event>
<event>
 4    1  0.2229986E+005  0.2423210E+02  0.7546771E-02  0.1477580E+00
          2   -1    0    0  502    0  0.00000000000E+00  0.00000000000E+00  0.30878716040E+02  0.30878716040E+02  0.00000000000E+00 0. -1.
         21   -1    0    0  503  502 -0.00000000000E+00 -0.00000000000E+00 -0.37506054270E+02  0.37506054270E+02  0.00000000000E+00 0.  1.
          2    1    1    2  501    0 -0.19031588046E+02  0.14999783559E+02  0.20693769581E+02  0.31865764542E+02  0.00000000000E+00 0. -1.
         21    1    1    2  503  501  0.19031588046E+02 -0.14999783559E+02 -0.27321107811E+02  0.36519005769E+02  0.00000000000E+00 0.  1.
</event>
<event>
 4    1  0.2229986E+005  0.3503513E+02  0.7546771E-02  0.1380316E+00
          2   -1    0    0  503    0  0.00000000000E+00  0.00000000000E+00  0.14186241413E+04  0.14186241413E+04  0.00000000000E+00 0.  1.
         21   -1    0    0  501  502 -0.00000000000E+00 -0.00000000000E+00 -0.17321468568E+01  0.17321468568E+01  0.00000000000E+00 0.  1.
          2    1    1    2  501    0 -0.35013401993E+02  0.12336545702E+01  0.12108573261E+04  0.12113640759E+04  0.00000000000E+00 0.  1.
         21    1    1    2  503  502  0.35013401993E+02 -0.12336545702E+01  0.20603466835E+03  0.20899221226E+03  0.00000000000E+00 0.  1.
</event>
<event>
 4    1  0.2229986E+005  0.2166054E+02  0.7546771E-02  0.1510039E+00
          2   -1    0    0  503    0  0.00000000000E+00  0.00000000000E+00  0.14240862197E+04  0.14240862197E+04  0.00000000000E+00 0. -1.
         21   -1    0    0  501  502 -0.00000000000E+00 -0.00000000000E+00 -0.72231381951E+00  0.72231381951E+00  0.00000000000E+00 0. -1.
          2    1    1    2  501    0  0.12264858575E+02 -0.17853636058E+02  0.12370687845E+04  0.12372584033E+04  0.00000000000E+00 0. -1.
         21    1    1    2  503  502 -0.12264858575E+02  0.17853636058E+02  0.18629512139E+03  0.18755013018E+03  0.00000000000E+00 0. -1.
</event>
<event>
 4    1  0.2229986E+005  0.3187648E+02  0.7546771E-02  0.1403961E+00
          2   -1    0    0  503    0  0.00000000000E+00  0.00000000000E+00  0.31729404833E+03  0.31729404833E+03  0.00000000000E+00 0.  1.
         21   -1    0    0  501  502 -0.00000000000E+00 -0.00000000000E+00 -0.56614237441E+01  0.56614237441E+01  0.00000000000E+00 0. -1.
          2    1    1    2  501    0  0.21205006818E+02 -0.23800375976E+02  0.26223772628E+03  0.26416800581E+03  0.00000000000E+00 0.  1.
         21    1    1    2  503  502 -0.21205006818E+02  0.23800375976E+02  0.49394898308E+02  0.58787466263E+02  0.00000000000E+00 0. -1.
</event>
<event>
 4    1  0.2229986E+005  0.2495350E+02  0.7546771E-02  0.1469324E+00
          2   -1    0    0  502    0  0.00000000000E+00  0.00000000000E+00  0.15432580221E+04  0.15432580221E+04  0.00000000000E+00 0. -1.
         21   -1    0    0  503  502 -0.00000000000E+00 -0.00000000000E+00 -0.12071794493E+01  0.12071794493E+01  0.00000000000E+00 0.  1.
          2    1    1    2  501    0 -0.12284087145E+02  0.21720459243E+02  0.14011239353E+04  0.14013461240E+04  0.00000000000E+00 0. -1.
         21    1    1    2  503  501  0.12284087145E+02 -0.21720459243E+02  0.14092690741E+03  0.14311907762E+03  0.00000000000E+00 0.  1.
</event>
<event>
 4    1  0.2229986E+005  0.2444806E+02  0.7546771E-02  0.1475074E+00
          2   -1    0    0  502    0  0.00000000000E+00  0.00000000000E+00  0.32404432028E+03  0.32404432028E+03  0.00000000000E+00 0.  1.
         21   -1    0    0  503  502 -0.00000000000E+00 -0.00000000000E+00 -0.72343957574E+01  0.72343957574E+01  0.00000000000E+00 0.  1.
          2    1    1    2  501    0 -0.23947685301E+02 -0.49209586118E+01  0.30137717235E+03  0.30236717328E+03  0.00000000000E+00 0.  1.
         21    1    1    2  503  501  0.23947685301E+02  0.49209586118E+01  0.15432752176E+02  0.28911542759E+02  0.00000000000E+00 0.  1.
</event>
<event>
 4    1  0.2229986E+005  0.2950826E+02  0.7546771E-02  0.1423918E+00
          2   -1    0    0  502    0  0.00000000000E+00  0.00000000000E+00  0.50660693087E+01  0.50660693087E+01  0.00000000000E+00 0. -1.
         21   -1    0    0  503  502 -0.00000000000E+00 -0.00000000000E+00 -0.33500458894E+03  0.33500458894E+03  0.00000000000E+00 0. -1.
          2    1    1    2  501    0  0.18082690861E+02  0.23318521735E+02 -0.46316334283E+02  0.54917574473E+02  0.00000000000E+00 0. -1.
         21    1    1    2  503  501 -0.18082690861E+02 -0.23318521735E+02 -0.28362218535E+03  0.28515308378E+03  0.00000000000E+00 0. -1.
</event>
<event>
 4    1  0.2229986E+005  0.3423672E+02  0.7546771E-02  0.1386010E+00
          2   -1    0    0  502    0  0.00000000000E+00  0.00000000000E+00  0.16078190518E+03  0.16078190518E+03  0.00000000000E+00 0. -1.
         21   -1    0    0  503  502 -0.00000000000E+00 -0.00000000000E+00 -0.67229108299E+02  0.67229108299E+02  0.00000000000E+00 0. -1.
          2    1    1    2  501    0 -0.51262775195E+01 -0.33850769058E+02  0.15442319097E+03  0.15817292814E+03  0.00000000000E+00 0. -1.
         21    1    1    2  503  501  0.51262775195E+01  0.33850769058E+02 -0.60870394090E+02  0.69838085338E+02  0.00000000000E+00 0. -1.
</event>
<event>
 4    1  0.2229986E+005  0.3693081E+02  0.7546771E-02  0.1367475E+00
          2   -1    0    0  503    0  0.00000000000E+00  0.00000000000E+00  0.15895382819E+04  0.15895382819E+04  0.00000000000E+00 0. -1.
         21   -1    0    0  501  502 -0.00000000000E+00 -0.00000000000E+00 -0.49579517956E+02  0.49579517956E+02  0.00000000000E+00 0.  1.
          2    1    1    2  501    0 -0.11352636509E+02 -0.35142601082E+02  0.15824155617E+04  0.15828464533E+04  0.00000000000E+00 0. -1.
         21    1    1    2  503  502  0.11352636509E+02  0.35142601082E+02 -0.42456797769E+02  0.56271346557E+02  0.00000000000E+00 0.  1.
</event>
<event>
 4    1  0.2229986E+005  0.3244320E+02  0.7546771E-02  0.1399488E+00
          2   -1    0    0  502    0  0.00000000000E+00  0.00000000000E+00  0.23431184771E+03  0.23431184771E+03  0.00000000000E+00 0. -1.
         21   -1    0    0  503  502 -0.00000000000E+00 -0.00000000000E+00 -0.86069199652E+02  0.86069199652E+02  0.00000000000E+00 0.  1.
          2    1    1    2  501    0  0.39653131966E+00 -0.32440774619E+02  0.23007548578E+03  0.23235165214E+03  0.00000000000E+00 0. -1.
         21    1    1    2  503  501 -0.39653131966E+00  0.32440774619E+02 -0.81832837718E+02  0.88029395226E+02  0.00000000000E+00 0.  1.
</event>
<event>
 4    1  0.2229986E+005  0.3709411E+02  0.7546771E-02  0.1366410E+00
          2   -1    0    0  503    0  0.00000000000E+00  0.00000000000E+00  0.10741186302E+04  0.10741186302E+04  0.00000000000E+00 0.  1.
         21   -1    0    0  501  502 -0.00000000000E+00 -0.00000000000E+00 -0.41037242420E+01  0.41037242420E+01  0.00000000000E+00 0.  1.
          2    1    1    2  501    0 -0.31901824876E+02 -0.18927411959E+02  0.98212479627E+03  0.98282505504E+03  0.00000000000E+00 0.  1.
         21    1    1    2  503  502  0.31901824876E+02  0.18927411959E+02  0.87890109719E+02  0.95397299440E+02  0.00000000000E+00 0.  1.
</event>
<event>
 4    1  0.2229986E+005  0.2755990E+02  0.7546771E-02  0.1442063E+00
          2   -1    0    0  503    0  0.00000000000E+00  0.00000000000E+00  0.15114923916E+04  0.15114923916E+04  0.00000000000E+00 0.  1.
         21   -1    0    0  501  502 -0.00000000000E+00 -0.00000000000E+00 -0.53857149829E+00  0.53857149829E+00  0.00000000000E+00 0.  1.
          2    1    1    2  501    0 -0.27470651946E+02 -0.22161212847E+01  0.95109072953E+03  0.95148994935E+03  0.00000000000E+00 0.  1.
         21    1    1    2  503  502  0.27470651946E+02  0.22161212847E+01  0.55986309052E+03  0.56054101370E+03  0.00000000000E+00 0.  1.
</event>
<event>
 4    1  0.2229986E+005  0.2304114E+02  0.7546771E-02  0.1491982E+00
          2   -1    0    0  503    0  0.00000000000E+00  0.00000000000E+00  0.30591285466E+03  0.30591285466E+03  0.00000000000E+00 0.  1.
         21   -1    0    0  501  502 -0.00000000000E+00 -0.00000000000E+00 -0.20472273970E+01  0.20472273970E+01  0.00000000000E+00 0. -1.
          2    1    1    2  501    0  0.22119135699E+02 -0.64527590197E+01  0.21202371411E+03  0.21327200850E+03  0.00000000000E+00 0.  1.
         21    1    1    2  503  502 -0.22119135699E+02  0.64527590197E+01  0.91841913148E+02  0.94688073555E+02  0.00000000000E+00 0. -1.
</event>
<event>
 4    1  0.2229986E+005  0.2123775E+02  0.7546771E-02  0.1515897E+00
          2   -1    0    0  503    0  0.00000000000E+00  0.00000000000E+00  0.20913670318E+02  0.20913670318E+02  0.00000000000E+00 0.  1.
         21   -1    0    0  501  502 -0.00000000000E+00 -0.00000000000E+00 -0.13124997327E+03  0.13124997327E+03  0.00000000000E+00 0. -1.
          2    1    1    2  501    0  0.10293347623E+02  0.18576566819E+02  0.14382501239E+02  0.25649525960E+02  0.00000000000E+00 0.  1.
         21    1    1    2  503  502 -0.10293347623E+02 -0.18576566819E+02 -0.12471880419E+03  0.12651411762E+03  0.00000000000E+00 0. -1.
</event>
<event>
 4    1  0.2229986E+005  0.2192242E+02  0.7546771E-02  0.1506491E+00
          2   -1    0    0  503    0  0.00000000000E+00  0.00000000000E+00  0.17448732822E+01  0.17448732822E+01  0.00000000000E+00 0. -1.
         21   -1    0    0  501  502 -0.00000000000E+00 -0.00000000000E+00 -0.84628841850E+03  0.84628841850E+03  0.00000000000E+00 0. -1.
          2    1    1    2  501    0 -0.19563031228E+02 -0.98934526133E+01 -0.74024724052E+02  0.77202670721E+02  0.00000000000E+00 0. -1.
         21    1    1    2  503  502  0.19563031228E+02  0.98934526133E+01 -0.77051882116E+03  0.77083062106E+03  0.00000000000E+00 0. -1.
</event>
<event>
 4    1  0.2229986E+005  0.2870154E+02  0.7546771E-02  0.1431226E+00
          2   -1    0    0  503    0  0.00000000000E+00  0.00000000000E+00  0.43313202926E+03  0.43313202926E+03  0.00000000000E+00 0.  1.
         21   -1    0    0  501  502 -0.00000000000E+00 -0.00000000000E+00 -0.48706602756E+01  0.48706602756E+01  0.00000000000E+00 0.  1.
          2    1    1    2  501    0  0.10579496091E+02 -0.26680571351E+02  0.38510844073E+03  0.38617650077E+03  0.00000000000E+00 0.  1.
         21    1    1    2  503  502 -0.10579496091E+02  0.26680571351E+02  0.43152928258E+02  0.51826188770E+02  0.00000000000E+00 0.  1.
</event>
<event>
 4    1  0.2229986E+005  0.2390341E+02  0.7546771E-02  0.1481455E+00
          2   -1    0    0  503    0  0.00000000000E+00  0.00000000000E+00  0.12904818776E+04  0.12904818776E+04  0.00000000000E+00 0. -1.
         21   -1    0    0  501  502 -0.00000000000E+00 -0.00000000000E+00 -0.56776217672E+00  0.56776217672E+00  0.00000000000E+00 0.  1.
          2    1    1    2  501    0 -0.20722201391E+02 -0.11914841833E+02  0.94785017573E+03  0.94815153257E+03  0.00000000000E+00 0. -1.
         21    1    1    2  503  502  0.20722201391E+02  0.11914841833E+02  0.34206393969E+03  0.34289810720E+03  0.00000000000E+00 0.  1.
</event>
<event>
 4    1  0.2229986E+005  0.2907259E+02  0.7546771E-02  0.1427830E+00
          2   -1    0    0  503    0  0.00000000000E+00  0.00000000000E+00  0.24349055617E+03  0.24349055617E+03  0.00000000000E+00 0.  1.
         21   -1    0    0  501  502 -0.00000000000E+00 -0.00000000000E+00 -0.35937980185E+01  0.35937980185E+01  0.00000000000E+00 0.  1.
          2    1    1    2  501    0 -0.14009856983E+02  0.25474286080E+02  0.97134420194E+02  0.10139186817E+03  0.00000000000E+00 0.  1.
         21    1    1    2  503  502  0.14009856983E+02 -0.25474286080E+02  0.14276233796E+03  0.14569248602E+03  0.00000000000E+00 0.  1.
</event>
<event>
 4    1  0.2229986E+005  0.2016316E+02  0.7546771E-02  0.1531556E+00
          2   -1    0    0  503    0  0.00000000000E+00  0.00000000000E+00  0.11211516084E+04  0.11211516084E+04  0.00000000000E+00 0. -1.
         21   -1    0    0  501  502 -0.00000000000E+00 -0.00000000000E+00 -0.61647975076E+00  0.61647975076E+00  0.00000000000E+00 0.  1.
          2    1    1    2  501    0 -0.15044834768E+02 -0.13424080158E+02  0.92019077192E+03  0.92041165231E+03  0.00000000000E+00 0. -1.
         21    1    1    2  503  502  0.15044834768E+02  0.13424080158E+02  0.20034435675E+03  0.20135643587E+03  0.00000000000E+00 0.  1.
</event>
<event>
 4    1  0.2229986E+005  0.3886073E+02  0.7546771E-02  0.1355294E+00
          2   -1    0    0  503    0  0.00000000000E+00  0.00000000000E+00  0.79544875231E+03  0.79544875231E+03  0.00000000000E+00 0.  1.
         21   -1    0    0  501  502 -0.00000000000E+00 -0.00000000000E+00 -0.47678913120E+01  0.47678913120E+01  0.00000000000E+00 0. -1.
          2    1    1    2  501    0 -0.38833263709E+02  0.14607884719E+01  0.70573177582E+03  0.70680088828E+03  0.00000000000E+00 0.  1.
         21    1    1    2  503  502  0.38833263709E+02 -0.14607884719E+01  0.84949085179E+02  0.93415755341E+02  0.00000000000E+00 0. -1.
</event>
<event>
 4    1  0.2229986E+005  0.2273549E+02  0.7546771E-02  0.1495847E+00
          2   -1    0    0  502    0  0.00000000000E+00  0.00000000000E+00  0.16794701280E+04  0.16794701280E+04  0.00000000000E+00 0. -1.
         21   -1    0    0  503  502 -0.00000000000E+00 -0.00000000000E+00 -0.42246346303E+01  0.42246346303E+01  0.00000000000E+00 0. -1.
          2    1    1    2  501    0 -0.22735406214E+02 -0.61755892258E-01  0.16482247512E+04  0.16483815496E+04  0.00000000000E+00 0. -1.
         21    1    1    2  503  501  0.22735406214E+02  0.61755892258E-01  0.27020742207E+02  0.35313213093E+02  0.00000000000E+00 0. -1.
</event>
<event>
 4    1  0.2229986E+005  0.2680113E+02  0.7546771E-02  0.1449616E+00
          2   -1    0    0  502    0  0.00000000000E+00  0.00000000000E+00  0.68128532189E+03  0.68128532189E+03  0.00000000000E+00 0. -1.
         21   -1    0    0  503  502 -0.00000000000E+00 -0.00000000000E+00 -0.14305142964E+01  0.14305142964E+01  0.00000000000E+00 0. -1.
          2    1    1    2  501    0  0.26496295390E+02  0.40307442739E+01  0.51497790183E+03  0.51567483935E+03  0.00000000000E+00 0. -1.
         21    1    1    2  503  501 -0.26496295390E+02 -0.40307442739E+01  0.16487690576E+03  0.16704099683E+03  0.00000000000E+00 0. -1.
</event>
<event>
 4    1  0.2229986E+005  0.2849692E+02  0.7546771E-02  0.1433124E+00
          2   -1    0    0  502    0  0.00000000000E+00  0.00000000000E+00  0.33174751821E+03  0.33174751821E+03  0.00000000000E+00 0.  1.
         21   -1    0    0  503  502 -0.00000000000E+00 -0.00000000000E+00 -0.10479676036E+02  0.10479676036E+02  0.00000000000E+00 0. -1.
          2    1    1    2  501    0  0.27254676302E+02 -0.83220678566E+01  0.31043579551E+03  0.31174101002E+03  0.00000000000E+00 0.  1.
         21    1    1    2  503  501 -0.27254676302E+02  0.83220678566E+01  0.10832046664E+02  0.30486184226E+02  0.00000000000E+00 0. -1.
</event>
<event>
 4    1  0.2229986E+005  0.3978080E+02  0.7546771E-02  0.1349775E+00
          2   -1    0    0  503    0  0.00000000000E+00  0.00000000000E+00  0.13949471597E+04  0.13949471597E+04  0.00000000000E+00 0.  1.
         21   -1    0    0  501  502 -0.00000000000E+00 -0.00000000000E+00 -0.83155200379E+01  0.83155200379E+01  0.00000000000E+00 0. -1.
          2    1    1    2  501    0 -0.13657555522E+02  0.37362859055E+02  0.13453322573E+04  0.13459202780E+04  0.00000000000E+00 0.  1.
         21    1    1    2  503  502  0.13657555522E+02 -0.37362859055E+02  0.41299382362E+02  0.57342401790E+02  0.00000000000E+00 0. -1.
</event>
<event>
 4    1  0.2229986E+005  0.2465055E+02  0.7546771E-02  0.1472751E+00
          2   -1    0    0  503    0  0.00000000000E+00  0.00000000000E+00  0.19087508373E+02  0.19087508373E+02  0.00000000000E+00 0.  1.
         21   -1    0    0  501  502 -0.00000000000E+00 -0.00000000000E+00 -0.33739645799E+02  0.33739645799E+02  0.00000000000E+00 0.  1.
          2    1    1    2  501    0  0.21112364080E+02  0.12724686870E+02 -0.10502328821E+01  0.24672911504E+02  0.00000000000E+00 0.  1.
         21    1    1    2  503  502 -0.21112364080E+02 -0.12724686870E+02 -0.13601904544E+02  0.28154242668E+02  0.00000000000E+00 0.  1.
</event>
<event>
 4    1  0.2229986E+005  0.2159440E+02  0.7546771E-02  0.1510945E+00
          2   -1    0    0  503    0  0.00000000000E+00  0.00000000000E+00  0.12738184706E+03  0.12738184706E+03  0.00000000000E+00 0. -1.
         21   -1    0    0  501  502 -0.00000000000E+00 -0.00000000000E+00 -0.17293206985E+02  0.17293206985E+02  0.00000000000E+00 0. -1.
          2    1    1    2  501    0 -0.20586181397E+02  0.65213036187E+01  0.11927053218E+03  0.12120964529E+03  0.00000000000E+00 0. -1.
         21    1    1    2  503  502  0.20586181397E+02 -0.65213036187E+01 -0.91818921031E+01  0.23465408754E+02  0.00000000000E+00 0. -1.
</event>
<event>
 4    1  0.2229986E+005  0.2983915E+02  0.7546771E-02  0.1421000E+00
          2   -1    0    0  502    0  0.00000000000E+00  0.00000000000E+00  0.12863423049E+04  0.12863423049E+04  0.00000000000E+00 0. -1.
         21   -1    0    0  503  502 -0.00000000000E+00 -0.00000000000E+00 -0.97786204944E+00  0.97786204944E+00  0.00000000000E+00 0.  1.
          2    1    1    2  501    0 -0.38943023389E-01 -0.29839124577E+02  0.99058871442E+03  0.99103802954E+03  0.00000000000E+00 0. -1.
         21    1    1    2  503  501  0.38943023389E-01  0.29839124577E+02  0.29477572845E+03  0.29628213742E+03  0.00000000000E+00 0.  1.
</event>
<event>
 4    1  0.2229986E+005  0.2879802E+02  0.7546771E-02  0.1430337E+00
          2   -1    0    0  502    0  0.00000000000E+00  0.00000000000E+00  0.11735439287E+03  0.11735439287E+03  0.00000000000E+00 0. -1.
         21   -1    0    0  503  502 -0.00000000000E+00 -0.00000000000E+00 -0.11330439933E+02  0.11330439933E+02  0.00000000000E+00 0. -1.
          2    1    1    2  501    0  0.24136932438E+02  0.15707776637E+02  0.92481488215E+02  0.96861506373E+02  0.00000000000E+00 0. -1.
         21    1    1    2  503  501 -0.24136932438E+02 -0.15707776637E+02  0.13542464724E+02  0.31823326432E+02  0.00000000000E+00 0. -1.
</event>
<event>
 4    1  0.2229986E+005  0.2361580E+02  0.7546771E-02  0.1484907E+00
          2   -1    0    0  503    0  0.00000000000E+00  0.00000000000E+00  0.12000120308E+04  0.12000120308E+04  0.00000000000E+00 0. -1.
         21   -1    0    0  501  502 -0.00000000000E+00 -0.00000000000E+00 -0.54633596702E+00  0.54633596702E+00  0.00000000000E+00 0.  1.
          2    1    1    2  501    0  0.23040444142E+02 -0.51811287685E+01  0.83170179640E+03  0.83203700897E+03  0.00000000000E+00 0. -1.
         21    1    1    2  503  502 -0.23040444142E+02  0.51811287685E+01  0.36776389843E+03  0.36852135780E+03  0.00000000000E+00 0.  1.
</event>
<event>
 4    1  0.2229986E+005  0.2098695E+02  0.7546771E-02  0.1519451E+00
          2   -1    0    0  503    0  0.00000000000E+00  0.00000000000E+00  0.32423922655E+03  0.32423922655E+03  0.00000000000E+00 0. -1.
         21   -1    0    0  501  502 -0.00000000000E+00 -0.00000000000E+00 -0.63512351992E+01  0.63512351992E+01  0.00000000000E+00 0. -1.
          2    1    1    2  501    0  0.16744365800E+02  0.12652200133E+02  0.30550016952E+03  0.30622019125E+03  0.00000000000E+00 0. -1.
         21    1    1    2  503  502 -0.16744365800E+02 -0.12652200133E+02  0.12387821827E+02  0.24370270492E+02  0.00000000000E+00 0. -1.
</event>
<event>
 4    1  0.2229986E+005  0.3473520E+02  0.7546771E-02  0.1382434E+00
          2   -1    0    0  503    0  0.00000000000E+00  0.00000000000E+00  0.40200047965E+03  0.40200047965E+03  0.00000000000E+00 0.  1.
         21   -1    0    0  501  502 -0.00000000000E+00 -0.00000000000E+00 -0.44522745610E+01  0.44522745610E+01  0.00000000000E+00 0. -1.
          2    1    1    2  501    0 -0.20314655957E+02  0.28175318001E+02  0.31478943122E+03  0.31670004705E+03  0.00000000000E+00 0.  1.
         21    1    1    2  503  502  0.20314655957E+02 -0.28175318001E+02  0.82758773864E+02  0.89752707160E+02  0.00000000000E+00 0. -1.
</event>
<event>
 4    1  0.2229986E+005  0.2489841E+02  0.7546771E-02  0.1469943E+00
          2   -1    0    0  502    0  0.00000000000E+00  0.00000000000E+00  0.41992456852E+02  0.41992456852E+02  0.00000000000E+00 0.  1.
         21   -1    0    0  503  502 -0.00000000000E+00 -0.00000000000E+00 -0.87802504767E+02  0.87802504767E+02  0.00000000000E+00 0.  1.
          2    1    1    2  501    0 -0.85306283542E+01 -0.23391429338E+02  0.36285690615E+02  0.44006612344E+02  0.00000000000E+00 0.  1.
         21    1    1    2  503  501  0.85306283542E+01  0.23391429338E+02 -0.82095738530E+02  0.85788349275E+02  0.00000000000E+00 0.  1.
</event>
<event>
 4    1  0.2229986E+005  0.3611865E+02  0.7546771E-02  0.1372865E+00
          2   -1    0    0  503    0  0.00000000000E+00  0.00000000000E+00  0.23937249856E+04  0.23937249856E+04  0.00000000000E+00 0.  1.
         21   -1    0    0  501  502 -0.00000000000E+00 -0.00000000000E+00 -0.65451185726E+00  0.65451185726E+00  0.00000000000E+00 0. -1.
          2    1    1    2  501    0  0.27532135372E+02  0.23378155445E+02  0.16862624721E+04  0.16866492467E+04  0.00000000000E+00 0.  1.
         21    1    1    2  503  502 -0.27532135372E+02 -0.23378155445E+02  0.70680800169E+03  0.70773025079E+03  0.00000000000E+00 0. -1.
</event>
<event>
 4    1  0.2229986E+005  0.2227573E+02  0.7546771E-02  0.1501799E+00
          2   -1    0    0  503    0  0.00000000000E+00  0.00000000000E+00  0.44667887051E+02  0.44667887051E+02  0.00000000000E+00 0.  1.
         21   -1    0    0  501  502 -0.00000000000E+00 -0.00000000000E+00 -0.18367885805E+02  0.18367885805E+02  0.00000000000E+00 0. -1.
          2    1    1    2  501    0  0.14375902482E+02  0.17015926263E+02  0.32963780357E+02  0.39784659533E+02  0.00000000000E+00 0.  1.
         21    1    1    2  503  502 -0.14375902482E+02 -0.17015926263E+02 -0.66637791111E+01  0.23251113323E+02  0.00000000000E+00 0. -1.
</event>
<event>
 4    1  0.2229986E+005  0.2228280E+02  0.7546771E-02  0.1501706E+00
          2   -1    0    0  503    0  0.00000000000E+00  0.00000000000E+00  0.12758264047E+04  0.12758264047E+04  0.00000000000E+00 0.  1.
         21   -1    0    0  501  502 -0.00000000000E+00 -0.00000000000E+00 -0.15219761241E+01  0.15219761241E+01  0.00000000000E+00 0.  1.
          2    1    1    2  501    0 -0.22067052688E+02 -0.30933001691E+01  0.11881523988E+04  0.11883613281E+04  0.00000000000E+00 0.  1.
         21    1    1    2  503  502  0.22067052688E+02  0.30933001691E+01  0.86152029789E+02  0.88987052750E+02  0.00000000000E+00 0.  1.
</event>
<event>
 4    1  0.2229986E+005  0.2721506E+02  0.7546771E-02  0.1445460E+00
          2   -1    0    0  502    0  0.00000000000E+00  0.00000000000E+00  0.53802665885E+02  0.53802665885E+02  0.00000000000E+00 0.  1.
         21   -1    0    0  503  502 -0.00000000000E+00 -0.00000000000E+00 -0.16386779503E+02  0.16386779503E+02  0.00000000000E+00 0. -1.
          2    1    1    2  501    0  0.11927398746E+02  0.24462142156E+02  0.32742288883E+02  0.42576011098E+02  0.00000000000E+00 0.  1.
         21    1    1    2  503  501 -0.11927398746E+02 -0.24462142156E+02  0.46735974982E+01  0.27613434290E+02  0.00000000000E+00 0. -1.
</event>
<event>
 4    1  0.2229986E+005  0.4832628E+02  0.7546771E-02  0.1305597E+00
          2   -1    0    0  502    0  0.00000000000E+00  0.00000000000E+00  0.13849944836E+02  0.13849944836E+02  0.00000000000E+00 0. -1.
         21   -1    0    0  503  502 -0.00000000000E+00 -0.00000000000E+00 -0.19049205375E+03  0.19049205375E+03  0.00000000000E+00 0.  1.
          2    1    1    2  501    0  0.13272784018E+02 -0.46467861870E+02 -0.53703432877E+02  0.72246021933E+02  0.00000000000E+00 0. -1.
         21    1    1    2  503  501 -0.13272784018E+02  0.46467861870E+02 -0.12293867604E+03  0.13209597665E+03  0.00000000000E+00 0.  1.
</event>
<event>
 4    1  0.2229986E+005  0.3210579E+02  0.7546771E-02  0.1402138E+00
          2   -1    0    0  502    0  0.00000000000E+00  0.00000000000E+00  0.79527650869E+02  0.79527650869E+02  0.00000000000E+00 0. -1.
         21   -1    0    0  503  502 -0.00000000000E+00 -0.00000000000E+00 -0.27750940139E+02  0.27750940139E+02  0.00000000000E+00 0.  1.
          2    1    1    2  501    0  0.31701353464E+02  0.50799311689E+01  0.65046586060E+02  0.72538540585E+02  0.00000000000E+00 0. -1.
         21    1    1    2  503  501 -0.31701353464E+02 -0.50799311689E+01 -0.13269875330E+02  0.34740050423E+02  0.00000000000E+00 0.  1.
</event>
<event>
 4    1  0.2229986E+005  0.2601400E+02  0.7546771E-02  0.1457772E+00
          2   -1    0    0  503    0  0.00000000000E+00  0.00000000000E+00  0.83199187381E+03  0.83199187381E+03  0.00000000000E+00 0.  1.
         21   -1    0    0  501  502 -0.00000000000E+00 -0.00000000000E+00 -0.16332262564E+01  0.16332262564E+01  0.00000000000E+00 0.  1.
          2    1    1    2  501    0  0.21990075122E+02  0.13898378054E+02  0.11986607002E+03  0.12265644320E+03  0.00000000000E+00 0.  1.
         21    1    1    2  503  502 -0.21990075122E+02 -0.13898378054E+02  0.71049257753E+03  0.71096865687E+03  0.00000000000E+00 0.  1.
</event>
<event>
 4    1  0.2229986E+005  0.2360030E+02  0.7546771E-02  0.1485095E+00
          2   -1    0    0  503    0  0.00000000000E+00  0.00000000000E+00  0.72978785557E+03  0.72978785557E+03  0.00000000000E+00 0.  1.
         21   -1    0    0  501  502 -0.00000000000E+00 -0.00000000000E+00 -0.10913552322E+01  0.10913552322E+01  0.00000000000E+00 0.  1.
          2    1    1    2  501    0  0.23015296138E+02 -0.52220993090E+01  0.56473644560E+03  0.56522935802E+03  0.00000000000E+00 0.  1.
         21    1    1    2  503  502 -0.23015296138E+02  0.52220993090E+01  0.16396005474E+03  0.16564985279E+03  0.00000000000E+00 0.  1.
</event>
<event>
 4    1  0.2229986E+005  0.2083387E+02  0.7546771E-02  0.1521650E+00
          2   -1    0    0  503    0  0.00000000000E+00  0.00000000000E+00  0.15990767990E+03  0.15990767990E+03  0.00000000000E+00 0.  1.
         21   -1    0    0  501  502 -0.00000000000E+00 -0.00000000000E+00 -0.27211038430E+01  0.27211038430E+01  0.00000000000E+00 0.  1.
          2    1    1    2  501    0 -0.20696757643E+02  0.23862484507E+01  0.74550750686E+02  0.77407133951E+02  0.00000000000E+00 0.  1.
         21    1    1    2  503  502  0.20696757643E+02 -0.23862484507E+01  0.82635825368E+02  0.85221649789E+02  0.00000000000E+00 0.  1.
</event>
<event>
 4    1  0.2229986E+005  0.7817819E+02  0.7546771E-02  0.1208141E+00
          2   -1    0    0  503    0  0.00000000000E+00  0.00000000000E+00  0.28243623085E+04  0.28243623085E+04  0.00000000000E+00 0. -1.
         21   -1    0    0  501  502 -0.00000000000E+00 -0.00000000000E+00 -0.23276519942E+02  0.23276519942E+02  0.00000000000E+00 0. -1.
          2    1    1    2  501    0 -0.77489290105E+02  0.10355609102E+02  0.27565633921E+04  0.27576717649E+04  0.00000000000E+00 0. -1.
         21    1    1    2  503  502  0.77489290105E+02 -0.10355609102E+02  0.44522396457E+02  0.89967063457E+02  0.00000000000E+00 0. -1.
</event>
<event>
 4    1  0.2229986E+005  0.2113390E+02  0.7546771E-02  0.1517362E+00
          2   -1    0    0  502    0  0.00000000000E+00  0.00000000000E+00  0.15581000478E+04  0.15581000478E+04  0.00000000000E+00 0. -1.
         21   -1    0    0  503  502 -0.00000000000E+00 -0.00000000000E+00 -0.15816218182E+03  0.15816218182E+03  0.00000000000E+00 0. -1.
          2    1    1    2  501    0  0.17303645381E+02  0.12133652433E+02  0.15573220439E+04  0.15574654378E+04  0.00000000000E+00 0. -1.
         21    1    1    2  503  501 -0.17303645381E+02 -0.12133652433E+02 -0.15738417785E+03  0.15879679185E+03  0.00000000000E+00 0. -1.
</event>
<event>
 4    1  0.2229986E+005  0.2384906E+02  0.7546771E-02  0.1482103E+00
          2   -1    0    0  503    0  0.00000000000E+00  0.00000000000E+00  0.15121183810E+01  0.15121183810E+01  0.00000000000E+00 0.  1.
         21   -1    0    0  501  502 -0.00000000000E+00 -0.00000000000E+00 -0.72494308490E+03  0.72494308490E+03  0.00000000000E+00 0. -1.
          2    1    1    2  501    0 -0.17107697299E+02 -0.16616387148E+02 -0.10976617676E+03  0.11232716140E+03  0.00000000000E+00 0.  1.
         21    1    1    2  503  502  0.17107697299E+02  0.16616387148E+02 -0.61366478976E+03  0.61412804187E+03  0.00000000000E+00 0. -1.
</event>
<event>
 4    1  0.2229986E+005  0.2658093E+02  0.7546771E-02  0.1451864E+00
          2   -1    0    0  502    0  0.00000000000E+00  0.00000000000E+00  0.14921170211E+04  0.14921170211E+04  0.00000000000E+00 0.  1.
         21   -1    0    0  503  502 -0.00000000000E+00 -0.00000000000E+00 -0.23089189342E+01  0.23089189342E+01  0.00000000000E+00 0. -1.
          2    1    1    2  501    0 -0.16908806183E+02  0.20509462744E+02  0.14111052543E+04  0.14113555840E+04  0.00000000000E+00 0.  1.
         21    1    1    2  503  501  0.16908806183E+02 -0.20509462744E+02  0.78702847860E+02  0.83070356024E+02  0.00000000000E+00 0. -1.
</event>
<event>
 4    1  0.2229986E+005  0.3200720E+02  0.7546771E-02  0.1402920E+00
          2   -1    0    0  503    0  0.00000000000E+00  0.00000000000E+00  0.22123856669E+03  0.22123856669E+03  0.00000000000E+00 0.  1.
         21   -1    0    0  501  502 -0.00000000000E+00 -0.00000000000E+00 -0.48550575151E+01  0.48550575151E+01  0.00000000000E+00 0. -1.
          2    1    1    2  501    0  0.24955267855E+02  0.20042336735E+02  0.83883303388E+02  0.89782343714E+02  0.00000000000E+00 0.  1.
         21    1    1    2  503  502 -0.24955267855E+02 -0.20042336735E+02  0.13250020578E+03  0.13631128049E+03  0.00000000000E+00 0. -1.
</event>
<event>
 4    1  0.2229986E+005  0.2351929E+02  0.7546771E-02  0.1486078E+00
          2   -1    0    0  503    0  0.00000000000E+00  0.00000000000E+00  0.85225205263E+01  0.85225205263E+01  0.00000000000E+00 0.  1.
         21   -1    0    0  501  502 -0.00000000000E+00 -0.00000000000E+00 -0.46758042066E+03  0.46758042066E+03  0.00000000000E+00 0.  1.
          2    1    1    2  501    0 -0.21872109161E+02 -0.86468504768E+01 -0.86165563373E+01  0.25047998432E+02  0.00000000000E+00 0.  1.
         21    1    1    2  503  502  0.21872109161E+02  0.86468504768E+01 -0.45044134380E+03  0.45105494276E+03  0.00000000000E+00 0.  1.
</event>
<event>
 4    1  0.2229986E+005  0.2828403E+02  0.7546771E-02  0.1435119E+00
          2   -1    0    0  503    0  0.00000000000E+00  0.00000000000E+00  0.46822764262E+02  0.46822764262E+02  0.00000000000E+00 0.  1.
         21   -1    0    0  501  502 -0.00000000000E+00 -0.00000000000E+00 -0.13721985783E+03  0.13721985783E+03  0.00000000000E+00 0.  1.
          2    1    1    2  501    0  0.11943995566E+02 -0.25638397033E+02  0.40903544587E+02  0.49730135656E+02  0.00000000000E+00 0.  1.
         21    1    1    2  503  502 -0.11943995566E+02  0.25638397033E+02 -0.13130063816E+03  0.13431248644E+03  0.00000000000E+00 0.  1.
</event>
