<event>
 4    1  0.8322090E+003  0.2276200E+02  0.7546771E-02  0.1495509E+00
          2   -1    0    0  502    0  0.00000000000E+00  0.00000000000E+00  0.54454718543E+03  0.54454718543E+03  0.00000000000E+00 0.  1.
          1   -1    0    0  501    0 -0.00000000000E+00 -0.00000000000E+00 -0.35239099979E+02  0.35239099979E+02  0.00000000000E+00 0. -1.
          2    1    1    2  501    0 -0.11899683613E+02 -0.19403767348E+02  0.54060687834E+03  0.54108585785E+03  0.00000000000E+00 0.  1.
          1    1    1    2  502    0  0.11899683613E+02  0.19403767348E+02 -0.31298792885E+02  0.38700427562E+02  0.00000000000E+00 0. -1.
</event>
<event>
 4    1  0.8322090E+003  0.2942589E+02  0.7546771E-02  0.1424652E+00
          2   -1    0    0  502    0  0.00000000000E+00  0.00000000000E+00  0.69160108996E+01  0.69160108996E+01  0.00000000000E+00 0. -1.
          1   -1    0    0  501    0 -0.00000000000E+00 -0.00000000000E+00 -0.10196631581E+04  0.10196631581E+04  0.00000000000E+00 0.  1.
          2    1    1    2  501    0 -0.20620346825E+02  0.20992486190E+02 -0.25627921594E+02  0.39021449804E+02  0.00000000000E+00 0. -1.
          1    1    1    2  502    0  0.20620346825E+02 -0.20992486190E+02 -0.98711922565E+03  0.98755771924E+03  0.00000000000E+00 0.  1.
</event>
<event>
 4    1  0.8322090E+003  0.3608852E+02  0.7546771E-02  0.1373068E+00
          2   -1    0    0  502    0  0.00000000000E+00  0.00000000000E+00  0.78664491714E+03  0.78664491714E+03  0.00000000000E+00 0.  1.
          1   -1    0    0  501    0 -0.00000000000E+00 -0.00000000000E+00 -0.64541902881E+02  0.64541902881E+02  0.00000000000E+00 0. -1.
          2    1    1    2  501    0 -0.36025654455E+02 -0.21291434965E+01  0.78115084015E+03  0.78198402547E+03  0.00000000000E+00 0.  1.
          1    1    1    2  502    0  0.36025654455E+02  0.21291434965E+01 -0.59047825890E+02  0.69202794548E+02  0.00000000000E+00 0. -1.
</event>
<event>
 4    1  0.8322090E+003  0.2263965E+02  0.7546771E-02  0.1497073E+00
          2   -1    0    0  502    0  0.00000000000E+00  0.00000000000E+00  0.12700094514E+03  0.12700094514E+03  0.00000000000E+00 0. -1.
          1   -1    0    0  501    0 -0.00000000000E+00 -0.00000000000E+00 -0.38125210501E+02  0.38125210501E+02  0.00000000000E+00 0.  1.
          2    1    1    2  501    0 -0.18293105697E+02 -0.13338513702E+02  0.12250879355E+03  0.12458313755E+03  0.00000000000E+00 0. -1.
          1    1    1    2  502    0  0.18293105697E+02  0.13338513702E+02 -0.33633058916E+02  0.40543018090E+02  0.00000000000E+00 0.  1.
</event>
<event>
 4    1  0.8322090E+003  0.3072500E+02  0.7546771E-02  0.1413399E+00
          2   -1    0    0  502    0  0.00000000000E+00  0.00000000000E+00  0.20983598852E+04  0.20983598852E+04  0.00000000000E+00 0. -1.
          1   -1    0    0  501    0 -0.00000000000E+00 -0.00000000000E+00 -0.10344620172E+02  0.10344620172E+02  0.00000000000E+00 0.  1.
          2    1    1    2  501    0 -0.24602144945E+02  0.18405437382E+02  0.20751781576E+04  0.20754056016E+04  0.00000000000E+00 0. -1.
          1    1    1    2  502    0  0.24602144945E+02 -0.18405437382E+02  0.12837107439E+02  0.33298903713E+02  0.00000000000E+00 0.  1.
</event>
<event>
 4    1  0.8322090E+003  0.2213568E+02  0.7546771E-02  0.1503646E+00
          2   -1    0    0  502    0  0.00000000000E+00  0.00000000000E+00  0.60628725059E+02  0.60628725059E+02  0.00000000000E+00 0.  1.
          1   -1    0    0  501    0 -0.00000000000E+00 -0.00000000000E+00 -0.45622423639E+03  0.45622423639E+03  0.00000000000E+00 0.  1.
          2    1    1    2  501    0 -0.15657828742E+02  0.15646754439E+02  0.58329548246E+02  0.62388498330E+02  0.00000000000E+00 0.  1.
          1    1    1    2  502    0  0.15657828742E+02 -0.15646754439E+02 -0.45392505957E+03  0.45446446311E+03  0.00000000000E+00 0.  1.
</event>
<event>
 4    1  0.8322090E+003  0.2450252E+02  0.7546771E-02  0.1474446E+00
          2   -1    0    0  502    0  0.00000000000E+00  0.00000000000E+00  0.14634422062E+04  0.14634422062E+04  0.00000000000E+00 0.  1.
          1   -1    0    0  501    0 -0.00000000000E+00 -0.00000000000E+00 -0.12193685616E+02  0.12193685616E+02  0.00000000000E+00 0. -1.
          2    1    1    2  501    0 -0.75777431606E+01 -0.23301315806E+02  0.14509243483E+04  0.14511312270E+04  0.00000000000E+00 0.  1.
          1    1    1    2  502    0  0.75777431606E+01  0.23301315806E+02  0.32417228438E+00  0.24504664808E+02  0.00000000000E+00 0. -1.
</event>
<event>
 4    1  0.8322090E+003  0.2730933E+02  0.7546771E-02  0.1444525E+00
          2   -1    0    0  502    0  0.00000000000E+00  0.00000000000E+00  0.15392192494E+04  0.15392192494E+04  0.00000000000E+00 0.  1.
          1   -1    0    0  501    0 -0.00000000000E+00 -0.00000000000E+00 -0.52637505424E+01  0.52637505424E+01  0.00000000000E+00 0.  1.
          2    1    1    2  501    0  0.27124341651E+02  0.31732594936E+01  0.15028187392E+04  0.15030668523E+04  0.00000000000E+00 0.  1.
          1    1    1    2  502    0 -0.27124341651E+02 -0.31732594936E+01  0.31136759624E+02  0.41416147644E+02  0.00000000000E+00 0.  1.
</event>
<event>
 4    1  0.8322090E+003  0.3169326E+02  0.7546771E-02  0.1405431E+00
          2   -1    0    0  502    0  0.00000000000E+00  0.00000000000E+00  0.84228283413E+03  0.84228283413E+03  0.00000000000E+00 0. -1.
          1   -1    0    0  501    0 -0.00000000000E+00 -0.00000000000E+00 -0.16477507991E+03  0.16477507991E+03  0.00000000000E+00 0.  1.
          2    1    1    2  501    0  0.78962157436E+01 -0.30693846922E+02  0.84045739809E+03  0.84105475474E+03  0.00000000000E+00 0. -1.
          1    1    1    2  502    0 -0.78962157436E+01  0.30693846922E+02 -0.16294964387E+03  0.16600315931E+03  0.00000000000E+00 0.  1.
</event>
<event>
 4    1  0.8322090E+003  0.2663503E+02  0.7546771E-02  0.1451309E+00
          2   -1    0    0  502    0  0.00000000000E+00  0.00000000000E+00  0.76920061670E+00  0.76920061670E+00  0.00000000000E+00 0.  1.
          1   -1    0    0  501    0 -0.00000000000E+00 -0.00000000000E+00 -0.13928363186E+04  0.13928363186E+04  0.00000000000E+00 0. -1.
          2    1    1    2  501    0 -0.30685066109E+01 -0.26457689005E+02 -0.29102741787E+03  0.29224370480E+03  0.00000000000E+00 0.  1.
          1    1    1    2  502    0  0.30685066109E+01  0.26457689005E+02 -0.11010397001E+04  0.11013618145E+04  0.00000000000E+00 0. -1.
</event>
<event>
 4    1  0.8322090E+003  0.2266433E+02  0.7546771E-02  0.1496757E+00
          2   -1    0    0  502    0  0.00000000000E+00  0.00000000000E+00  0.27596491412E+01  0.27596491412E+01  0.00000000000E+00 0. -1.
          1   -1    0    0  501    0 -0.00000000000E+00 -0.00000000000E+00 -0.37644227747E+03  0.37644227747E+03  0.00000000000E+00 0.  1.
          2    1    1    2  501    0 -0.33906690106E+01 -0.22409270545E+02 -0.52032875849E+02  0.56754666872E+02  0.00000000000E+00 0. -1.
          1    1    1    2  502    0  0.33906690106E+01  0.22409270545E+02 -0.32164975248E+03  0.32244725974E+03  0.00000000000E+00 0.  1.
</event>
<event>
 4    1  0.8322090E+003  0.2052119E+02  0.7546771E-02  0.1526212E+00
          2   -1    0    0  502    0  0.00000000000E+00  0.00000000000E+00  0.14410650184E+03  0.14410650184E+03  0.00000000000E+00 0.  1.
          1   -1    0    0  501    0 -0.00000000000E+00 -0.00000000000E+00 -0.47025655366E+02  0.47025655366E+02  0.00000000000E+00 0. -1.
          2    1    1    2  501    0 -0.13400310794E+02  0.15541905070E+02  0.14108953727E+03  0.14257410939E+03  0.00000000000E+00 0.  1.
          1    1    1    2  502    0  0.13400310794E+02 -0.15541905070E+02 -0.44008690791E+02  0.48558047816E+02  0.00000000000E+00 0. -1.
</event>
<event>
 4    1  0.8322090E+003  0.2764253E+02  0.7546771E-02  0.1441258E+00
          2   -1    0    0  502    0  0.00000000000E+00  0.00000000000E+00  0.35781978399E+03  0.35781978399E+03  0.00000000000E+00 0.  1.
          1   -1    0    0  501    0 -0.00000000000E+00 -0.00000000000E+00 -0.19213785769E+03  0.19213785769E+03  0.00000000000E+00 0. -1.
          2    1    1    2  501    0  0.26365779735E+02 -0.83039077084E+01  0.35628742977E+03  0.35735814226E+03  0.00000000000E+00 0.  1.
          1    1    1    2  502    0 -0.26365779735E+02  0.83039077084E+01 -0.19060550347E+03  0.19259949942E+03  0.00000000000E+00 0. -1.
</event>
<event>
 4    1  0.8322090E+003  0.2541468E+02  0.7546771E-02  0.1464217E+00
          2   -1    0    0  502    0  0.00000000000E+00  0.00000000000E+00  0.34625310820E+01  0.34625310820E+01  0.00000000000E+00 0. -1.
          1   -1    0    0  501    0 -0.00000000000E+00 -0.00000000000E+00 -0.32872679610E+03  0.32872679610E+03  0.00000000000E+00 0. -1.
          2    1    1    2  501    0  0.15825075322E+01  0.25365351933E+02 -0.27186808908E+03  0.27305340736E+03  0.00000000000E+00 0. -1.
          1    1    1    2  502    0 -0.15825075322E+01 -0.25365351933E+02 -0.53396175931E+02  0.59135919819E+02  0.00000000000E+00 0. -1.
</event>
<event>
 4    1  0.8322090E+003  0.3041208E+02  0.7546771E-02  0.1416049E+00
          2   -1    0    0  502    0  0.00000000000E+00  0.00000000000E+00  0.83463024854E+02  0.83463024854E+02  0.00000000000E+00 0. -1.
          1   -1    0    0  501    0 -0.00000000000E+00 -0.00000000000E+00 -0.63769163743E+02  0.63769163743E+02  0.00000000000E+00 0.  1.
          2    1    1    2  501    0  0.89262000929E+01  0.29072623786E+02  0.76761691684E+02  0.82566650726E+02  0.00000000000E+00 0. -1.
          1    1    1    2  502    0 -0.89262000929E+01 -0.29072623786E+02 -0.57067830572E+02  0.64665537871E+02  0.00000000000E+00 0.  1.
</event>
<event>
 4    1  0.8322090E+003  0.3238033E+02  0.7546771E-02  0.1399979E+00
          2   -1    0    0  502    0  0.00000000000E+00  0.00000000000E+00  0.17220183207E+01  0.17220183207E+01  0.00000000000E+00 0. -1.
          1   -1    0    0  501    0 -0.00000000000E+00 -0.00000000000E+00 -0.66560502930E+03  0.66560502930E+03  0.00000000000E+00 0.  1.
          2    1    1    2  501    0  0.33922414119E+00 -0.32378556673E+02 -0.23452680544E+03  0.23675157545E+03  0.00000000000E+00 0. -1.
          1    1    1    2  502    0 -0.33922414119E+00  0.32378556673E+02 -0.42935620553E+03  0.43057547217E+03  0.00000000000E+00 0.  1.
</event>
<event>
 4    1  0.8322090E+003  0.2691190E+02  0.7546771E-02  0.1448495E+00
          2   -1    0    0  502    0  0.00000000000E+00  0.00000000000E+00  0.29024353430E+03  0.29024353430E+03  0.00000000000E+00 0.  1.
          1   -1    0    0  501    0 -0.00000000000E+00 -0.00000000000E+00 -0.61909548282E+01  0.61909548282E+01  0.00000000000E+00 0.  1.
          2    1    1    2  501    0  0.25909315689E+02  0.72772052116E+01  0.25654184198E+03  0.25794954360E+03  0.00000000000E+00 0.  1.
          1    1    1    2  502    0 -0.25909315689E+02 -0.72772052116E+01  0.27510737487E+02  0.38484945527E+02  0.00000000000E+00 0.  1.
</event>
<event>
 4    1  0.8322090E+003  0.2254566E+02  0.7546771E-02  0.1498283E+00
          2   -1    0    0  502    0  0.00000000000E+00  0.00000000000E+00  0.24835847112E+02  0.24835847112E+02  0.00000000000E+00 0.  1.
          1   -1    0    0  501    0 -0.00000000000E+00 -0.00000000000E+00 -0.91531403268E+02  0.91531403268E+02  0.00000000000E+00 0. -1.
          2    1    1    2  501    0  0.12055371934E+02  0.19051900809E+02  0.17919800142E+02  0.28799759618E+02  0.00000000000E+00 0.  1.
          1    1    1    2  502    0 -0.12055371934E+02 -0.19051900809E+02 -0.84615356298E+02  0.87567490762E+02  0.00000000000E+00 0. -1.
</event>
<event>
 4    1  0.8322090E+003  0.2703615E+02  0.7546771E-02  0.1447245E+00
          2   -1    0    0  502    0  0.00000000000E+00  0.00000000000E+00  0.24800183974E+04  0.24800183974E+04  0.00000000000E+00 0.  1.
          1   -1    0    0  501    0 -0.00000000000E+00 -0.00000000000E+00 -0.35493135414E+00  0.35493135414E+00  0.00000000000E+00 0.  1.
          2    1    1    2  501    0 -0.13567998028E+02  0.23385095949E+02  0.17505631893E+04  0.17507719535E+04  0.00000000000E+00 0.  1.
          1    1    1    2  502    0  0.13567998028E+02 -0.23385095949E+02  0.72910027669E+03  0.72960137524E+03  0.00000000000E+00 0.  1.
</event>
<event>
 4    1  0.8322090E+003  0.2086608E+02  0.7546771E-02  0.1521186E+00
          2   -1    0    0  502    0  0.00000000000E+00  0.00000000000E+00  0.88391101177E+02  0.88391101177E+02  0.00000000000E+00 0.  1.
          1   -1    0    0  501    0 -0.00000000000E+00 -0.00000000000E+00 -0.21712045975E+03  0.21712045975E+03  0.00000000000E+00 0. -1.
          2    1    1    2  501    0  0.20717373917E+02 -0.24866685670E+01  0.86648394423E+02  0.89125402432E+02  0.00000000000E+00 0.  1.
          1    1    1    2  502    0 -0.20717373917E+02  0.24866685670E+01 -0.21537775300E+03  0.21638615850E+03  0.00000000000E+00 0. -1.
</event>
<event>
 4    1  0.8322090E+003  0.2591312E+02  0.7546771E-02  0.1458842E+00
          2   -1    0    0  502    0  0.00000000000E+00  0.00000000000E+00  0.13108259921E+03  0.13108259921E+03  0.00000000000E+00 0.  1.
          1   -1    0    0  501    0 -0.00000000000E+00 -0.00000000000E+00 -0.16548656349E+02  0.16548656349E+02  0.00000000000E+00 0.  1.
          2    1    1    2  501    0  0.25912650483E+02 -0.15608043810E+00  0.11860280139E+03  0.12140063556E+03  0.00000000000E+00 0.  1.
          1    1    1    2  502    0 -0.25912650483E+02  0.15608043810E+00 -0.40688585258E+01  0.26230620006E+02  0.00000000000E+00 0.  1.
</event>
<event>
 4    1  0.8322090E+003  0.2702669E+02  0.7546771E-02  0.1447340E+00
          2   -1    0    0  502    0  0.00000000000E+00  0.00000000000E+00  0.15813696272E+03  0.15813696272E+03  0.00000000000E+00 0.  1.
          1   -1    0    0  501    0 -0.00000000000E+00 -0.00000000000E+00 -0.37846664043E+03  0.37846664043E+03  0.00000000000E+00 0.  1.
          2    1    1    2  501    0 -0.20742529561E+02  0.17325977791E+02  0.15649467380E+03  0.15881128728E+03  0.00000000000E+00 0.  1.
          1    1    1    2  502    0  0.20742529561E+02 -0.17325977791E+02 -0.37682435151E+03  0.37779231587E+03  0.00000000000E+00 0.  1.
</event>
<event>
 4    1  0.8322090E+003  0.2578263E+02  0.7546771E-02  0.1460235E+00
          2   -1    0    0  502    0  0.00000000000E+00  0.00000000000E+00  0.52843564241E+03  0.52843564241E+03  0.00000000000E+00 0.  1.
          1   -1    0    0  501    0 -0.00000000000E+00 -0.00000000000E+00 -0.45476597537E+01  0.45476597537E+01  0.00000000000E+00 0.  1.
          2    1    1    2  501    0  0.24927769478E+02 -0.65841116497E+01  0.48860070701E+03  0.48928048715E+03  0.00000000000E+00 0.  1.
          1    1    1    2  502    0 -0.24927769478E+02  0.65841116497E+01  0.35287275645E+02  0.43702815011E+02  0.00000000000E+00 0.  1.
</event>
<event>
 4    1  0.8322090E+003  0.2688909E+02  0.7546771E-02  0.1448725E+00
          2   -1    0    0  502    0  0.00000000000E+00  0.00000000000E+00  0.82480841084E+03  0.82480841084E+03  0.00000000000E+00 0.  1.
          1   -1    0    0  501    0 -0.00000000000E+00 -0.00000000000E+00 -0.17402040031E+01  0.17402040031E+01  0.00000000000E+00 0.  1.
          2    1    1    2  501    0 -0.11997522068E+02  0.24064135734E+02  0.70267072222E+03  0.70318501621E+03  0.00000000000E+00 0.  1.
          1    1    1    2  502    0  0.11997522068E+02 -0.24064135734E+02  0.12039748462E+03  0.12336359864E+03  0.00000000000E+00 0.  1.
</event>
<event>
 4    1  0.8322090E+003  0.2046083E+02  0.7546771E-02  0.1527104E+00
          2   -1    0    0  502    0  0.00000000000E+00  0.00000000000E+00  0.10192799045E+04  0.10192799045E+04  0.00000000000E+00 0.  1.
          1   -1    0    0  501    0 -0.00000000000E+00 -0.00000000000E+00 -0.15458836176E+01  0.15458836176E+01  0.00000000000E+00 0.  1.
          2    1    1    2  501    0 -0.18240361808E+02  0.92701104108E+01  0.94624924410E+03  0.94647043150E+03  0.00000000000E+00 0.  1.
          1    1    1    2  502    0  0.18240361808E+02 -0.92701104108E+01  0.71484776776E+02  0.74355356611E+02  0.00000000000E+00 0.  1.
</event>
<event>
 4    1  0.8322090E+003  0.2451079E+02  0.7546771E-02  0.1474351E+00
          2   -1    0    0  502    0  0.00000000000E+00  0.00000000000E+00  0.31992452586E+02  0.31992452586E+02  0.00000000000E+00 0. -1.
          1   -1    0    0  501    0 -0.00000000000E+00 -0.00000000000E+00 -0.21647532244E+03  0.21647532244E+03  0.00000000000E+00 0.  1.
          2    1    1    2  501    0 -0.21018786052E+01  0.24420498505E+02  0.26481721618E+02  0.36084071565E+02  0.00000000000E+00 0. -1.
          1    1    1    2  502    0  0.21018786052E+01 -0.24420498505E+02 -0.21096459147E+03  0.21238370346E+03  0.00000000000E+00 0.  1.
</event>
<event>
 4    1  0.8322090E+003  0.2126294E+02  0.7546771E-02  0.1515544E+00
          2   -1    0    0  502    0  0.00000000000E+00  0.00000000000E+00  0.25371566510E+03  0.25371566510E+03  0.00000000000E+00 0. -1.
          1   -1    0    0  501    0 -0.00000000000E+00 -0.00000000000E+00 -0.41130517748E+01  0.41130517748E+01  0.00000000000E+00 0. -1.
          2    1    1    2  501    0  0.19698873260E+02  0.80041892093E+01  0.22185193328E+03  0.22286855533E+03  0.00000000000E+00 0. -1.
          1    1    1    2  502    0 -0.19698873260E+02 -0.80041892093E+01  0.27750680046E+02  0.34960161550E+02  0.00000000000E+00 0. -1.
</event>
<event>
 4    1  0.8322090E+003  0.2200029E+02  0.7546771E-02  0.1505448E+00
          2   -1    0    0  502    0  0.00000000000E+00  0.00000000000E+00  0.12837101121E+04  0.12837101121E+04  0.00000000000E+00 0.  1.
          1   -1    0    0  501    0 -0.00000000000E+00 -0.00000000000E+00 -0.46813765821E+01  0.46813765821E+01  0.00000000000E+00 0.  1.
          2    1    1    2  501    0  0.15958517360E+02 -0.15143921893E+02  0.12572235722E+04  0.12574160501E+04  0.00000000000E+00 0.  1.
          1    1    1    2  502    0 -0.15958517360E+02  0.15143921893E+02  0.21805163367E+02  0.30975438595E+02  0.00000000000E+00 0.  1.
</event>
<event>
 4    1  0.8322090E+003  0.2415486E+02  0.7546771E-02  0.1478484E+00
          2   -1    0    0  502    0  0.00000000000E+00  0.00000000000E+00  0.41022819996E+03  0.41022819996E+03  0.00000000000E+00 0. -1.
          1   -1    0    0  501    0 -0.00000000000E+00 -0.00000000000E+00 -0.27366409741E+02  0.27366409741E+02  0.00000000000E+00 0. -1.
          2    1    1    2  501    0  0.16654497978E+02 -0.17495281705E+02  0.40446672567E+03  0.40518735094E+03  0.00000000000E+00 0. -1.
          1    1    1    2  502    0 -0.16654497978E+02  0.17495281705E+02 -0.21604935451E+02  0.32407258765E+02  0.00000000000E+00 0. -1.
</event>
<event>
 4    1  0.8322090E+003  0.2186249E+02  0.7546771E-02  0.1507298E+00
          2   -1    0    0  502    0  0.00000000000E+00  0.00000000000E+00  0.21998042926E+03  0.21998042926E+03  0.00000000000E+00 0. -1.
          1   -1    0    0  501    0 -0.00000000000E+00 -0.00000000000E+00 -0.26537088871E+02  0.26537088871E+02  0.00000000000E+00 0.  1.
          2    1    1    2  501    0  0.28301215743E+01 -0.21678534433E+02  0.21482665431E+03  0.21593624023E+03  0.00000000000E+00 0. -1.
          1    1    1    2  502    0 -0.28301215743E+01  0.21678534433E+02 -0.21383313925E+02  0.30581277896E+02  0.00000000000E+00 0.  1.
</event>
<event>
 4    1  0.8322090E+003  0.6297984E+02  0.7546771E-02  0.1250031E+00
          2   -1    0    0  502    0  0.00000000000E+00  0.00000000000E+00  0.25109640257E+04  0.25109640257E+04  0.00000000000E+00 0. -1.
          1   -1    0    0  501    0 -0.00000000000E+00 -0.00000000000E+00 -0.88870323881E+01  0.88870323881E+01  0.00000000000E+00 0. -1.
          2    1    1    2  501    0  0.19668090219E+02 -0.59829981501E+02  0.23935148514E+04  0.23943432930E+04  0.00000000000E+00 0. -1.
          1    1    1    2  502    0 -0.19668090219E+02  0.59829981501E+02  0.10856214183E+03  0.12550776509E+03  0.00000000000E+00 0. -1.
</event>
<event>
 4    1  0.8322090E+003  0.2567919E+02  0.7546771E-02  0.1461347E+00
          2   -1    0    0  502    0  0.00000000000E+00  0.00000000000E+00  0.18506268637E+03  0.18506268637E+03  0.00000000000E+00 0. -1.
          1   -1    0    0  501    0 -0.00000000000E+00 -0.00000000000E+00 -0.28532992115E+02  0.28532992115E+02  0.00000000000E+00 0. -1.
          2    1    1    2  501    0 -0.11429072367E+02  0.22995588870E+02  0.17817186954E+03  0.18001287703E+03  0.00000000000E+00 0. -1.
          1    1    1    2  502    0  0.11429072367E+02 -0.22995588870E+02 -0.21642175282E+02  0.33582801455E+02  0.00000000000E+00 0. -1.
</event>
<event>
 4    1  0.8322090E+003  0.2014706E+02  0.7546771E-02  0.1531799E+00
          2   -1    0    0  502    0  0.00000000000E+00  0.00000000000E+00  0.51495024449E+02  0.51495024449E+02  0.00000000000E+00 0. -1.
          1   -1    0    0  501    0 -0.00000000000E+00 -0.00000000000E+00 -0.18518700434E+02  0.18518700434E+02  0.00000000000E+00 0.  1.
          2    1    1    2  501    0 -0.12804096690E+02 -0.15555038972E+02  0.43018533570E+02  0.47502614244E+02  0.00000000000E+00 0. -1.
          1    1    1    2  502    0  0.12804096690E+02  0.15555038972E+02 -0.10042209555E+02  0.22511110639E+02  0.00000000000E+00 0.  1.
</event>
<event>
 4    1  0.8322090E+003  0.2148406E+02  0.7546771E-02  0.1512465E+00
          2   -1    0    0  502    0  0.00000000000E+00  0.00000000000E+00  0.76322464887E+03  0.76322464887E+03  0.00000000000E+00 0. -1.
          1   -1    0    0  501    0 -0.00000000000E+00 -0.00000000000E+00 -0.23819506933E+02  0.23819506933E+02  0.00000000000E+00 0.  1.
          2    1    1    2  501    0  0.19140632312E+02 -0.97570906160E+01  0.75819694518E+03  0.75850126717E+03  0.00000000000E+00 0. -1.
          1    1    1    2  502    0 -0.19140632312E+02  0.97570906160E+01 -0.18791803239E+02  0.28542888634E+02  0.00000000000E+00 0.  1.
</event>
<event>
 4    1  0.8322090E+003  0.2227608E+02  0.7546771E-02  0.1501794E+00
          2   -1    0    0  502    0  0.00000000000E+00  0.00000000000E+00  0.37546052591E+03  0.37546052591E+03  0.00000000000E+00 0. -1.
          1   -1    0    0  501    0 -0.00000000000E+00 -0.00000000000E+00 -0.18437957218E+01  0.18437957218E+01  0.00000000000E+00 0.  1.
          2    1    1    2  501    0 -0.21271417411E+02 -0.66144059726E+01  0.28720184231E+03  0.28806444034E+03  0.00000000000E+00 0. -1.
          1    1    1    2  502    0  0.21271417411E+02  0.66144059726E+01  0.86414887878E+02  0.89239881287E+02  0.00000000000E+00 0.  1.
</event>
<event>
 4    1  0.8322090E+003  0.2874417E+02  0.7546771E-02  0.1430833E+00
          2   -1    0    0  502    0  0.00000000000E+00  0.00000000000E+00  0.33552035113E+02  0.33552035113E+02  0.00000000000E+00 0.  1.
          1   -1    0    0  501    0 -0.00000000000E+00 -0.00000000000E+00 -0.90014928231E+02  0.90014928231E+02  0.00000000000E+00 0.  1.
          2    1    1    2  501    0  0.59734710748E+01  0.28116631516E+02  0.24427201093E+02  0.37721551900E+02  0.00000000000E+00 0.  1.
          1    1    1    2  502    0 -0.59734710748E+01 -0.28116631516E+02 -0.80890094212E+02  0.85845411444E+02  0.00000000000E+00 0.  1.
</event>
<event>
 4    1  0.8322090E+003  0.2996815E+02  0.7546771E-02  0.1419874E+00
          2   -1    0    0  502    0  0.00000000000E+00  0.00000000000E+00  0.33093721590E+03  0.33093721590E+03  0.00000000000E+00 0.  1.
          1   -1    0    0  501    0 -0.00000000000E+00 -0.00000000000E+00 -0.15684239350E+02  0.15684239350E+02  0.00000000000E+00 0. -1.
          2    1    1    2  501    0  0.18022393318E+02 -0.23943333109E+02  0.31523201430E+03  0.31665330048E+03  0.00000000000E+00 0.  1.
          1    1    1    2  502    0 -0.18022393318E+02  0.23943333109E+02  0.20962250047E-01  0.29968154776E+02  0.00000000000E+00 0. -1.
</event>
<event>
 4    1  0.8322090E+003  0.3421484E+02  0.7546771E-02  0.1386169E+00
          2   -1    0    0  502    0  0.00000000000E+00  0.00000000000E+00  0.28252618939E+02  0.28252618939E+02  0.00000000000E+00 0. -1.
          1   -1    0    0  501    0 -0.00000000000E+00 -0.00000000000E+00 -0.53653135807E+02  0.53653135807E+02  0.00000000000E+00 0.  1.
          2    1    1    2  501    0 -0.33712887166E+02  0.58391959361E+01  0.68424383381E+01  0.34892319107E+02  0.00000000000E+00 0. -1.
          1    1    1    2  502    0  0.33712887166E+02 -0.58391959361E+01 -0.32242955206E+02  0.47013435640E+02  0.00000000000E+00 0.  1.
</event>
<event>
 4    1  0.8322090E+003  0.2085443E+02  0.7546771E-02  0.1521353E+00
          2   -1    0    0  502    0  0.00000000000E+00  0.00000000000E+00  0.27854503160E+02  0.27854503160E+02  0.00000000000E+00 0. -1.
          1   -1    0    0  501    0 -0.00000000000E+00 -0.00000000000E+00 -0.58824113555E+02  0.58824113555E+02  0.00000000000E+00 0.  1.
          2    1    1    2  501    0 -0.17198862019E+02  0.11794339062E+02  0.21660105280E+02  0.30067714403E+02  0.00000000000E+00 0. -1.
          1    1    1    2  502    0  0.17198862019E+02 -0.11794339062E+02 -0.52629715674E+02  0.56610902312E+02  0.00000000000E+00 0.  1.
</event>
<event>
 4    1  0.8322090E+003  0.5935276E+02  0.7546771E-02  0.1262048E+00
          2   -1    0    0  502    0  0.00000000000E+00  0.00000000000E+00  0.14518605595E+04  0.14518605595E+04  0.00000000000E+00 0.  1.
          1   -1    0    0  501    0 -0.00000000000E+00 -0.00000000000E+00 -0.68397410549E+01  0.68397410549E+01  0.00000000000E+00 0. -1.
          2    1    1    2  501    0  0.61025972379E+01  0.59038196323E+02  0.13083807164E+04  0.13097262498E+04  0.00000000000E+00 0.  1.
          1    1    1    2  502    0 -0.61025972379E+01 -0.59038196323E+02  0.13664010209E+03  0.14897405082E+03  0.00000000000E+00 0. -1.
</event>
<event>
 4    1  0.8322090E+003  0.3248969E+02  0.7546771E-02  0.1399126E+00
          2   -1    0    0  502    0  0.00000000000E+00  0.00000000000E+00  0.83043567113E+02  0.83043567113E+02  0.00000000000E+00 0.  1.
          1   -1    0    0  501    0 -0.00000000000E+00 -0.00000000000E+00 -0.21935839638E+02  0.21935839638E+02  0.00000000000E+00 0.  1.
          2    1    1    2  501    0  0.31887982564E+02  0.62238559052E+01  0.64592543389E+02  0.72303364208E+02  0.00000000000E+00 0.  1.
          1    1    1    2  502    0 -0.31887982564E+02 -0.62238559052E+01 -0.34848159140E+01  0.32676042543E+02  0.00000000000E+00 0.  1.
</event>
<event>
 4    1  0.8322090E+003  0.3059994E+02  0.7546771E-02  0.1414453E+00
          2   -1    0    0  502    0  0.00000000000E+00  0.00000000000E+00  0.24231762084E+03  0.24231762084E+03  0.00000000000E+00 0. -1.
          1   -1    0    0  501    0 -0.00000000000E+00 -0.00000000000E+00 -0.58767797319E+01  0.58767797319E+01  0.00000000000E+00 0. -1.
          2    1    1    2  501    0 -0.29313781800E+02  0.87782973201E+01  0.19084307830E+03  0.19328072031E+03  0.00000000000E+00 0. -1.
          1    1    1    2  502    0  0.29313781800E+02 -0.87782973201E+01  0.45597762813E+02  0.54913680270E+02  0.00000000000E+00 0. -1.
</event>
<event>
 4    1  0.8322090E+003  0.3709776E+02  0.7546771E-02  0.1366387E+00
          2   -1    0    0  502    0  0.00000000000E+00  0.00000000000E+00  0.50607015388E+03  0.50607015388E+03  0.00000000000E+00 0.  1.
          1   -1    0    0  501    0 -0.00000000000E+00 -0.00000000000E+00 -0.35176032045E+01  0.35176032045E+01  0.00000000000E+00 0. -1.
          2    1    1    2  501    0 -0.26220676341E+02 -0.26243472562E+02  0.37264384455E+03  0.37448588572E+03  0.00000000000E+00 0.  1.
          1    1    1    2  502    0  0.26220676341E+02  0.26243472562E+02  0.12990870612E+03  0.13510187136E+03  0.00000000000E+00 0. -1.
</event>
<event>
 4    1  0.8322090E+003  0.2598477E+02  0.7546771E-02  0.1458082E+00
          2   -1    0    0  502    0  0.00000000000E+00  0.00000000000E+00  0.11475324469E+02  0.11475324469E+02  0.00000000000E+00 0. -1.
          1   -1    0    0  501    0 -0.00000000000E+00 -0.00000000000E+00 -0.36697055317E+03  0.36697055317E+03  0.00000000000E+00 0. -1.
          2    1    1    2  501    0  0.21967896179E+01  0.25891742095E+02 -0.43570139189E+01  0.26347519117E+02  0.00000000000E+00 0. -1.
          1    1    1    2  502    0 -0.21967896179E+01 -0.25891742095E+02 -0.35113821478E+03  0.35209835852E+03  0.00000000000E+00 0. -1.
</event>
<event>
 4    1  0.8322090E+003  0.4766650E+02  0.7546771E-02  0.1308620E+00
          2   -1    0    0  502    0  0.00000000000E+00  0.00000000000E+00  0.33004028548E+02  0.33004028548E+02  0.00000000000E+00 0.  1.
          1   -1    0    0  501    0 -0.00000000000E+00 -0.00000000000E+00 -0.12077462133E+03  0.12077462133E+03  0.00000000000E+00 0.  1.
          2    1    1    2  501    0  0.36116153909E+02 -0.31108183185E+02  0.65337045276E+01  0.48112211850E+02  0.00000000000E+00 0.  1.
          1    1    1    2  502    0 -0.36116153909E+02  0.31108183185E+02 -0.94304297306E+02  0.10566643802E+03  0.00000000000E+00 0.  1.
</event>
<event>
 4    1  0.8322090E+003  0.2197692E+02  0.7546771E-02  0.1505761E+00
          2   -1    0    0  502    0  0.00000000000E+00  0.00000000000E+00  0.97935163561E+01  0.97935163561E+01  0.00000000000E+00 0. -1.
          1   -1    0    0  501    0 -0.00000000000E+00 -0.00000000000E+00 -0.53259295792E+02  0.53259295792E+02  0.00000000000E+00 0. -1.
          2    1    1    2  501    0  0.21628852008E+02 -0.38958631843E+01 -0.13155368471E+02  0.25613447811E+02  0.00000000000E+00 0. -1.
          1    1    1    2  502    0 -0.21628852008E+02  0.38958631843E+01 -0.30310410965E+02  0.37439364337E+02  0.00000000000E+00 0. -1.
</event>
<event>
 4    1  0.8322090E+003  0.2202978E+02  0.7546771E-02  0.1505054E+00
          2   -1    0    0  502    0  0.00000000000E+00  0.00000000000E+00  0.37562412314E+02  0.37562412314E+02  0.00000000000E+00 0.  1.
          1   -1    0    0  501    0 -0.00000000000E+00 -0.00000000000E+00 -0.45741130266E+02  0.45741130266E+02  0.00000000000E+00 0. -1.
          2    1    1    2  501    0  0.95011794858E+01  0.19875587259E+02  0.31192861739E+02  0.38187772965E+02  0.00000000000E+00 0.  1.
          1    1    1    2  502    0 -0.95011794858E+01 -0.19875587259E+02 -0.39371579692E+02  0.45115769615E+02  0.00000000000E+00 0. -1.
</event>
<event>
 4    1  0.8322090E+003  0.2186164E+02  0.7546771E-02  0.1507310E+00
          2   -1    0    0  502    0  0.00000000000E+00  0.00000000000E+00  0.13559525548E+03  0.13559525548E+03  0.00000000000E+00 0.  1.
          1   -1    0    0  501    0 -0.00000000000E+00 -0.00000000000E+00 -0.98864215153E+02  0.98864215153E+02  0.00000000000E+00 0. -1.
          2    1    1    2  501    0 -0.21581703524E+02 -0.34873146090E+01  0.13348656282E+03  0.13526490212E+03  0.00000000000E+00 0.  1.
          1    1    1    2  502    0  0.21581703524E+02  0.34873146090E+01 -0.96755522495E+02  0.99194568518E+02  0.00000000000E+00 0. -1.
</event>
<event>
 4    1  0.8322090E+003  0.3332578E+02  0.7546771E-02  0.1392732E+00
          2   -1    0    0  502    0  0.00000000000E+00  0.00000000000E+00  0.88483750824E+01  0.88483750824E+01  0.00000000000E+00 0.  1.
          1   -1    0    0  501    0 -0.00000000000E+00 -0.00000000000E+00 -0.17294778147E+04  0.17294778147E+04  0.00000000000E+00 0. -1.
          2    1    1    2  501    0  0.22885999550E+02 -0.24224746589E+02 -0.23285008780E+02  0.40654630199E+02  0.00000000000E+00 0.  1.
          1    1    1    2  502    0 -0.22885999550E+02  0.24224746589E+02 -0.16973444308E+04  0.16976715596E+04  0.00000000000E+00 0. -1.
</event>
<event>
 4    1  0.8322090E+003  0.2162713E+02  0.7546771E-02  0.1510496E+00
          2   -1    0    0  502    0  0.00000000000E+00  0.00000000000E+00  0.10522253881E+04  0.10522253881E+04  0.00000000000E+00 0.  1.
          1   -1    0    0  501    0 -0.00000000000E+00 -0.00000000000E+00 -0.61055320578E+00  0.61055320578E+00  0.00000000000E+00 0. -1.
          2    1    1    2  501    0  0.17676651327E+02  0.12460695557E+02  0.80032443770E+03  0.80061659895E+03  0.00000000000E+00 0.  1.
          1    1    1    2  502    0 -0.17676651327E+02 -0.12460695557E+02  0.25129039721E+03  0.25221934237E+03  0.00000000000E+00 0. -1.
</event>
<event>
 4    1  0.8322090E+003  0.2451909E+02  0.7546771E-02  0.1474256E+00
          2   -1    0    0  502    0  0.00000000000E+00  0.00000000000E+00  0.46175214775E+03  0.46175214775E+03  0.00000000000E+00 0.  1.
          1   -1    0    0  501    0 -0.00000000000E+00 -0.00000000000E+00 -0.38695697802E+03  0.38695697802E+03  0.00000000000E+00 0.  1.
          2    1    1    2  501    0  0.21539618733E+02 -0.11714537756E+02  0.46103764881E+03  0.46168918028E+03  0.00000000000E+00 0.  1.
          1    1    1    2  502    0 -0.21539618733E+02  0.11714537756E+02 -0.38624247907E+03  0.38701994549E+03  0.00000000000E+00 0.  1.
</event>
<event>
 4    1  0.8322090E+003  0.6036420E+02  0.7546771E-02  0.1258600E+00
          2   -1    0    0  502    0  0.00000000000E+00  0.00000000000E+00  0.11603433055E+04  0.11603433055E+04  0.00000000000E+00 0. -1.
          1   -1    0    0  501    0 -0.00000000000E+00 -0.00000000000E+00 -0.34961801574E+02  0.34961801574E+02  0.00000000000E+00 0.  1.
          2    1    1    2  501    0  0.33777071773E+02 -0.50029446370E+02  0.11328709800E+04  0.11344780709E+04  0.00000000000E+00 0. -1.
          1    1    1    2  502    0 -0.33777071773E+02  0.50029446370E+02 -0.74894760246E+01  0.60827036199E+02  0.00000000000E+00 0.  1.
</event>
<event>
 4    1  0.8322090E+003  0.2195379E+02  0.7546771E-02  0.1506071E+00
          2   -1    0    0  502    0  0.00000000000E+00  0.00000000000E+00  0.25540780645E+03  0.25540780645E+03  0.00000000000E+00 0. -1.
          1   -1    0    0  501    0 -0.00000000000E+00 -0.00000000000E+00 -0.75595663442E+02  0.75595663442E+02  0.00000000000E+00 0.  1.
          2    1    1    2  501    0  0.15379353460E+02 -0.15666661044E+02  0.25332908446E+03  0.25427857522E+03  0.00000000000E+00 0. -1.
          1    1    1    2  502    0 -0.15379353460E+02  0.15666661044E+02 -0.73516941457E+02  0.76724894671E+02  0.00000000000E+00 0.  1.
</event>
<event>
 4    1  0.8322090E+003  0.2509058E+02  0.7546771E-02  0.1467793E+00
          2   -1    0    0  502    0  0.00000000000E+00  0.00000000000E+00  0.10299819889E+04  0.10299819889E+04  0.00000000000E+00 0.  1.
          1   -1    0    0  501    0 -0.00000000000E+00 -0.00000000000E+00 -0.11060923424E+01  0.11060923424E+01  0.00000000000E+00 0. -1.
          2    1    1    2  501    0 -0.25043722291E+02 -0.15327539409E+01  0.85927996455E+03  0.85964620329E+03  0.00000000000E+00 0.  1.
          1    1    1    2  502    0  0.25043722291E+02  0.15327539409E+01  0.16959593198E+03  0.17144187792E+03  0.00000000000E+00 0. -1.
</event>
<event>
 4    1  0.8322090E+003  0.2110501E+02  0.7546771E-02  0.1517771E+00
          2   -1    0    0  502    0  0.00000000000E+00  0.00000000000E+00  0.14992149733E+03  0.14992149733E+03  0.00000000000E+00 0.  1.
          1   -1    0    0  501    0 -0.00000000000E+00 -0.00000000000E+00 -0.58711572145E+01  0.58711572145E+01  0.00000000000E+00 0.  1.
          2    1    1    2  501    0  0.21095279133E+02  0.64085888125E+00  0.12677257440E+03  0.12851734172E+03  0.00000000000E+00 0.  1.
          1    1    1    2  502    0 -0.21095279133E+02 -0.64085888125E+00  0.17277765718E+02  0.27275312831E+02  0.00000000000E+00 0.  1.
</event>
<event>
 4    1  0.8322090E+003  0.2742309E+02  0.7546771E-02  0.1443404E+00
          2   -1    0    0  502    0  0.00000000000E+00  0.00000000000E+00  0.73216603726E+03  0.73216603726E+03  0.00000000000E+00 0.  1.
          1   -1    0    0  501    0 -0.00000000000E+00 -0.00000000000E+00 -0.11652111964E+01  0.11652111964E+01  0.00000000000E+00 0. -1.
          2    1    1    2  501    0 -0.27106741452E+02  0.41533445831E+01  0.49172493363E+03  0.49248902125E+03  0.00000000000E+00 0.  1.
          1    1    1    2  502    0  0.27106741452E+02 -0.41533445831E+01  0.23927589243E+03  0.24084222720E+03  0.00000000000E+00 0. -1.
</event>
<event>
 4    1  0.8322090E+003  0.2294874E+02  0.7546771E-02  0.1493143E+00
          2   -1    0    0  502    0  0.00000000000E+00  0.00000000000E+00  0.78280498883E+02  0.78280498883E+02  0.00000000000E+00 0.  1.
          1   -1    0    0  501    0 -0.00000000000E+00 -0.00000000000E+00 -0.67637986647E+01  0.67637986647E+01  0.00000000000E+00 0.  1.
          2    1    1    2  501    0 -0.13274784643E+02 -0.18719629755E+02  0.38866602867E+02  0.45135986352E+02  0.00000000000E+00 0.  1.
          1    1    1    2  502    0  0.13274784643E+02  0.18719629755E+02  0.32650097350E+02  0.39908311196E+02  0.00000000000E+00 0.  1.
</event>
<event>
 4    1  0.8322090E+003  0.3066855E+02  0.7546771E-02  0.1413874E+00
          2   -1    0    0  502    0  0.00000000000E+00  0.00000000000E+00  0.11100713323E+04  0.11100713323E+04  0.00000000000E+00 0.  1.
          1   -1    0    0  501    0 -0.00000000000E+00 -0.00000000000E+00 -0.13045618768E+02  0.13045618768E+02  0.00000000000E+00 0.  1.
          2    1    1    2  501    0 -0.30658584294E+02 -0.78194724505E+00  0.10915289307E+04  0.10919596910E+04  0.00000000000E+00 0.  1.
          1    1    1    2  502    0  0.30658584294E+02  0.78194724505E+00  0.54967828217E+01  0.31157260050E+02  0.00000000000E+00 0.  1.
</event>
<event>
 4    1  0.8322090E+003  0.2463225E+02  0.7546771E-02  0.1472960E+00
          2   -1    0    0  502    0  0.00000000000E+00  0.00000000000E+00  0.74887546014E+02  0.74887546014E+02  0.00000000000E+00 0.  1.
          1   -1    0    0  501    0 -0.00000000000E+00 -0.00000000000E+00 -0.81387223853E+01  0.81387223853E+01  0.00000000000E+00 0.  1.
          2    1    1    2  501    0 -0.22563324722E+02 -0.98815090278E+01  0.36158386992E+02  0.43751306187E+02  0.00000000000E+00 0.  1.
          1    1    1    2  502    0  0.22563324722E+02  0.98815090278E+01  0.30590436637E+02  0.39274962213E+02  0.00000000000E+00 0.  1.
</event>
<event>
 4    1  0.8322090E+003  0.2147294E+02  0.7546771E-02  0.1512618E+00
          2   -1    0    0  502    0  0.00000000000E+00  0.00000000000E+00  0.27456807610E+02  0.27456807610E+02  0.00000000000E+00 0. -1.
          1   -1    0    0  501    0 -0.00000000000E+00 -0.00000000000E+00 -0.21831660725E+03  0.21831660725E+03  0.00000000000E+00 0.  1.
          2    1    1    2  501    0  0.20881804397E+02  0.50037381751E+01  0.22635947988E+02  0.31200533520E+02  0.00000000000E+00 0. -1.
          1    1    1    2  502    0 -0.20881804397E+02 -0.50037381751E+01 -0.21349574763E+03  0.21457288134E+03  0.00000000000E+00 0.  1.
</event>
<event>
 4    1  0.8322090E+003  0.2903977E+02  0.7546771E-02  0.1428128E+00
          2   -1    0    0  502    0  0.00000000000E+00  0.00000000000E+00  0.96064289644E+01  0.96064289644E+01  0.00000000000E+00 0.  1.
          1   -1    0    0  501    0 -0.00000000000E+00 -0.00000000000E+00 -0.26095496660E+03  0.26095496660E+03  0.00000000000E+00 0. -1.
          2    1    1    2  501    0 -0.26515788382E+02 -0.11841492045E+02 -0.15472555732E+02  0.32904527777E+02  0.00000000000E+00 0.  1.
          1    1    1    2  502    0  0.26515788382E+02  0.11841492045E+02 -0.23587598190E+03  0.23765686779E+03  0.00000000000E+00 0. -1.
</event>
<event>
 4    1  0.8322090E+003  0.2284117E+02  0.7546771E-02  0.1494502E+00
          2   -1    0    0  502    0  0.00000000000E+00  0.00000000000E+00  0.92121458613E+03  0.92121458613E+03  0.00000000000E+00 0. -1.
          1   -1    0    0  501    0 -0.00000000000E+00 -0.00000000000E+00 -0.19981886314E+01  0.19981886314E+01  0.00000000000E+00 0.  1.
          2    1    1    2  501    0 -0.14053181825E+02  0.18006309360E+02  0.85036125276E+03  0.85066796066E+03  0.00000000000E+00 0. -1.
          1    1    1    2  502    0  0.14053181825E+02 -0.18006309360E+02  0.68855144736E+02  0.72544814100E+02  0.00000000000E+00 0.  1.
</event>
<event>
 4    1  0.1288844E+004  0.3527189E+02  0.7546771E-02  0.1378662E+00
          2   -1    0    0  502    0  0.00000000000E+00  0.00000000000E+00  0.72912808102E+03  0.72912808102E+03  0.00000000000E+00 0. -1.
          1   -1    0    0  501    0 -0.00000000000E+00 -0.00000000000E+00 -0.56505427547E+03  0.56505427547E+03  0.00000000000E+00 0.  1.
          2    1    1    2  501    0 -0.21140862063E+02  0.28234199513E+02  0.72815033257E+03  0.72900412406E+03  0.00000000000E+00 0. -1.
          1    1    1    2  502    0  0.21140862063E+02 -0.28234199513E+02 -0.56407652702E+03  0.56517823242E+03  0.00000000000E+00 0.  1.
</event>
<event>
 4    1  0.8322090E+003  0.2046170E+02  0.7546771E-02  0.1527091E+00
          2   -1    0    0  502    0  0.00000000000E+00  0.00000000000E+00  0.57744456293E+03  0.57744456293E+03  0.00000000000E+00 0. -1.
          1   -1    0    0  501    0 -0.00000000000E+00 -0.00000000000E+00 -0.19294915576E+03  0.19294915576E+03  0.00000000000E+00 0. -1.
          2    1    1    2  501    0 -0.84578185572E+01  0.18631866127E+02  0.57672014112E+03  0.57708301162E+03  0.00000000000E+00 0. -1.
          1    1    1    2  502    0  0.84578185572E+01 -0.18631866127E+02 -0.19222473394E+03  0.19331070707E+03  0.00000000000E+00 0. -1.
</event>
<event>
 4    1  0.8322090E+003  0.2175752E+02  0.7546771E-02  0.1508719E+00
          2   -1    0    0  502    0  0.00000000000E+00  0.00000000000E+00  0.37698457015E+01  0.37698457015E+01  0.00000000000E+00 0.  1.
          1   -1    0    0  501    0 -0.00000000000E+00 -0.00000000000E+00 -0.77983272784E+03  0.77983272784E+03  0.00000000000E+00 0. -1.
          2    1    1    2  501    0 -0.13618420725E+02 -0.16968447360E+02 -0.29158814592E+02  0.36381671996E+02  0.00000000000E+00 0.  1.
          1    1    1    2  502    0  0.13618420725E+02  0.16968447360E+02 -0.74690406754E+03  0.74722090154E+03  0.00000000000E+00 0. -1.
</event>
<event>
 4    1  0.8322090E+003  0.2439560E+02  0.7546771E-02  0.1475680E+00
          2   -1    0    0  502    0  0.00000000000E+00  0.00000000000E+00  0.51860207935E+03  0.51860207935E+03  0.00000000000E+00 0. -1.
          1   -1    0    0  501    0 -0.00000000000E+00 -0.00000000000E+00 -0.54191087944E+01  0.54191087944E+01  0.00000000000E+00 0. -1.
          2    1    1    2  501    0  0.20132003178E+02  0.13778523604E+02  0.48921082170E+03  0.48981871477E+03  0.00000000000E+00 0. -1.
          1    1    1    2  502    0 -0.20132003178E+02 -0.13778523604E+02  0.23972148858E+02  0.34202473383E+02  0.00000000000E+00 0. -1.
</event>
<event>
 4    1  0.8322090E+003  0.2636873E+02  0.7546771E-02  0.1454054E+00
          2   -1    0    0  502    0  0.00000000000E+00  0.00000000000E+00  0.17611186023E+01  0.17611186023E+01  0.00000000000E+00 0. -1.
          1   -1    0    0  501    0 -0.00000000000E+00 -0.00000000000E+00 -0.80641111480E+03  0.80641111480E+03  0.00000000000E+00 0.  1.
          2    1    1    2  501    0 -0.18311672575E+02 -0.18973469543E+02 -0.11363406100E+03  0.11665337422E+03  0.00000000000E+00 0. -1.
          1    1    1    2  502    0  0.18311672575E+02  0.18973469543E+02 -0.69101593520E+03  0.69151885918E+03  0.00000000000E+00 0.  1.
</event>
<event>
 4    1  0.8322090E+003  0.2152524E+02  0.7546771E-02  0.1511896E+00
          2   -1    0    0  502    0  0.00000000000E+00  0.00000000000E+00  0.23484834194E+03  0.23484834194E+03  0.00000000000E+00 0. -1.
          1   -1    0    0  501    0 -0.00000000000E+00 -0.00000000000E+00 -0.10196276783E+02  0.10196276783E+02  0.00000000000E+00 0.  1.
          2    1    1    2  501    0 -0.14648905262E+02 -0.15771668866E+02  0.22235804296E+03  0.22339748261E+03  0.00000000000E+00 0. -1.
          1    1    1    2  502    0  0.14648905262E+02  0.15771668866E+02  0.22940221926E+01  0.21647136115E+02  0.00000000000E+00 0.  1.
</event>
<event>
 4    1  0.8322090E+003  0.2421196E+02  0.7546771E-02  0.1477816E+00
          2   -1    0    0  502    0  0.00000000000E+00  0.00000000000E+00  0.12552325392E+04  0.12552325392E+04  0.00000000000E+00 0.  1.
          1   -1    0    0  501    0 -0.00000000000E+00 -0.00000000000E+00 -0.36217653602E+02  0.36217653602E+02  0.00000000000E+00 0.  1.
          2    1    1    2  501    0 -0.22554885481E+02  0.88032001736E+01  0.12510557740E+04  0.12512900419E+04  0.00000000000E+00 0.  1.
          1    1    1    2  502    0  0.22554885481E+02 -0.88032001736E+01 -0.32040888416E+02  0.40160150932E+02  0.00000000000E+00 0.  1.
</event>
<event>
 4    1  0.8322090E+003  0.4799399E+02  0.7546771E-02  0.1307112E+00
          2   -1    0    0  502    0  0.00000000000E+00  0.00000000000E+00  0.15698767750E+04  0.15698767750E+04  0.00000000000E+00 0. -1.
          1   -1    0    0  501    0 -0.00000000000E+00 -0.00000000000E+00 -0.58176440547E+01  0.58176440547E+01  0.00000000000E+00 0. -1.
          2    1    1    2  501    0 -0.68789249796E+01  0.47498454727E+02  0.14633196296E+04  0.14641064719E+04  0.00000000000E+00 0. -1.
          1    1    1    2  502    0  0.68789249796E+01 -0.47498454727E+02  0.10073950138E+03  0.11158794715E+03  0.00000000000E+00 0. -1.
</event>
<event>
 4    1  0.8322090E+003  0.7119246E+02  0.7546771E-02  0.1225918E+00
          2   -1    0    0  502    0  0.00000000000E+00  0.00000000000E+00  0.18883549703E+03  0.18883549703E+03  0.00000000000E+00 0. -1.
          1   -1    0    0  501    0 -0.00000000000E+00 -0.00000000000E+00 -0.79535649372E+03  0.79535649372E+03  0.00000000000E+00 0. -1.
          2    1    1    2  501    0  0.15295724910E+02  0.69529904851E+02  0.18046109909E+03  0.19399632768E+03  0.00000000000E+00 0. -1.
          1    1    1    2  502    0 -0.15295724910E+02 -0.69529904851E+02 -0.78698209577E+03  0.79019566307E+03  0.00000000000E+00 0. -1.
</event>
<event>
 4    1  0.8322090E+003  0.2552493E+02  0.7546771E-02  0.1463016E+00
          2   -1    0    0  502    0  0.00000000000E+00  0.00000000000E+00  0.77250654867E+02  0.77250654867E+02  0.00000000000E+00 0.  1.
          1   -1    0    0  501    0 -0.00000000000E+00 -0.00000000000E+00 -0.24633457617E+02  0.24633457617E+02  0.00000000000E+00 0.  1.
          2    1    1    2  501    0 -0.14102852835E+02  0.21275144113E+02  0.67619600006E+02  0.72276777184E+02  0.00000000000E+00 0.  1.
          1    1    1    2  502    0  0.14102852835E+02 -0.21275144113E+02 -0.15002402756E+02  0.29607335300E+02  0.00000000000E+00 0.  1.
</event>
<event>
 4    1  0.8322090E+003  0.2209176E+02  0.7546771E-02  0.1504229E+00
          2   -1    0    0  502    0  0.00000000000E+00  0.00000000000E+00  0.55492249567E+03  0.55492249567E+03  0.00000000000E+00 0.  1.
          1   -1    0    0  501    0 -0.00000000000E+00 -0.00000000000E+00 -0.60525720661E+01  0.60525720661E+01  0.00000000000E+00 0. -1.
          2    1    1    2  501    0  0.12850024259E+02  0.17970052609E+02  0.53374449341E+03  0.53420148836E+03  0.00000000000E+00 0.  1.
          1    1    1    2  502    0 -0.12850024259E+02 -0.17970052609E+02  0.15125430187E+02  0.26773579376E+02  0.00000000000E+00 0. -1.
</event>
<event>
 4    1  0.8322090E+003  0.5814883E+02  0.7546771E-02  0.1266255E+00
          2   -1    0    0  502    0  0.00000000000E+00  0.00000000000E+00  0.29194491885E+04  0.29194491885E+04  0.00000000000E+00 0. -1.
          1   -1    0    0  501    0 -0.00000000000E+00 -0.00000000000E+00 -0.43550450880E+02  0.43550450880E+02  0.00000000000E+00 0.  1.
          2    1    1    2  501    0 -0.54670981497E+02 -0.19808324723E+02  0.28996167281E+04  0.29001997269E+04  0.00000000000E+00 0. -1.
          1    1    1    2  502    0  0.54670981497E+02  0.19808324723E+02 -0.23717990426E+02  0.62799912548E+02  0.00000000000E+00 0.  1.
</event>
<event>
 4    1  0.8322090E+003  0.2025721E+02  0.7546771E-02  0.1530139E+00
          2   -1    0    0  502    0  0.00000000000E+00  0.00000000000E+00  0.14261836823E+03  0.14261836823E+03  0.00000000000E+00 0. -1.
          1   -1    0    0  501    0 -0.00000000000E+00 -0.00000000000E+00 -0.23035336789E+02  0.23035336789E+02  0.00000000000E+00 0.  1.
          2    1    1    2  501    0  0.20256945274E+02  0.10361703858E+00  0.13727302772E+03  0.13875964366E+03  0.00000000000E+00 0. -1.
          1    1    1    2  502    0 -0.20256945274E+02 -0.10361703858E+00 -0.17689996277E+02  0.26894061363E+02  0.00000000000E+00 0.  1.
</event>
<event>
 4    1  0.8322090E+003  0.2475201E+02  0.7546771E-02  0.1471597E+00
          2   -1    0    0  502    0  0.00000000000E+00  0.00000000000E+00  0.37592736996E+02  0.37592736996E+02  0.00000000000E+00 0. -1.
          1   -1    0    0  501    0 -0.00000000000E+00 -0.00000000000E+00 -0.12708543003E+04  0.12708543003E+04  0.00000000000E+00 0.  1.
          2    1    1    2  501    0  0.21528193428E+02 -0.12214690972E+02  0.33384343645E+02  0.41559309287E+02  0.00000000000E+00 0. -1.
          1    1    1    2  502    0 -0.21528193428E+02  0.12214690972E+02 -0.12666459070E+04  0.12668877280E+04  0.00000000000E+00 0.  1.
</event>
<event>
 4    1  0.8322090E+003  0.3186366E+02  0.7546771E-02  0.1404064E+00
          2   -1    0    0  502    0  0.00000000000E+00  0.00000000000E+00  0.15048070486E+04  0.15048070486E+04  0.00000000000E+00 0.  1.
          1   -1    0    0  501    0 -0.00000000000E+00 -0.00000000000E+00 -0.14056766090E+01  0.14056766090E+01  0.00000000000E+00 0. -1.
          2    1    1    2  501    0  0.52727799831E+01 -0.31424365299E+02  0.12947827016E+04  0.12951747131E+04  0.00000000000E+00 0.  1.
          1    1    1    2  502    0 -0.52727799831E+01  0.31424365299E+02  0.20861867038E+03  0.21103801215E+03  0.00000000000E+00 0. -1.
</event>
<event>
 4    1  0.8322090E+003  0.2017519E+02  0.7546771E-02  0.1531374E+00
          2   -1    0    0  502    0  0.00000000000E+00  0.00000000000E+00  0.51715159091E+01  0.51715159091E+01  0.00000000000E+00 0.  1.
          1   -1    0    0  501    0 -0.00000000000E+00 -0.00000000000E+00 -0.44816265080E+03  0.44816265080E+03  0.00000000000E+00 0.  1.
          2    1    1    2  501    0  0.16381207249E+02  0.11776847996E+02 -0.15692722427E+02  0.25559726854E+02  0.00000000000E+00 0.  1.
          1    1    1    2  502    0 -0.16381207249E+02 -0.11776847996E+02 -0.42729841247E+03  0.42777443986E+03  0.00000000000E+00 0.  1.
</event>
<event>
 4    1  0.8322090E+003  0.2291073E+02  0.7546771E-02  0.1493622E+00
          2   -1    0    0  502    0  0.00000000000E+00  0.00000000000E+00  0.21570174228E+03  0.21570174228E+03  0.00000000000E+00 0.  1.
          1   -1    0    0  501    0 -0.00000000000E+00 -0.00000000000E+00 -0.18970907663E+03  0.18970907663E+03  0.00000000000E+00 0.  1.
          2    1    1    2  501    0 -0.16021103427E+02 -0.16377598648E+02  0.21439746226E+03  0.21561811917E+03  0.00000000000E+00 0.  1.
          1    1    1    2  502    0  0.16021103427E+02  0.16377598648E+02 -0.18840479661E+03  0.18979269974E+03  0.00000000000E+00 0.  1.
</event>
<event>
 4    1  0.8322090E+003  0.2790959E+02  0.7546771E-02  0.1438679E+00
          2   -1    0    0  502    0  0.00000000000E+00  0.00000000000E+00  0.71272123655E+03  0.71272123655E+03  0.00000000000E+00 0. -1.
          1   -1    0    0  501    0 -0.00000000000E+00 -0.00000000000E+00 -0.33755390208E+02  0.33755390208E+02  0.00000000000E+00 0. -1.
          2    1    1    2  501    0  0.19005332620E+02  0.20438745340E+02  0.70662924929E+03  0.70718020400E+03  0.00000000000E+00 0. -1.
          1    1    1    2  502    0 -0.19005332620E+02 -0.20438745340E+02 -0.27663402946E+02  0.39296422759E+02  0.00000000000E+00 0. -1.
</event>
<event>
 4    1  0.8322090E+003  0.3961892E+02  0.7546771E-02  0.1350733E+00
          2   -1    0    0  502    0  0.00000000000E+00  0.00000000000E+00  0.63674317105E+03  0.63674317105E+03  0.00000000000E+00 0. -1.
          1   -1    0    0  501    0 -0.00000000000E+00 -0.00000000000E+00 -0.69179274452E+02  0.69179274452E+02  0.00000000000E+00 0.  1.
          2    1    1    2  501    0 -0.37117146188E+02  0.13855558958E+02  0.63039741029E+03  0.63164115917E+03  0.00000000000E+00 0. -1.
          1    1    1    2  502    0  0.37117146188E+02 -0.13855558958E+02 -0.62833513697E+02  0.74281286329E+02  0.00000000000E+00 0.  1.
</event>
<event>
 4    1  0.8322090E+003  0.2098500E+02  0.7546771E-02  0.1519479E+00
          2   -1    0    0  502    0  0.00000000000E+00  0.00000000000E+00  0.36099424504E+03  0.36099424504E+03  0.00000000000E+00 0. -1.
          1   -1    0    0  501    0 -0.00000000000E+00 -0.00000000000E+00 -0.32017713998E+03  0.32017713998E+03  0.00000000000E+00 0.  1.
          2    1    1    2  501    0  0.17774392012E+02  0.11155327280E+02  0.36034480640E+03  0.36095532942E+03  0.00000000000E+00 0. -1.
          1    1    1    2  502    0 -0.17774392012E+02 -0.11155327280E+02 -0.31952770134E+03  0.32021605560E+03  0.00000000000E+00 0.  1.
</event>
<event>
 4    1  0.8322090E+003  0.2777945E+02  0.7546771E-02  0.1439932E+00
          2   -1    0    0  502    0  0.00000000000E+00  0.00000000000E+00  0.10278194059E+04  0.10278194059E+04  0.00000000000E+00 0.  1.
          1   -1    0    0  501    0 -0.00000000000E+00 -0.00000000000E+00 -0.49829808398E+01  0.49829808398E+01  0.00000000000E+00 0. -1.
          2    1    1    2  501    0 -0.20724279417E+02  0.18498709790E+02  0.98732749680E+03  0.98771822093E+03  0.00000000000E+00 0.  1.
          1    1    1    2  502    0  0.20724279417E+02 -0.18498709790E+02  0.35508928298E+02  0.45084165847E+02  0.00000000000E+00 0. -1.
</event>
<event>
 4    1  0.8322090E+003  0.3153633E+02  0.7546771E-02  0.1406700E+00
          2   -1    0    0  502    0  0.00000000000E+00  0.00000000000E+00  0.83503295526E+03  0.83503295526E+03  0.00000000000E+00 0. -1.
          1   -1    0    0  501    0 -0.00000000000E+00 -0.00000000000E+00 -0.53418808827E+01  0.53418808827E+01  0.00000000000E+00 0.  1.
          2    1    1    2  501    0 -0.25595409728E+02 -0.18423222096E+02  0.78524051185E+03  0.78587352771E+03  0.00000000000E+00 0. -1.
          1    1    1    2  502    0  0.25595409728E+02  0.18423222096E+02  0.44450562534E+02  0.54501308436E+02  0.00000000000E+00 0.  1.
</event>
<event>
 4    1  0.8322090E+003  0.4201880E+02  0.7546771E-02  0.1337045E+00
          2   -1    0    0  502    0  0.00000000000E+00  0.00000000000E+00  0.25802703554E+04  0.25802703554E+04  0.00000000000E+00 0.  1.
          1   -1    0    0  501    0 -0.00000000000E+00 -0.00000000000E+00 -0.21377784448E+03  0.21377784448E+03  0.00000000000E+00 0. -1.
          2    1    1    2  501    0 -0.73772924833E+01 -0.41366113698E+02  0.25780327614E+04  0.25783751664E+04  0.00000000000E+00 0.  1.
          1    1    1    2  502    0  0.73772924833E+01  0.41366113698E+02 -0.21154025048E+03  0.21567303350E+03  0.00000000000E+00 0. -1.
</event>
<event>
 4    1  0.8322090E+003  0.2099918E+02  0.7546771E-02  0.1519276E+00
          2   -1    0    0  502    0  0.00000000000E+00  0.00000000000E+00  0.33354604510E+02  0.33354604510E+02  0.00000000000E+00 0.  1.
          1   -1    0    0  501    0 -0.00000000000E+00 -0.00000000000E+00 -0.10920221746E+03  0.10920221746E+03  0.00000000000E+00 0. -1.
          2    1    1    2  501    0 -0.18451593238E+02 -0.10025189737E+02  0.28900807639E+02  0.35724255128E+02  0.00000000000E+00 0.  1.
          1    1    1    2  502    0  0.18451593238E+02  0.10025189737E+02 -0.10474842059E+03  0.10683256684E+03  0.00000000000E+00 0. -1.
</event>
<event>
 4    1  0.8322090E+003  0.2360682E+02  0.7546771E-02  0.1485016E+00
          2   -1    0    0  502    0  0.00000000000E+00  0.00000000000E+00  0.75965646004E+03  0.75965646004E+03  0.00000000000E+00 0.  1.
          1   -1    0    0  501    0 -0.00000000000E+00 -0.00000000000E+00 -0.14731947085E+01  0.14731947085E+01  0.00000000000E+00 0. -1.
          2    1    1    2  501    0  0.57615011656E+01  0.22892942694E+02  0.64873909822E+03  0.64916846757E+03  0.00000000000E+00 0.  1.
          1    1    1    2  502    0 -0.57615011656E+01 -0.22892942694E+02  0.10944416711E+03  0.11196118718E+03  0.00000000000E+00 0. -1.
</event>
<event>
 4    1  0.8322090E+003  0.2146948E+02  0.7546771E-02  0.1512666E+00
          2   -1    0    0  502    0  0.00000000000E+00  0.00000000000E+00  0.55886076195E+02  0.55886076195E+02  0.00000000000E+00 0.  1.
          1   -1    0    0  501    0 -0.00000000000E+00 -0.00000000000E+00 -0.67832299670E+02  0.67832299670E+02  0.00000000000E+00 0.  1.
          2    1    1    2  501    0 -0.21379623975E+02 -0.19622170142E+01  0.52003455669E+02  0.56260981314E+02  0.00000000000E+00 0.  1.
          1    1    1    2  502    0  0.21379623975E+02  0.19622170142E+01 -0.63949679144E+02  0.67457394551E+02  0.00000000000E+00 0.  1.
</event>
<event>
 4    1  0.8322090E+003  0.2530725E+02  0.7546771E-02  0.1465395E+00
          2   -1    0    0  502    0  0.00000000000E+00  0.00000000000E+00  0.26178359789E+03  0.26178359789E+03  0.00000000000E+00 0. -1.
          1   -1    0    0  501    0 -0.00000000000E+00 -0.00000000000E+00 -0.10227094266E+02  0.10227094266E+02  0.00000000000E+00 0. -1.
          2    1    1    2  501    0 -0.25256613303E+02 -0.16000874675E+01  0.24440589198E+03  0.24571263058E+03  0.00000000000E+00 0. -1.
          1    1    1    2  502    0  0.25256613303E+02  0.16000874675E+01  0.71506116437E+01  0.26298061569E+02  0.00000000000E+00 0. -1.
</event>
<event>
 4    1  0.8322090E+003  0.2164633E+02  0.7546771E-02  0.1510234E+00
          2   -1    0    0  502    0  0.00000000000E+00  0.00000000000E+00  0.52080763261E+03  0.52080763261E+03  0.00000000000E+00 0. -1.
          1   -1    0    0  501    0 -0.00000000000E+00 -0.00000000000E+00 -0.52095959114E+01  0.52095959114E+01  0.00000000000E+00 0.  1.
          2    1    1    2  501    0  0.17362332685E+02 -0.12927224001E+02  0.49702151213E+03  0.49749266049E+03  0.00000000000E+00 0. -1.
          1    1    1    2  502    0 -0.17362332685E+02  0.12927224001E+02  0.18576524571E+02  0.28524568038E+02  0.00000000000E+00 0.  1.
</event>
<event>
 4    1  0.8322090E+003  0.3755514E+02  0.7546771E-02  0.1363440E+00
          2   -1    0    0  502    0  0.00000000000E+00  0.00000000000E+00  0.45344675998E+01  0.45344675998E+01  0.00000000000E+00 0. -1.
          1   -1    0    0  501    0 -0.00000000000E+00 -0.00000000000E+00 -0.69328898035E+03  0.69328898035E+03  0.00000000000E+00 0.  1.
          2    1    1    2  501    0 -0.24593720822E+02  0.28381987534E+02 -0.85297699498E+02  0.93199173064E+02  0.00000000000E+00 0. -1.
          1    1    1    2  502    0  0.24593720822E+02 -0.28381987534E+02 -0.60345681325E+03  0.60462427488E+03  0.00000000000E+00 0.  1.
</event>
<event>
 4    1  0.8322090E+003  0.2095407E+02  0.7546771E-02  0.1519922E+00
          2   -1    0    0  502    0  0.00000000000E+00  0.00000000000E+00  0.29523938720E+01  0.29523938720E+01  0.00000000000E+00 0.  1.
          1   -1    0    0  501    0 -0.00000000000E+00 -0.00000000000E+00 -0.45876736112E+03  0.45876736112E+03  0.00000000000E+00 0.  1.
          2    1    1    2  501    0 -0.19958701400E+02  0.63814721070E+01 -0.38119854240E+02  0.43499382009E+02  0.00000000000E+00 0.  1.
          1    1    1    2  502    0  0.19958701400E+02 -0.63814721070E+01 -0.41769511301E+03  0.41822037299E+03  0.00000000000E+00 0.  1.
</event>
<event>
 4    1  0.8322090E+003  0.2361443E+02  0.7546771E-02  0.1484924E+00
          2   -1    0    0  502    0  0.00000000000E+00  0.00000000000E+00  0.12382888414E+02  0.12382888414E+02  0.00000000000E+00 0.  1.
          1   -1    0    0  501    0 -0.00000000000E+00 -0.00000000000E+00 -0.45350510148E+02  0.45350510148E+02  0.00000000000E+00 0. -1.
          2    1    1    2  501    0  0.22971959687E+02  0.54708567018E+01 -0.14069230305E+02  0.27487896360E+02  0.00000000000E+00 0.  1.
          1    1    1    2  502    0 -0.22971959687E+02 -0.54708567018E+01 -0.18898391429E+02  0.30245502203E+02  0.00000000000E+00 0. -1.
</event>
<event>
 4    1  0.8322090E+003  0.2198255E+02  0.7546771E-02  0.1505685E+00
          2   -1    0    0  502    0  0.00000000000E+00  0.00000000000E+00  0.21847764633E+03  0.21847764633E+03  0.00000000000E+00 0.  1.
          1   -1    0    0  501    0 -0.00000000000E+00 -0.00000000000E+00 -0.14664908183E+03  0.14664908183E+03  0.00000000000E+00 0.  1.
          2    1    1    2  501    0  0.18080254421E+02 -0.12503477519E+02  0.21709567082E+03  0.21820578095E+03  0.00000000000E+00 0.  1.
          1    1    1    2  502    0 -0.18080254421E+02  0.12503477519E+02 -0.14526710633E+03  0.14692094721E+03  0.00000000000E+00 0.  1.
</event>
<event>
 4    1  0.8322090E+003  0.6220256E+02  0.7546771E-02  0.1252527E+00
          2   -1    0    0  502    0  0.00000000000E+00  0.00000000000E+00  0.27505628517E+03  0.27505628517E+03  0.00000000000E+00 0.  1.
          1   -1    0    0  501    0 -0.00000000000E+00 -0.00000000000E+00 -0.67566147436E+02  0.67566147436E+02  0.00000000000E+00 0.  1.
          2    1    1    2  501    0 -0.39437209106E+02 -0.48102644503E+02  0.25618386838E+03  0.26362726014E+03  0.00000000000E+00 0.  1.
          1    1    1    2  502    0  0.39437209106E+02  0.48102644503E+02 -0.48693730641E+02  0.78995172473E+02  0.00000000000E+00 0.  1.
</event>
<event>
 4    1  0.8322090E+003  0.2136071E+02  0.7546771E-02  0.1514177E+00
          2   -1    0    0  502    0  0.00000000000E+00  0.00000000000E+00  0.34242891400E+03  0.34242891400E+03  0.00000000000E+00 0. -1.
          1   -1    0    0  501    0 -0.00000000000E+00 -0.00000000000E+00 -0.31903785401E+01  0.31903785401E+01  0.00000000000E+00 0. -1.
          2    1    1    2  501    0  0.39499502866E+01 -0.20992327912E+02  0.30149284336E+03  0.30224859724E+03  0.00000000000E+00 0. -1.
          1    1    1    2  502    0 -0.39499502866E+01  0.20992327912E+02  0.37745692100E+02  0.43370695297E+02  0.00000000000E+00 0. -1.
</event>
<event>
 4    1  0.8322090E+003  0.2161845E+02  0.7546771E-02  0.1510615E+00
          2   -1    0    0  502    0  0.00000000000E+00  0.00000000000E+00  0.78910781165E+03  0.78910781165E+03  0.00000000000E+00 0.  1.
          1   -1    0    0  501    0 -0.00000000000E+00 -0.00000000000E+00 -0.26146125951E+02  0.26146125951E+02  0.00000000000E+00 0. -1.
          2    1    1    2  501    0  0.65877754976E+01 -0.20590250799E+02  0.78446459729E+03  0.78476242368E+03  0.00000000000E+00 0.  1.
          1    1    1    2  502    0 -0.65877754976E+01  0.20590250799E+02 -0.21502911596E+02  0.30491513919E+02  0.00000000000E+00 0. -1.
</event>
<event>
 4    1  0.8322090E+003  0.2263728E+02  0.7546771E-02  0.1497104E+00
          2   -1    0    0  502    0  0.00000000000E+00  0.00000000000E+00  0.86176386798E+03  0.86176386798E+03  0.00000000000E+00 0. -1.
          1   -1    0    0  501    0 -0.00000000000E+00 -0.00000000000E+00 -0.18246324226E+01  0.18246324226E+01  0.00000000000E+00 0. -1.
          2    1    1    2  501    0 -0.11546379923E+02  0.19471195084E+02  0.78448814182E+03  0.78481468576E+03  0.00000000000E+00 0. -1.
          1    1    1    2  502    0  0.11546379923E+02 -0.19471195084E+02  0.75451093739E+02  0.78773814645E+02  0.00000000000E+00 0. -1.
</event>
<event>
 4    1  0.8322090E+003  0.2370465E+02  0.7546771E-02  0.1483834E+00
          2   -1    0    0  502    0  0.00000000000E+00  0.00000000000E+00  0.37212493626E+03  0.37212493626E+03  0.00000000000E+00 0.  1.
          1   -1    0    0  501    0 -0.00000000000E+00 -0.00000000000E+00 -0.13792294266E+03  0.13792294266E+03  0.00000000000E+00 0.  1.
          2    1    1    2  501    0 -0.45722671889E+01  0.23259511322E+02  0.37072507046E+03  0.37148215080E+03  0.00000000000E+00 0.  1.
          1    1    1    2  502    0  0.45722671889E+01 -0.23259511322E+02 -0.13652307686E+03  0.13856572812E+03  0.00000000000E+00 0.  1.
</event>
<event>
 4    1  0.8322090E+003  0.2362783E+02  0.7546771E-02  0.1484761E+00
          2   -1    0    0  502    0  0.00000000000E+00  0.00000000000E+00  0.12174041724E+01  0.12174041724E+01  0.00000000000E+00 0. -1.
          1   -1    0    0  501    0 -0.00000000000E+00 -0.00000000000E+00 -0.11181953803E+04  0.11181953803E+04  0.00000000000E+00 0. -1.
          2    1    1    2  501    0 -0.23320686717E+02  0.37973859149E+01 -0.12860871132E+03  0.13076113794E+03  0.00000000000E+00 0. -1.
          1    1    1    2  502    0  0.23320686717E+02 -0.37973859149E+01 -0.98836926480E+03  0.98865164653E+03  0.00000000000E+00 0. -1.
</event>
<event>
 4    1  0.8322090E+003  0.2001780E+02  0.7546771E-02  0.1533764E+00
          2   -1    0    0  502    0  0.00000000000E+00  0.00000000000E+00  0.92666744340E+02  0.92666744340E+02  0.00000000000E+00 0.  1.
          1   -1    0    0  501    0 -0.00000000000E+00 -0.00000000000E+00 -0.19736782742E+02  0.19736782742E+02  0.00000000000E+00 0. -1.
          2    1    1    2  501    0 -0.16625700303E+02 -0.11148913711E+02  0.86129824213E+02  0.88425442077E+02  0.00000000000E+00 0.  1.
          1    1    1    2  502    0  0.16625700303E+02  0.11148913711E+02 -0.13199862615E+02  0.23978085006E+02  0.00000000000E+00 0. -1.
</event>
<event>
 4    1  0.8322090E+003  0.2363725E+02  0.7546771E-02  0.1484648E+00
          2   -1    0    0  502    0  0.00000000000E+00  0.00000000000E+00  0.14695942653E+02  0.14695942653E+02  0.00000000000E+00 0.  1.
          1   -1    0    0  501    0 -0.00000000000E+00 -0.00000000000E+00 -0.15132432910E+03  0.15132432910E+03  0.00000000000E+00 0. -1.
          2    1    1    2  501    0  0.12817131999E+01  0.23602470230E+02  0.35152750933E+01  0.23897207968E+02  0.00000000000E+00 0.  1.
          1    1    1    2  502    0 -0.12817131999E+01 -0.23602470230E+02 -0.14014366154E+03  0.14212306378E+03  0.00000000000E+00 0. -1.
</event>
<event>
 4    1  0.8322090E+003  0.2185028E+02  0.7546771E-02  0.1507463E+00
          2   -1    0    0  502    0  0.00000000000E+00  0.00000000000E+00  0.46794060305E+01  0.46794060305E+01  0.00000000000E+00 0. -1.
          1   -1    0    0  501    0 -0.00000000000E+00 -0.00000000000E+00 -0.13338029127E+03  0.13338029127E+03  0.00000000000E+00 0. -1.
          2    1    1    2  501    0  0.55952752081E+01 -0.21121731857E+02 -0.30883234630E+02  0.37831320919E+02  0.00000000000E+00 0. -1.
          1    1    1    2  502    0 -0.55952752081E+01  0.21121731857E+02 -0.97817650610E+02  0.10022837638E+03  0.00000000000E+00 0. -1.
</event>
<event>
 4    1  0.8322090E+003  0.2431456E+02  0.7546771E-02  0.1476620E+00
          2   -1    0    0  502    0  0.00000000000E+00  0.00000000000E+00  0.10213214477E+03  0.10213214477E+03  0.00000000000E+00 0.  1.
          1   -1    0    0  501    0 -0.00000000000E+00 -0.00000000000E+00 -0.88565185246E+01  0.88565185246E+01  0.00000000000E+00 0. -1.
          2    1    1    2  501    0 -0.23158450400E+02 -0.74083619391E+01  0.79299764235E+02  0.82943657137E+02  0.00000000000E+00 0.  1.
          1    1    1    2  502    0  0.23158450400E+02  0.74083619391E+01  0.13975862014E+02  0.28045006161E+02  0.00000000000E+00 0. -1.
</event>
<event>
 4    1  0.8322090E+003  0.2340922E+02  0.7546771E-02  0.1487422E+00
          2   -1    0    0  502    0  0.00000000000E+00  0.00000000000E+00  0.10328441507E+03  0.10328441507E+03  0.00000000000E+00 0.  1.
          1   -1    0    0  501    0 -0.00000000000E+00 -0.00000000000E+00 -0.23487776801E+02  0.23487776801E+02  0.00000000000E+00 0.  1.
          2    1    1    2  501    0  0.10511734130E+02  0.20916386675E+02  0.95667631948E+02  0.98490038017E+02  0.00000000000E+00 0.  1.
          1    1    1    2  502    0 -0.10511734130E+02 -0.20916386675E+02 -0.15870993683E+02  0.28282153851E+02  0.00000000000E+00 0.  1.
</event>
<event>
 4    1  0.8322090E+003  0.2308741E+02  0.7546771E-02  0.1491404E+00
          2   -1    0    0  502    0  0.00000000000E+00  0.00000000000E+00  0.29372861025E+01  0.29372861025E+01  0.00000000000E+00 0. -1.
          1   -1    0    0  501    0 -0.00000000000E+00 -0.00000000000E+00 -0.18808265042E+03  0.18808265042E+03  0.00000000000E+00 0. -1.
          2    1    1    2  501    0 -0.22995890253E+02 -0.20536102185E+01 -0.74663589637E+02  0.78151646822E+02  0.00000000000E+00 0. -1.
          1    1    1    2  502    0  0.22995890253E+02  0.20536102185E+01 -0.11048177468E+03  0.11286828970E+03  0.00000000000E+00 0. -1.
</event>
<event>
 4    1  0.8322090E+003  0.2192104E+02  0.7546771E-02  0.1506510E+00
          2   -1    0    0  502    0  0.00000000000E+00  0.00000000000E+00  0.97237136816E+01  0.97237136816E+01  0.00000000000E+00 0. -1.
          1   -1    0    0  501    0 -0.00000000000E+00 -0.00000000000E+00 -0.85763746970E+02  0.85763746970E+02  0.00000000000E+00 0.  1.
          2    1    1    2  501    0  0.19723359487E+02 -0.95666748790E+01 -0.69395325013E+01  0.22993244422E+02  0.00000000000E+00 0. -1.
          1    1    1    2  502    0 -0.19723359487E+02  0.95666748790E+01 -0.69100500787E+02  0.72494216230E+02  0.00000000000E+00 0.  1.
</event>
<event>
 4    1  0.8322090E+003  0.2068099E+02  0.7546771E-02  0.1523869E+00
          2   -1    0    0  502    0  0.00000000000E+00  0.00000000000E+00  0.41614786909E+03  0.41614786909E+03  0.00000000000E+00 0. -1.
          1   -1    0    0  501    0 -0.00000000000E+00 -0.00000000000E+00 -0.74585412569E+02  0.74585412569E+02  0.00000000000E+00 0. -1.
          2    1    1    2  501    0 -0.72039836060E+01  0.19385716848E+02  0.41445146013E+03  0.41496712666E+03  0.00000000000E+00 0. -1.
          1    1    1    2  502    0  0.72039836060E+01 -0.19385716848E+02 -0.72889003609E+02  0.75766155007E+02  0.00000000000E+00 0. -1.
</event>
<event>
 4    1  0.8322090E+003  0.2048566E+02  0.7546771E-02  0.1526736E+00
          2   -1    0    0  502    0  0.00000000000E+00  0.00000000000E+00  0.59280397005E+03  0.59280397005E+03  0.00000000000E+00 0. -1.
          1   -1    0    0  501    0 -0.00000000000E+00 -0.00000000000E+00 -0.86559139370E+01  0.86559139370E+01  0.00000000000E+00 0. -1.
          2    1    1    2  501    0 -0.86913647705E+01  0.18550541965E+02  0.58024402060E+03  0.58060553379E+03  0.00000000000E+00 0. -1.
          1    1    1    2  502    0  0.86913647705E+01 -0.18550541965E+02  0.39040355138E+01  0.20854350195E+02  0.00000000000E+00 0. -1.
</event>
<event>
 4    1  0.8322090E+003  0.8402755E+02  0.7546771E-02  0.1194794E+00
          2   -1    0    0  502    0  0.00000000000E+00  0.00000000000E+00  0.22852233564E+04  0.22852233564E+04  0.00000000000E+00 0. -1.
          1   -1    0    0  501    0 -0.00000000000E+00 -0.00000000000E+00 -0.42108326421E+02  0.42108326421E+02  0.00000000000E+00 0. -1.
          2    1    1    2  501    0 -0.71698483262E+02  0.43817308811E+02  0.22417182525E+04  0.22432925250E+04  0.00000000000E+00 0. -1.
          1    1    1    2  502    0  0.71698483262E+02 -0.43817308811E+02  0.13967774238E+01  0.84039157782E+02  0.00000000000E+00 0. -1.
</event>
<event>
 4    1  0.8322090E+003  0.2116026E+02  0.7546771E-02  0.1516989E+00
          2   -1    0    0  502    0  0.00000000000E+00  0.00000000000E+00  0.18956249436E+03  0.18956249436E+03  0.00000000000E+00 0.  1.
          1   -1    0    0  501    0 -0.00000000000E+00 -0.00000000000E+00 -0.20881639489E+03  0.20881639489E+03  0.00000000000E+00 0. -1.
          2    1    1    2  501    0  0.15726975523E+02 -0.14156938628E+02  0.18843271206E+03  0.18961709745E+03  0.00000000000E+00 0.  1.
          1    1    1    2  502    0 -0.15726975523E+02  0.14156938628E+02 -0.20768661258E+03  0.20876179180E+03  0.00000000000E+00 0. -1.
</event>
<event>
 4    1  0.8322090E+003  0.2409766E+02  0.7546771E-02  0.1479156E+00
          2   -1    0    0  502    0  0.00000000000E+00  0.00000000000E+00  0.95106916205E+02  0.95106916205E+02  0.00000000000E+00 0.  1.
          1   -1    0    0  501    0 -0.00000000000E+00 -0.00000000000E+00 -0.74501667293E+03  0.74501667293E+03  0.00000000000E+00 0.  1.
          2    1    1    2  501    0 -0.15289984360E+02 -0.18625621395E+02  0.93382081319E+02  0.96441228246E+02  0.00000000000E+00 0.  1.
          1    1    1    2  502    0  0.15289984360E+02  0.18625621395E+02 -0.74329183804E+03  0.74368236088E+03  0.00000000000E+00 0.  1.
</event>
<event>
 4    1  0.8322090E+003  0.3300865E+02  0.7546771E-02  0.1395131E+00
          2   -1    0    0  502    0  0.00000000000E+00  0.00000000000E+00  0.56815753479E+02  0.56815753479E+02  0.00000000000E+00 0.  1.
          1   -1    0    0  501    0 -0.00000000000E+00 -0.00000000000E+00 -0.33777245888E+02  0.33777245888E+02  0.00000000000E+00 0. -1.
          2    1    1    2  501    0  0.28077817634E+02  0.17355315692E+02  0.41299525226E+02  0.52869855397E+02  0.00000000000E+00 0.  1.
          1    1    1    2  502    0 -0.28077817634E+02 -0.17355315692E+02 -0.18261017635E+02  0.37723143970E+02  0.00000000000E+00 0. -1.
</event>
<event>
 4    1  0.8322090E+003  0.2762816E+02  0.7546771E-02  0.1441398E+00
          2   -1    0    0  502    0  0.00000000000E+00  0.00000000000E+00  0.60979299998E+03  0.60979299998E+03  0.00000000000E+00 0.  1.
          1   -1    0    0  501    0 -0.00000000000E+00 -0.00000000000E+00 -0.26915614979E+01  0.26915614979E+01  0.00000000000E+00 0.  1.
          2    1    1    2  501    0  0.11843636547E+02 -0.24960844236E+02  0.52753320678E+03  0.52825618759E+03  0.00000000000E+00 0.  1.
          1    1    1    2  502    0 -0.11843636547E+02  0.24960844236E+02  0.79568231705E+02  0.84228373890E+02  0.00000000000E+00 0.  1.
</event>
<event>
 4    1  0.8322090E+003  0.4466267E+02  0.7546771E-02  0.1323135E+00
          2   -1    0    0  502    0  0.00000000000E+00  0.00000000000E+00  0.75421646450E+02  0.75421646450E+02  0.00000000000E+00 0.  1.
          1   -1    0    0  501    0 -0.00000000000E+00 -0.00000000000E+00 -0.18749182902E+03  0.18749182902E+03  0.00000000000E+00 0.  1.
          2    1    1    2  501    0  0.36855895226E+02  0.25226915990E+02  0.65797554350E+02  0.79524037006E+02  0.00000000000E+00 0.  1.
          1    1    1    2  502    0 -0.36855895226E+02 -0.25226915990E+02 -0.17786773692E+03  0.18338943846E+03  0.00000000000E+00 0.  1.
</event>
<event>
 4    1  0.8322090E+003  0.2249772E+02  0.7546771E-02  0.1498903E+00
          2   -1    0    0  502    0  0.00000000000E+00  0.00000000000E+00  0.99487678789E+03  0.99487678789E+03  0.00000000000E+00 0.  1.
          1   -1    0    0  501    0 -0.00000000000E+00 -0.00000000000E+00 -0.99466470128E+02  0.99466470128E+02  0.00000000000E+00 0.  1.
          2    1    1    2  501    0  0.22495108388E+02 -0.34273552975E+00  0.99347564974E+03  0.99373035276E+03  0.00000000000E+00 0.  1.
          1    1    1    2  502    0 -0.22495108388E+02  0.34273552975E+00 -0.98065331977E+02  0.10061290526E+03  0.00000000000E+00 0.  1.
</event>
<event>
 4    1  0.8322090E+003  0.3705107E+02  0.7546771E-02  0.1366690E+00
          2   -1    0    0  502    0  0.00000000000E+00  0.00000000000E+00  0.79024266639E+01  0.79024266639E+01  0.00000000000E+00 0.  1.
          1   -1    0    0  501    0 -0.00000000000E+00 -0.00000000000E+00 -0.19563713234E+03  0.19563713234E+03  0.00000000000E+00 0.  1.
          2    1    1    2  501    0  0.23132638917E+02 -0.28942406758E+02 -0.59801462803E+02  0.70349106928E+02  0.00000000000E+00 0.  1.
          1    1    1    2  502    0 -0.23132638917E+02  0.28942406758E+02 -0.12793324287E+03  0.13319045208E+03  0.00000000000E+00 0.  1.
</event>
<event>
 4    1  0.8322090E+003  0.2141008E+02  0.7546771E-02  0.1513490E+00
          2   -1    0    0  502    0  0.00000000000E+00  0.00000000000E+00  0.18872229015E+02  0.18872229015E+02  0.00000000000E+00 0.  1.
          1   -1    0    0  501    0 -0.00000000000E+00 -0.00000000000E+00 -0.73508091866E+02  0.73508091866E+02  0.00000000000E+00 0. -1.
          2    1    1    2  501    0 -0.21407687448E+02 -0.31980391382E+00  0.10478239922E+02  0.23836628710E+02  0.00000000000E+00 0.  1.
          1    1    1    2  502    0  0.21407687448E+02  0.31980391382E+00 -0.65114102773E+02  0.68543692170E+02  0.00000000000E+00 0. -1.
</event>
<event>
 4    1  0.8322090E+003  0.2243574E+02  0.7546771E-02  0.1499708E+00
          2   -1    0    0  502    0  0.00000000000E+00  0.00000000000E+00  0.15158153766E+04  0.15158153766E+04  0.00000000000E+00 0. -1.
          1   -1    0    0  501    0 -0.00000000000E+00 -0.00000000000E+00 -0.52200087065E+00  0.52200087065E+00  0.00000000000E+00 0.  1.
          2    1    1    2  501    0  0.20644313093E+02 -0.87849150155E+01  0.12149704840E+04  0.12151776164E+04  0.00000000000E+00 0. -1.
          1    1    1    2  502    0 -0.20644313093E+02  0.87849150155E+01  0.30032289179E+03  0.30115976113E+03  0.00000000000E+00 0.  1.
</event>
<event>
 4    1  0.8322090E+003  0.3277545E+02  0.7546771E-02  0.1396915E+00
          2   -1    0    0  502    0  0.00000000000E+00  0.00000000000E+00  0.94494375130E+01  0.94494375130E+01  0.00000000000E+00 0. -1.
          1   -1    0    0  501    0 -0.00000000000E+00 -0.00000000000E+00 -0.13354224672E+03  0.13354224672E+03  0.00000000000E+00 0. -1.
          2    1    1    2  501    0 -0.29772217861E+02 -0.13705658344E+02 -0.34474622322E+02  0.47568157535E+02  0.00000000000E+00 0. -1.
          1    1    1    2  502    0  0.29772217861E+02  0.13705658344E+02 -0.89618186890E+02  0.95423526703E+02  0.00000000000E+00 0. -1.
</event>
<event>
 4    1  0.8322090E+003  0.2947926E+02  0.7546771E-02  0.1424176E+00
          2   -1    0    0  502    0  0.00000000000E+00  0.00000000000E+00  0.63124802968E+02  0.63124802968E+02  0.00000000000E+00 0.  1.
          1   -1    0    0  501    0 -0.00000000000E+00 -0.00000000000E+00 -0.51234840638E+03  0.51234840638E+03  0.00000000000E+00 0.  1.
          2    1    1    2  501    0  0.24391209957E+02 -0.16555838796E+02  0.59232737461E+02  0.66163011635E+02  0.00000000000E+00 0.  1.
          1    1    1    2  502    0 -0.24391209957E+02  0.16555838796E+02 -0.50845634087E+03  0.50931019771E+03  0.00000000000E+00 0.  1.
</event>
<event>
 4    1  0.8322090E+003  0.2275087E+02  0.7546771E-02  0.1495650E+00
          2   -1    0    0  502    0  0.00000000000E+00  0.00000000000E+00  0.50997401395E+02  0.50997401395E+02  0.00000000000E+00 0. -1.
          1   -1    0    0  501    0 -0.00000000000E+00 -0.00000000000E+00 -0.37281764219E+02  0.37281764219E+02  0.00000000000E+00 0.  1.
          2    1    1    2  501    0  0.18957110120E+02  0.12578950939E+02  0.44512796935E+02  0.49989910201E+02  0.00000000000E+00 0. -1.
          1    1    1    2  502    0 -0.18957110120E+02 -0.12578950939E+02 -0.30797159759E+02  0.38289255413E+02  0.00000000000E+00 0.  1.
</event>
<event>
 4    1  0.8322090E+003  0.6573188E+02  0.7546771E-02  0.1241510E+00
          2   -1    0    0  502    0  0.00000000000E+00  0.00000000000E+00  0.11034140668E+04  0.11034140668E+04  0.00000000000E+00 0. -1.
          1   -1    0    0  501    0 -0.00000000000E+00 -0.00000000000E+00 -0.54393118024E+01  0.54393118024E+01  0.00000000000E+00 0.  1.
          2    1    1    2  501    0  0.49692186931E+02  0.43027506493E+02  0.84241701762E+03  0.84497758038E+03  0.00000000000E+00 0. -1.
          1    1    1    2  502    0 -0.49692186931E+02 -0.43027506493E+02  0.25555773733E+03  0.26387579819E+03  0.00000000000E+00 0.  1.
</event>
<event>
 4    1  0.8322090E+003  0.2433022E+02  0.7546771E-02  0.1476437E+00
          2   -1    0    0  502    0  0.00000000000E+00  0.00000000000E+00  0.24404509170E+03  0.24404509170E+03  0.00000000000E+00 0. -1.
          1   -1    0    0  501    0 -0.00000000000E+00 -0.00000000000E+00 -0.16849658255E+04  0.16849658255E+04  0.00000000000E+00 0. -1.
          2    1    1    2  501    0 -0.16191107673E+01  0.24276289719E+02  0.24335060795E+03  0.24456385291E+03  0.00000000000E+00 0. -1.
          1    1    1    2  502    0  0.16191107673E+01 -0.24276289719E+02 -0.16842713417E+04  0.16844470643E+04  0.00000000000E+00 0. -1.
</event>
<event>
 4    1  0.8322090E+003  0.2407166E+02  0.7546771E-02  0.1479463E+00
          2   -1    0    0  502    0  0.00000000000E+00  0.00000000000E+00  0.10263106500E+03  0.10263106500E+03  0.00000000000E+00 0.  1.
          1   -1    0    0  501    0 -0.00000000000E+00 -0.00000000000E+00 -0.61691102360E+01  0.61691102360E+01  0.00000000000E+00 0.  1.
          2    1    1    2  501    0  0.15375179861E+02 -0.18521558331E+02  0.32388311106E+02  0.40354020557E+02  0.00000000000E+00 0.  1.
          1    1    1    2  502    0 -0.15375179861E+02  0.18521558331E+02  0.64073643660E+02  0.68446154681E+02  0.00000000000E+00 0.  1.
</event>
<event>
 4    1  0.8322090E+003  0.2126722E+02  0.7546771E-02  0.1515484E+00
          2   -1    0    0  502    0  0.00000000000E+00  0.00000000000E+00  0.11682644723E+04  0.11682644723E+04  0.00000000000E+00 0.  1.
          1   -1    0    0  501    0 -0.00000000000E+00 -0.00000000000E+00 -0.29050344273E+01  0.29050344273E+01  0.00000000000E+00 0. -1.
          2    1    1    2  501    0 -0.48314116326E+01 -0.20711157144E+02  0.11278497106E+04  0.11280502047E+04  0.00000000000E+00 0.  1.
          1    1    1    2  502    0  0.48314116326E+01  0.20711157144E+02  0.37509727209E+02  0.43119301988E+02  0.00000000000E+00 0. -1.
</event>
<event>
 4    1  0.8322090E+003  0.2438542E+02  0.7546771E-02  0.1475797E+00
          2   -1    0    0  502    0  0.00000000000E+00  0.00000000000E+00  0.32392271536E+02  0.32392271536E+02  0.00000000000E+00 0.  1.
          1   -1    0    0  501    0 -0.00000000000E+00 -0.00000000000E+00 -0.36103732898E+03  0.36103732898E+03  0.00000000000E+00 0. -1.
          2    1    1    2  501    0 -0.22888382587E+02 -0.84125388997E+01  0.27325828857E+02  0.36624442534E+02  0.00000000000E+00 0.  1.
          1    1    1    2  502    0  0.22888382587E+02  0.84125388997E+01 -0.35597088630E+03  0.35680515798E+03  0.00000000000E+00 0. -1.
</event>
<event>
 4    1  0.8322090E+003  0.3548531E+02  0.7546771E-02  0.1377183E+00
          2   -1    0    0  502    0  0.00000000000E+00  0.00000000000E+00  0.26126475272E+04  0.26126475272E+04  0.00000000000E+00 0.  1.
          1   -1    0    0  501    0 -0.00000000000E+00 -0.00000000000E+00 -0.36688498356E+01  0.36688498356E+01  0.00000000000E+00 0. -1.
          2    1    1    2  501    0 -0.33377988588E+02  0.12046445237E+02  0.25236990706E+04  0.25239485347E+04  0.00000000000E+00 0.  1.
          1    1    1    2  502    0  0.33377988588E+02 -0.12046445237E+02  0.85279606820E+02  0.92367842372E+02  0.00000000000E+00 0. -1.
</event>
<event>
 4    1  0.8322090E+003  0.2166417E+02  0.7546771E-02  0.1509990E+00
          2   -1    0    0  502    0  0.00000000000E+00  0.00000000000E+00  0.32400793171E+03  0.32400793171E+03  0.00000000000E+00 0. -1.
          1   -1    0    0  501    0 -0.00000000000E+00 -0.00000000000E+00 -0.89869389514E+01  0.89869389514E+01  0.00000000000E+00 0.  1.
          2    1    1    2  501    0  0.15343543141E+02  0.15294184069E+02  0.31000050712E+03  0.31075657804E+03  0.00000000000E+00 0. -1.
          1    1    1    2  502    0 -0.15343543141E+02 -0.15294184069E+02  0.50204856362E+01  0.22238292616E+02  0.00000000000E+00 0.  1.
</event>
<event>
 4    1  0.8881653E+003  0.2424265E+02  0.7546771E-02  0.1477457E+00
          2   -1    0    0  502    0  0.00000000000E+00  0.00000000000E+00  0.24768407610E+03  0.24768407610E+03  0.00000000000E+00 0.  1.
          1   -1    0    0  501    0 -0.00000000000E+00 -0.00000000000E+00 -0.60625776615E+03  0.60625776615E+03  0.00000000000E+00 0.  1.
          2    1    1    2  501    0  0.24149306490E+02 -0.21252842403E+01  0.24684770605E+03  0.24803527132E+03  0.00000000000E+00 0.  1.
          1    1    1    2  502    0 -0.24149306490E+02  0.21252842403E+01 -0.60542139610E+03  0.60590657093E+03  0.00000000000E+00 0.  1.
</event>
<event>
 4    1  0.8322090E+003  0.2248539E+02  0.7546771E-02  0.1499063E+00
          2   -1    0    0  502    0  0.00000000000E+00  0.00000000000E+00  0.96217609647E+01  0.96217609647E+01  0.00000000000E+00 0.  1.
          1   -1    0    0  501    0 -0.00000000000E+00 -0.00000000000E+00 -0.66838122391E+02  0.66838122391E+02  0.00000000000E+00 0. -1.
          2    1    1    2  501    0  0.10202876106E+02  0.20037319921E+02 -0.10930408587E+02  0.25001334011E+02  0.00000000000E+00 0.  1.
          1    1    1    2  502    0 -0.10202876106E+02 -0.20037319921E+02 -0.46285952840E+02  0.51458549345E+02  0.00000000000E+00 0. -1.
</event>
<event>
 4    1  0.8322090E+003  0.2358378E+02  0.7546771E-02  0.1485295E+00
          2   -1    0    0  502    0  0.00000000000E+00  0.00000000000E+00  0.29589498745E+02  0.29589498745E+02  0.00000000000E+00 0.  1.
          1   -1    0    0  501    0 -0.00000000000E+00 -0.00000000000E+00 -0.14592726317E+04  0.14592726317E+04  0.00000000000E+00 0. -1.
          2    1    1    2  501    0 -0.18091483385E+02  0.15129210018E+02  0.24779414345E+02  0.34208392861E+02  0.00000000000E+00 0.  1.
          1    1    1    2  502    0  0.18091483385E+02 -0.15129210018E+02 -0.14544625473E+04  0.14546537376E+04  0.00000000000E+00 0. -1.
</event>
<event>
 4    1  0.8322090E+003  0.2597675E+02  0.7546771E-02  0.1458167E+00
          2   -1    0    0  502    0  0.00000000000E+00  0.00000000000E+00  0.12508476027E+03  0.12508476027E+03  0.00000000000E+00 0. -1.
          1   -1    0    0  501    0 -0.00000000000E+00 -0.00000000000E+00 -0.19362157703E+03  0.19362157703E+03  0.00000000000E+00 0.  1.
          2    1    1    2  501    0 -0.13061520037E+02 -0.22454141530E+02  0.12284913240E+03  0.12556552516E+03  0.00000000000E+00 0. -1.
          1    1    1    2  502    0  0.13061520037E+02  0.22454141530E+02 -0.19138594916E+03  0.19314081214E+03  0.00000000000E+00 0.  1.
</event>
<event>
 4    1  0.8322090E+003  0.2838653E+02  0.7546771E-02  0.1434156E+00
          2   -1    0    0  502    0  0.00000000000E+00  0.00000000000E+00  0.13057902229E+03  0.13057902229E+03  0.00000000000E+00 0.  1.
          1   -1    0    0  501    0 -0.00000000000E+00 -0.00000000000E+00 -0.61393617901E+03  0.61393617901E+03  0.00000000000E+00 0. -1.
          2    1    1    2  501    0  0.11977130174E+02 -0.25736037783E+02  0.12870343570E+03  0.13179669817E+03  0.00000000000E+00 0.  1.
          1    1    1    2  502    0 -0.11977130174E+02  0.25736037783E+02 -0.61206059242E+03  0.61271850313E+03  0.00000000000E+00 0. -1.
</event>
<event>
 4    1  0.8322090E+003  0.2995010E+02  0.7546771E-02  0.1420031E+00
          2   -1    0    0  502    0  0.00000000000E+00  0.00000000000E+00  0.27020812053E+01  0.27020812053E+01  0.00000000000E+00 0.  1.
          1   -1    0    0  501    0 -0.00000000000E+00 -0.00000000000E+00 -0.45145996133E+03  0.45145996133E+03  0.00000000000E+00 0. -1.
          2    1    1    2  501    0 -0.72042078682E+01  0.29070743931E+02 -0.10755342842E+03  0.11164563910E+03  0.00000000000E+00 0.  1.
          1    1    1    2  502    0  0.72042078682E+01 -0.29070743931E+02 -0.34120445170E+03  0.34251640344E+03  0.00000000000E+00 0. -1.
</event>
<event>
 4    1  0.8322090E+003  0.2355220E+02  0.7546771E-02  0.1485678E+00
          2   -1    0    0  502    0  0.00000000000E+00  0.00000000000E+00  0.32463267049E+01  0.32463267049E+01  0.00000000000E+00 0.  1.
          1   -1    0    0  501    0 -0.00000000000E+00 -0.00000000000E+00 -0.77635568460E+03  0.77635568460E+03  0.00000000000E+00 0.  1.
          2    1    1    2  501    0 -0.16031148079E+02 -0.17254225154E+02 -0.42312686351E+02  0.48425916828E+02  0.00000000000E+00 0.  1.
          1    1    1    2  502    0  0.16031148079E+02  0.17254225154E+02 -0.73079667154E+03  0.73117609448E+03  0.00000000000E+00 0.  1.
</event>
<event>
 4    1  0.8322090E+003  0.2395349E+02  0.7546771E-02  0.1480860E+00
          2   -1    0    0  502    0  0.00000000000E+00  0.00000000000E+00  0.82375666322E+03  0.82375666322E+03  0.00000000000E+00 0.  1.
          1   -1    0    0  501    0 -0.00000000000E+00 -0.00000000000E+00 -0.10868223121E+01  0.10868223121E+01  0.00000000000E+00 0.  1.
          2    1    1    2  501    0 -0.23460078342E+02  0.48367536383E+01  0.65848370108E+03  0.65891923181E+03  0.00000000000E+00 0.  1.
          1    1    1    2  502    0  0.23460078342E+02 -0.48367536383E+01  0.16418613983E+03  0.16592425373E+03  0.00000000000E+00 0.  1.
</event>
<event>
 4    1  0.8322090E+003  0.4913682E+02  0.7546771E-02  0.1301959E+00
          2   -1    0    0  502    0  0.00000000000E+00  0.00000000000E+00  0.15688105326E+04  0.15688105326E+04  0.00000000000E+00 0.  1.
          1   -1    0    0  501    0 -0.00000000000E+00 -0.00000000000E+00 -0.16962124179E+01  0.16962124179E+01  0.00000000000E+00 0.  1.
          2    1    1    2  501    0  0.36444905551E+02 -0.32957480325E+02  0.10226073704E+04  0.10237872145E+04  0.00000000000E+00 0.  1.
          1    1    1    2  502    0 -0.36444905551E+02  0.32957480325E+02  0.54450694984E+03  0.54671953054E+03  0.00000000000E+00 0.  1.
</event>
<event>
 4    1  0.8322090E+003  0.5429156E+02  0.7546771E-02  0.1280566E+00
          2   -1    0    0  502    0  0.00000000000E+00  0.00000000000E+00  0.14751121776E+04  0.14751121776E+04  0.00000000000E+00 0.  1.
          1   -1    0    0  501    0 -0.00000000000E+00 -0.00000000000E+00 -0.51677108004E+01  0.51677108004E+01  0.00000000000E+00 0. -1.
          2    1    1    2  501    0  0.26420874136E+01  0.54227234883E+02  0.13146153094E+04  0.13157359102E+04  0.00000000000E+00 0.  1.
          1    1    1    2  502    0 -0.26420874136E+01 -0.54227234883E+02  0.15532915734E+03  0.16454397816E+03  0.00000000000E+00 0. -1.
</event>
<event>
 4    1  0.8322090E+003  0.2308742E+02  0.7546771E-02  0.1491403E+00
          2   -1    0    0  502    0  0.00000000000E+00  0.00000000000E+00  0.23539513391E+01  0.23539513391E+01  0.00000000000E+00 0.  1.
          1   -1    0    0  501    0 -0.00000000000E+00 -0.00000000000E+00 -0.37083372702E+03  0.37083372702E+03  0.00000000000E+00 0.  1.
          2    1    1    2  501    0  0.21722392230E+02  0.78209051240E+01 -0.67805366750E+02  0.71628183289E+02  0.00000000000E+00 0.  1.
          1    1    1    2  502    0 -0.21722392230E+02 -0.78209051240E+01 -0.30067440893E+03  0.30155949507E+03  0.00000000000E+00 0.  1.
</event>
<event>
 4    1  0.8322090E+003  0.2450918E+02  0.7546771E-02  0.1474370E+00
          2   -1    0    0  502    0  0.00000000000E+00  0.00000000000E+00  0.52072753481E+03  0.52072753481E+03  0.00000000000E+00 0.  1.
          1   -1    0    0  501    0 -0.00000000000E+00 -0.00000000000E+00 -0.17849524933E+01  0.17849524933E+01  0.00000000000E+00 0.  1.
          2    1    1    2  501    0  0.80388940323E+01  0.23153321779E+02  0.41485184556E+03  0.41557520846E+03  0.00000000000E+00 0.  1.
          1    1    1    2  502    0 -0.80388940323E+01 -0.23153321779E+02  0.10409073676E+03  0.10693727884E+03  0.00000000000E+00 0.  1.
</event>
<event>
 4    1  0.8322090E+003  0.2198134E+02  0.7546771E-02  0.1505702E+00
          2   -1    0    0  502    0  0.00000000000E+00  0.00000000000E+00  0.90491216368E+01  0.90491216368E+01  0.00000000000E+00 0. -1.
          1   -1    0    0  501    0 -0.00000000000E+00 -0.00000000000E+00 -0.64280488045E+02  0.64280488045E+02  0.00000000000E+00 0.  1.
          2    1    1    2  501    0 -0.12519062298E+02 -0.18067991706E+02 -0.12527718077E+02  0.25300651481E+02  0.00000000000E+00 0. -1.
          1    1    1    2  502    0  0.12519062298E+02  0.18067991706E+02 -0.42703648331E+02  0.48028958202E+02  0.00000000000E+00 0.  1.
</event>
<event>
 4    1  0.8322090E+003  0.2191541E+02  0.7546771E-02  0.1506586E+00
          2   -1    0    0  502    0  0.00000000000E+00  0.00000000000E+00  0.44236414888E+01  0.44236414888E+01  0.00000000000E+00 0.  1.
          1   -1    0    0  501    0 -0.00000000000E+00 -0.00000000000E+00 -0.90281638986E+03  0.90281638986E+03  0.00000000000E+00 0.  1.
          2    1    1    2  501    0  0.17478106431E+02 -0.13221235701E+02 -0.23725861738E+02  0.32298634539E+02  0.00000000000E+00 0.  1.
          1    1    1    2  502    0 -0.17478106431E+02  0.13221235701E+02 -0.87466688663E+03  0.87494139681E+03  0.00000000000E+00 0.  1.
</event>
<event>
 4    1  0.8322090E+003  0.2509710E+02  0.7546771E-02  0.1467720E+00
          2   -1    0    0  502    0  0.00000000000E+00  0.00000000000E+00  0.10973434925E+04  0.10973434925E+04  0.00000000000E+00 0.  1.
          1   -1    0    0  501    0 -0.00000000000E+00 -0.00000000000E+00 -0.17965465185E+01  0.17965465185E+01  0.00000000000E+00 0. -1.
          2    1    1    2  501    0 -0.13933444892E+02 -0.20873987283E+02  0.10011283223E+04  0.10014428501E+04  0.00000000000E+00 0.  1.
          1    1    1    2  502    0  0.13933444892E+02  0.20873987283E+02  0.94418623648E+02  0.97697188922E+02  0.00000000000E+00 0. -1.
</event>
<event>
 4    1  0.8322090E+003  0.2425216E+02  0.7546771E-02  0.1477346E+00
          2   -1    0    0  502    0  0.00000000000E+00  0.00000000000E+00  0.88961267150E+02  0.88961267150E+02  0.00000000000E+00 0. -1.
          1   -1    0    0  501    0 -0.00000000000E+00 -0.00000000000E+00 -0.54920329877E+03  0.54920329877E+03  0.00000000000E+00 0.  1.
          2    1    1    2  501    0 -0.16250827976E+02 -0.18002157377E+02  0.87034841300E+02  0.90350598671E+02  0.00000000000E+00 0. -1.
          1    1    1    2  502    0  0.16250827976E+02  0.18002157377E+02 -0.54727687292E+03  0.54781396725E+03  0.00000000000E+00 0.  1.
</event>
<event>
 4    1  0.8322090E+003  0.2523896E+02  0.7546771E-02  0.1466148E+00
          2   -1    0    0  502    0  0.00000000000E+00  0.00000000000E+00  0.15512089086E+02  0.15512089086E+02  0.00000000000E+00 0. -1.
          1   -1    0    0  501    0 -0.00000000000E+00 -0.00000000000E+00 -0.42353769560E+02  0.42353769560E+02  0.00000000000E+00 0. -1.
          2    1    1    2  501    0 -0.79410613659E+01 -0.23957139974E+02 -0.83739675337E+01  0.26591884920E+02  0.00000000000E+00 0. -1.
          1    1    1    2  502    0  0.79410613659E+01  0.23957139974E+02 -0.18467712939E+02  0.31273973725E+02  0.00000000000E+00 0. -1.
</event>
<event>
 4    1  0.8322090E+003  0.2012477E+02  0.7546771E-02  0.1532137E+00
          2   -1    0    0  502    0  0.00000000000E+00  0.00000000000E+00  0.99778107630E+03  0.99778107630E+03  0.00000000000E+00 0. -1.
          1   -1    0    0  501    0 -0.00000000000E+00 -0.00000000000E+00 -0.27342679751E+01  0.27342679751E+01  0.00000000000E+00 0.  1.
          2    1    1    2  501    0 -0.19566801209E+02 -0.47060170507E+01  0.95915803091E+03  0.95936913363E+03  0.00000000000E+00 0. -1.
          1    1    1    2  502    0  0.19566801209E+02  0.47060170507E+01  0.35888777419E+02  0.41146210648E+02  0.00000000000E+00 0.  1.
</event>
<event>
 4    1  0.8322090E+003  0.2295881E+02  0.7546771E-02  0.1493016E+00
          2   -1    0    0  502    0  0.00000000000E+00  0.00000000000E+00  0.27797218309E+03  0.27797218309E+03  0.00000000000E+00 0. -1.
          1   -1    0    0  501    0 -0.00000000000E+00 -0.00000000000E+00 -0.27035900785E+01  0.27035900785E+01  0.00000000000E+00 0. -1.
          2    1    1    2  501    0 -0.11874589483E+02  0.19649457092E+02  0.21432285124E+03  0.21554904686E+03  0.00000000000E+00 0. -1.
          1    1    1    2  502    0  0.11874589483E+02 -0.19649457092E+02  0.60945741777E+02  0.65126726312E+02  0.00000000000E+00 0. -1.
</event>
<event>
 4    1  0.8322090E+003  0.3438967E+02  0.7546771E-02  0.1384905E+00
          2   -1    0    0  502    0  0.00000000000E+00  0.00000000000E+00  0.24106438388E+01  0.24106438388E+01  0.00000000000E+00 0. -1.
          1   -1    0    0  501    0 -0.00000000000E+00 -0.00000000000E+00 -0.55580709782E+03  0.55580709782E+03  0.00000000000E+00 0.  1.
          2    1    1    2  501    0  0.34383727132E+02 -0.63935674742E+00 -0.18109420602E+03  0.18433057511E+03  0.00000000000E+00 0. -1.
          1    1    1    2  502    0 -0.34383727132E+02  0.63935674742E+00 -0.37230224796E+03  0.37388716655E+03  0.00000000000E+00 0.  1.
</event>
<event>
 4    1  0.8322090E+003  0.2186138E+02  0.7546771E-02  0.1507313E+00
          2   -1    0    0  502    0  0.00000000000E+00  0.00000000000E+00  0.71723523316E+02  0.71723523316E+02  0.00000000000E+00 0.  1.
          1   -1    0    0  501    0 -0.00000000000E+00 -0.00000000000E+00 -0.15337022496E+03  0.15337022496E+03  0.00000000000E+00 0.  1.
          2    1    1    2  501    0 -0.19486697238E+02  0.99090176059E+01  0.69251504012E+02  0.72620181816E+02  0.00000000000E+00 0.  1.
          1    1    1    2  502    0  0.19486697238E+02 -0.99090176059E+01 -0.15089820565E+03  0.15247356646E+03  0.00000000000E+00 0.  1.
</event>
<event>
 4    1  0.8322090E+003  0.2029843E+02  0.7546771E-02  0.1529522E+00
          2   -1    0    0  502    0  0.00000000000E+00  0.00000000000E+00  0.39732488271E+03  0.39732488271E+03  0.00000000000E+00 0. -1.
          1   -1    0    0  501    0 -0.00000000000E+00 -0.00000000000E+00 -0.95334435769E+02  0.95334435769E+02  0.00000000000E+00 0.  1.
          2    1    1    2  501    0  0.19082130197E+02  0.69208705226E+01  0.39598149375E+03  0.39650141177E+03  0.00000000000E+00 0. -1.
          1    1    1    2  502    0 -0.19082130197E+02 -0.69208705226E+01 -0.93991046812E+02  0.96157906708E+02  0.00000000000E+00 0.  1.
</event>
<event>
 4    1  0.8322090E+003  0.2088710E+02  0.7546771E-02  0.1520883E+00
          2   -1    0    0  502    0  0.00000000000E+00  0.00000000000E+00  0.44981427747E+03  0.44981427747E+03  0.00000000000E+00 0. -1.
          1   -1    0    0  501    0 -0.00000000000E+00 -0.00000000000E+00 -0.14311166267E+01  0.14311166267E+01  0.00000000000E+00 0.  1.
          2    1    1    2  501    0 -0.20838643549E+02 -0.14218733480E+01  0.35227768551E+03  0.35289635659E+03  0.00000000000E+00 0. -1.
          1    1    1    2  502    0  0.20838643549E+02  0.14218733480E+01  0.96105475337E+02  0.98349037507E+02  0.00000000000E+00 0.  1.
</event>
<event>
 4    1  0.8322090E+003  0.8955402E+02  0.7546771E-02  0.1183254E+00
          2   -1    0    0  502    0  0.00000000000E+00  0.00000000000E+00  0.11783760493E+03  0.11783760493E+03  0.00000000000E+00 0.  1.
          1   -1    0    0  501    0 -0.00000000000E+00 -0.00000000000E+00 -0.10402222176E+03  0.10402222176E+03  0.00000000000E+00 0.  1.
          2    1    1    2  501    0  0.84741620563E+01  0.89152176186E+02  0.72132719227E+02  0.11499152632E+03  0.00000000000E+00 0.  1.
          1    1    1    2  502    0 -0.84741620563E+01 -0.89152176186E+02 -0.58317336054E+02  0.10686830038E+03  0.00000000000E+00 0.  1.
</event>
<event>
 4    1  0.8322090E+003  0.2882337E+02  0.7546771E-02  0.1430104E+00
          2   -1    0    0  502    0  0.00000000000E+00  0.00000000000E+00  0.12519187677E+04  0.12519187677E+04  0.00000000000E+00 0. -1.
          1   -1    0    0  501    0 -0.00000000000E+00 -0.00000000000E+00 -0.14005192122E+02  0.14005192122E+02  0.00000000000E+00 0. -1.
          2    1    1    2  501    0 -0.10051265399E+02 -0.27014050349E+02  0.12367409097E+04  0.12370767416E+04  0.00000000000E+00 0. -1.
          1    1    1    2  502    0  0.10051265399E+02  0.27014050349E+02  0.11726658379E+01  0.28847218194E+02  0.00000000000E+00 0. -1.
</event>
<event>
 4    1  0.8322090E+003  0.4941168E+02  0.7546771E-02  0.1300744E+00
          2   -1    0    0  502    0  0.00000000000E+00  0.00000000000E+00  0.55343981216E+01  0.55343981216E+01  0.00000000000E+00 0. -1.
          1   -1    0    0  501    0 -0.00000000000E+00 -0.00000000000E+00 -0.15233513062E+04  0.15233513062E+04  0.00000000000E+00 0. -1.
          2    1    1    2  501    0  0.28451807796E+02  0.40398122483E+02 -0.11459305478E+03  0.12479215469E+03  0.00000000000E+00 0. -1.
          1    1    1    2  502    0 -0.28451807796E+02 -0.40398122483E+02 -0.14032238533E+04  0.14040935496E+04  0.00000000000E+00 0. -1.
</event>
<event>
 4    1  0.8322090E+003  0.2729358E+02  0.7546771E-02  0.1444681E+00
          2   -1    0    0  502    0  0.00000000000E+00  0.00000000000E+00  0.30420463339E+03  0.30420463339E+03  0.00000000000E+00 0.  1.
          1   -1    0    0  501    0 -0.00000000000E+00 -0.00000000000E+00 -0.81944806756E+02  0.81944806756E+02  0.00000000000E+00 0.  1.
          2    1    1    2  501    0  0.19060699674E+02  0.19535335080E+02  0.30129786274E+03  0.30253155485E+03  0.00000000000E+00 0.  1.
          1    1    1    2  502    0 -0.19060699674E+02 -0.19535335080E+02 -0.79038036110E+02  0.83617885293E+02  0.00000000000E+00 0.  1.
</event>
<event>
 4    1  0.8322090E+003  0.3699048E+02  0.7546771E-02  0.1367085E+00
          2   -1    0    0  502    0  0.00000000000E+00  0.00000000000E+00  0.57749444435E+02  0.57749444435E+02  0.00000000000E+00 0. -1.
          1   -1    0    0  501    0 -0.00000000000E+00 -0.00000000000E+00 -0.53343155687E+02  0.53343155687E+02  0.00000000000E+00 0.  1.
          2    1    1    2  501    0  0.56582841015E+01  0.36555151747E+02  0.43614980841E+02  0.57188826286E+02  0.00000000000E+00 0. -1.
          1    1    1    2  502    0 -0.56582841015E+01 -0.36555151747E+02 -0.39208692093E+02  0.53903773837E+02  0.00000000000E+00 0.  1.
</event>
<event>
 4    1  0.8322090E+003  0.2147712E+02  0.7546771E-02  0.1512561E+00
          2   -1    0    0  502    0  0.00000000000E+00  0.00000000000E+00  0.34102560884E+01  0.34102560884E+01  0.00000000000E+00 0. -1.
          1   -1    0    0  501    0 -0.00000000000E+00 -0.00000000000E+00 -0.10020703029E+04  0.10020703029E+04  0.00000000000E+00 0.  1.
          2    1    1    2  501    0  0.11556634444E+02  0.18102791549E+02 -0.31748932055E+02  0.38330947656E+02  0.00000000000E+00 0. -1.
          1    1    1    2  502    0 -0.11556634444E+02 -0.18102791549E+02 -0.96691111477E+03  0.96714961135E+03  0.00000000000E+00 0.  1.
</event>
<event>
 4    1  0.2379394E+004  0.2562603E+02  0.7546771E-02  0.1461920E+00
          2   -1    0    0  502    0  0.00000000000E+00  0.00000000000E+00  0.95832703327E+03  0.95832703327E+03  0.00000000000E+00 0.  1.
          1   -1    0    0  501    0 -0.00000000000E+00 -0.00000000000E+00 -0.78390381236E+03  0.78390381236E+03  0.00000000000E+00 0. -1.
          2    1    1    2  501    0 -0.15636218734E+02 -0.20302760297E+02  0.95794620710E+03  0.95828890691E+03  0.00000000000E+00 0.  1.
          1    1    1    2  502    0  0.15636218734E+02  0.20302760297E+02 -0.78352298618E+03  0.78394193872E+03  0.00000000000E+00 0. -1.
</event>
<event>
 4    1  0.8322090E+003  0.2873741E+02  0.7546771E-02  0.1430895E+00
          2   -1    0    0  502    0  0.00000000000E+00  0.00000000000E+00  0.11655611215E+04  0.11655611215E+04  0.00000000000E+00 0. -1.
          1   -1    0    0  501    0 -0.00000000000E+00 -0.00000000000E+00 -0.14777757691E+02  0.14777757691E+02  0.00000000000E+00 0. -1.
          2    1    1    2  501    0  0.14931702308E+02 -0.24553680658E+02  0.11512392315E+04  0.11515978495E+04  0.00000000000E+00 0. -1.
          1    1    1    2  502    0 -0.14931702308E+02  0.24553680658E+02 -0.45586771155E+00  0.28741029610E+02  0.00000000000E+00 0. -1.
</event>
<event>
 4    1  0.8322090E+003  0.2028124E+02  0.7546771E-02  0.1529779E+00
          2   -1    0    0  502    0  0.00000000000E+00  0.00000000000E+00  0.65924324466E+03  0.65924324466E+03  0.00000000000E+00 0. -1.
          1   -1    0    0  501    0 -0.00000000000E+00 -0.00000000000E+00 -0.21176630546E+01  0.21176630546E+01  0.00000000000E+00 0. -1.
          2    1    1    2  501    0  0.19405341065E+02 -0.58958959577E+01  0.60628780665E+03  0.60662693094E+03  0.00000000000E+00 0. -1.
          1    1    1    2  502    0 -0.19405341065E+02  0.58958959577E+01  0.50837774958E+02  0.54733976776E+02  0.00000000000E+00 0. -1.
</event>
<event>
 4    1  0.8322090E+003  0.3788505E+02  0.7546771E-02  0.1361346E+00
          2   -1    0    0  502    0  0.00000000000E+00  0.00000000000E+00  0.16981874888E+02  0.16981874888E+02  0.00000000000E+00 0.  1.
          1   -1    0    0  501    0 -0.00000000000E+00 -0.00000000000E+00 -0.11407235443E+04  0.11407235443E+04  0.00000000000E+00 0.  1.
          2    1    1    2  501    0 -0.13045756920E+02  0.35568031960E+02 -0.48748579925E+01  0.38197394042E+02  0.00000000000E+00 0.  1.
          1    1    1    2  502    0  0.13045756920E+02 -0.35568031960E+02 -0.11188668114E+04  0.11195080251E+04  0.00000000000E+00 0.  1.
</event>
<event>
 4    1  0.8322090E+003  0.2085127E+02  0.7546771E-02  0.1521399E+00
          2   -1    0    0  502    0  0.00000000000E+00  0.00000000000E+00  0.28942420431E+02  0.28942420431E+02  0.00000000000E+00 0. -1.
          1   -1    0    0  501    0 -0.00000000000E+00 -0.00000000000E+00 -0.44062102731E+02  0.44062102731E+02  0.00000000000E+00 0.  1.
          2    1    1    2  501    0  0.40041195898E+01  0.20463200136E+02  0.22073839308E+02  0.30364945501E+02  0.00000000000E+00 0. -1.
          1    1    1    2  502    0 -0.40041195898E+01 -0.20463200136E+02 -0.37193521608E+02  0.42639577661E+02  0.00000000000E+00 0.  1.
</event>
<event>
 4    1  0.8322090E+003  0.2970388E+02  0.7546771E-02  0.1422187E+00
          2   -1    0    0  502    0  0.00000000000E+00  0.00000000000E+00  0.21958383148E+04  0.21958383148E+04  0.00000000000E+00 0.  1.
          1   -1    0    0  501    0 -0.00000000000E+00 -0.00000000000E+00 -0.63564831344E+00  0.63564831344E+00  0.00000000000E+00 0. -1.
          2    1    1    2  501    0 -0.22460980942E+02  0.19437714868E+02  0.17637036643E+04  0.17639537794E+04  0.00000000000E+00 0.  1.
          1    1    1    2  502    0  0.22460980942E+02 -0.19437714868E+02  0.43149900218E+03  0.43252018369E+03  0.00000000000E+00 0. -1.
</event>
<event>
 4    1  0.8322090E+003  0.6133660E+02  0.7546771E-02  0.1255358E+00
          2   -1    0    0  502    0  0.00000000000E+00  0.00000000000E+00  0.72142830253E+02  0.72142830253E+02  0.00000000000E+00 0.  1.
          1   -1    0    0  501    0 -0.00000000000E+00 -0.00000000000E+00 -0.26802313264E+03  0.26802313264E+03  0.00000000000E+00 0.  1.
          2    1    1    2  501    0  0.90684568943E+01  0.60662520732E+02  0.54702182557E+02  0.82185808438E+02  0.00000000000E+00 0.  1.
          1    1    1    2  502    0 -0.90684568943E+01 -0.60662520732E+02 -0.25058248495E+03  0.25798015446E+03  0.00000000000E+00 0.  1.
</event>
<event>
 4    1  0.8322090E+003  0.4377184E+02  0.7546771E-02  0.1327696E+00
          2   -1    0    0  502    0  0.00000000000E+00  0.00000000000E+00  0.90641749701E+02  0.90641749701E+02  0.00000000000E+00 0. -1.
          1   -1    0    0  501    0 -0.00000000000E+00 -0.00000000000E+00 -0.20904831678E+03  0.20904831678E+03  0.00000000000E+00 0. -1.
          2    1    1    2  501    0 -0.42804059992E+02  0.91535080849E+01  0.82864128100E+02  0.93714662609E+02  0.00000000000E+00 0. -1.
          1    1    1    2  502    0  0.42804059992E+02 -0.91535080849E+01 -0.20127069518E+03  0.20597540387E+03  0.00000000000E+00 0. -1.
</event>
<event>
 4    1  0.8322090E+003  0.2335698E+02  0.7546771E-02  0.1488064E+00
          2   -1    0    0  502    0  0.00000000000E+00  0.00000000000E+00  0.12347365888E+02  0.12347365888E+02  0.00000000000E+00 0.  1.
          1   -1    0    0  501    0 -0.00000000000E+00 -0.00000000000E+00 -0.33790482724E+03  0.33790482724E+03  0.00000000000E+00 0.  1.
          2    1    1    2  501    0  0.15121275664E+02 -0.17801558430E+02  0.49694636334E+00  0.23362264787E+02  0.00000000000E+00 0.  1.
          1    1    1    2  502    0 -0.15121275664E+02  0.17801558430E+02 -0.32605440772E+03  0.32688992834E+03  0.00000000000E+00 0.  1.
</event>
<event>
 4    1  0.8322090E+003  0.2629135E+02  0.7546771E-02  0.1454859E+00
          2   -1    0    0  502    0  0.00000000000E+00  0.00000000000E+00  0.15942655857E+04  0.15942655857E+04  0.00000000000E+00 0.  1.
          1   -1    0    0  501    0 -0.00000000000E+00 -0.00000000000E+00 -0.43368068765E+00  0.43368068765E+00  0.00000000000E+00 0.  1.
          2    1    1    2  501    0  0.23904041296E+02 -0.10946778870E+02  0.80930935308E+03  0.80973629296E+03  0.00000000000E+00 0.  1.
          1    1    1    2  502    0 -0.23904041296E+02  0.10946778870E+02  0.78452255190E+03  0.78496297339E+03  0.00000000000E+00 0.  1.
</event>
<event>
 4    1  0.8322090E+003  0.4304163E+02  0.7546771E-02  0.1331528E+00
          2   -1    0    0  502    0  0.00000000000E+00  0.00000000000E+00  0.38812532636E+01  0.38812532636E+01  0.00000000000E+00 0. -1.
          1   -1    0    0  501    0 -0.00000000000E+00 -0.00000000000E+00 -0.13614366639E+04  0.13614366639E+04  0.00000000000E+00 0. -1.
          2    1    1    2  501    0  0.31286333245E+02 -0.29559186798E+02 -0.12289023531E+04  0.12296558761E+04  0.00000000000E+00 0. -1.
          1    1    1    2  502    0 -0.31286333245E+02  0.29559186798E+02 -0.12865305753E+03  0.13566204106E+03  0.00000000000E+00 0. -1.
</event>
<event>
 4    1  0.8322090E+003  0.3542664E+02  0.7546771E-02  0.1377588E+00
          2   -1    0    0  502    0  0.00000000000E+00  0.00000000000E+00  0.83065934527E+03  0.83065934527E+03  0.00000000000E+00 0. -1.
          1   -1    0    0  501    0 -0.00000000000E+00 -0.00000000000E+00 -0.91772869369E+01  0.91772869369E+01  0.00000000000E+00 0.  1.
          2    1    1    2  501    0 -0.28890697741E+02  0.20503025435E+02  0.79453921649E+03  0.79532861951E+03  0.00000000000E+00 0. -1.
          1    1    1    2  502    0  0.28890697741E+02 -0.20503025435E+02  0.26942841846E+02  0.44508012702E+02  0.00000000000E+00 0.  1.
</event>
<event>
 4    1  0.8322090E+003  0.3483763E+02  0.7546771E-02  0.1381708E+00
          2   -1    0    0  502    0  0.00000000000E+00  0.00000000000E+00  0.31468442557E+02  0.31468442557E+02  0.00000000000E+00 0.  1.
          1   -1    0    0  501    0 -0.00000000000E+00 -0.00000000000E+00 -0.44497829985E+03  0.44497829985E+03  0.00000000000E+00 0. -1.
          2    1    1    2  501    0  0.21704071918E+02  0.27250575476E+02  0.20910740281E+02  0.40631510687E+02  0.00000000000E+00 0.  1.
          1    1    1    2  502    0 -0.21704071918E+02 -0.27250575476E+02 -0.43442059757E+03  0.43581523172E+03  0.00000000000E+00 0. -1.
</event>
<event>
 4    1  0.8322090E+003  0.5962628E+02  0.7546771E-02  0.1261108E+00
          2   -1    0    0  502    0  0.00000000000E+00  0.00000000000E+00  0.31981718364E+03  0.31981718364E+03  0.00000000000E+00 0. -1.
          1   -1    0    0  501    0 -0.00000000000E+00 -0.00000000000E+00 -0.22406899761E+03  0.22406899761E+03  0.00000000000E+00 0.  1.
          2    1    1    2  501    0 -0.24313289590E+02  0.54444073451E+02  0.31298547120E+03  0.31861449805E+03  0.00000000000E+00 0. -1.
          1    1    1    2  502    0  0.24313289590E+02 -0.54444073451E+02 -0.21723728517E+03  0.22527168320E+03  0.00000000000E+00 0.  1.
</event>
<event>
 4    1  0.8322090E+003  0.2042162E+02  0.7546771E-02  0.1527685E+00
          2   -1    0    0  502    0  0.00000000000E+00  0.00000000000E+00  0.15580128851E+03  0.15580128851E+03  0.00000000000E+00 0. -1.
          1   -1    0    0  501    0 -0.00000000000E+00 -0.00000000000E+00 -0.34399425772E+02  0.34399425772E+02  0.00000000000E+00 0.  1.
          2    1    1    2  501    0 -0.45893240201E+01  0.19899262313E+02  0.15202629172E+03  0.15339177263E+03  0.00000000000E+00 0. -1.
          1    1    1    2  502    0  0.45893240201E+01 -0.19899262313E+02 -0.30624428979E+02  0.36808941657E+02  0.00000000000E+00 0.  1.
</event>
<event>
 4    1  0.8322090E+003  0.3813157E+02  0.7546771E-02  0.1359797E+00
          2   -1    0    0  502    0  0.00000000000E+00  0.00000000000E+00  0.37662877684E+01  0.37662877684E+01  0.00000000000E+00 0.  1.
          1   -1    0    0  501    0 -0.00000000000E+00 -0.00000000000E+00 -0.17814530934E+04  0.17814530934E+04  0.00000000000E+00 0. -1.
          2    1    1    2  501    0  0.72007999203E+01  0.37445491281E+02 -0.98851662497E+02  0.10595125065E+03  0.00000000000E+00 0.  1.
          1    1    1    2  502    0 -0.72007999203E+01 -0.37445491281E+02 -0.16788351431E+04  0.16792681305E+04  0.00000000000E+00 0. -1.
</event>
<event>
 4    1  0.8322090E+003  0.2450797E+02  0.7546771E-02  0.1474384E+00
          2   -1    0    0  502    0  0.00000000000E+00  0.00000000000E+00  0.12717747540E+02  0.12717747540E+02  0.00000000000E+00 0.  1.
          1   -1    0    0  501    0 -0.00000000000E+00 -0.00000000000E+00 -0.50570694765E+02  0.50570694765E+02  0.00000000000E+00 0. -1.
          2    1    1    2  501    0 -0.89198779299E+01 -0.22827097345E+02 -0.10791455961E+02  0.26778650400E+02  0.00000000000E+00 0.  1.
          1    1    1    2  502    0  0.89198779299E+01  0.22827097345E+02 -0.27061491264E+02  0.36509791905E+02  0.00000000000E+00 0. -1.
</event>
<event>
 4    1  0.8322090E+003  0.2615359E+02  0.7546771E-02  0.1456301E+00
          2   -1    0    0  502    0  0.00000000000E+00  0.00000000000E+00  0.12245163281E+03  0.12245163281E+03  0.00000000000E+00 0.  1.
          1   -1    0    0  501    0 -0.00000000000E+00 -0.00000000000E+00 -0.35778341442E+03  0.35778341442E+03  0.00000000000E+00 0.  1.
          2    1    1    2  501    0  0.79873129242E+01 -0.24904077851E+02  0.12056981823E+03  0.12337378704E+03  0.00000000000E+00 0.  1.
          1    1    1    2  502    0 -0.79873129242E+01  0.24904077851E+02 -0.35590159984E+03  0.35686126020E+03  0.00000000000E+00 0.  1.
</event>
<event>
 4    1  0.8322090E+003  0.2860958E+02  0.7546771E-02  0.1432077E+00
          2   -1    0    0  502    0  0.00000000000E+00  0.00000000000E+00  0.11913575357E+04  0.11913575357E+04  0.00000000000E+00 0. -1.
          1   -1    0    0  501    0 -0.00000000000E+00 -0.00000000000E+00 -0.11447858042E+02  0.11447858042E+02  0.00000000000E+00 0. -1.
          2    1    1    2  501    0  0.78211471210E+01 -0.27519774485E+02  0.11730318656E+04  0.11733806996E+04  0.00000000000E+00 0. -1.
          1    1    1    2  502    0 -0.78211471210E+01  0.27519774485E+02  0.68778120495E+01  0.29424694197E+02  0.00000000000E+00 0. -1.
</event>
<event>
 4    1  0.8322090E+003  0.2138221E+02  0.7546771E-02  0.1513877E+00
          2   -1    0    0  502    0  0.00000000000E+00  0.00000000000E+00  0.56483032608E+03  0.56483032608E+03  0.00000000000E+00 0.  1.
          1   -1    0    0  501    0 -0.00000000000E+00 -0.00000000000E+00 -0.11567323546E+01  0.11567323546E+01  0.00000000000E+00 0.  1.
          2    1    1    2  501    0  0.54663302739E+01 -0.20671677375E+02  0.43689852772E+03  0.43742144727E+03  0.00000000000E+00 0.  1.
          1    1    1    2  502    0 -0.54663302739E+01  0.20671677375E+02  0.12677506600E+03  0.12856561116E+03  0.00000000000E+00 0.  1.
</event>
<event>
 4    1  0.8322090E+003  0.2037890E+02  0.7546771E-02  0.1528320E+00
          2   -1    0    0  502    0  0.00000000000E+00  0.00000000000E+00  0.64937825794E+01  0.64937825794E+01  0.00000000000E+00 0. -1.
          1   -1    0    0  501    0 -0.00000000000E+00 -0.00000000000E+00 -0.94732243588E+03  0.94732243588E+03  0.00000000000E+00 0. -1.
          2    1    1    2  501    0 -0.17338255763E+02  0.10709073405E+02 -0.98854301013E+01  0.22649968971E+02  0.00000000000E+00 0. -1.
          1    1    1    2  502    0  0.17338255763E+02 -0.10709073405E+02 -0.93094322320E+03  0.93116624948E+03  0.00000000000E+00 0. -1.
</event>
<event>
 4    1  0.8322090E+003  0.3232358E+02  0.7546771E-02  0.1400423E+00
          2   -1    0    0  502    0  0.00000000000E+00  0.00000000000E+00  0.74805469451E+00  0.74805469451E+00  0.00000000000E+00 0.  1.
          1   -1    0    0  501    0 -0.00000000000E+00 -0.00000000000E+00 -0.18184044102E+04  0.18184044102E+04  0.00000000000E+00 0.  1.
          2    1    1    2  501    0 -0.21742650794E+01 -0.32250369945E+02 -0.47080817299E+03  0.47191646458E+03  0.00000000000E+00 0.  1.
          1    1    1    2  502    0  0.21742650794E+01  0.32250369945E+02 -0.13468481825E+04  0.13472360003E+04  0.00000000000E+00 0.  1.
</event>
<event>
 4    1  0.8322090E+003  0.2155290E+02  0.7546771E-02  0.1511515E+00
          2   -1    0    0  502    0  0.00000000000E+00  0.00000000000E+00  0.67261130665E+01  0.67261130665E+01  0.00000000000E+00 0.  1.
          1   -1    0    0  501    0 -0.00000000000E+00 -0.00000000000E+00 -0.27492978092E+03  0.27492978092E+03  0.00000000000E+00 0. -1.
          2    1    1    2  501    0 -0.19226094847E+02  0.97408821545E+01 -0.12239137241E+02  0.24785560083E+02  0.00000000000E+00 0.  1.
          1    1    1    2  502    0  0.19226094847E+02 -0.97408821545E+01 -0.25596453061E+03  0.25687033390E+03  0.00000000000E+00 0. -1.
</event>
<event>
 4    1  0.8322090E+003  0.2792407E+02  0.7546771E-02  0.1438540E+00
          2   -1    0    0  502    0  0.00000000000E+00  0.00000000000E+00  0.30722854345E+01  0.30722854345E+01  0.00000000000E+00 0.  1.
          1   -1    0    0  501    0 -0.00000000000E+00 -0.00000000000E+00 -0.72678525107E+03  0.72678525107E+03  0.00000000000E+00 0.  1.
          2    1    1    2  501    0  0.48165486645E+01 -0.27505537707E+02 -0.67463335349E+02  0.73014076465E+02  0.00000000000E+00 0.  1.
          1    1    1    2  502    0 -0.48165486645E+01  0.27505537707E+02 -0.65624963029E+03  0.65684346004E+03  0.00000000000E+00 0.  1.
</event>
<event>
 4    1  0.8322090E+003  0.2440784E+02  0.7546771E-02  0.1475538E+00
          2   -1    0    0  502    0  0.00000000000E+00  0.00000000000E+00  0.55635709525E+03  0.55635709525E+03  0.00000000000E+00 0.  1.
          1   -1    0    0  501    0 -0.00000000000E+00 -0.00000000000E+00 -0.29021333004E+01  0.29021333004E+01  0.00000000000E+00 0.  1.
          2    1    1    2  501    0  0.17367432214E+02  0.17149786886E+02  0.49885844173E+03  0.49945519096E+03  0.00000000000E+00 0.  1.
          1    1    1    2  502    0 -0.17367432214E+02 -0.17149786886E+02  0.54596520215E+02  0.59804037586E+02  0.00000000000E+00 0.  1.
</event>
<event>
 4    1  0.8322090E+003  0.2522571E+02  0.7546771E-02  0.1466294E+00
          2   -1    0    0  502    0  0.00000000000E+00  0.00000000000E+00  0.17307649439E+04  0.17307649439E+04  0.00000000000E+00 0.  1.
          1   -1    0    0  501    0 -0.00000000000E+00 -0.00000000000E+00 -0.20390938268E+02  0.20390938268E+02  0.00000000000E+00 0.  1.
          2    1    1    2  501    0  0.12942418074E+02  0.21652490269E+02  0.17228354149E+04  0.17230200821E+04  0.00000000000E+00 0.  1.
          1    1    1    2  502    0 -0.12942418074E+02 -0.21652490269E+02 -0.12461409312E+02  0.28135800015E+02  0.00000000000E+00 0.  1.
</event>
<event>
 4    1  0.8322090E+003  0.2506490E+02  0.7546771E-02  0.1468079E+00
          2   -1    0    0  502    0  0.00000000000E+00  0.00000000000E+00  0.13799111376E+03  0.13799111376E+03  0.00000000000E+00 0.  1.
          1   -1    0    0  501    0 -0.00000000000E+00 -0.00000000000E+00 -0.59109555759E+01  0.59109555759E+01  0.00000000000E+00 0.  1.
          2    1    1    2  501    0  0.18667267986E+02 -0.16726699673E+02  0.10052895012E+03  0.10360655958E+03  0.00000000000E+00 0.  1.
          1    1    1    2  502    0 -0.18667267986E+02  0.16726699673E+02  0.31551208059E+02  0.40295509750E+02  0.00000000000E+00 0.  1.
</event>
<event>
 4    1  0.8322090E+003  0.2054341E+02  0.7546771E-02  0.1525885E+00
          2   -1    0    0  502    0  0.00000000000E+00  0.00000000000E+00  0.30074499240E+03  0.30074499240E+03  0.00000000000E+00 0.  1.
          1   -1    0    0  501    0 -0.00000000000E+00 -0.00000000000E+00 -0.24124000585E+02  0.24124000585E+02  0.00000000000E+00 0.  1.
          2    1    1    2  501    0  0.19322466344E+02  0.69766846032E+01  0.29594982416E+03  0.29666197979E+03  0.00000000000E+00 0.  1.
          1    1    1    2  502    0 -0.19322466344E+02 -0.69766846032E+01 -0.19328832342E+02  0.28207013195E+02  0.00000000000E+00 0.  1.
</event>
<event>
 4    1  0.8322090E+003  0.2829735E+02  0.7546771E-02  0.1434994E+00
          2   -1    0    0  502    0  0.00000000000E+00  0.00000000000E+00  0.15409970745E+01  0.15409970745E+01  0.00000000000E+00 0.  1.
          1   -1    0    0  501    0 -0.00000000000E+00 -0.00000000000E+00 -0.12873595385E+04  0.12873595385E+04  0.00000000000E+00 0.  1.
          2    1    1    2  501    0  0.28119007886E+02 -0.31719773432E+01 -0.14523507515E+03  0.14796610118E+03  0.00000000000E+00 0.  1.
          1    1    1    2  502    0 -0.28119007886E+02  0.31719773432E+01 -0.11405834663E+04  0.11409344344E+04  0.00000000000E+00 0.  1.
</event>
<event>
 4    1  0.8322090E+003  0.2195842E+02  0.7546771E-02  0.1506008E+00
          2   -1    0    0  502    0  0.00000000000E+00  0.00000000000E+00  0.41984791406E+02  0.41984791406E+02  0.00000000000E+00 0. -1.
          1   -1    0    0  501    0 -0.00000000000E+00 -0.00000000000E+00 -0.12034333266E+02  0.12034333266E+02  0.00000000000E+00 0. -1.
          2    1    1    2  501    0  0.11876176243E+02 -0.18469672274E+02  0.20748748978E+02  0.30210642830E+02  0.00000000000E+00 0. -1.
          1    1    1    2  502    0 -0.11876176243E+02  0.18469672274E+02  0.92017091621E+01  0.23808481841E+02  0.00000000000E+00 0. -1.
</event>
<event>
 4    1  0.8322090E+003  0.2508703E+02  0.7546771E-02  0.1467832E+00
          2   -1    0    0  502    0  0.00000000000E+00  0.00000000000E+00  0.85023934329E+03  0.85023934329E+03  0.00000000000E+00 0.  1.
          1   -1    0    0  501    0 -0.00000000000E+00 -0.00000000000E+00 -0.20359977824E+02  0.20359977824E+02  0.00000000000E+00 0.  1.
          2    1    1    2  501    0 -0.15112223141E+02  0.20024484743E+02  0.84225313298E+03  0.84262666661E+03  0.00000000000E+00 0.  1.
          1    1    1    2  502    0  0.15112223141E+02 -0.20024484743E+02 -0.12373767511E+02  0.27972654502E+02  0.00000000000E+00 0.  1.
</event>
<event>
 4    1  0.8322090E+003  0.3378997E+02  0.7546771E-02  0.1389276E+00
          2   -1    0    0  502    0  0.00000000000E+00  0.00000000000E+00  0.15671439535E+04  0.15671439535E+04  0.00000000000E+00 0.  1.
          1   -1    0    0  501    0 -0.00000000000E+00 -0.00000000000E+00 -0.95511891365E+00  0.95511891365E+00  0.00000000000E+00 0.  1.
          2    1    1    2  501    0 -0.32543080333E+02 -0.90944913436E+01  0.11649536059E+04  0.11654435489E+04  0.00000000000E+00 0.  1.
          1    1    1    2  502    0  0.32543080333E+02  0.90944913436E+01  0.40123522868E+03  0.40265552347E+03  0.00000000000E+00 0.  1.
</event>
<event>
 4    1  0.8322090E+003  0.2014148E+02  0.7546771E-02  0.1531884E+00
          2   -1    0    0  502    0  0.00000000000E+00  0.00000000000E+00  0.61245826256E+03  0.61245826256E+03  0.00000000000E+00 0. -1.
          1   -1    0    0  501    0 -0.00000000000E+00 -0.00000000000E+00 -0.66904209867E+02  0.66904209867E+02  0.00000000000E+00 0.  1.
          2    1    1    2  501    0 -0.38708460578E+01 -0.19766029338E+02  0.61077258901E+03  0.61110460222E+03  0.00000000000E+00 0. -1.
          1    1    1    2  502    0  0.38708460578E+01  0.19766029338E+02 -0.65218536322E+02  0.68257870205E+02  0.00000000000E+00 0.  1.
</event>
<event>
 4    1  0.8322090E+003  0.2158804E+02  0.7546771E-02  0.1511032E+00
          2   -1    0    0  502    0  0.00000000000E+00  0.00000000000E+00  0.35409010740E+03  0.35409010740E+03  0.00000000000E+00 0.  1.
          1   -1    0    0  501    0 -0.00000000000E+00 -0.00000000000E+00 -0.64130201770E+01  0.64130201770E+01  0.00000000000E+00 0. -1.
          2    1    1    2  501    0 -0.85346877029E+01 -0.19829336730E+02  0.33453214574E+03  0.33522798216E+03  0.00000000000E+00 0.  1.
          1    1    1    2  502    0  0.85346877029E+01  0.19829336730E+02  0.13144941485E+02  0.25275145420E+02  0.00000000000E+00 0. -1.
</event>
<event>
 4    1  0.8322090E+003  0.2046418E+02  0.7546771E-02  0.1527054E+00
          2   -1    0    0  502    0  0.00000000000E+00  0.00000000000E+00  0.31681945425E+03  0.31681945425E+03  0.00000000000E+00 0. -1.
          1   -1    0    0  501    0 -0.00000000000E+00 -0.00000000000E+00 -0.19277049267E+02  0.19277049267E+02  0.00000000000E+00 0. -1.
          2    1    1    2  501    0 -0.16871367639E+02 -0.11581868065E+02  0.31095558392E+03  0.31162823666E+03  0.00000000000E+00 0. -1.
          1    1    1    2  502    0  0.16871367639E+02  0.11581868065E+02 -0.13413178935E+02  0.24468266858E+02  0.00000000000E+00 0. -1.
</event>
<event>
 4    1  0.8322090E+003  0.2574325E+02  0.7546771E-02  0.1460658E+00
          2   -1    0    0  502    0  0.00000000000E+00  0.00000000000E+00  0.67291622514E+03  0.67291622514E+03  0.00000000000E+00 0. -1.
          1   -1    0    0  501    0 -0.00000000000E+00 -0.00000000000E+00 -0.99659189621E+00  0.99659189621E+00  0.00000000000E+00 0.  1.
          2    1    1    2  501    0 -0.16422278620E+02 -0.19824821453E+02  0.37255045311E+03  0.37343882349E+03  0.00000000000E+00 0. -1.
          1    1    1    2  502    0  0.16422278620E+02  0.19824821453E+02  0.29936918014E+03  0.30047399355E+03  0.00000000000E+00 0.  1.
</event>
<event>
 4    1  0.8322090E+003  0.2766966E+02  0.7546771E-02  0.1440995E+00
          2   -1    0    0  502    0  0.00000000000E+00  0.00000000000E+00  0.65220291264E+03  0.65220291264E+03  0.00000000000E+00 0.  1.
          1   -1    0    0  501    0 -0.00000000000E+00 -0.00000000000E+00 -0.62006669598E+01  0.62006669598E+01  0.00000000000E+00 0.  1.
          2    1    1    2  501    0  0.27669632508E+02 -0.35312049712E-01  0.61940788125E+03  0.62002559073E+03  0.00000000000E+00 0.  1.
          1    1    1    2  502    0 -0.27669632508E+02  0.35312049712E-01  0.26594364434E+02  0.38377988870E+02  0.00000000000E+00 0.  1.
</event>
<event>
 4    1  0.8322090E+003  0.3579468E+02  0.7546771E-02  0.1375061E+00
          2   -1    0    0  502    0  0.00000000000E+00  0.00000000000E+00  0.21372501777E+03  0.21372501777E+03  0.00000000000E+00 0.  1.
          1   -1    0    0  501    0 -0.00000000000E+00 -0.00000000000E+00 -0.10461981167E+02  0.10461981167E+02  0.00000000000E+00 0. -1.
          2    1    1    2  501    0  0.21723169303E+02  0.28449300359E+02  0.17487781738E+03  0.17850352878E+03  0.00000000000E+00 0.  1.
          1    1    1    2  502    0 -0.21723169303E+02 -0.28449300359E+02  0.28385219228E+02  0.45683470163E+02  0.00000000000E+00 0. -1.
</event>
<event>
 4    1  0.8322090E+003  0.2766607E+02  0.7546771E-02  0.1441030E+00
          2   -1    0    0  502    0  0.00000000000E+00  0.00000000000E+00  0.13731503024E+04  0.13731503024E+04  0.00000000000E+00 0. -1.
          1   -1    0    0  501    0 -0.00000000000E+00 -0.00000000000E+00 -0.81237561382E+00  0.81237561382E+00  0.00000000000E+00 0.  1.
          2    1    1    2  501    0  0.26109640905E+02 -0.91486560084E+01  0.10710310311E+04  0.10713882960E+04  0.00000000000E+00 0. -1.
          1    1    1    2  502    0 -0.26109640905E+02  0.91486560084E+01  0.30130689566E+03  0.30257438197E+03  0.00000000000E+00 0.  1.
</event>
<event>
 4    1  0.8322090E+003  0.2445528E+02  0.7546771E-02  0.1474990E+00
          2   -1    0    0  502    0  0.00000000000E+00  0.00000000000E+00  0.51060141100E+03  0.51060141100E+03  0.00000000000E+00 0. -1.
          1   -1    0    0  501    0 -0.00000000000E+00 -0.00000000000E+00 -0.34084462109E+02  0.34084462109E+02  0.00000000000E+00 0. -1.
          2    1    1    2  501    0  0.96404658260E+01 -0.22474923447E+02  0.50588107354E+03  0.50647183666E+03  0.00000000000E+00 0. -1.
          1    1    1    2  502    0 -0.96404658260E+01  0.22474923447E+02 -0.29364124648E+02  0.38214036448E+02  0.00000000000E+00 0. -1.
</event>
<event>
 4    1  0.8322090E+003  0.2160352E+02  0.7546771E-02  0.1510820E+00
          2   -1    0    0  502    0  0.00000000000E+00  0.00000000000E+00  0.55719265024E+02  0.55719265024E+02  0.00000000000E+00 0.  1.
          1   -1    0    0  501    0 -0.00000000000E+00 -0.00000000000E+00 -0.29776804207E+02  0.29776804207E+02  0.00000000000E+00 0. -1.
          2    1    1    2  501    0 -0.74402997741E+01 -0.20281863792E+02  0.49211447584E+02  0.53744568404E+02  0.00000000000E+00 0.  1.
          1    1    1    2  502    0  0.74402997741E+01  0.20281863792E+02 -0.23268986767E+02  0.31751500827E+02  0.00000000000E+00 0. -1.
</event>
<event>
 4    1  0.8322090E+003  0.2370244E+02  0.7546771E-02  0.1483861E+00
          2   -1    0    0  502    0  0.00000000000E+00  0.00000000000E+00  0.13231581652E+04  0.13231581652E+04  0.00000000000E+00 0.  1.
          1   -1    0    0  501    0 -0.00000000000E+00 -0.00000000000E+00 -0.76594544102E+00  0.76594544102E+00  0.00000000000E+00 0. -1.
          2    1    1    2  501    0 -0.80319076788E+01  0.22300090136E+02  0.11031070844E+04  0.11033617019E+04  0.00000000000E+00 0.  1.
          1    1    1    2  502    0  0.80319076788E+01 -0.22300090136E+02  0.21928513527E+03  0.22056240866E+03  0.00000000000E+00 0. -1.
</event>
<event>
 4    1  0.8322090E+003  0.5450091E+02  0.7546771E-02  0.1279755E+00
          2   -1    0    0  502    0  0.00000000000E+00  0.00000000000E+00  0.26827172827E+01  0.26827172827E+01  0.00000000000E+00 0.  1.
          1   -1    0    0  501    0 -0.00000000000E+00 -0.00000000000E+00 -0.14593428774E+04  0.14593428774E+04  0.00000000000E+00 0.  1.
          2    1    1    2  501    0  0.54085768891E+02 -0.67141097795E+01 -0.36924662276E+03  0.37324712737E+03  0.00000000000E+00 0.  1.
          1    1    1    2  502    0 -0.54085768891E+02  0.67141097795E+01 -0.10874135373E+04  0.10887784673E+04  0.00000000000E+00 0.  1.
</event>
<event>
 4    1  0.8322090E+003  0.2373886E+02  0.7546771E-02  0.1483423E+00
          2   -1    0    0  502    0  0.00000000000E+00  0.00000000000E+00  0.47324759662E+03  0.47324759662E+03  0.00000000000E+00 0.  1.
          1   -1    0    0  501    0 -0.00000000000E+00 -0.00000000000E+00 -0.22950163418E+02  0.22950163418E+02  0.00000000000E+00 0.  1.
          2    1    1    2  501    0  0.23737250462E+02  0.27681219847E+00  0.46672550700E+03  0.46732882703E+03  0.00000000000E+00 0.  1.
          1    1    1    2  502    0 -0.23737250462E+02 -0.27681219847E+00 -0.16428073799E+02  0.28868933011E+02  0.00000000000E+00 0.  1.
</event>
<event>
 4    1  0.8322090E+003  0.2731348E+02  0.7546771E-02  0.1444484E+00
          2   -1    0    0  502    0  0.00000000000E+00  0.00000000000E+00  0.95785126298E+03  0.95785126298E+03  0.00000000000E+00 0.  1.
          1   -1    0    0  501    0 -0.00000000000E+00 -0.00000000000E+00 -0.34629259745E+02  0.34629259745E+02  0.00000000000E+00 0. -1.
          2    1    1    2  501    0  0.10141474866E+01 -0.27294646706E+02  0.95223900500E+03  0.95263064662E+03  0.00000000000E+00 0.  1.
          1    1    1    2  502    0 -0.10141474866E+01  0.27294646706E+02 -0.29017001768E+02  0.39849876104E+02  0.00000000000E+00 0. -1.
</event>
<event>
 4    1  0.8322090E+003  0.2169676E+02  0.7546771E-02  0.1509545E+00
          2   -1    0    0  502    0  0.00000000000E+00  0.00000000000E+00  0.72891285652E+00  0.72891285652E+00  0.00000000000E+00 0.  1.
          1   -1    0    0  501    0 -0.00000000000E+00 -0.00000000000E+00 -0.64831714929E+03  0.64831714929E+03  0.00000000000E+00 0. -1.
          2    1    1    2  501    0  0.11040574485E+02 -0.18677653414E+02 -0.34392084072E+03  0.34460454684E+03  0.00000000000E+00 0.  1.
          1    1    1    2  502    0 -0.11040574485E+02  0.18677653414E+02 -0.30366739572E+03  0.30444151531E+03  0.00000000000E+00 0. -1.
</event>
<event>
 4    1  0.8322090E+003  0.3636070E+02  0.7546771E-02  0.1371241E+00
          2   -1    0    0  502    0  0.00000000000E+00  0.00000000000E+00  0.10123770225E+04  0.10123770225E+04  0.00000000000E+00 0.  1.
          1   -1    0    0  501    0 -0.00000000000E+00 -0.00000000000E+00 -0.17205046403E+01  0.17205046403E+01  0.00000000000E+00 0.  1.
          2    1    1    2  501    0 -0.33462056614E+02  0.14226438073E+02  0.75422512033E+03  0.75510107463E+03  0.00000000000E+00 0.  1.
          1    1    1    2  502    0  0.33462056614E+02 -0.14226438073E+02  0.25643139753E+03  0.25899645251E+03  0.00000000000E+00 0.  1.
</event>
<event>
 4    1  0.8322090E+003  0.2355526E+02  0.7546771E-02  0.1485641E+00
          2   -1    0    0  502    0  0.00000000000E+00  0.00000000000E+00  0.13412184531E+04  0.13412184531E+04  0.00000000000E+00 0.  1.
          1   -1    0    0  501    0 -0.00000000000E+00 -0.00000000000E+00 -0.56086947838E+01  0.56086947838E+01  0.00000000000E+00 0. -1.
          2    1    1    2  501    0  0.93310521984E+01 -0.21628259288E+02  0.13159076716E+04  0.13161184788E+04  0.00000000000E+00 0.  1.
          1    1    1    2  502    0 -0.93310521984E+01  0.21628259288E+02  0.19702086748E+02  0.30708669088E+02  0.00000000000E+00 0. -1.
</event>
<event>
 4    1  0.8322090E+003  0.4816764E+02  0.7546771E-02  0.1306319E+00
          2   -1    0    0  502    0  0.00000000000E+00  0.00000000000E+00  0.14958277304E+03  0.14958277304E+03  0.00000000000E+00 0. -1.
          1   -1    0    0  501    0 -0.00000000000E+00 -0.00000000000E+00 -0.29155923810E+02  0.29155923810E+02  0.00000000000E+00 0. -1.
          2    1    1    2  501    0  0.24098913814E+02 -0.41705681990E+02  0.12135220800E+03  0.13056216889E+03  0.00000000000E+00 0. -1.
          1    1    1    2  502    0 -0.24098913814E+02  0.41705681990E+02 -0.92535877828E+00  0.48176527959E+02  0.00000000000E+00 0. -1.
</event>
<event>
 4    1  0.8322090E+003  0.2698594E+02  0.7546771E-02  0.1447749E+00
          2   -1    0    0  502    0  0.00000000000E+00  0.00000000000E+00  0.37956164574E+02  0.37956164574E+02  0.00000000000E+00 0. -1.
          1   -1    0    0  501    0 -0.00000000000E+00 -0.00000000000E+00 -0.44693933277E+02  0.44693933277E+02  0.00000000000E+00 0. -1.
          2    1    1    2  501    0 -0.13646498386E+01  0.26951411178E+02  0.27850448336E+02  0.38779998790E+02  0.00000000000E+00 0. -1.
          1    1    1    2  502    0  0.13646498386E+01 -0.26951411178E+02 -0.34588217039E+02  0.43870099061E+02  0.00000000000E+00 0. -1.
</event>
<event>
 4    1  0.1162181E+004  0.4170934E+02  0.7546771E-02  0.1338750E+00
          2   -1    0    0  502    0  0.00000000000E+00  0.00000000000E+00  0.14839326017E+04  0.14839326017E+04  0.00000000000E+00 0.  1.
          1   -1    0    0  501    0 -0.00000000000E+00 -0.00000000000E+00 -0.55271410957E+03  0.55271410957E+03  0.00000000000E+00 0.  1.
          2    1    1    2  501    0 -0.94379237963E+01  0.40627507267E+02  0.14828520688E+04  0.14834385483E+04  0.00000000000E+00 0.  1.
          1    1    1    2  502    0  0.94379237963E+01 -0.40627507267E+02 -0.55163357662E+03  0.55320816299E+03  0.00000000000E+00 0.  1.
</event>
<event>
 4    1  0.8322090E+003  0.2658787E+02  0.7546771E-02  0.1451793E+00
          2   -1    0    0  502    0  0.00000000000E+00  0.00000000000E+00  0.31216811315E+01  0.31216811315E+01  0.00000000000E+00 0.  1.
          1   -1    0    0  501    0 -0.00000000000E+00 -0.00000000000E+00 -0.70752994219E+03  0.70752994219E+03  0.00000000000E+00 0. -1.
          2    1    1    2  501    0 -0.23706595456E+02 -0.12037941167E+02 -0.59208243749E+02  0.64904012384E+02  0.00000000000E+00 0.  1.
          1    1    1    2  502    0  0.23706595456E+02  0.12037941167E+02 -0.64520001731E+03  0.64574761093E+03  0.00000000000E+00 0. -1.
</event>
<event>
 4    1  0.8322090E+003  0.3540780E+02  0.7546771E-02  0.1377719E+00
          2   -1    0    0  502    0  0.00000000000E+00  0.00000000000E+00  0.54345858772E+03  0.54345858772E+03  0.00000000000E+00 0. -1.
          1   -1    0    0  501    0 -0.00000000000E+00 -0.00000000000E+00 -0.47304080705E+01  0.47304080705E+01  0.00000000000E+00 0.  1.
          2    1    1    2  501    0 -0.32459927406E+02  0.14144458340E+02  0.46555186170E+03  0.46689640020E+03  0.00000000000E+00 0. -1.
          1    1    1    2  502    0  0.32459927406E+02 -0.14144458340E+02  0.73176317946E+02  0.81292595586E+02  0.00000000000E+00 0.  1.
</event>
<event>
 4    1  0.8322090E+003  0.2048839E+02  0.7546771E-02  0.1526696E+00
          2   -1    0    0  502    0  0.00000000000E+00  0.00000000000E+00  0.47459194268E+03  0.47459194268E+03  0.00000000000E+00 0. -1.
          1   -1    0    0  501    0 -0.00000000000E+00 -0.00000000000E+00 -0.98905071676E+00  0.98905071676E+00  0.00000000000E+00 0. -1.
          2    1    1    2  501    0 -0.19033230471E+02  0.75835497998E+01  0.31411570338E+03  0.31478317808E+03  0.00000000000E+00 0. -1.
          1    1    1    2  502    0  0.19033230471E+02 -0.75835497998E+01  0.15948718859E+03  0.16079781532E+03  0.00000000000E+00 0. -1.
</event>
<event>
 4    1  0.8322090E+003  0.2797459E+02  0.7546771E-02  0.1438056E+00
          2   -1    0    0  502    0  0.00000000000E+00  0.00000000000E+00  0.23597232466E+03  0.23597232466E+03  0.00000000000E+00 0.  1.
          1   -1    0    0  501    0 -0.00000000000E+00 -0.00000000000E+00 -0.45262888854E+02  0.45262888854E+02  0.00000000000E+00 0. -1.
          2    1    1    2  501    0 -0.11501399721E+01 -0.27950935704E+02  0.23072283757E+03  0.23241257583E+03  0.00000000000E+00 0.  1.
          1    1    1    2  502    0  0.11501399721E+01  0.27950935704E+02 -0.40013401768E+02  0.48822637677E+02  0.00000000000E+00 0. -1.
</event>
<event>
 4    1  0.8322090E+003  0.9780633E+02  0.7546771E-02  0.1167664E+00
          2   -1    0    0  502    0  0.00000000000E+00  0.00000000000E+00  0.23248058612E+03  0.23248058612E+03  0.00000000000E+00 0. -1.
          1   -1    0    0  501    0 -0.00000000000E+00 -0.00000000000E+00 -0.49747907519E+03  0.49747907519E+03  0.00000000000E+00 0. -1.
          2    1    1    2  501    0 -0.93408242478E+02  0.28999628930E+02  0.21706060660E+03  0.23807852734E+03  0.00000000000E+00 0. -1.
          1    1    1    2  502    0  0.93408242478E+02 -0.28999628930E+02 -0.48205909567E+03  0.49188113398E+03  0.00000000000E+00 0. -1.
</event>
<event>
 4    1  0.8322090E+003  0.3667372E+02  0.7546771E-02  0.1369163E+00
          2   -1    0    0  502    0  0.00000000000E+00  0.00000000000E+00  0.14944828407E+04  0.14944828407E+04  0.00000000000E+00 0.  1.
          1   -1    0    0  501    0 -0.00000000000E+00 -0.00000000000E+00 -0.12910737608E+01  0.12910737608E+01  0.00000000000E+00 0.  1.
          2    1    1    2  501    0 -0.28736076609E+02  0.22785954758E+02  0.11582351435E+04  0.11588156064E+04  0.00000000000E+00 0.  1.
          1    1    1    2  502    0  0.28736076609E+02 -0.22785954758E+02  0.33495662342E+03  0.33695830811E+03  0.00000000000E+00 0.  1.
</event>
<event>
 4    1  0.8322090E+003  0.2030322E+02  0.7546771E-02  0.1529450E+00
          2   -1    0    0  502    0  0.00000000000E+00  0.00000000000E+00  0.57378333873E+01  0.57378333873E+01  0.00000000000E+00 0. -1.
          1   -1    0    0  501    0 -0.00000000000E+00 -0.00000000000E+00 -0.54344301735E+03  0.54344301735E+03  0.00000000000E+00 0.  1.
          2    1    1    2  501    0  0.91845673585E+01  0.18107026598E+02 -0.13055567597E+02  0.24138528021E+02  0.00000000000E+00 0. -1.
          1    1    1    2  502    0 -0.91845673585E+01 -0.18107026598E+02 -0.52464961636E+03  0.52504232271E+03  0.00000000000E+00 0.  1.
</event>
<event>
 4    1  0.8322090E+003  0.2130652E+02  0.7546771E-02  0.1514933E+00
          2   -1    0    0  502    0  0.00000000000E+00  0.00000000000E+00  0.70608318454E+02  0.70608318454E+02  0.00000000000E+00 0. -1.
          1   -1    0    0  501    0 -0.00000000000E+00 -0.00000000000E+00 -0.87968618980E+01  0.87968618980E+01  0.00000000000E+00 0. -1.
          2    1    1    2  501    0  0.94452351254E+01 -0.19098569717E+02  0.51502451346E+02  0.55735718587E+02  0.00000000000E+00 0. -1.
          1    1    1    2  502    0 -0.94452351254E+01  0.19098569717E+02  0.10309005211E+02  0.23669461765E+02  0.00000000000E+00 0. -1.
</event>
<event>
 4    1  0.8322090E+003  0.2536089E+02  0.7546771E-02  0.1464806E+00
          2   -1    0    0  502    0  0.00000000000E+00  0.00000000000E+00  0.84054193158E+03  0.84054193158E+03  0.00000000000E+00 0. -1.
          1   -1    0    0  501    0 -0.00000000000E+00 -0.00000000000E+00 -0.78493535500E+01  0.78493535500E+01  0.00000000000E+00 0.  1.
          2    1    1    2  501    0  0.13090006796E+02 -0.21721565153E+02  0.81933560549E+03  0.81972800922E+03  0.00000000000E+00 0. -1.
          1    1    1    2  502    0 -0.13090006796E+02  0.21721565153E+02  0.13356972539E+02  0.28663275912E+02  0.00000000000E+00 0.  1.
</event>
<event>
 4    1  0.8322090E+003  0.2418534E+02  0.7546771E-02  0.1478127E+00
          2   -1    0    0  502    0  0.00000000000E+00  0.00000000000E+00  0.85864336632E+03  0.85864336632E+03  0.00000000000E+00 0.  1.
          1   -1    0    0  501    0 -0.00000000000E+00 -0.00000000000E+00 -0.59393216495E+01  0.59393216495E+01  0.00000000000E+00 0.  1.
          2    1    1    2  501    0 -0.69962354905E+01 -0.23151310231E+02  0.83309713546E+03  0.83344811932E+03  0.00000000000E+00 0.  1.
          1    1    1    2  502    0  0.69962354905E+01  0.23151310231E+02  0.19606909205E+02  0.31134568650E+02  0.00000000000E+00 0.  1.
</event>
<event>
 4    1  0.8322090E+003  0.2085740E+02  0.7546771E-02  0.1521311E+00
          2   -1    0    0  502    0  0.00000000000E+00  0.00000000000E+00  0.26959085957E+03  0.26959085957E+03  0.00000000000E+00 0.  1.
          1   -1    0    0  501    0 -0.00000000000E+00 -0.00000000000E+00 -0.57255226569E+03  0.57255226569E+03  0.00000000000E+00 0.  1.
          2    1    1    2  501    0 -0.20653484683E+02  0.29094351544E+01  0.26899707024E+03  0.26980447557E+03  0.00000000000E+00 0.  1.
          1    1    1    2  502    0  0.20653484683E+02 -0.29094351544E+01 -0.57195847636E+03  0.57233864969E+03  0.00000000000E+00 0.  1.
</event>
<event>
 4    1  0.8322090E+003  0.4025629E+02  0.7546771E-02  0.1346990E+00
          2   -1    0    0  502    0  0.00000000000E+00  0.00000000000E+00  0.11941334056E+04  0.11941334056E+04  0.00000000000E+00 0.  1.
          1   -1    0    0  501    0 -0.00000000000E+00 -0.00000000000E+00 -0.63621138848E+02  0.63621138848E+02  0.00000000000E+00 0.  1.
          2    1    1    2  501    0  0.29542277349E+02 -0.27346347382E+02  0.11873899290E+04  0.11880721411E+04  0.00000000000E+00 0.  1.
          1    1    1    2  502    0 -0.29542277349E+02  0.27346347382E+02 -0.56877662301E+02  0.69682403337E+02  0.00000000000E+00 0.  1.
</event>
<event>
 4    1  0.8322090E+003  0.2169807E+02  0.7546771E-02  0.1509527E+00
          2   -1    0    0  502    0  0.00000000000E+00  0.00000000000E+00  0.22214552533E+03  0.22214552533E+03  0.00000000000E+00 0.  1.
          1   -1    0    0  501    0 -0.00000000000E+00 -0.00000000000E+00 -0.17106634498E+02  0.17106634498E+02  0.00000000000E+00 0.  1.
          2    1    1    2  501    0 -0.18346367341E+02  0.11585204632E+02  0.21449028270E+03  0.21558498912E+03  0.00000000000E+00 0.  1.
          1    1    1    2  502    0  0.18346367341E+02 -0.11585204632E+02 -0.94513918693E+01  0.23667170707E+02  0.00000000000E+00 0.  1.
</event>
<event>
 4    1  0.8322090E+003  0.4092953E+02  0.7546771E-02  0.1343123E+00
          2   -1    0    0  502    0  0.00000000000E+00  0.00000000000E+00  0.60927836435E+03  0.60927836435E+03  0.00000000000E+00 0.  1.
          1   -1    0    0  501    0 -0.00000000000E+00 -0.00000000000E+00 -0.69741976842E+02  0.69741976842E+02  0.00000000000E+00 0. -1.
          2    1    1    2  501    0  0.26269428215E+02 -0.31387002618E+02  0.60251860035E+03  0.60390718704E+03  0.00000000000E+00 0.  1.
          1    1    1    2  502    0 -0.26269428215E+02  0.31387002618E+02 -0.62982212842E+02  0.75113154151E+02  0.00000000000E+00 0. -1.
</event>
<event>
 4    1  0.8322090E+003  0.2178036E+02  0.7546771E-02  0.1508409E+00
          2   -1    0    0  502    0  0.00000000000E+00  0.00000000000E+00  0.96411270537E+03  0.96411270537E+03  0.00000000000E+00 0.  1.
          1   -1    0    0  501    0 -0.00000000000E+00 -0.00000000000E+00 -0.49257897820E+00  0.49257897820E+00  0.00000000000E+00 0.  1.
          2    1    1    2  501    0  0.13112441874E+02 -0.17391027795E+02  0.49773379946E+03  0.49821011542E+03  0.00000000000E+00 0.  1.
          1    1    1    2  502    0 -0.13112441874E+02  0.17391027795E+02  0.46588632694E+03  0.46639516893E+03  0.00000000000E+00 0.  1.
</event>
<event>
 4    1  0.8322090E+003  0.2238405E+02  0.7546771E-02  0.1500381E+00
          2   -1    0    0  502    0  0.00000000000E+00  0.00000000000E+00  0.20875438633E+03  0.20875438633E+03  0.00000000000E+00 0. -1.
          1   -1    0    0  501    0 -0.00000000000E+00 -0.00000000000E+00 -0.24540360826E+01  0.24540360826E+01  0.00000000000E+00 0. -1.
          2    1    1    2  501    0 -0.13505290476E+02  0.17850844016E+02  0.11879635643E+03  0.12088680575E+03  0.00000000000E+00 0. -1.
          1    1    1    2  502    0  0.13505290476E+02 -0.17850844016E+02  0.87503993817E+02  0.90321616664E+02  0.00000000000E+00 0. -1.
</event>
<event>
 4    1  0.8322090E+003  0.2948664E+02  0.7546771E-02  0.1424111E+00
          2   -1    0    0  502    0  0.00000000000E+00  0.00000000000E+00  0.17120798222E+03  0.17120798222E+03  0.00000000000E+00 0.  1.
          1   -1    0    0  501    0 -0.00000000000E+00 -0.00000000000E+00 -0.25292789372E+03  0.25292789372E+03  0.00000000000E+00 0.  1.
          2    1    1    2  501    0 -0.23118022866E+01 -0.29395872841E+02  0.16906819120E+03  0.17162026409E+03  0.00000000000E+00 0.  1.
          1    1    1    2  502    0  0.23118022866E+01  0.29395872841E+02 -0.25078810271E+03  0.25251561185E+03  0.00000000000E+00 0.  1.
</event>
<event>
 4    1  0.8322090E+003  0.5963865E+02  0.7546771E-02  0.1261065E+00
          2   -1    0    0  502    0  0.00000000000E+00  0.00000000000E+00  0.30889379216E+03  0.30889379216E+03  0.00000000000E+00 0. -1.
          1   -1    0    0  501    0 -0.00000000000E+00 -0.00000000000E+00 -0.49945692839E+03  0.49945692839E+03  0.00000000000E+00 0. -1.
          2    1    1    2  501    0  0.58143319742E+02  0.13271142712E+02  0.30420767386E+03  0.30999851240E+03  0.00000000000E+00 0. -1.
          1    1    1    2  502    0 -0.58143319742E+02 -0.13271142712E+02 -0.49477081008E+03  0.49835220815E+03  0.00000000000E+00 0. -1.
</event>
<event>
 4    1  0.8322090E+003  0.3594929E+02  0.7546771E-02  0.1374010E+00
          2   -1    0    0  502    0  0.00000000000E+00  0.00000000000E+00  0.38735086783E+03  0.38735086783E+03  0.00000000000E+00 0.  1.
          1   -1    0    0  501    0 -0.00000000000E+00 -0.00000000000E+00 -0.85603693447E+01  0.85603693447E+01  0.00000000000E+00 0.  1.
          2    1    1    2  501    0 -0.24653953849E+02 -0.26163595755E+02  0.34403550602E+03  0.34590863040E+03  0.00000000000E+00 0.  1.
          1    1    1    2  502    0  0.24653953849E+02  0.26163595755E+02  0.34754992474E+02  0.50002606783E+02  0.00000000000E+00 0.  1.
</event>
<event>
 4    1  0.8322090E+003  0.2830938E+02  0.7546771E-02  0.1434881E+00
          2   -1    0    0  502    0  0.00000000000E+00  0.00000000000E+00  0.54018830913E+00  0.54018830913E+00  0.00000000000E+00 0.  1.
          1   -1    0    0  501    0 -0.00000000000E+00 -0.00000000000E+00 -0.15070702858E+04  0.15070702858E+04  0.00000000000E+00 0.  1.
          2    1    1    2  501    0  0.24087570569E+02  0.14873096887E+02 -0.84734741792E+03  0.84782018537E+03  0.00000000000E+00 0.  1.
          1    1    1    2  502    0 -0.24087570569E+02 -0.14873096887E+02 -0.65918267961E+03  0.65979028878E+03  0.00000000000E+00 0.  1.
</event>
<event>
 4    1  0.8322090E+003  0.2094964E+02  0.7546771E-02  0.1519985E+00
          2   -1    0    0  502    0  0.00000000000E+00  0.00000000000E+00  0.44071146947E+02  0.44071146947E+02  0.00000000000E+00 0.  1.
          1   -1    0    0  501    0 -0.00000000000E+00 -0.00000000000E+00 -0.49928225530E+02  0.49928225530E+02  0.00000000000E+00 0.  1.
          2    1    1    2  501    0  0.12203182231E+02  0.17028493626E+02  0.39123483617E+02  0.44379434675E+02  0.00000000000E+00 0.  1.
          1    1    1    2  502    0 -0.12203182231E+02 -0.17028493626E+02 -0.44980562200E+02  0.49619937802E+02  0.00000000000E+00 0.  1.
</event>
<event>
 4    1  0.1254036E+004  0.2911704E+02  0.7546771E-02  0.1427428E+00
          2   -1    0    0  502    0  0.00000000000E+00  0.00000000000E+00  0.52057603142E+03  0.52057603142E+03  0.00000000000E+00 0.  1.
          1   -1    0    0  501    0 -0.00000000000E+00 -0.00000000000E+00 -0.56047243764E+03  0.56047243764E+03  0.00000000000E+00 0.  1.
          2    1    1    2  501    0  0.14832408690E+02 -0.25055967088E+02  0.51979015017E+03  0.52060503460E+03  0.00000000000E+00 0.  1.
          1    1    1    2  502    0 -0.14832408690E+02  0.25055967088E+02 -0.55968655638E+03  0.56044343446E+03  0.00000000000E+00 0.  1.
</event>
<event>
 4    1  0.8322090E+003  0.2326438E+02  0.7546771E-02  0.1489205E+00
          2   -1    0    0  502    0  0.00000000000E+00  0.00000000000E+00  0.18930969486E+01  0.18930969486E+01  0.00000000000E+00 0.  1.
          1   -1    0    0  501    0 -0.00000000000E+00 -0.00000000000E+00 -0.33109116906E+03  0.33109116906E+03  0.00000000000E+00 0.  1.
          2    1    1    2  501    0  0.91498706328E+01  0.21389516412E+02 -0.10308714563E+03  0.10567966284E+03  0.00000000000E+00 0.  1.
          1    1    1    2  502    0 -0.91498706328E+01 -0.21389516412E+02 -0.22611092648E+03  0.22730460317E+03  0.00000000000E+00 0.  1.
</event>
<event>
 4    1  0.8322090E+003  0.3217848E+02  0.7546771E-02  0.1401564E+00
          2   -1    0    0  502    0  0.00000000000E+00  0.00000000000E+00  0.69758749280E+01  0.69758749280E+01  0.00000000000E+00 0.  1.
          1   -1    0    0  501    0 -0.00000000000E+00 -0.00000000000E+00 -0.45975620443E+03  0.45975620443E+03  0.00000000000E+00 0. -1.
          2    1    1    2  501    0 -0.24744324318E+02 -0.20571167592E+02 -0.34355710786E+02  0.47071959654E+02  0.00000000000E+00 0.  1.
          1    1    1    2  502    0  0.24744324318E+02  0.20571167592E+02 -0.41842461872E+03  0.41966011970E+03  0.00000000000E+00 0. -1.
</event>
<event>
 4    1  0.8322090E+003  0.2740773E+02  0.7546771E-02  0.1443555E+00
          2   -1    0    0  502    0  0.00000000000E+00  0.00000000000E+00  0.36814097845E+03  0.36814097845E+03  0.00000000000E+00 0.  1.
          1   -1    0    0  501    0 -0.00000000000E+00 -0.00000000000E+00 -0.22301488916E+01  0.22301488916E+01  0.00000000000E+00 0.  1.
          2    1    1    2  501    0  0.21878473819E+02  0.16508056326E+02  0.23696124236E+03  0.23854101098E+03  0.00000000000E+00 0.  1.
          1    1    1    2  502    0 -0.21878473819E+02 -0.16508056326E+02  0.12894958720E+03  0.13183011636E+03  0.00000000000E+00 0.  1.
</event>
<event>
 4    1  0.8322090E+003  0.2309730E+02  0.7546771E-02  0.1491280E+00
          2   -1    0    0  502    0  0.00000000000E+00  0.00000000000E+00  0.27849058196E+03  0.27849058196E+03  0.00000000000E+00 0.  1.
          1   -1    0    0  501    0 -0.00000000000E+00 -0.00000000000E+00 -0.93731872929E+02  0.93731872929E+02  0.00000000000E+00 0. -1.
          2    1    1    2  501    0  0.20172886979E+02  0.11249003102E+02  0.27657895344E+03  0.27754171385E+03  0.00000000000E+00 0.  1.
          1    1    1    2  502    0 -0.20172886979E+02 -0.11249003102E+02 -0.91820244411E+02  0.94680741039E+02  0.00000000000E+00 0. -1.
</event>
<event>
 4    1  0.8322090E+003  0.3349695E+02  0.7546771E-02  0.1391449E+00
          2   -1    0    0  502    0  0.00000000000E+00  0.00000000000E+00  0.22242722539E+03  0.22242722539E+03  0.00000000000E+00 0.  1.
          1   -1    0    0  501    0 -0.00000000000E+00 -0.00000000000E+00 -0.60430535568E+02  0.60430535568E+02  0.00000000000E+00 0. -1.
          2    1    1    2  501    0  0.29777555443E+02  0.15340893212E+02  0.21639558640E+03  0.21897281938E+03  0.00000000000E+00 0.  1.
          1    1    1    2  502    0 -0.29777555443E+02 -0.15340893212E+02 -0.54398896575E+02  0.63884941584E+02  0.00000000000E+00 0. -1.
</event>
<event>
 4    1  0.8322090E+003  0.2333848E+02  0.7546771E-02  0.1488291E+00
          2   -1    0    0  502    0  0.00000000000E+00  0.00000000000E+00  0.10374590927E+04  0.10374590927E+04  0.00000000000E+00 0.  1.
          1   -1    0    0  501    0 -0.00000000000E+00 -0.00000000000E+00 -0.21195824926E+01  0.21195824926E+01  0.00000000000E+00 0.  1.
          2    1    1    2  501    0 -0.23202635413E+02  0.25143958886E+01  0.96851062419E+03  0.96879178034E+03  0.00000000000E+00 0.  1.
          1    1    1    2  502    0  0.23202635413E+02 -0.25143958886E+01  0.66828885968E+02  0.70786894808E+02  0.00000000000E+00 0.  1.
</event>
<event>
 4    1  0.8322090E+003  0.1083623E+03  0.7546771E-02  0.1150056E+00
          2   -1    0    0  502    0  0.00000000000E+00  0.00000000000E+00  0.15894354308E+04  0.15894354308E+04  0.00000000000E+00 0. -1.
          1   -1    0    0  501    0 -0.00000000000E+00 -0.00000000000E+00 -0.17746041143E+02  0.17746041143E+02  0.00000000000E+00 0. -1.
          2    1    1    2  501    0 -0.39438949577E+02 -0.10093049954E+03  0.13997871185E+04  0.14039752041E+04  0.00000000000E+00 0. -1.
          1    1    1    2  502    0  0.39438949577E+02  0.10093049954E+03  0.17190227117E+03  0.20320626790E+03  0.00000000000E+00 0. -1.
</event>
<event>
 4    1  0.8322090E+003  0.3336311E+02  0.7546771E-02  0.1392451E+00
          2   -1    0    0  502    0  0.00000000000E+00  0.00000000000E+00  0.58225861984E+00  0.58225861984E+00  0.00000000000E+00 0.  1.
          1   -1    0    0  501    0 -0.00000000000E+00 -0.00000000000E+00 -0.22724835177E+04  0.22724835177E+04  0.00000000000E+00 0. -1.
          2    1    1    2  501    0  0.16513746632E+02  0.28989532054E+02 -0.68309244219E+03  0.68390670517E+03  0.00000000000E+00 0.  1.
          1    1    1    2  502    0 -0.16513746632E+02 -0.28989532054E+02 -0.15888088169E+04  0.15891590712E+04  0.00000000000E+00 0. -1.
</event>
<event>
 4    1  0.8322090E+003  0.2024613E+02  0.7546771E-02  0.1530306E+00
          2   -1    0    0  502    0  0.00000000000E+00  0.00000000000E+00  0.21125375485E+02  0.21125375485E+02  0.00000000000E+00 0. -1.
          1   -1    0    0  501    0 -0.00000000000E+00 -0.00000000000E+00 -0.46175250482E+02  0.46175250482E+02  0.00000000000E+00 0. -1.
          2    1    1    2  501    0 -0.14610026312E+02  0.14016170327E+02  0.13097650103E+02  0.24113364296E+02  0.00000000000E+00 0. -1.
          1    1    1    2  502    0  0.14610026312E+02 -0.14016170327E+02 -0.38147525100E+02  0.43187261671E+02  0.00000000000E+00 0. -1.
</event>
<event>
 4    1  0.8322090E+003  0.4171556E+02  0.7546771E-02  0.1338716E+00
          2   -1    0    0  502    0  0.00000000000E+00  0.00000000000E+00  0.43476198521E+01  0.43476198521E+01  0.00000000000E+00 0. -1.
          1   -1    0    0  501    0 -0.00000000000E+00 -0.00000000000E+00 -0.12706598868E+04  0.12706598868E+04  0.00000000000E+00 0. -1.
          2    1    1    2  501    0  0.32129786123E+02 -0.26605726516E+02 -0.10552920462E+03  0.11347511122E+03  0.00000000000E+00 0. -1.
          1    1    1    2  502    0 -0.32129786123E+02  0.26605726516E+02 -0.11607830624E+04  0.11615323955E+04  0.00000000000E+00 0. -1.
</event>
<event>
 4    1  0.8322090E+003  0.3179108E+02  0.7546771E-02  0.1404645E+00
          2   -1    0    0  502    0  0.00000000000E+00  0.00000000000E+00  0.17452389396E+04  0.17452389396E+04  0.00000000000E+00 0.  1.
          1   -1    0    0  501    0 -0.00000000000E+00 -0.00000000000E+00 -0.68895892556E+00  0.68895892556E+00  0.00000000000E+00 0.  1.
          2    1    1    2  501    0 -0.18834531707E+02 -0.25611195423E+02  0.12208623241E+04  0.12212761716E+04  0.00000000000E+00 0.  1.
          1    1    1    2  502    0  0.18834531707E+02  0.25611195423E+02  0.52368765660E+03  0.52465172695E+03  0.00000000000E+00 0.  1.
</event>
<event>
 4    1  0.8322090E+003  0.2266494E+02  0.7546771E-02  0.1496749E+00
          2   -1    0    0  502    0  0.00000000000E+00  0.00000000000E+00  0.37461652185E+02  0.37461652185E+02  0.00000000000E+00 0.  1.
          1   -1    0    0  501    0 -0.00000000000E+00 -0.00000000000E+00 -0.49256455683E+03  0.49256455683E+03  0.00000000000E+00 0. -1.
          2    1    1    2  501    0  0.19072110858E+02  0.12245574475E+02  0.33746718304E+02  0.40651451427E+02  0.00000000000E+00 0.  1.
          1    1    1    2  502    0 -0.19072110858E+02 -0.12245574475E+02 -0.48884962295E+03  0.48937475759E+03  0.00000000000E+00 0. -1.
</event>
<event>
 4    1  0.8322090E+003  0.2233557E+02  0.7546771E-02  0.1501014E+00
          2   -1    0    0  502    0  0.00000000000E+00  0.00000000000E+00  0.20649331089E+02  0.20649331089E+02  0.00000000000E+00 0. -1.
          1   -1    0    0  501    0 -0.00000000000E+00 -0.00000000000E+00 -0.22830699859E+03  0.22830699859E+03  0.00000000000E+00 0.  1.
          2    1    1    2  501    0 -0.18586952480E+02 -0.12385584551E+02  0.13879062137E+02  0.26296499253E+02  0.00000000000E+00 0. -1.
          1    1    1    2  502    0  0.18586952480E+02  0.12385584551E+02 -0.22153672964E+03  0.22265983043E+03  0.00000000000E+00 0.  1.
</event>
<event>
 4    1  0.8322090E+003  0.2575761E+02  0.7546771E-02  0.1460504E+00
          2   -1    0    0  502    0  0.00000000000E+00  0.00000000000E+00  0.42483780944E+03  0.42483780944E+03  0.00000000000E+00 0.  1.
          1   -1    0    0  501    0 -0.00000000000E+00 -0.00000000000E+00 -0.55540822018E+01  0.55540822018E+01  0.00000000000E+00 0. -1.
          2    1    1    2  501    0 -0.92369315890E+01  0.24044407171E+02  0.39209270983E+03  0.39293784181E+03  0.00000000000E+00 0.  1.
          1    1    1    2  502    0  0.92369315890E+01 -0.24044407171E+02  0.27191017407E+02  0.37454049835E+02  0.00000000000E+00 0. -1.
</event>
<event>
 4    1  0.9853689E+003  0.2368180E+02  0.7546771E-02  0.1484110E+00
          2   -1    0    0  502    0  0.00000000000E+00  0.00000000000E+00  0.43802311287E+03  0.43802311287E+03  0.00000000000E+00 0.  1.
          1   -1    0    0  501    0 -0.00000000000E+00 -0.00000000000E+00 -0.37767730854E+03  0.37767730854E+03  0.00000000000E+00 0.  1.
          2    1    1    2  501    0  0.23254415320E+02  0.44787954323E+01  0.43733120133E+03  0.43797192501E+03  0.00000000000E+00 0.  1.
          1    1    1    2  502    0 -0.23254415320E+02 -0.44787954323E+01 -0.37698539701E+03  0.37772849640E+03  0.00000000000E+00 0.  1.
</event>
<event>
 4    1  0.8322090E+003  0.2250063E+02  0.7546771E-02  0.1498866E+00
          2   -1    0    0  502    0  0.00000000000E+00  0.00000000000E+00  0.32289295971E+03  0.32289295971E+03  0.00000000000E+00 0. -1.
          1   -1    0    0  501    0 -0.00000000000E+00 -0.00000000000E+00 -0.29607704357E+03  0.29607704357E+03  0.00000000000E+00 0. -1.
          2    1    1    2  501    0  0.75247961626E+01 -0.21205084853E+02  0.32207239727E+03  0.32285741011E+03  0.00000000000E+00 0. -1.
          1    1    1    2  502    0 -0.75247961626E+01  0.21205084853E+02 -0.29525648113E+03  0.29611259316E+03  0.00000000000E+00 0. -1.
</event>
<event>
 4    1  0.8322090E+003  0.2853362E+02  0.7546771E-02  0.1432782E+00
          2   -1    0    0  502    0  0.00000000000E+00  0.00000000000E+00  0.11454122456E+04  0.11454122456E+04  0.00000000000E+00 0. -1.
          1   -1    0    0  501    0 -0.00000000000E+00 -0.00000000000E+00 -0.13459903442E+01  0.13459903442E+01  0.00000000000E+00 0.  1.
          2    1    1    2  501    0  0.13844806740E+02  0.24949722552E+02  0.96591896466E+03  0.96634031977E+03  0.00000000000E+00 0. -1.
          1    1    1    2  502    0 -0.13844806740E+02 -0.24949722552E+02  0.17814729063E+03  0.18041791620E+03  0.00000000000E+00 0.  1.
</event>
<event>
 4    1  0.8322090E+003  0.2012916E+02  0.7546771E-02  0.1532070E+00
          2   -1    0    0  502    0  0.00000000000E+00  0.00000000000E+00  0.97239690025E+03  0.97239690025E+03  0.00000000000E+00 0.  1.
          1   -1    0    0  501    0 -0.00000000000E+00 -0.00000000000E+00 -0.43902688433E+00  0.43902688433E+00  0.00000000000E+00 0.  1.
          2    1    1    2  501    0  0.13838385885E+02  0.14617869957E+02  0.59570896974E+03  0.59604895745E+03  0.00000000000E+00 0.  1.
          1    1    1    2  502    0 -0.13838385885E+02 -0.14617869957E+02  0.37624890363E+03  0.37678696969E+03  0.00000000000E+00 0.  1.
</event>
<event>
 4    1  0.8322090E+003  0.2373530E+02  0.7546771E-02  0.1483466E+00
          2   -1    0    0  502    0  0.00000000000E+00  0.00000000000E+00  0.10567149561E+02  0.10567149561E+02  0.00000000000E+00 0.  1.
          1   -1    0    0  501    0 -0.00000000000E+00 -0.00000000000E+00 -0.41349948895E+03  0.41349948895E+03  0.00000000000E+00 0.  1.
          2    1    1    2  501    0 -0.23734686900E+02 -0.16997503225E+00 -0.35731582850E+01  0.24002743882E+02  0.00000000000E+00 0.  1.
          1    1    1    2  502    0  0.23734686900E+02  0.16997503225E+00 -0.39935918110E+03  0.40006389462E+03  0.00000000000E+00 0.  1.
</event>
<event>
 4    1  0.8322090E+003  0.2466457E+02  0.7546771E-02  0.1472591E+00
          2   -1    0    0  502    0  0.00000000000E+00  0.00000000000E+00  0.90430672865E+02  0.90430672865E+02  0.00000000000E+00 0. -1.
          1   -1    0    0  501    0 -0.00000000000E+00 -0.00000000000E+00 -0.93113827294E+03  0.93113827294E+03  0.00000000000E+00 0.  1.
          2    1    1    2  501    0 -0.19005150761E+02  0.15720850420E+02  0.88582207563E+02  0.91951880841E+02  0.00000000000E+00 0. -1.
          1    1    1    2  502    0  0.19005150761E+02 -0.15720850420E+02 -0.92928980764E+03  0.92961706497E+03  0.00000000000E+00 0.  1.
</event>
<event>
 4    1  0.8322090E+003  0.2868693E+02  0.7546771E-02  0.1431361E+00
          2   -1    0    0  502    0  0.00000000000E+00  0.00000000000E+00  0.21139633169E+03  0.21139633169E+03  0.00000000000E+00 0. -1.
          1   -1    0    0  501    0 -0.00000000000E+00 -0.00000000000E+00 -0.10074394842E+02  0.10074394842E+02  0.00000000000E+00 0. -1.
          2    1    1    2  501    0 -0.23200003678E+02 -0.16873056746E+02  0.18740195649E+03  0.18958489789E+03  0.00000000000E+00 0. -1.
          1    1    1    2  502    0  0.23200003678E+02  0.16873056746E+02  0.13919980359E+02  0.31885828636E+02  0.00000000000E+00 0. -1.
</event>
<event>
 4    1  0.8322090E+003  0.3211277E+02  0.7546771E-02  0.1402083E+00
          2   -1    0    0  502    0  0.00000000000E+00  0.00000000000E+00  0.17685227682E+04  0.17685227682E+04  0.00000000000E+00 0.  1.
          1   -1    0    0  501    0 -0.00000000000E+00 -0.00000000000E+00 -0.62307862562E+00  0.62307862562E+00  0.00000000000E+00 0. -1.
          2    1    1    2  501    0  0.14265179280E+02 -0.28770382699E+02  0.11080085960E+04  0.11084738513E+04  0.00000000000E+00 0.  1.
          1    1    1    2  502    0 -0.14265179280E+02  0.28770382699E+02  0.65989109359E+03  0.66067199552E+03  0.00000000000E+00 0. -1.
</event>
<event>
 4    1  0.8322090E+003  0.3018067E+02  0.7546771E-02  0.1418033E+00
          2   -1    0    0  502    0  0.00000000000E+00  0.00000000000E+00  0.29272577725E+02  0.29272577725E+02  0.00000000000E+00 0.  1.
          1   -1    0    0  501    0 -0.00000000000E+00 -0.00000000000E+00 -0.48254269645E+02  0.48254269645E+02  0.00000000000E+00 0.  1.
          2    1    1    2  501    0 -0.18654767232E+01  0.30122963997E+02  0.13609892610E+02  0.33107433308E+02  0.00000000000E+00 0.  1.
          1    1    1    2  502    0  0.18654767232E+01 -0.30122963997E+02 -0.32591584531E+02  0.44419414062E+02  0.00000000000E+00 0.  1.
</event>
<event>
 4    1  0.8322090E+003  0.2271380E+02  0.7546771E-02  0.1496124E+00
          2   -1    0    0  502    0  0.00000000000E+00  0.00000000000E+00  0.81793206981E+03  0.81793206981E+03  0.00000000000E+00 0.  1.
          1   -1    0    0  501    0 -0.00000000000E+00 -0.00000000000E+00 -0.27978942290E+01  0.27978942290E+01  0.00000000000E+00 0.  1.
          2    1    1    2  501    0  0.18705009765E+02 -0.12885628081E+02  0.76872555579E+03  0.76906104889E+03  0.00000000000E+00 0.  1.
          1    1    1    2  502    0 -0.18705009765E+02  0.12885628081E+02  0.46408619793E+02  0.51668915147E+02  0.00000000000E+00 0.  1.
</event>
<event>
 4    1  0.8322090E+003  0.2846500E+02  0.7546771E-02  0.1433422E+00
          2   -1    0    0  502    0  0.00000000000E+00  0.00000000000E+00  0.64246359680E+01  0.64246359680E+01  0.00000000000E+00 0. -1.
          1   -1    0    0  501    0 -0.00000000000E+00 -0.00000000000E+00 -0.44633869431E+03  0.44633869431E+03  0.00000000000E+00 0.  1.
          2    1    1    2  501    0  0.22382345371E+02 -0.17586545775E+02 -0.28207485483E+02  0.40073909391E+02  0.00000000000E+00 0. -1.
          1    1    1    2  502    0 -0.22382345371E+02  0.17586545775E+02 -0.41170657286E+03  0.41268942089E+03  0.00000000000E+00 0.  1.
</event>
<event>
 4    1  0.8322090E+003  0.2166217E+02  0.7546771E-02  0.1510017E+00
          2   -1    0    0  502    0  0.00000000000E+00  0.00000000000E+00  0.76338927366E+03  0.76338927366E+03  0.00000000000E+00 0.  1.
          1   -1    0    0  501    0 -0.00000000000E+00 -0.00000000000E+00 -0.11712050588E+02  0.11712050588E+02  0.00000000000E+00 0.  1.
          2    1    1    2  501    0 -0.93883193872E+01 -0.19522012071E+02  0.75308215684E+03  0.75339364508E+03  0.00000000000E+00 0.  1.
          1    1    1    2  502    0  0.93883193872E+01  0.19522012071E+02 -0.14049337628E+01  0.21707679173E+02  0.00000000000E+00 0.  1.
</event>
<event>
 4    1  0.8322090E+003  0.2115516E+02  0.7546771E-02  0.1517061E+00
          2   -1    0    0  502    0  0.00000000000E+00  0.00000000000E+00  0.13714199585E+04  0.13714199585E+04  0.00000000000E+00 0. -1.
          1   -1    0    0  501    0 -0.00000000000E+00 -0.00000000000E+00 -0.54355175078E+01  0.54355175078E+01  0.00000000000E+00 0. -1.
          2    1    1    2  501    0  0.96823671595E+01 -0.18809377194E+02  0.13504344229E+04  0.13506001153E+04  0.00000000000E+00 0. -1.
          1    1    1    2  502    0 -0.96823671595E+01  0.18809377194E+02  0.15550018148E+02  0.26255360761E+02  0.00000000000E+00 0. -1.
</event>
<event>
 4    1  0.8322090E+003  0.2439433E+02  0.7546771E-02  0.1475694E+00
          2   -1    0    0  502    0  0.00000000000E+00  0.00000000000E+00  0.11777875068E+03  0.11777875068E+03  0.00000000000E+00 0. -1.
          1   -1    0    0  501    0 -0.00000000000E+00 -0.00000000000E+00 -0.68805206083E+01  0.68805206083E+01  0.00000000000E+00 0. -1.
          2    1    1    2  501    0  0.12146707074E+02 -0.21155166607E+02  0.87575954088E+02  0.90910017607E+02  0.00000000000E+00 0. -1.
          1    1    1    2  502    0 -0.12146707074E+02  0.21155166607E+02  0.23322275982E+02  0.33749253680E+02  0.00000000000E+00 0. -1.
</event>
<event>
 4    1  0.8322090E+003  0.2301939E+02  0.7546771E-02  0.1492255E+00
          2   -1    0    0  502    0  0.00000000000E+00  0.00000000000E+00  0.29084907898E+03  0.29084907898E+03  0.00000000000E+00 0.  1.
          1   -1    0    0  501    0 -0.00000000000E+00 -0.00000000000E+00 -0.21695660858E+01  0.21695660858E+01  0.00000000000E+00 0.  1.
          2    1    1    2  501    0  0.22558100733E+02  0.45852613360E+01  0.20299023944E+03  0.20429128674E+03  0.00000000000E+00 0.  1.
          1    1    1    2  502    0 -0.22558100733E+02 -0.45852613360E+01  0.85689273448E+02  0.88727358319E+02  0.00000000000E+00 0.  1.
</event>
<event>
 4    1  0.8322090E+003  0.2464878E+02  0.7546771E-02  0.1472771E+00
          2   -1    0    0  502    0  0.00000000000E+00  0.00000000000E+00  0.11965380121E+01  0.11965380121E+01  0.00000000000E+00 0.  1.
          1   -1    0    0  501    0 -0.00000000000E+00 -0.00000000000E+00 -0.18949739764E+04  0.18949739764E+04  0.00000000000E+00 0.  1.
          2    1    1    2  501    0 -0.24299682851E+02  0.41337508602E+01 -0.13571026875E+03  0.13793056053E+03  0.00000000000E+00 0.  1.
          1    1    1    2  502    0  0.24299682851E+02 -0.41337508602E+01 -0.17580671696E+04  0.17582399539E+04  0.00000000000E+00 0.  1.
</event>
<event>
 4    1  0.8322090E+003  0.2466481E+02  0.7546771E-02  0.1472588E+00
          2   -1    0    0  502    0  0.00000000000E+00  0.00000000000E+00  0.67569983665E+03  0.67569983665E+03  0.00000000000E+00 0.  1.
          1   -1    0    0  501    0 -0.00000000000E+00 -0.00000000000E+00 -0.35269843635E+01  0.35269843635E+01  0.00000000000E+00 0. -1.
          2    1    1    2  501    0 -0.10759536768E+01 -0.24641335067E+02  0.62916529005E+03  0.62964856490E+03  0.00000000000E+00 0.  1.
          1    1    1    2  502    0  0.10759536768E+01  0.24641335067E+02  0.43007562233E+02  0.49578256115E+02  0.00000000000E+00 0. -1.
</event>
<event>
 4    1  0.8322090E+003  0.3133579E+02  0.7546771E-02  0.1408333E+00
          2   -1    0    0  502    0  0.00000000000E+00  0.00000000000E+00  0.47541404988E+01  0.47541404988E+01  0.00000000000E+00 0.  1.
          1   -1    0    0  501    0 -0.00000000000E+00 -0.00000000000E+00 -0.71157157635E+03  0.71157157635E+03  0.00000000000E+00 0.  1.
          2    1    1    2  501    0  0.23709557748E+02  0.20488749260E+02 -0.51671104578E+02  0.60430414719E+02  0.00000000000E+00 0.  1.
          1    1    1    2  502    0 -0.23709557748E+02 -0.20488749260E+02 -0.65514633128E+03  0.65589530213E+03  0.00000000000E+00 0.  1.
</event>
<event>
 4    1  0.8322090E+003  0.2238579E+02  0.7546771E-02  0.1500358E+00
          2   -1    0    0  502    0  0.00000000000E+00  0.00000000000E+00  0.32048348867E+03  0.32048348867E+03  0.00000000000E+00 0. -1.
          1   -1    0    0  501    0 -0.00000000000E+00 -0.00000000000E+00 -0.61608271708E+01  0.61608271708E+01  0.00000000000E+00 0.  1.
          2    1    1    2  501    0  0.88277616417E+01  0.20571680023E+02  0.29824323326E+03  0.29908217864E+03  0.00000000000E+00 0. -1.
          1    1    1    2  502    0 -0.88277616417E+01 -0.20571680023E+02  0.16079428239E+02  0.27562137201E+02  0.00000000000E+00 0.  1.
</event>
<event>
 4    1  0.8322090E+003  0.2207481E+02  0.7546771E-02  0.1504454E+00
          2   -1    0    0  502    0  0.00000000000E+00  0.00000000000E+00  0.34214711400E+02  0.34214711400E+02  0.00000000000E+00 0.  1.
          1   -1    0    0  501    0 -0.00000000000E+00 -0.00000000000E+00 -0.19920840538E+02  0.19920840538E+02  0.00000000000E+00 0. -1.
          2    1    1    2  501    0 -0.20222907916E+02  0.88505053471E+01  0.21598527527E+02  0.30883552917E+02  0.00000000000E+00 0.  1.
          1    1    1    2  502    0  0.20222907916E+02 -0.88505053471E+01 -0.73046566642E+01  0.23251999021E+02  0.00000000000E+00 0. -1.
</event>
<event>
 4    1  0.8322090E+003  0.2485051E+02  0.7546771E-02  0.1470483E+00
          2   -1    0    0  502    0  0.00000000000E+00  0.00000000000E+00  0.17188159719E+04  0.17188159719E+04  0.00000000000E+00 0. -1.
          1   -1    0    0  501    0 -0.00000000000E+00 -0.00000000000E+00 -0.52610245990E+00  0.52610245990E+00  0.00000000000E+00 0. -1.
          2    1    1    2  501    0  0.13867636431E+02 -0.20621257805E+02  0.13432233828E+04  0.13434532384E+04  0.00000000000E+00 0. -1.
          1    1    1    2  502    0 -0.13867636431E+02  0.20621257805E+02  0.37506648666E+03  0.37588883600E+03  0.00000000000E+00 0. -1.
</event>
<event>
 4    1  0.8322090E+003  0.2239538E+02  0.7546771E-02  0.1500233E+00
          2   -1    0    0  502    0  0.00000000000E+00  0.00000000000E+00  0.16598934551E+04  0.16598934551E+04  0.00000000000E+00 0.  1.
          1   -1    0    0  501    0 -0.00000000000E+00 -0.00000000000E+00 -0.34582431214E+02  0.34582431214E+02  0.00000000000E+00 0.  1.
          2    1    1    2  501    0 -0.22195351631E+02 -0.29865473344E+01  0.16561840151E+04  0.16563354265E+04  0.00000000000E+00 0.  1.
          1    1    1    2  502    0  0.22195351631E+02  0.29865473344E+01 -0.30872991155E+02  0.38140459906E+02  0.00000000000E+00 0.  1.
</event>
<event>
 4    1  0.8322090E+003  0.4311541E+02  0.7546771E-02  0.1331137E+00
          2   -1    0    0  502    0  0.00000000000E+00  0.00000000000E+00  0.18898631641E+04  0.18898631641E+04  0.00000000000E+00 0.  1.
          1   -1    0    0  501    0 -0.00000000000E+00 -0.00000000000E+00 -0.10242354280E+01  0.10242354280E+01  0.00000000000E+00 0.  1.
          2    1    1    2  501    0 -0.44244973180E+01  0.42887791600E+02  0.11326507313E+04  0.11334710486E+04  0.00000000000E+00 0.  1.
          1    1    1    2  502    0  0.44244973180E+01 -0.42887791600E+02  0.75618819729E+03  0.75741635087E+03  0.00000000000E+00 0.  1.
</event>
<event>
 4    1  0.8322090E+003  0.3789504E+02  0.7546771E-02  0.1361283E+00
          2   -1    0    0  502    0  0.00000000000E+00  0.00000000000E+00  0.12433712961E+04  0.12433712961E+04  0.00000000000E+00 0. -1.
          1   -1    0    0  501    0 -0.00000000000E+00 -0.00000000000E+00 -0.19967854232E+01  0.19967854232E+01  0.00000000000E+00 0. -1.
          2    1    1    2  501    0 -0.28116654356E+02  0.25406458439E+02  0.10249978048E+04  0.10256980717E+04  0.00000000000E+00 0. -1.
          1    1    1    2  502    0  0.28116654356E+02 -0.25406458439E+02  0.21637670584E+03  0.21967000982E+03  0.00000000000E+00 0. -1.
</event>
<event>
 4    1  0.8322090E+003  0.3491632E+02  0.7546771E-02  0.1381152E+00
          2   -1    0    0  502    0  0.00000000000E+00  0.00000000000E+00  0.75007458041E+02  0.75007458041E+02  0.00000000000E+00 0. -1.
          1   -1    0    0  501    0 -0.00000000000E+00 -0.00000000000E+00 -0.16023216846E+03  0.16023216846E+03  0.00000000000E+00 0. -1.
          2    1    1    2  501    0 -0.34223787592E+02  0.69196531934E+01  0.68882388827E+02  0.77226502756E+02  0.00000000000E+00 0. -1.
          1    1    1    2  502    0  0.34223787592E+02 -0.69196531934E+01 -0.15410709924E+03  0.15801312374E+03  0.00000000000E+00 0. -1.
</event>
<event>
 4    1  0.8322090E+003  0.2304259E+02  0.7546771E-02  0.1491964E+00
          2   -1    0    0  502    0  0.00000000000E+00  0.00000000000E+00  0.92100559634E+03  0.92100559634E+03  0.00000000000E+00 0. -1.
          1   -1    0    0  501    0 -0.00000000000E+00 -0.00000000000E+00 -0.18292246912E+02  0.18292246912E+02  0.00000000000E+00 0.  1.
          2    1    1    2  501    0 -0.15752426187E+02 -0.16817317660E+02  0.91354558125E+03  0.91383613965E+03  0.00000000000E+00 0. -1.
          1    1    1    2  502    0  0.15752426187E+02  0.16817317660E+02 -0.10832231825E+02  0.25461703603E+02  0.00000000000E+00 0.  1.
</event>
<event>
 4    1  0.8322090E+003  0.4645576E+02  0.7546771E-02  0.1314316E+00
          2   -1    0    0  502    0  0.00000000000E+00  0.00000000000E+00  0.95425233508E+03  0.95425233508E+03  0.00000000000E+00 0. -1.
          1   -1    0    0  501    0 -0.00000000000E+00 -0.00000000000E+00 -0.25634856797E+01  0.25634856797E+01  0.00000000000E+00 0. -1.
          2    1    1    2  501    0  0.27580221952E+02  0.37382731677E+02  0.64001828776E+03  0.64170206945E+03  0.00000000000E+00 0. -1.
          1    1    1    2  502    0 -0.27580221952E+02 -0.37382731677E+02  0.31167056163E+03  0.31511375130E+03  0.00000000000E+00 0. -1.
</event>
<event>
 4    1  0.8322090E+003  0.5468763E+02  0.7546771E-02  0.1279035E+00
          2   -1    0    0  502    0  0.00000000000E+00  0.00000000000E+00  0.77594152867E+02  0.77594152867E+02  0.00000000000E+00 0.  1.
          1   -1    0    0  501    0 -0.00000000000E+00 -0.00000000000E+00 -0.16687254939E+03  0.16687254939E+03  0.00000000000E+00 0. -1.
          2    1    1    2  501    0  0.40144613174E+02 -0.37136862797E+02  0.62552229354E+02  0.83087411456E+02  0.00000000000E+00 0.  1.
          1    1    1    2  502    0 -0.40144613174E+02  0.37136862797E+02 -0.15183062588E+03  0.16137929081E+03  0.00000000000E+00 0. -1.
</event>
<event>
 4    1  0.8322090E+003  0.2090107E+02  0.7546771E-02  0.1520682E+00
          2   -1    0    0  502    0  0.00000000000E+00  0.00000000000E+00  0.45420930302E+01  0.45420930302E+01  0.00000000000E+00 0. -1.
          1   -1    0    0  501    0 -0.00000000000E+00 -0.00000000000E+00 -0.38408410200E+03  0.38408410200E+03  0.00000000000E+00 0. -1.
          2    1    1    2  501    0  0.20026777715E+02 -0.59818887762E+01 -0.21537129579E+02  0.30011710539E+02  0.00000000000E+00 0. -1.
          1    1    1    2  502    0 -0.20026777715E+02  0.59818887762E+01 -0.35800487939E+03  0.35861448449E+03  0.00000000000E+00 0. -1.
</event>
<event>
 4    1  0.8322090E+003  0.8412716E+02  0.7546771E-02  0.1194577E+00
          2   -1    0    0  502    0  0.00000000000E+00  0.00000000000E+00  0.25252730475E+03  0.25252730475E+03  0.00000000000E+00 0.  1.
          1   -1    0    0  501    0 -0.00000000000E+00 -0.00000000000E+00 -0.76465196104E+03  0.76465196104E+03  0.00000000000E+00 0. -1.
          2    1    1    2  501    0 -0.54072849607E+02 -0.64447698339E+02  0.24311982905E+03  0.25726373659E+03  0.00000000000E+00 0.  1.
          1    1    1    2  502    0  0.54072849607E+02  0.64447698339E+02 -0.75524448534E+03  0.75991552920E+03  0.00000000000E+00 0. -1.
</event>
<event>
 4    1  0.8322090E+003  0.2098091E+02  0.7546771E-02  0.1519538E+00
          2   -1    0    0  502    0  0.00000000000E+00  0.00000000000E+00  0.41498502718E+02  0.41498502718E+02  0.00000000000E+00 0.  1.
          1   -1    0    0  501    0 -0.00000000000E+00 -0.00000000000E+00 -0.20019324880E+03  0.20019324880E+03  0.00000000000E+00 0. -1.
          2    1    1    2  501    0  0.14409165892E+02 -0.15250388402E+02  0.38253319640E+02  0.43629289149E+02  0.00000000000E+00 0.  1.
          1    1    1    2  502    0 -0.14409165892E+02  0.15250388402E+02 -0.19694806572E+03  0.19806246237E+03  0.00000000000E+00 0. -1.
</event>
<event>
 4    1  0.8322090E+003  0.2016492E+02  0.7546771E-02  0.1531529E+00
          2   -1    0    0  502    0  0.00000000000E+00  0.00000000000E+00  0.18286321373E+01  0.18286321373E+01  0.00000000000E+00 0. -1.
          1   -1    0    0  501    0 -0.00000000000E+00 -0.00000000000E+00 -0.98825942995E+03  0.98825942995E+03  0.00000000000E+00 0. -1.
          2    1    1    2  501    0  0.27809135619E+01  0.19972239488E+02 -0.57409812070E+02  0.60848256773E+02  0.00000000000E+00 0. -1.
          1    1    1    2  502    0 -0.27809135619E+01 -0.19972239488E+02 -0.92902098575E+03  0.92923980532E+03  0.00000000000E+00 0. -1.
</event>
<event>
 4    1  0.8322090E+003  0.2811181E+02  0.7546771E-02  0.1436748E+00
          2   -1    0    0  502    0  0.00000000000E+00  0.00000000000E+00  0.36180680637E+03  0.36180680637E+03  0.00000000000E+00 0.  1.
          1   -1    0    0  501    0 -0.00000000000E+00 -0.00000000000E+00 -0.19843386678E+02  0.19843386678E+02  0.00000000000E+00 0. -1.
          2    1    1    2  501    0 -0.13089582286E+01  0.28081320774E+02  0.35099825160E+03  0.35212220403E+03  0.00000000000E+00 0.  1.
          1    1    1    2  502    0  0.13089582286E+01 -0.28081320774E+02 -0.90348319010E+01  0.29527989020E+02  0.00000000000E+00 0. -1.
</event>
<event>
 4    1  0.8322090E+003  0.2205721E+02  0.7546771E-02  0.1504689E+00
          2   -1    0    0  502    0  0.00000000000E+00  0.00000000000E+00  0.39283274092E+01  0.39283274092E+01  0.00000000000E+00 0. -1.
          1   -1    0    0  501    0 -0.00000000000E+00 -0.00000000000E+00 -0.10441771795E+04  0.10441771795E+04  0.00000000000E+00 0. -1.
          2    1    1    2  501    0  0.21158132525E+02 -0.62333005917E+01 -0.28131116372E+02  0.35747451888E+02  0.00000000000E+00 0. -1.
          1    1    1    2  502    0 -0.21158132525E+02  0.62333005917E+01 -0.10121177357E+04  0.10123580550E+04  0.00000000000E+00 0. -1.
</event>
<event>
 4    1  0.8322090E+003  0.2026205E+02  0.7546771E-02  0.1530067E+00
          2   -1    0    0  502    0  0.00000000000E+00  0.00000000000E+00  0.38450410856E+01  0.38450410856E+01  0.00000000000E+00 0. -1.
          1   -1    0    0  501    0 -0.00000000000E+00 -0.00000000000E+00 -0.74681948949E+03  0.74681948949E+03  0.00000000000E+00 0.  1.
          2    1    1    2  501    0 -0.64524046418E+01 -0.19207215964E+02 -0.24020294517E+02  0.31424913993E+02  0.00000000000E+00 0. -1.
          1    1    1    2  502    0  0.64524046418E+01  0.19207215964E+02 -0.71895415388E+03  0.71923961658E+03  0.00000000000E+00 0.  1.
</event>
<event>
 4    1  0.8322090E+003  0.4826118E+02  0.7546771E-02  0.1305893E+00
          2   -1    0    0  502    0  0.00000000000E+00  0.00000000000E+00  0.12693835521E+04  0.12693835521E+04  0.00000000000E+00 0.  1.
          1   -1    0    0  501    0 -0.00000000000E+00 -0.00000000000E+00 -0.67993210364E+01  0.67993210364E+01  0.00000000000E+00 0. -1.
          2    1    1    2  501    0  0.37292187960E+02  0.30633874208E+02  0.11765301972E+04  0.11775196162E+04  0.00000000000E+00 0.  1.
          1    1    1    2  502    0 -0.37292187960E+02 -0.30633874208E+02  0.86054033864E+02  0.98663256971E+02  0.00000000000E+00 0. -1.
</event>
<event>
 4    1  0.8322090E+003  0.2990912E+02  0.7546771E-02  0.1420388E+00
          2   -1    0    0  502    0  0.00000000000E+00  0.00000000000E+00  0.69862371011E+03  0.69862371011E+03  0.00000000000E+00 0. -1.
          1   -1    0    0  501    0 -0.00000000000E+00 -0.00000000000E+00 -0.13166498643E+01  0.13166498643E+01  0.00000000000E+00 0. -1.
          2    1    1    2  501    0  0.29848526146E+02 -0.19026107407E+01  0.29062592195E+03  0.29216088196E+03  0.00000000000E+00 0. -1.
          1    1    1    2  502    0 -0.29848526146E+02  0.19026107407E+01  0.40668113830E+03  0.40777947801E+03  0.00000000000E+00 0. -1.
</event>
<event>
 4    1  0.8322090E+003  0.2276363E+02  0.7546771E-02  0.1495488E+00
          2   -1    0    0  502    0  0.00000000000E+00  0.00000000000E+00  0.12753243236E+04  0.12753243236E+04  0.00000000000E+00 0. -1.
          1   -1    0    0  501    0 -0.00000000000E+00 -0.00000000000E+00 -0.35466849431E+02  0.35466849431E+02  0.00000000000E+00 0. -1.
          2    1    1    2  501    0 -0.10365538184E+02  0.20266686987E+02  0.12715593440E+04  0.12717630866E+04  0.00000000000E+00 0. -1.
          1    1    1    2  502    0  0.10365538184E+02 -0.20266686987E+02 -0.31701869836E+02  0.39028086481E+02  0.00000000000E+00 0. -1.
</event>
<event>
 4    1  0.8322090E+003  0.2227377E+02  0.7546771E-02  0.1501824E+00
          2   -1    0    0  502    0  0.00000000000E+00  0.00000000000E+00  0.24301519964E+03  0.24301519964E+03  0.00000000000E+00 0.  1.
          1   -1    0    0  501    0 -0.00000000000E+00 -0.00000000000E+00 -0.22267223069E+03  0.22267223069E+03  0.00000000000E+00 0. -1.
          2    1    1    2  501    0 -0.98074142730E+01  0.19998387959E+02  0.24194535327E+03  0.24296846475E+03  0.00000000000E+00 0.  1.
          1    1    1    2  502    0  0.98074142730E+01 -0.19998387959E+02 -0.22160238431E+03  0.22271896558E+03  0.00000000000E+00 0. -1.
</event>
<event>
 4    1  0.8322090E+003  0.4162951E+02  0.7546771E-02  0.1339193E+00
          2   -1    0    0  502    0  0.00000000000E+00  0.00000000000E+00  0.33759285174E+03  0.33759285174E+03  0.00000000000E+00 0. -1.
          1   -1    0    0  501    0 -0.00000000000E+00 -0.00000000000E+00 -0.12711123201E+02  0.12711123201E+02  0.00000000000E+00 0. -1.
          2    1    1    2  501    0 -0.36854342274E+02  0.19359069631E+02  0.29767646461E+03  0.30057327510E+03  0.00000000000E+00 0. -1.
          1    1    1    2  502    0  0.36854342274E+02 -0.19359069631E+02  0.27205263931E+02  0.49730699844E+02  0.00000000000E+00 0. -1.
</event>
<event>
 4    1  0.8322090E+003  0.7155424E+02  0.7546771E-02  0.1224941E+00
          2   -1    0    0  502    0  0.00000000000E+00  0.00000000000E+00  0.34407013227E+02  0.34407013227E+02  0.00000000000E+00 0.  1.
          1   -1    0    0  501    0 -0.00000000000E+00 -0.00000000000E+00 -0.30761243215E+03  0.30761243215E+03  0.00000000000E+00 0.  1.
          2    1    1    2  501    0  0.71552188077E+02  0.54123708267E+00 -0.13731149094E+02  0.72859817537E+02  0.00000000000E+00 0.  1.
          1    1    1    2  502    0 -0.71552188077E+02 -0.54123708267E+00 -0.25947426983E+03  0.26915962785E+03  0.00000000000E+00 0.  1.
</event>
<event>
 4    1  0.8322090E+003  0.3625984E+02  0.7546771E-02  0.1371916E+00
          2   -1    0    0  502    0  0.00000000000E+00  0.00000000000E+00  0.11076776451E+04  0.11076776451E+04  0.00000000000E+00 0.  1.
          1   -1    0    0  501    0 -0.00000000000E+00 -0.00000000000E+00 -0.90379992936E+01  0.90379992936E+01  0.00000000000E+00 0.  1.
          2    1    1    2  501    0  0.34188148851E+02 -0.12080815966E+02  0.10697229102E+04  0.10703372741E+04  0.00000000000E+00 0.  1.
          1    1    1    2  502    0 -0.34188148851E+02  0.12080815966E+02  0.28916735596E+02  0.46378370323E+02  0.00000000000E+00 0.  1.
</event>
<event>
 4    1  0.8322090E+003  0.2217517E+02  0.7546771E-02  0.1503124E+00
          2   -1    0    0  502    0  0.00000000000E+00  0.00000000000E+00  0.17005403355E+01  0.17005403355E+01  0.00000000000E+00 0. -1.
          1   -1    0    0  501    0 -0.00000000000E+00 -0.00000000000E+00 -0.31918511347E+03  0.31918511347E+03  0.00000000000E+00 0. -1.
          2    1    1    2  501    0  0.21117877342E+02 -0.67655986972E+01 -0.10953838644E+03  0.11176044100E+03  0.00000000000E+00 0. -1.
          1    1    1    2  502    0 -0.21117877342E+02  0.67655986972E+01 -0.20794618670E+03  0.20912521281E+03  0.00000000000E+00 0. -1.
</event>
<event>
 4    1  0.8322090E+003  0.2289375E+02  0.7546771E-02  0.1493837E+00
          2   -1    0    0  502    0  0.00000000000E+00  0.00000000000E+00  0.16691115371E+03  0.16691115371E+03  0.00000000000E+00 0.  1.
          1   -1    0    0  501    0 -0.00000000000E+00 -0.00000000000E+00 -0.68820306252E+03  0.68820306252E+03  0.00000000000E+00 0. -1.
          2    1    1    2  501    0 -0.22528938928E+02 -0.40707303191E+01  0.16593460836E+03  0.16750647207E+03  0.00000000000E+00 0.  1.
          1    1    1    2  502    0  0.22528938928E+02  0.40707303191E+01 -0.68722651717E+03  0.68760774416E+03  0.00000000000E+00 0. -1.
</event>
<event>
 4    1  0.8322090E+003  0.2137359E+02  0.7546771E-02  0.1513997E+00
          2   -1    0    0  502    0  0.00000000000E+00  0.00000000000E+00  0.11444708467E+04  0.11444708467E+04  0.00000000000E+00 0. -1.
          1   -1    0    0  501    0 -0.00000000000E+00 -0.00000000000E+00 -0.17246308857E+03  0.17246308857E+03  0.00000000000E+00 0.  1.
          2    1    1    2  501    0 -0.21323179415E+02 -0.14670527096E+01  0.11437084001E+04  0.11439080971E+04  0.00000000000E+00 0. -1.
          1    1    1    2  502    0  0.21323179415E+02  0.14670527096E+01 -0.17170064195E+03  0.17302583816E+03  0.00000000000E+00 0.  1.
</event>
<event>
 4    1  0.8322090E+003  0.5696282E+02  0.7546771E-02  0.1270516E+00
          2   -1    0    0  502    0  0.00000000000E+00  0.00000000000E+00  0.13861188720E+03  0.13861188720E+03  0.00000000000E+00 0.  1.
          1   -1    0    0  501    0 -0.00000000000E+00 -0.00000000000E+00 -0.44234927895E+03  0.44234927895E+03  0.00000000000E+00 0. -1.
          2    1    1    2  501    0 -0.27966925741E+01  0.56894120509E+02  0.13082135023E+03  0.14268492602E+03  0.00000000000E+00 0.  1.
          1    1    1    2  502    0  0.27966925741E+01 -0.56894120509E+02 -0.43455874198E+03  0.43827624014E+03  0.00000000000E+00 0. -1.
</event>
<event>
 4    1  0.8322090E+003  0.2005895E+02  0.7546771E-02  0.1533136E+00
          2   -1    0    0  502    0  0.00000000000E+00  0.00000000000E+00  0.88787470483E+02  0.88787470483E+02  0.00000000000E+00 0.  1.
          1   -1    0    0  501    0 -0.00000000000E+00 -0.00000000000E+00 -0.13137830407E+02  0.13137830407E+02  0.00000000000E+00 0. -1.
          2    1    1    2  501    0  0.80344706756E+01 -0.18379570621E+02  0.79071903500E+02  0.81576511683E+02  0.00000000000E+00 0.  1.
          1    1    1    2  502    0 -0.80344706756E+01  0.18379570621E+02 -0.34222634246E+01  0.20348789207E+02  0.00000000000E+00 0. -1.
</event>
<event>
 4    1  0.8322090E+003  0.2396489E+02  0.7546771E-02  0.1480725E+00
          2   -1    0    0  502    0  0.00000000000E+00  0.00000000000E+00  0.21001489343E+02  0.21001489343E+02  0.00000000000E+00 0.  1.
          1   -1    0    0  501    0 -0.00000000000E+00 -0.00000000000E+00 -0.27843977282E+02  0.27843977282E+02  0.00000000000E+00 0.  1.
          2    1    1    2  501    0  0.73354507276E+01 -0.22814626863E+02 -0.15656837636E+00  0.23965403188E+02  0.00000000000E+00 0.  1.
          1    1    1    2  502    0 -0.73354507276E+01  0.22814626863E+02 -0.66859195626E+01  0.24880063438E+02  0.00000000000E+00 0.  1.
</event>
<event>
 4    1  0.8322090E+003  0.2011787E+02  0.7546771E-02  0.1532241E+00
          2   -1    0    0  502    0  0.00000000000E+00  0.00000000000E+00  0.19128893717E+03  0.19128893717E+03  0.00000000000E+00 0. -1.
          1   -1    0    0  501    0 -0.00000000000E+00 -0.00000000000E+00 -0.28342754810E+01  0.28342754810E+01  0.00000000000E+00 0.  1.
          2    1    1    2  501    0 -0.12131823848E+02  0.16048289604E+02  0.14309628305E+03  0.14450354657E+03  0.00000000000E+00 0. -1.
          1    1    1    2  502    0  0.12131823848E+02 -0.16048289604E+02  0.45358378645E+02  0.49619666085E+02  0.00000000000E+00 0.  1.
</event>
<event>
 4    1  0.8322090E+003  0.2074509E+02  0.7546771E-02  0.1522936E+00
          2   -1    0    0  502    0  0.00000000000E+00  0.00000000000E+00  0.32029211824E+01  0.32029211824E+01  0.00000000000E+00 0. -1.
          1   -1    0    0  501    0 -0.00000000000E+00 -0.00000000000E+00 -0.47352489572E+03  0.47352489572E+03  0.00000000000E+00 0.  1.
          2    1    1    2  501    0 -0.74435473681E+00 -0.20731732284E+02 -0.33430434209E+02  0.39344030282E+02  0.00000000000E+00 0. -1.
          1    1    1    2  502    0  0.74435473681E+00  0.20731732284E+02 -0.43689154033E+03  0.43738378663E+03  0.00000000000E+00 0.  1.
</event>
<event>
 4    1  0.8322090E+003  0.6259679E+02  0.7546771E-02  0.1251256E+00
          2   -1    0    0  502    0  0.00000000000E+00  0.00000000000E+00  0.17548680052E+04  0.17548680052E+04  0.00000000000E+00 0.  1.
          1   -1    0    0  501    0 -0.00000000000E+00 -0.00000000000E+00 -0.92297856855E+03  0.92297856855E+03  0.00000000000E+00 0.  1.
          2    1    1    2  501    0 -0.35157885378E+02  0.51790746887E+02  0.17532474767E+04  0.17543645781E+04  0.00000000000E+00 0.  1.
          1    1    1    2  502    0  0.35157885378E+02 -0.51790746887E+02 -0.92135804003E+03  0.92348199566E+03  0.00000000000E+00 0.  1.
</event>
<event>
 4    1  0.8322090E+003  0.2920860E+02  0.7546771E-02  0.1426601E+00
          2   -1    0    0  502    0  0.00000000000E+00  0.00000000000E+00  0.12586841424E+04  0.12586841424E+04  0.00000000000E+00 0. -1.
          1   -1    0    0  501    0 -0.00000000000E+00 -0.00000000000E+00 -0.27616232353E+01  0.27616232353E+01  0.00000000000E+00 0. -1.
          2    1    1    2  501    0  0.15989170532E+02 -0.24443584694E+02  0.11758423236E+04  0.11762050469E+04  0.00000000000E+00 0. -1.
          1    1    1    2  502    0 -0.15989170532E+02  0.24443584694E+02  0.80080195546E+02  0.85240718707E+02  0.00000000000E+00 0. -1.
</event>
<event>
 4    1  0.8322090E+003  0.2937771E+02  0.7546771E-02  0.1425082E+00
          2   -1    0    0  502    0  0.00000000000E+00  0.00000000000E+00  0.18703851335E+02  0.18703851335E+02  0.00000000000E+00 0. -1.
          1   -1    0    0  501    0 -0.00000000000E+00 -0.00000000000E+00 -0.12207071522E+04  0.12207071522E+04  0.00000000000E+00 0. -1.
          2    1    1    2  501    0  0.35974103361E+01  0.29156615055E+02  0.68785535311E+01  0.30172239912E+02  0.00000000000E+00 0. -1.
          1    1    1    2  502    0 -0.35974103361E+01 -0.29156615055E+02 -0.12088818544E+04  0.12092387636E+04  0.00000000000E+00 0. -1.
</event>
<event>
 4    1  0.8322090E+003  0.2856901E+02  0.7546771E-02  0.1432453E+00
          2   -1    0    0  502    0  0.00000000000E+00  0.00000000000E+00  0.20530896905E+03  0.20530896905E+03  0.00000000000E+00 0. -1.
          1   -1    0    0  501    0 -0.00000000000E+00 -0.00000000000E+00 -0.22537357615E+02  0.22537357615E+02  0.00000000000E+00 0. -1.
          2    1    1    2  501    0 -0.27238498180E+02  0.86169919685E+01  0.19477430982E+03  0.19685837574E+03  0.00000000000E+00 0. -1.
          1    1    1    2  502    0  0.27238498180E+02 -0.86169919685E+01 -0.12002698387E+02  0.30987950921E+02  0.00000000000E+00 0. -1.
</event>
<event>
 4    1  0.8322090E+003  0.2217905E+02  0.7546771E-02  0.1503072E+00
          2   -1    0    0  502    0  0.00000000000E+00  0.00000000000E+00  0.35312863469E+02  0.35312863469E+02  0.00000000000E+00 0. -1.
          1   -1    0    0  501    0 -0.00000000000E+00 -0.00000000000E+00 -0.46802246448E+02  0.46802246448E+02  0.00000000000E+00 0. -1.
          2    1    1    2  501    0 -0.19276368252E+02 -0.10969595557E+02  0.28664463837E+02  0.36243094332E+02  0.00000000000E+00 0. -1.
          1    1    1    2  502    0  0.19276368252E+02  0.10969595557E+02 -0.40153846817E+02  0.45872015585E+02  0.00000000000E+00 0. -1.
</event>
<event>
 4    1  0.8322090E+003  0.2399668E+02  0.7546771E-02  0.1480348E+00
          2   -1    0    0  502    0  0.00000000000E+00  0.00000000000E+00  0.64407429943E+03  0.64407429943E+03  0.00000000000E+00 0. -1.
          1   -1    0    0  501    0 -0.00000000000E+00 -0.00000000000E+00 -0.31879210744E+01  0.31879210744E+01  0.00000000000E+00 0. -1.
          2    1    1    2  501    0 -0.16885557431E+02  0.17050468067E+02  0.59496706419E+03  0.59545079392E+03  0.00000000000E+00 0. -1.
          1    1    1    2  502    0  0.16885557431E+02 -0.17050468067E+02  0.45919314162E+02  0.51811426579E+02  0.00000000000E+00 0. -1.
</event>
<event>
 4    1  0.8322090E+003  0.3520987E+02  0.7546771E-02  0.1379094E+00
          2   -1    0    0  502    0  0.00000000000E+00  0.00000000000E+00  0.12773921058E+03  0.12773921058E+03  0.00000000000E+00 0. -1.
          1   -1    0    0  501    0 -0.00000000000E+00 -0.00000000000E+00 -0.10069848802E+02  0.10069848802E+02  0.00000000000E+00 0. -1.
          2    1    1    2  501    0 -0.29498096794E+02 -0.19224909220E+02  0.71946787441E+02  0.80100406192E+02  0.00000000000E+00 0. -1.
          1    1    1    2  502    0  0.29498096794E+02  0.19224909220E+02  0.45722574334E+02  0.57708653188E+02  0.00000000000E+00 0. -1.
</event>
<event>
 4    1  0.8322090E+003  0.2564486E+02  0.7546771E-02  0.1461717E+00
          2   -1    0    0  502    0  0.00000000000E+00  0.00000000000E+00  0.89127747235E+03  0.89127747235E+03  0.00000000000E+00 0. -1.
          1   -1    0    0  501    0 -0.00000000000E+00 -0.00000000000E+00 -0.12465373382E+01  0.12465373382E+01  0.00000000000E+00 0. -1.
          2    1    1    2  501    0 -0.18962935045E+02 -0.17264581931E+02  0.73008351892E+03  0.73053377971E+03  0.00000000000E+00 0. -1.
          1    1    1    2  502    0  0.18962935045E+02  0.17264581931E+02  0.15994741609E+03  0.16199022998E+03  0.00000000000E+00 0. -1.
</event>
<event>
 4    1  0.8322090E+003  0.2002562E+02  0.7546771E-02  0.1533644E+00
          2   -1    0    0  502    0  0.00000000000E+00  0.00000000000E+00  0.18149764707E+03  0.18149764707E+03  0.00000000000E+00 0.  1.
          1   -1    0    0  501    0 -0.00000000000E+00 -0.00000000000E+00 -0.12198438439E+03  0.12198438439E+03  0.00000000000E+00 0. -1.
          2    1    1    2  501    0  0.67417745641E+01 -0.18856663650E+02  0.18011710505E+03  0.18122692079E+03  0.00000000000E+00 0.  1.
          1    1    1    2  502    0 -0.67417745641E+01  0.18856663650E+02 -0.12060384237E+03  0.12225511066E+03  0.00000000000E+00 0. -1.
</event>
<event>
 4    1  0.8322090E+003  0.2219069E+02  0.7546771E-02  0.1502919E+00
          2   -1    0    0  502    0  0.00000000000E+00  0.00000000000E+00  0.12288794409E+04  0.12288794409E+04  0.00000000000E+00 0.  1.
          1   -1    0    0  501    0 -0.00000000000E+00 -0.00000000000E+00 -0.57478345957E+01  0.57478345957E+01  0.00000000000E+00 0.  1.
          2    1    1    2  501    0  0.21041609168E+02  0.70482177725E+01  0.12069726341E+04  0.12071766093E+04  0.00000000000E+00 0.  1.
          1    1    1    2  502    0 -0.21041609168E+02 -0.70482177725E+01  0.16158972244E+02  0.27450666187E+02  0.00000000000E+00 0.  1.
</event>
<event>
 4    1  0.8322090E+003  0.2015323E+02  0.7546771E-02  0.1531706E+00
          2   -1    0    0  502    0  0.00000000000E+00  0.00000000000E+00  0.11352142894E+04  0.11352142894E+04  0.00000000000E+00 0.  1.
          1   -1    0    0  501    0 -0.00000000000E+00 -0.00000000000E+00 -0.82678103545E+01  0.82678103545E+01  0.00000000000E+00 0.  1.
          2    1    1    2  501    0  0.19936063696E+02 -0.29506138557E+01  0.11227068931E+04  0.11228877596E+04  0.00000000000E+00 0.  1.
          1    1    1    2  502    0 -0.19936063696E+02  0.29506138557E+01  0.42395859094E+01  0.20594340157E+02  0.00000000000E+00 0.  1.
</event>
<event>
 4    1  0.8322090E+003  0.2054388E+02  0.7546771E-02  0.1525878E+00
          2   -1    0    0  502    0  0.00000000000E+00  0.00000000000E+00  0.73707076126E+01  0.73707076126E+01  0.00000000000E+00 0.  1.
          1   -1    0    0  501    0 -0.00000000000E+00 -0.00000000000E+00 -0.10835032189E+03  0.10835032189E+03  0.00000000000E+00 0.  1.
          2    1    1    2  501    0 -0.20345910739E+02 -0.28451367499E+01 -0.10758385449E+02  0.23190380428E+02  0.00000000000E+00 0.  1.
          1    1    1    2  502    0  0.20345910739E+02  0.28451367499E+01 -0.90221228833E+02  0.92530649080E+02  0.00000000000E+00 0.  1.
</event>
<event>
 4    1  0.8322090E+003  0.2888728E+02  0.7546771E-02  0.1429519E+00
          2   -1    0    0  502    0  0.00000000000E+00  0.00000000000E+00  0.29817663629E+01  0.29817663629E+01  0.00000000000E+00 0.  1.
          1   -1    0    0  501    0 -0.00000000000E+00 -0.00000000000E+00 -0.11847312645E+04  0.11847312645E+04  0.00000000000E+00 0.  1.
          2    1    1    2  501    0 -0.16889527616E+02  0.23435418044E+02 -0.71877358671E+02  0.77465022116E+02  0.00000000000E+00 0.  1.
          1    1    1    2  502    0  0.16889527616E+02 -0.23435418044E+02 -0.11098721395E+04  0.11102480088E+04  0.00000000000E+00 0.  1.
</event>
<event>
 4    1  0.8322090E+003  0.3715345E+02  0.7546771E-02  0.1366025E+00
          2   -1    0    0  502    0  0.00000000000E+00  0.00000000000E+00  0.10919810674E+03  0.10919810674E+03  0.00000000000E+00 0. -1.
          1   -1    0    0  501    0 -0.00000000000E+00 -0.00000000000E+00 -0.15595846842E+04  0.15595846842E+04  0.00000000000E+00 0.  1.
          2    1    1    2  501    0 -0.30292487984E+02 -0.21511479170E+02  0.10580969110E+03  0.11214307511E+03  0.00000000000E+00 0. -1.
          1    1    1    2  502    0  0.30292487984E+02  0.21511479170E+02 -0.15561962686E+04  0.15566397158E+04  0.00000000000E+00 0.  1.
</event>
<event>
 4    1  0.8322090E+003  0.2375408E+02  0.7546771E-02  0.1483240E+00
          2   -1    0    0  502    0  0.00000000000E+00  0.00000000000E+00  0.24703067606E+02  0.24703067606E+02  0.00000000000E+00 0.  1.
          1   -1    0    0  501    0 -0.00000000000E+00 -0.00000000000E+00 -0.30402962774E+03  0.30402962774E+03  0.00000000000E+00 0.  1.
          2    1    1    2  501    0 -0.21797765837E+02  0.94400026058E+01  0.18408158573E+02  0.30051897556E+02  0.00000000000E+00 0.  1.
          1    1    1    2  502    0  0.21797765837E+02 -0.94400026058E+01 -0.29773471870E+03  0.29868079779E+03  0.00000000000E+00 0.  1.
</event>
<event>
 4    1  0.8322090E+003  0.3168374E+02  0.7546771E-02  0.1405508E+00
          2   -1    0    0  502    0  0.00000000000E+00  0.00000000000E+00  0.52548931521E+03  0.52548931521E+03  0.00000000000E+00 0.  1.
          1   -1    0    0  501    0 -0.00000000000E+00 -0.00000000000E+00 -0.71527777279E+02  0.71527777279E+02  0.00000000000E+00 0. -1.
          2    1    1    2  501    0  0.51382426667E+01 -0.31264321731E+02  0.52147612042E+03  0.52243775085E+03  0.00000000000E+00 0.  1.
          1    1    1    2  502    0 -0.51382426667E+01  0.31264321731E+02 -0.67514582485E+02  0.74579341638E+02  0.00000000000E+00 0. -1.
</event>
<event>
 4    1  0.8322090E+003  0.2594330E+02  0.7546771E-02  0.1458522E+00
          2   -1    0    0  502    0  0.00000000000E+00  0.00000000000E+00  0.21551963678E+02  0.21551963678E+02  0.00000000000E+00 0. -1.
          1   -1    0    0  501    0 -0.00000000000E+00 -0.00000000000E+00 -0.31275557584E+02  0.31275557584E+02  0.00000000000E+00 0. -1.
          2    1    1    2  501    0 -0.20073341179E+02  0.16435193340E+02 -0.38469228827E+01  0.26226959829E+02  0.00000000000E+00 0. -1.
          1    1    1    2  502    0  0.20073341179E+02 -0.16435193340E+02 -0.58766710237E+01  0.26600561433E+02  0.00000000000E+00 0. -1.
</event>
<event>
 4    1  0.8322090E+003  0.2084193E+02  0.7546771E-02  0.1521534E+00
          2   -1    0    0  502    0  0.00000000000E+00  0.00000000000E+00  0.78341706580E+02  0.78341706580E+02  0.00000000000E+00 0. -1.
          1   -1    0    0  501    0 -0.00000000000E+00 -0.00000000000E+00 -0.25928144649E+02  0.25928144649E+02  0.00000000000E+00 0. -1.
          2    1    1    2  501    0  0.17988985886E+02 -0.10525316953E+02  0.72432235972E+02  0.75371179625E+02  0.00000000000E+00 0. -1.
          1    1    1    2  502    0 -0.17988985886E+02  0.10525316953E+02 -0.20018674041E+02  0.28898671604E+02  0.00000000000E+00 0. -1.
</event>
<event>
 4    1  0.8322090E+003  0.2704163E+02  0.7546771E-02  0.1447190E+00
          2   -1    0    0  502    0  0.00000000000E+00  0.00000000000E+00  0.17350520674E+04  0.17350520674E+04  0.00000000000E+00 0. -1.
          1   -1    0    0  501    0 -0.00000000000E+00 -0.00000000000E+00 -0.40468456747E+01  0.40468456747E+01  0.00000000000E+00 0. -1.
          2    1    1    2  501    0  0.63477506748E+01 -0.26286036395E+02  0.16885280515E+04  0.16887445723E+04  0.00000000000E+00 0. -1.
          1    1    1    2  502    0 -0.63477506748E+01  0.26286036395E+02  0.42477170216E+02  0.50354340801E+02  0.00000000000E+00 0. -1.
</event>
<event>
 4    1  0.8322090E+003  0.4193336E+02  0.7546771E-02  0.1337514E+00
          2   -1    0    0  502    0  0.00000000000E+00  0.00000000000E+00  0.33340067668E+03  0.33340067668E+03  0.00000000000E+00 0.  1.
          1   -1    0    0  501    0 -0.00000000000E+00 -0.00000000000E+00 -0.66861729122E+01  0.66861729122E+01  0.00000000000E+00 0. -1.
          2    1    1    2  501    0  0.36256496038E+02  0.21068295686E+02  0.24150046478E+03  0.24511401648E+03  0.00000000000E+00 0.  1.
          1    1    1    2  502    0 -0.36256496038E+02 -0.21068295686E+02  0.85214038995E+02  0.94972833115E+02  0.00000000000E+00 0. -1.
</event>
<event>
 4    1  0.8322090E+003  0.2066342E+02  0.7546771E-02  0.1524125E+00
          2   -1    0    0  502    0  0.00000000000E+00  0.00000000000E+00  0.15911693199E+03  0.15911693199E+03  0.00000000000E+00 0. -1.
          1   -1    0    0  501    0 -0.00000000000E+00 -0.00000000000E+00 -0.29844237115E+02  0.29844237115E+02  0.00000000000E+00 0.  1.
          2    1    1    2  501    0  0.75622370735E+01  0.19229914464E+02  0.15476933621E+03  0.15614264142E+03  0.00000000000E+00 0. -1.
          1    1    1    2  502    0 -0.75622370735E+01 -0.19229914464E+02 -0.25496641335E+02  0.32818527682E+02  0.00000000000E+00 0.  1.
</event>
<event>
 4    1  0.8322090E+003  0.3483184E+02  0.7546771E-02  0.1381749E+00
          2   -1    0    0  502    0  0.00000000000E+00  0.00000000000E+00  0.98692453907E+02  0.98692453907E+02  0.00000000000E+00 0. -1.
          1   -1    0    0  501    0 -0.00000000000E+00 -0.00000000000E+00 -0.83379244312E+02  0.83379244312E+02  0.00000000000E+00 0.  1.
          2    1    1    2  501    0 -0.34774582640E+02  0.19964253452E+01  0.91713877735E+02  0.98105518097E+02  0.00000000000E+00 0. -1.
          1    1    1    2  502    0  0.34774582640E+02 -0.19964253452E+01 -0.76400668140E+02  0.83966180122E+02  0.00000000000E+00 0.  1.
</event>
<event>
 4    1  0.8322090E+003  0.5024776E+02  0.7546771E-02  0.1297102E+00
          2   -1    0    0  502    0  0.00000000000E+00  0.00000000000E+00  0.91471476079E+03  0.91471476079E+03  0.00000000000E+00 0. -1.
          1   -1    0    0  501    0 -0.00000000000E+00 -0.00000000000E+00 -0.57010952170E+03  0.57010952170E+03  0.00000000000E+00 0. -1.
          2    1    1    2  501    0  0.15018327390E+02  0.47950880065E+02  0.91291534689E+03  0.91429714406E+03  0.00000000000E+00 0. -1.
          1    1    1    2  502    0 -0.15018327390E+02 -0.47950880065E+02 -0.56831010780E+03  0.57052713843E+03  0.00000000000E+00 0. -1.
</event>
<event>
 4    1  0.8322090E+003  0.3310554E+02  0.7546771E-02  0.1394394E+00
          2   -1    0    0  502    0  0.00000000000E+00  0.00000000000E+00  0.11900285738E+02  0.11900285738E+02  0.00000000000E+00 0. -1.
          1   -1    0    0  501    0 -0.00000000000E+00 -0.00000000000E+00 -0.36411892278E+03  0.36411892278E+03  0.00000000000E+00 0.  1.
          2    1    1    2  501    0 -0.29865708911E+02  0.14283419089E+02 -0.13606599867E+02  0.35792683464E+02  0.00000000000E+00 0. -1.
          1    1    1    2  502    0  0.29865708911E+02 -0.14283419089E+02 -0.33861203718E+03  0.34022652505E+03  0.00000000000E+00 0.  1.
</event>
<event>
 4    1  0.8322090E+003  0.3249828E+02  0.7546771E-02  0.1399059E+00
          2   -1    0    0  502    0  0.00000000000E+00  0.00000000000E+00  0.47015214342E+03  0.47015214342E+03  0.00000000000E+00 0. -1.
          1   -1    0    0  501    0 -0.00000000000E+00 -0.00000000000E+00 -0.25515844468E+02  0.25515844468E+02  0.00000000000E+00 0.  1.
          2    1    1    2  501    0 -0.19338797580E+02  0.26117982874E+02  0.45899138147E+03  0.46014044202E+03  0.00000000000E+00 0. -1.
          1    1    1    2  502    0  0.19338797580E+02 -0.26117982874E+02 -0.14355082517E+02  0.35527545867E+02  0.00000000000E+00 0.  1.
</event>
<event>
 4    1  0.8322090E+003  0.2754917E+02  0.7546771E-02  0.1442168E+00
          2   -1    0    0  502    0  0.00000000000E+00  0.00000000000E+00  0.10968552655E+04  0.10968552655E+04  0.00000000000E+00 0. -1.
          1   -1    0    0  501    0 -0.00000000000E+00 -0.00000000000E+00 -0.55125846221E+01  0.55125846221E+01  0.00000000000E+00 0. -1.
          2    1    1    2  501    0 -0.15801992123E+02  0.22566650441E+02  0.10611035126E+04  0.10614610785E+04  0.00000000000E+00 0. -1.
          1    1    1    2  502    0  0.15801992123E+02 -0.22566650441E+02  0.30239168223E+02  0.40906771591E+02  0.00000000000E+00 0. -1.
</event>
<event>
 4    1  0.8322090E+003  0.2159775E+02  0.7546771E-02  0.1510899E+00
          2   -1    0    0  502    0  0.00000000000E+00  0.00000000000E+00  0.28483689138E+02  0.28483689138E+02  0.00000000000E+00 0.  1.
          1   -1    0    0  501    0 -0.00000000000E+00 -0.00000000000E+00 -0.26327248468E+02  0.26327248468E+02  0.00000000000E+00 0.  1.
          2    1    1    2  501    0  0.15184450073E+02 -0.15358880095E+02  0.17926776516E+02  0.28068345837E+02  0.00000000000E+00 0.  1.
          1    1    1    2  502    0 -0.15184450073E+02  0.15358880095E+02 -0.15770335846E+02  0.26742591768E+02  0.00000000000E+00 0.  1.
</event>
<event>
 4    1  0.8322090E+003  0.2205792E+02  0.7546771E-02  0.1504679E+00
          2   -1    0    0  502    0  0.00000000000E+00  0.00000000000E+00  0.12900591462E+03  0.12900591462E+03  0.00000000000E+00 0.  1.
          1   -1    0    0  501    0 -0.00000000000E+00 -0.00000000000E+00 -0.12585175638E+02  0.12585175638E+02  0.00000000000E+00 0. -1.
          2    1    1    2  501    0 -0.43074925411E+01  0.21633242819E+02  0.11745564160E+03  0.11950890942E+03  0.00000000000E+00 0.  1.
          1    1    1    2  502    0  0.43074925411E+01 -0.21633242819E+02 -0.10349026247E+01  0.22082180832E+02  0.00000000000E+00 0. -1.
</event>
<event>
 4    1  0.8322090E+003  0.2804659E+02  0.7546771E-02  0.1437369E+00
          2   -1    0    0  502    0  0.00000000000E+00  0.00000000000E+00  0.40290016758E+03  0.40290016758E+03  0.00000000000E+00 0.  1.
          1   -1    0    0  501    0 -0.00000000000E+00 -0.00000000000E+00 -0.40901697823E+02  0.40901697823E+02  0.00000000000E+00 0. -1.
          2    1    1    2  501    0  0.19240909962E+00 -0.28045926957E+02  0.39753938408E+03  0.39852750587E+03  0.00000000000E+00 0.  1.
          1    1    1    2  502    0 -0.19240909962E+00  0.28045926957E+02 -0.35540914324E+02  0.45274359533E+02  0.00000000000E+00 0. -1.
</event>
<event>
 4    1  0.8322090E+003  0.2319533E+02  0.7546771E-02  0.1490060E+00
          2   -1    0    0  502    0  0.00000000000E+00  0.00000000000E+00  0.62973200336E+03  0.62973200336E+03  0.00000000000E+00 0.  1.
          1   -1    0    0  501    0 -0.00000000000E+00 -0.00000000000E+00 -0.20354819143E+01  0.20354819143E+01  0.00000000000E+00 0.  1.
          2    1    1    2  501    0  0.21060047765E+01 -0.23099520751E+02  0.55447255494E+03  0.55495750945E+03  0.00000000000E+00 0.  1.
          1    1    1    2  502    0 -0.21060047765E+01  0.23099520751E+02  0.73223966506E+02  0.76809975823E+02  0.00000000000E+00 0.  1.
</event>
<event>
 4    1  0.8322090E+003  0.2855334E+02  0.7546771E-02  0.1432599E+00
          2   -1    0    0  502    0  0.00000000000E+00  0.00000000000E+00  0.10455293074E+03  0.10455293074E+03  0.00000000000E+00 0.  1.
          1   -1    0    0  501    0 -0.00000000000E+00 -0.00000000000E+00 -0.14771022410E+03  0.14771022410E+03  0.00000000000E+00 0.  1.
          2    1    1    2  501    0 -0.20784932702E+02 -0.19577536394E+02  0.10117842871E+03  0.10513024206E+03  0.00000000000E+00 0.  1.
          1    1    1    2  502    0  0.20784932702E+02  0.19577536394E+02 -0.14433572207E+03  0.14713291278E+03  0.00000000000E+00 0.  1.
</event>
<event>
 4    1  0.8322090E+003  0.2364343E+02  0.7546771E-02  0.1484573E+00
          2   -1    0    0  502    0  0.00000000000E+00  0.00000000000E+00  0.39921325823E+01  0.39921325823E+01  0.00000000000E+00 0.  1.
          1   -1    0    0  501    0 -0.00000000000E+00 -0.00000000000E+00 -0.53218953516E+03  0.53218953516E+03  0.00000000000E+00 0. -1.
          2    1    1    2  501    0  0.19035008115E+02  0.14024265957E+02 -0.33964520663E+02  0.41383574440E+02  0.00000000000E+00 0.  1.
          1    1    1    2  502    0 -0.19035008115E+02 -0.14024265957E+02 -0.49423288192E+03  0.49479809330E+03  0.00000000000E+00 0. -1.
</event>
<event>
 4    1  0.8322090E+003  0.2863932E+02  0.7546771E-02  0.1431801E+00
          2   -1    0    0  502    0  0.00000000000E+00  0.00000000000E+00  0.64217133012E+03  0.64217133012E+03  0.00000000000E+00 0. -1.
          1   -1    0    0  501    0 -0.00000000000E+00 -0.00000000000E+00 -0.19724560651E+02  0.19724560651E+02  0.00000000000E+00 0. -1.
          2    1    1    2  501    0  0.24662821075E+02 -0.14558713113E+02  0.63127689571E+03  0.63192620608E+03  0.00000000000E+00 0. -1.
          1    1    1    2  502    0 -0.24662821075E+02  0.14558713113E+02 -0.88301262443E+01  0.29969684690E+02  0.00000000000E+00 0. -1.
</event>
<event>
 4    1  0.8322090E+003  0.2117741E+02  0.7546771E-02  0.1516747E+00
          2   -1    0    0  502    0  0.00000000000E+00  0.00000000000E+00  0.10271442541E+04  0.10271442541E+04  0.00000000000E+00 0. -1.
          1   -1    0    0  501    0 -0.00000000000E+00 -0.00000000000E+00 -0.17443369612E+03  0.17443369612E+03  0.00000000000E+00 0.  1.
          2    1    1    2  501    0  0.14505641168E+02  0.15429480779E+02  0.10263918560E+04  0.10266103080E+04  0.00000000000E+00 0. -1.
          1    1    1    2  502    0 -0.14505641168E+02 -0.15429480779E+02 -0.17368129806E+03  0.17496764215E+03  0.00000000000E+00 0.  1.
</event>
<event>
 4    1  0.8322090E+003  0.2874294E+02  0.7546771E-02  0.1430844E+00
          2   -1    0    0  502    0  0.00000000000E+00  0.00000000000E+00  0.54674091077E+02  0.54674091077E+02  0.00000000000E+00 0.  1.
          1   -1    0    0  501    0 -0.00000000000E+00 -0.00000000000E+00 -0.16624362900E+02  0.16624362900E+02  0.00000000000E+00 0. -1.
          2    1    1    2  501    0  0.52314213608E+01 -0.28262851544E+02  0.29782360112E+02  0.41390162125E+02  0.00000000000E+00 0.  1.
          1    1    1    2  502    0 -0.52314213608E+01  0.28262851544E+02  0.82673680645E+01  0.29908291853E+02  0.00000000000E+00 0. -1.
</event>
<event>
 4    1  0.8322090E+003  0.6657230E+02  0.7546771E-02  0.1239001E+00
          2   -1    0    0  502    0  0.00000000000E+00  0.00000000000E+00  0.32546495428E+03  0.32546495428E+03  0.00000000000E+00 0. -1.
          1   -1    0    0  501    0 -0.00000000000E+00 -0.00000000000E+00 -0.51059714685E+02  0.51059714685E+02  0.00000000000E+00 0. -1.
          2    1    1    2  501    0 -0.48484648128E+02  0.45619180795E+02  0.29841843890E+03  0.30575388049E+03  0.00000000000E+00 0. -1.
          1    1    1    2  502    0  0.48484648128E+02 -0.45619180795E+02 -0.24013199304E+02  0.70770788474E+02  0.00000000000E+00 0. -1.
</event>
<event>
 4    1  0.8322090E+003  0.5707092E+02  0.7546771E-02  0.1270123E+00
          2   -1    0    0  502    0  0.00000000000E+00  0.00000000000E+00  0.25506846092E+03  0.25506846092E+03  0.00000000000E+00 0.  1.
          1   -1    0    0  501    0 -0.00000000000E+00 -0.00000000000E+00 -0.53924300716E+02  0.53924300716E+02  0.00000000000E+00 0.  1.
          2    1    1    2  501    0 -0.22936365559E+02  0.52259090588E+02  0.23554183268E+03  0.24235726594E+03  0.00000000000E+00 0.  1.
          1    1    1    2  502    0  0.22936365559E+02 -0.52259090588E+02 -0.34397672477E+02  0.66635495691E+02  0.00000000000E+00 0.  1.
</event>
<event>
 4    1  0.8322090E+003  0.2332495E+02  0.7546771E-02  0.1488458E+00
          2   -1    0    0  502    0  0.00000000000E+00  0.00000000000E+00  0.17250488243E+02  0.17250488243E+02  0.00000000000E+00 0. -1.
          1   -1    0    0  501    0 -0.00000000000E+00 -0.00000000000E+00 -0.31992603089E+02  0.31992603089E+02  0.00000000000E+00 0. -1.
          2    1    1    2  501    0  0.15083507389E+02 -0.17791588693E+02 -0.10304751839E+02  0.25499818310E+02  0.00000000000E+00 0. -1.
          1    1    1    2  502    0 -0.15083507389E+02  0.17791588693E+02 -0.44373630070E+01  0.23743273023E+02  0.00000000000E+00 0. -1.
</event>
<event>
 4    1  0.8322090E+003  0.2273130E+02  0.7546771E-02  0.1495900E+00
          2   -1    0    0  502    0  0.00000000000E+00  0.00000000000E+00  0.28813401470E+03  0.28813401470E+03  0.00000000000E+00 0.  1.
          1   -1    0    0  501    0 -0.00000000000E+00 -0.00000000000E+00 -0.40938389825E+03  0.40938389825E+03  0.00000000000E+00 0.  1.
          2    1    1    2  501    0  0.85528404282E+01 -0.21060889840E+02  0.28736930753E+03  0.28826694412E+03  0.00000000000E+00 0.  1.
          1    1    1    2  502    0 -0.85528404282E+01  0.21060889840E+02 -0.40861919109E+03  0.40925096883E+03  0.00000000000E+00 0.  1.
</event>
<event>
 4    1  0.8322090E+003  0.2187592E+02  0.7546771E-02  0.1507117E+00
          2   -1    0    0  502    0  0.00000000000E+00  0.00000000000E+00  0.78258309427E+03  0.78258309427E+03  0.00000000000E+00 0. -1.
          1   -1    0    0  501    0 -0.00000000000E+00 -0.00000000000E+00 -0.31232110586E+01  0.31232110586E+01  0.00000000000E+00 0.  1.
          2    1    1    2  501    0 -0.21485792719E+02 -0.41129850975E+01  0.74203080755E+03  0.74235320118E+03  0.00000000000E+00 0. -1.
          1    1    1    2  502    0  0.21485792719E+02  0.41129850975E+01  0.37429075655E+02  0.43353104152E+02  0.00000000000E+00 0.  1.
</event>
<event>
 4    1  0.8322090E+003  0.2175605E+02  0.7546771E-02  0.1508738E+00
          2   -1    0    0  502    0  0.00000000000E+00  0.00000000000E+00  0.32657814994E+01  0.32657814994E+01  0.00000000000E+00 0. -1.
          1   -1    0    0  501    0 -0.00000000000E+00 -0.00000000000E+00 -0.62897797970E+03  0.62897797970E+03  0.00000000000E+00 0. -1.
          2    1    1    2  501    0  0.21635157295E+02 -0.22903139149E+01 -0.35537585308E+02  0.41668279764E+02  0.00000000000E+00 0. -1.
          1    1    1    2  502    0 -0.21635157295E+02  0.22903139149E+01 -0.59017461289E+03  0.59057548143E+03  0.00000000000E+00 0. -1.
</event>
<event>
 4    1  0.8322090E+003  0.2347630E+02  0.7546771E-02  0.1486602E+00
          2   -1    0    0  502    0  0.00000000000E+00  0.00000000000E+00  0.52763761697E+03  0.52763761697E+03  0.00000000000E+00 0.  1.
          1   -1    0    0  501    0 -0.00000000000E+00 -0.00000000000E+00 -0.74528981760E+02  0.74528981760E+02  0.00000000000E+00 0.  1.
          2    1    1    2  501    0  0.21009553608E+01 -0.23382099566E+02  0.52552030565E+03  0.52604441661E+03  0.00000000000E+00 0.  1.
          1    1    1    2  502    0 -0.21009553608E+01  0.23382099566E+02 -0.72411670446E+02  0.76122182117E+02  0.00000000000E+00 0.  1.
</event>
<event>
 4    1  0.8322090E+003  0.2206092E+02  0.7546771E-02  0.1504639E+00
          2   -1    0    0  502    0  0.00000000000E+00  0.00000000000E+00  0.15004395214E+04  0.15004395214E+04  0.00000000000E+00 0. -1.
          1   -1    0    0  501    0 -0.00000000000E+00 -0.00000000000E+00 -0.79144109393E+01  0.79144109393E+01  0.00000000000E+00 0.  1.
          2    1    1    2  501    0 -0.21975692792E+02 -0.19372409687E+01  0.14848234082E+04  0.14849872853E+04  0.00000000000E+00 0. -1.
          1    1    1    2  502    0  0.21975692792E+02  0.19372409687E+01  0.77017022708E+01  0.23366647045E+02  0.00000000000E+00 0.  1.
</event>
<event>
 4    1  0.8322090E+003  0.2141436E+02  0.7546771E-02  0.1513430E+00
          2   -1    0    0  502    0  0.00000000000E+00  0.00000000000E+00  0.16168042587E+03  0.16168042587E+03  0.00000000000E+00 0. -1.
          1   -1    0    0  501    0 -0.00000000000E+00 -0.00000000000E+00 -0.94843340252E+03  0.94843340252E+03  0.00000000000E+00 0.  1.
          2    1    1    2  501    0 -0.21322362554E+02  0.19828404437E+01  0.16084985159E+03  0.16226906531E+03  0.00000000000E+00 0. -1.
          1    1    1    2  502    0  0.21322362554E+02 -0.19828404437E+01 -0.94760282824E+03  0.94784476308E+03  0.00000000000E+00 0.  1.
</event>
<event>
 4    1  0.8322090E+003  0.6168500E+02  0.7546771E-02  0.1254213E+00
          2   -1    0    0  502    0  0.00000000000E+00  0.00000000000E+00  0.25551393323E+04  0.25551393323E+04  0.00000000000E+00 0. -1.
          1   -1    0    0  501    0 -0.00000000000E+00 -0.00000000000E+00 -0.11678876697E+03  0.11678876697E+03  0.00000000000E+00 0. -1.
          2    1    1    2  501    0  0.52361742484E+02 -0.32608084600E+02  0.25465945826E+04  0.25473415569E+04  0.00000000000E+00 0. -1.
          1    1    1    2  502    0 -0.52361742484E+02  0.32608084600E+02 -0.10824401730E+03  0.12458654237E+03  0.00000000000E+00 0. -1.
</event>
<event>
 4    1  0.8322090E+003  0.2653508E+02  0.7546771E-02  0.1452335E+00
          2   -1    0    0  502    0  0.00000000000E+00  0.00000000000E+00  0.82065410044E+03  0.82065410044E+03  0.00000000000E+00 0. -1.
          1   -1    0    0  501    0 -0.00000000000E+00 -0.00000000000E+00 -0.45567823899E+02  0.45567823899E+02  0.00000000000E+00 0. -1.
          2    1    1    2  501    0  0.15176932933E+02  0.21766285658E+02  0.81655724674E+03  0.81698827880E+03  0.00000000000E+00 0. -1.
          1    1    1    2  502    0 -0.15176932933E+02 -0.21766285658E+02 -0.41470970198E+02  0.49233645546E+02  0.00000000000E+00 0. -1.
</event>
<event>
 4    1  0.8322090E+003  0.2772352E+02  0.7546771E-02  0.1440473E+00
          2   -1    0    0  502    0  0.00000000000E+00  0.00000000000E+00  0.11257317842E+04  0.11257317842E+04  0.00000000000E+00 0. -1.
          1   -1    0    0  501    0 -0.00000000000E+00 -0.00000000000E+00 -0.40629798110E+02  0.40629798110E+02  0.00000000000E+00 0. -1.
          2    1    1    2  501    0  0.24255990010E+02 -0.13425372269E+02  0.11208110884E+04  0.11211539098E+04  0.00000000000E+00 0. -1.
          1    1    1    2  502    0 -0.24255990010E+02  0.13425372269E+02 -0.35709102250E+02  0.45207672528E+02  0.00000000000E+00 0. -1.
</event>
<event>
 4    1  0.8322090E+003  0.2055979E+02  0.7546771E-02  0.1525644E+00
          2   -1    0    0  502    0  0.00000000000E+00  0.00000000000E+00  0.10731299845E+03  0.10731299845E+03  0.00000000000E+00 0. -1.
          1   -1    0    0  501    0 -0.00000000000E+00 -0.00000000000E+00 -0.12671441771E+04  0.12671441771E+04  0.00000000000E+00 0.  1.
          2    1    1    2  501    0 -0.15212904127E+02  0.13830134247E+02  0.10624402181E+03  0.10821505088E+03  0.00000000000E+00 0. -1.
          1    1    1    2  502    0  0.15212904127E+02 -0.13830134247E+02 -0.12660752004E+04  0.12662421247E+04  0.00000000000E+00 0.  1.
</event>
<event>
 4    1  0.8322090E+003  0.2628630E+02  0.7546771E-02  0.1454912E+00
          2   -1    0    0  502    0  0.00000000000E+00  0.00000000000E+00  0.80994983316E+03  0.80994983316E+03  0.00000000000E+00 0. -1.
          1   -1    0    0  501    0 -0.00000000000E+00 -0.00000000000E+00 -0.37844142609E+01  0.37844142609E+01  0.00000000000E+00 0.  1.
          2    1    1    2  501    0  0.10828711906E+01  0.26263981708E+02  0.76116624221E+03  0.76161999555E+03  0.00000000000E+00 0. -1.
          1    1    1    2  502    0 -0.10828711906E+01 -0.26263981708E+02  0.44999176693E+02  0.52114251873E+02  0.00000000000E+00 0.  1.
</event>
<event>
 4    1  0.8322090E+003  0.2301568E+02  0.7546771E-02  0.1492301E+00
          2   -1    0    0  502    0  0.00000000000E+00  0.00000000000E+00  0.20884790535E+01  0.20884790535E+01  0.00000000000E+00 0.  1.
          1   -1    0    0  501    0 -0.00000000000E+00 -0.00000000000E+00 -0.16031910165E+04  0.16031910165E+04  0.00000000000E+00 0.  1.
          2    1    1    2  501    0 -0.12113298431E+02 -0.19570120664E+02 -0.64136149069E+02  0.68140789833E+02  0.00000000000E+00 0.  1.
          1    1    1    2  502    0  0.12113298431E+02  0.19570120664E+02 -0.15369663884E+04  0.15371387057E+04  0.00000000000E+00 0.  1.
</event>
<event>
 4    1  0.8322090E+003  0.9022654E+02  0.7546771E-02  0.1181914E+00
          2   -1    0    0  502    0  0.00000000000E+00  0.00000000000E+00  0.19975465288E+02  0.19975465288E+02  0.00000000000E+00 0. -1.
          1   -1    0    0  501    0 -0.00000000000E+00 -0.00000000000E+00 -0.79238679434E+03  0.79238679434E+03  0.00000000000E+00 0. -1.
          2    1    1    2  501    0  0.82232104604E+02  0.37130969441E+02 -0.10313536236E+03  0.13703186085E+03  0.00000000000E+00 0. -1.
          1    1    1    2  502    0 -0.82232104604E+02 -0.37130969441E+02 -0.66927596670E+03  0.67533039878E+03  0.00000000000E+00 0. -1.
</event>
<event>
 4    1  0.8322090E+003  0.3833068E+02  0.7546771E-02  0.1358556E+00
          2   -1    0    0  502    0  0.00000000000E+00  0.00000000000E+00  0.24054508690E+03  0.24054508690E+03  0.00000000000E+00 0. -1.
          1   -1    0    0  501    0 -0.00000000000E+00 -0.00000000000E+00 -0.59363981827E+02  0.59363981827E+02  0.00000000000E+00 0. -1.
          2    1    1    2  501    0  0.28752473006E+02  0.25348296042E+02  0.23262132010E+03  0.23575817988E+03  0.00000000000E+00 0. -1.
          1    1    1    2  502    0 -0.28752473006E+02 -0.25348296042E+02 -0.51440215034E+02  0.64150888839E+02  0.00000000000E+00 0. -1.
</event>
<event>
 4    1  0.8322090E+003  0.2489743E+02  0.7546771E-02  0.1469954E+00
          2   -1    0    0  502    0  0.00000000000E+00  0.00000000000E+00  0.31786683271E+03  0.31786683271E+03  0.00000000000E+00 0. -1.
          1   -1    0    0  501    0 -0.00000000000E+00 -0.00000000000E+00 -0.16773573445E+02  0.16773573445E+02  0.00000000000E+00 0. -1.
          2    1    1    2  501    0 -0.20179558458E+02  0.14583114061E+02  0.30783989531E+03  0.30884507919E+03  0.00000000000E+00 0. -1.
          1    1    1    2  502    0  0.20179558458E+02 -0.14583114061E+02 -0.67466360457E+01  0.25795326965E+02  0.00000000000E+00 0. -1.
</event>
<event>
 4    1  0.8322090E+003  0.5722535E+02  0.7546771E-02  0.1269563E+00
          2   -1    0    0  502    0  0.00000000000E+00  0.00000000000E+00  0.12884406057E+03  0.12884406057E+03  0.00000000000E+00 0.  1.
          1   -1    0    0  501    0 -0.00000000000E+00 -0.00000000000E+00 -0.25645779896E+02  0.25645779896E+02  0.00000000000E+00 0. -1.
          2    1    1    2  501    0  0.50256265308E+02 -0.27368749849E+02  0.58905889557E+02  0.82125784596E+02  0.00000000000E+00 0.  1.
          1    1    1    2  502    0 -0.50256265308E+02  0.27368749849E+02  0.44292391114E+02  0.72364055867E+02  0.00000000000E+00 0. -1.
</event>
<event>
 4    1  0.8322090E+003  0.2062863E+02  0.7546771E-02  0.1524634E+00
          2   -1    0    0  502    0  0.00000000000E+00  0.00000000000E+00  0.48869843434E+03  0.48869843434E+03  0.00000000000E+00 0. -1.
          1   -1    0    0  501    0 -0.00000000000E+00 -0.00000000000E+00 -0.10015078430E+02  0.10015078430E+02  0.00000000000E+00 0. -1.
          2    1    1    2  501    0 -0.16047338099E+02  0.12962384587E+02  0.47761178718E+03  0.47805706744E+03  0.00000000000E+00 0. -1.
          1    1    1    2  502    0  0.16047338099E+02 -0.12962384587E+02  0.10715687307E+01  0.20656445333E+02  0.00000000000E+00 0. -1.
</event>
<event>
 4    1  0.8322090E+003  0.3950930E+02  0.7546771E-02  0.1351385E+00
          2   -1    0    0  502    0  0.00000000000E+00  0.00000000000E+00  0.15218479228E+04  0.15218479228E+04  0.00000000000E+00 0.  1.
          1   -1    0    0  501    0 -0.00000000000E+00 -0.00000000000E+00 -0.22371216580E+02  0.22371216580E+02  0.00000000000E+00 0.  1.
          2    1    1    2  501    0  0.49028788516E+01 -0.39203912644E+02  0.15039396900E+04  0.15044585658E+04  0.00000000000E+00 0.  1.
          1    1    1    2  502    0 -0.49028788516E+01  0.39203912644E+02 -0.44629837940E+01  0.39760573587E+02  0.00000000000E+00 0.  1.
</event>
<event>
 4    1  0.8322090E+003  0.3898697E+02  0.7546771E-02  0.1354527E+00
          2   -1    0    0  502    0  0.00000000000E+00  0.00000000000E+00  0.19906946992E+03  0.19906946992E+03  0.00000000000E+00 0. -1.
          1   -1    0    0  501    0 -0.00000000000E+00 -0.00000000000E+00 -0.50047224970E+02  0.50047224970E+02  0.00000000000E+00 0. -1.
          2    1    1    2  501    0  0.32746169326E+02  0.21158266932E+02  0.18917485898E+03  0.19315048831E+03  0.00000000000E+00 0. -1.
          1    1    1    2  502    0 -0.32746169326E+02 -0.21158266932E+02 -0.40152614031E+02  0.55966206577E+02  0.00000000000E+00 0. -1.
</event>
<event>
 4    1  0.8322090E+003  0.2309562E+02  0.7546771E-02  0.1491301E+00
          2   -1    0    0  502    0  0.00000000000E+00  0.00000000000E+00  0.74429179931E+02  0.74429179931E+02  0.00000000000E+00 0.  1.
          1   -1    0    0  501    0 -0.00000000000E+00 -0.00000000000E+00 -0.78566403070E+01  0.78566403070E+01  0.00000000000E+00 0. -1.
          2    1    1    2  501    0  0.18496102220E+02  0.13831185939E+02  0.45478963843E+02  0.51007290205E+02  0.00000000000E+00 0.  1.
          1    1    1    2  502    0 -0.18496102220E+02 -0.13831185939E+02  0.21093575781E+02  0.31278530033E+02  0.00000000000E+00 0. -1.
</event>
<event>
 4    1  0.8322090E+003  0.2673719E+02  0.7546771E-02  0.1450266E+00
          2   -1    0    0  502    0  0.00000000000E+00  0.00000000000E+00  0.93844524580E+03  0.93844524580E+03  0.00000000000E+00 0.  1.
          1   -1    0    0  501    0 -0.00000000000E+00 -0.00000000000E+00 -0.18979985639E+01  0.18979985639E+01  0.00000000000E+00 0. -1.
          2    1    1    2  501    0 -0.18068490427E+02 -0.19708045551E+02  0.83205606910E+03  0.83248554314E+03  0.00000000000E+00 0.  1.
          1    1    1    2  502    0  0.18068490427E+02  0.19708045551E+02  0.10449117814E+03  0.10785770123E+03  0.00000000000E+00 0. -1.
</event>
<event>
 4    1  0.8322090E+003  0.2146020E+02  0.7546771E-02  0.1512795E+00
          2   -1    0    0  502    0  0.00000000000E+00  0.00000000000E+00  0.60017534688E+02  0.60017534688E+02  0.00000000000E+00 0.  1.
          1   -1    0    0  501    0 -0.00000000000E+00 -0.00000000000E+00 -0.79808886932E+01  0.79808886932E+01  0.00000000000E+00 0. -1.
          2    1    1    2  501    0 -0.10734162770E+02  0.18582736298E+02  0.32691563181E+02  0.39105992404E+02  0.00000000000E+00 0.  1.
          1    1    1    2  502    0  0.10734162770E+02 -0.18582736298E+02  0.19345082814E+02  0.28892430977E+02  0.00000000000E+00 0. -1.
</event>
<event>
 4    1  0.8322090E+003  0.2150400E+02  0.7546771E-02  0.1512189E+00
          2   -1    0    0  502    0  0.00000000000E+00  0.00000000000E+00  0.30118783315E+03  0.30118783315E+03  0.00000000000E+00 0. -1.
          1   -1    0    0  501    0 -0.00000000000E+00 -0.00000000000E+00 -0.49381490117E+01  0.49381490117E+01  0.00000000000E+00 0. -1.
          2    1    1    2  501    0  0.33190332122E+00  0.21501442031E+02  0.27518448821E+03  0.27602341335E+03  0.00000000000E+00 0. -1.
          1    1    1    2  502    0 -0.33190332122E+00 -0.21501442031E+02  0.21065195929E+02  0.30102568807E+02  0.00000000000E+00 0. -1.
</event>
<event>
 4    1  0.8322090E+003  0.2158225E+02  0.7546771E-02  0.1511112E+00
          2   -1    0    0  502    0  0.00000000000E+00  0.00000000000E+00  0.85450766321E+02  0.85450766321E+02  0.00000000000E+00 0.  1.
          1   -1    0    0  501    0 -0.00000000000E+00 -0.00000000000E+00 -0.13810207689E+04  0.13810207689E+04  0.00000000000E+00 0.  1.
          2    1    1    2  501    0 -0.79519480576E+01 -0.20063900731E+02  0.84002260754E+02  0.86730464096E+02  0.00000000000E+00 0.  1.
          1    1    1    2  502    0  0.79519480576E+01  0.20063900731E+02 -0.13795722634E+04  0.13797410712E+04  0.00000000000E+00 0.  1.
</event>
<event>
 4    1  0.8322090E+003  0.2483904E+02  0.7546771E-02  0.1470612E+00
          2   -1    0    0  502    0  0.00000000000E+00  0.00000000000E+00  0.14990846618E+02  0.14990846618E+02  0.00000000000E+00 0. -1.
          1   -1    0    0  501    0 -0.00000000000E+00 -0.00000000000E+00 -0.63245312275E+03  0.63245312275E+03  0.00000000000E+00 0.  1.
          2    1    1    2  501    0  0.26238177207E+01 -0.24700073584E+02  0.42805427922E+01  0.25205180045E+02  0.00000000000E+00 0. -1.
          1    1    1    2  502    0 -0.26238177207E+01  0.24700073584E+02 -0.62174281892E+03  0.62223878932E+03  0.00000000000E+00 0.  1.
</event>
<event>
 4    1  0.8322090E+003  0.5389325E+02  0.7546771E-02  0.1282121E+00
          2   -1    0    0  502    0  0.00000000000E+00  0.00000000000E+00  0.19915940304E+03  0.19915940304E+03  0.00000000000E+00 0.  1.
          1   -1    0    0  501    0 -0.00000000000E+00 -0.00000000000E+00 -0.37600117935E+02  0.37600117935E+02  0.00000000000E+00 0. -1.
          2    1    1    2  501    0 -0.43079399108E+02 -0.32382829264E+02  0.17339897800E+03  0.18158107784E+03  0.00000000000E+00 0.  1.
          1    1    1    2  502    0  0.43079399108E+02  0.32382829264E+02 -0.11839692897E+02  0.55178443132E+02  0.00000000000E+00 0. -1.
</event>
<event>
 4    1  0.8322090E+003  0.2319545E+02  0.7546771E-02  0.1490058E+00
          2   -1    0    0  502    0  0.00000000000E+00  0.00000000000E+00  0.10022924522E+03  0.10022924522E+03  0.00000000000E+00 0.  1.
          1   -1    0    0  501    0 -0.00000000000E+00 -0.00000000000E+00 -0.82101286337E+01  0.82101286337E+01  0.00000000000E+00 0.  1.
          2    1    1    2  501    0  0.74439700017E+01 -0.21968530673E+02  0.77910615676E+02  0.81290178154E+02  0.00000000000E+00 0.  1.
          1    1    1    2  502    0 -0.74439700017E+01  0.21968530673E+02  0.14108500915E+02  0.27149195705E+02  0.00000000000E+00 0.  1.
</event>
<event>
 4    1  0.8322090E+003  0.2252177E+02  0.7546771E-02  0.1498592E+00
          2   -1    0    0  502    0  0.00000000000E+00  0.00000000000E+00  0.16292164416E+04  0.16292164416E+04  0.00000000000E+00 0.  1.
          1   -1    0    0  501    0 -0.00000000000E+00 -0.00000000000E+00 -0.53088743508E+02  0.53088743508E+02  0.00000000000E+00 0.  1.
          2    1    1    2  501    0 -0.13792659671E+02 -0.17804283047E+02  0.16267463868E+04  0.16269022826E+04  0.00000000000E+00 0.  1.
          1    1    1    2  502    0  0.13792659671E+02  0.17804283047E+02 -0.50618688761E+02  0.55402902518E+02  0.00000000000E+00 0.  1.
</event>
<event>
 4    1  0.8322090E+003  0.5065131E+02  0.7546771E-02  0.1295373E+00
          2   -1    0    0  502    0  0.00000000000E+00  0.00000000000E+00  0.86844623383E+02  0.86844623383E+02  0.00000000000E+00 0. -1.
          1   -1    0    0  501    0 -0.00000000000E+00 -0.00000000000E+00 -0.38299653398E+03  0.38299653398E+03  0.00000000000E+00 0. -1.
          2    1    1    2  501    0  0.50403077565E+02  0.50084992060E+01  0.77602696790E+02  0.92670026661E+02  0.00000000000E+00 0. -1.
          1    1    1    2  502    0 -0.50403077565E+02 -0.50084992060E+01 -0.37375460739E+03  0.37717113070E+03  0.00000000000E+00 0. -1.
</event>
<event>
 4    1  0.8322090E+003  0.2542614E+02  0.7546771E-02  0.1464092E+00
          2   -1    0    0  502    0  0.00000000000E+00  0.00000000000E+00  0.18905620426E+01  0.18905620426E+01  0.00000000000E+00 0.  1.
          1   -1    0    0  501    0 -0.00000000000E+00 -0.00000000000E+00 -0.57352055094E+03  0.57352055094E+03  0.00000000000E+00 0.  1.
          2    1    1    2  501    0  0.21706243272E+02  0.13241130287E+02 -0.10300074401E+03  0.10609260952E+03  0.00000000000E+00 0.  1.
          1    1    1    2  502    0 -0.21706243272E+02 -0.13241130287E+02 -0.46862924489E+03  0.46931850346E+03  0.00000000000E+00 0.  1.
</event>
<event>
 4    1  0.8322090E+003  0.2424097E+02  0.7546771E-02  0.1477477E+00
          2   -1    0    0  502    0  0.00000000000E+00  0.00000000000E+00  0.38311434913E+02  0.38311434913E+02  0.00000000000E+00 0. -1.
          1   -1    0    0  501    0 -0.00000000000E+00 -0.00000000000E+00 -0.23018981116E+02  0.23018981116E+02  0.00000000000E+00 0. -1.
          2    1    1    2  501    0 -0.24131213167E+02 -0.23042133725E+01  0.25359883446E+02  0.35082025833E+02  0.00000000000E+00 0. -1.
          1    1    1    2  502    0  0.24131213167E+02  0.23042133725E+01 -0.10067429648E+02  0.26248390196E+02  0.00000000000E+00 0. -1.
</event>
<event>
 4    1  0.8322090E+003  0.2030067E+02  0.7546771E-02  0.1529488E+00
          2   -1    0    0  502    0  0.00000000000E+00  0.00000000000E+00  0.86131600083E+03  0.86131600083E+03  0.00000000000E+00 0. -1.
          1   -1    0    0  501    0 -0.00000000000E+00 -0.00000000000E+00 -0.70481182077E+00  0.70481182077E+00  0.00000000000E+00 0.  1.
          2    1    1    2  501    0  0.14552687334E+02  0.14154031320E+02  0.67455287244E+03  0.67485827774E+03  0.00000000000E+00 0. -1.
          1    1    1    2  502    0 -0.14552687334E+02 -0.14154031320E+02  0.18605831656E+03  0.18716253491E+03  0.00000000000E+00 0.  1.
</event>
<event>
 4    1  0.8322090E+003  0.3887610E+02  0.7546771E-02  0.1355201E+00
          2   -1    0    0  502    0  0.00000000000E+00  0.00000000000E+00  0.10709657743E+04  0.10709657743E+04  0.00000000000E+00 0. -1.
          1   -1    0    0  501    0 -0.00000000000E+00 -0.00000000000E+00 -0.31129367485E+01  0.31129367485E+01  0.00000000000E+00 0.  1.
          2    1    1    2  501    0 -0.21580827224E+02 -0.32336038640E+02  0.93099598893E+03  0.93180732069E+03  0.00000000000E+00 0. -1.
          1    1    1    2  502    0  0.21580827224E+02  0.32336038640E+02  0.13685684865E+03  0.14227139038E+03  0.00000000000E+00 0.  1.
</event>
<event>
 4    1  0.8322090E+003  0.2344495E+02  0.7546771E-02  0.1486985E+00
          2   -1    0    0  502    0  0.00000000000E+00  0.00000000000E+00  0.23822587902E+02  0.23822587902E+02  0.00000000000E+00 0.  1.
          1   -1    0    0  501    0 -0.00000000000E+00 -0.00000000000E+00 -0.14422077842E+03  0.14422077842E+03  0.00000000000E+00 0.  1.
          2    1    1    2  501    0  0.23439133918E+02  0.52239634406E+00  0.16808690427E+02  0.28847841698E+02  0.00000000000E+00 0.  1.
          1    1    1    2  502    0 -0.23439133918E+02 -0.52239634406E+00 -0.13720688094E+03  0.13919552462E+03  0.00000000000E+00 0.  1.
</event>
<event>
 4    1  0.8322090E+003  0.2459744E+02  0.7546771E-02  0.1473357E+00
          2   -1    0    0  502    0  0.00000000000E+00  0.00000000000E+00  0.33008234264E+03  0.33008234264E+03  0.00000000000E+00 0. -1.
          1   -1    0    0  501    0 -0.00000000000E+00 -0.00000000000E+00 -0.36516072241E+01  0.36516072241E+01  0.00000000000E+00 0.  1.
          2    1    1    2  501    0 -0.22272339174E+02 -0.10439208322E+02  0.28097603813E+03  0.28205064823E+03  0.00000000000E+00 0. -1.
          1    1    1    2  502    0  0.22272339174E+02  0.10439208322E+02  0.45454697288E+02  0.51683301638E+02  0.00000000000E+00 0.  1.
</event>
<event>
 4    1  0.8322090E+003  0.3100379E+02  0.7546771E-02  0.1411069E+00
          2   -1    0    0  502    0  0.00000000000E+00  0.00000000000E+00  0.73580613966E+01  0.73580613966E+01  0.00000000000E+00 0. -1.
          1   -1    0    0  501    0 -0.00000000000E+00 -0.00000000000E+00 -0.13121681463E+03  0.13121681463E+03  0.00000000000E+00 0.  1.
          2    1    1    2  501    0 -0.26300469434E+02  0.16417075899E+02 -0.57323588087E+02  0.65170766642E+02  0.00000000000E+00 0. -1.
          1    1    1    2  502    0  0.26300469434E+02 -0.16417075899E+02 -0.66535165145E+02  0.73404109384E+02  0.00000000000E+00 0.  1.
</event>
<event>
 4    1  0.8322090E+003  0.2089602E+02  0.7546771E-02  0.1520755E+00
          2   -1    0    0  502    0  0.00000000000E+00  0.00000000000E+00  0.15998761785E+02  0.15998761785E+02  0.00000000000E+00 0.  1.
          1   -1    0    0  501    0 -0.00000000000E+00 -0.00000000000E+00 -0.28372589016E+02  0.28372589016E+02  0.00000000000E+00 0.  1.
          2    1    1    2  501    0  0.20210258293E+01  0.20798052493E+02 -0.18579240997E+01  0.20978451203E+02  0.00000000000E+00 0.  1.
          1    1    1    2  502    0 -0.20210258293E+01 -0.20798052493E+02 -0.10515903132E+02  0.23392899598E+02  0.00000000000E+00 0.  1.
</event>
<event>
 4    1  0.8322090E+003  0.3487401E+02  0.7546771E-02  0.1381451E+00
          2   -1    0    0  502    0  0.00000000000E+00  0.00000000000E+00  0.30885122029E+03  0.30885122029E+03  0.00000000000E+00 0. -1.
          1   -1    0    0  501    0 -0.00000000000E+00 -0.00000000000E+00 -0.41496697214E+01  0.41496697214E+01  0.00000000000E+00 0. -1.
          2    1    1    2  501    0 -0.50350901255E+01  0.34508609849E+02  0.18771277238E+03  0.19092480510E+03  0.00000000000E+00 0. -1.
          1    1    1    2  502    0  0.50350901255E+01 -0.34508609849E+02  0.11698877819E+03  0.12207608492E+03  0.00000000000E+00 0. -1.
</event>
<event>
 4    1  0.8322090E+003  0.2250930E+02  0.7546771E-02  0.1498754E+00
          2   -1    0    0  502    0  0.00000000000E+00  0.00000000000E+00  0.16423273233E+03  0.16423273233E+03  0.00000000000E+00 0. -1.
          1   -1    0    0  501    0 -0.00000000000E+00 -0.00000000000E+00 -0.48079709213E+01  0.48079709213E+01  0.00000000000E+00 0. -1.
          2    1    1    2  501    0 -0.11360143941E+02 -0.19432331518E+02  0.13030782016E+03  0.13223765112E+03  0.00000000000E+00 0. -1.
          1    1    1    2  502    0  0.11360143941E+02  0.19432331518E+02  0.29116941248E+02  0.36803052132E+02  0.00000000000E+00 0. -1.
</event>
<event>
 4    1  0.8322090E+003  0.2155748E+02  0.7546771E-02  0.1511452E+00
          2   -1    0    0  502    0  0.00000000000E+00  0.00000000000E+00  0.24663681858E+03  0.24663681858E+03  0.00000000000E+00 0. -1.
          1   -1    0    0  501    0 -0.00000000000E+00 -0.00000000000E+00 -0.36164307047E+01  0.36164307047E+01  0.00000000000E+00 0. -1.
          2    1    1    2  501    0  0.21550086859E+02  0.56451704854E+00  0.20810792416E+03  0.20922149273E+03  0.00000000000E+00 0. -1.
          1    1    1    2  502    0 -0.21550086859E+02 -0.56451704854E+00  0.34912463719E+02  0.41031756556E+02  0.00000000000E+00 0. -1.
</event>
<event>
 4    1  0.8322090E+003  0.2221954E+02  0.7546771E-02  0.1502538E+00
          2   -1    0    0  502    0  0.00000000000E+00  0.00000000000E+00  0.78750902232E+00  0.78750902232E+00  0.00000000000E+00 0. -1.
          1   -1    0    0  501    0 -0.00000000000E+00 -0.00000000000E+00 -0.15525540826E+04  0.15525540826E+04  0.00000000000E+00 0. -1.
          2    1    1    2  501    0 -0.22212575723E+02  0.55607814187E+00 -0.17618541933E+03  0.17758099484E+03  0.00000000000E+00 0. -1.
          1    1    1    2  502    0  0.22212575723E+02 -0.55607814187E+00 -0.13755811542E+04  0.13757605968E+04  0.00000000000E+00 0. -1.
</event>
<event>
 4    1  0.8322090E+003  0.2004035E+02  0.7546771E-02  0.1533420E+00
          2   -1    0    0  502    0  0.00000000000E+00  0.00000000000E+00  0.17968019120E+03  0.17968019120E+03  0.00000000000E+00 0.  1.
          1   -1    0    0  501    0 -0.00000000000E+00 -0.00000000000E+00 -0.23188341189E+01  0.23188341189E+01  0.00000000000E+00 0.  1.
          2    1    1    2  501    0 -0.24728354712E+01  0.19887200907E+02  0.10596591237E+03  0.10784428710E+03  0.00000000000E+00 0.  1.
          1    1    1    2  502    0  0.24728354712E+01 -0.19887200907E+02  0.71395444716E+02  0.74154738227E+02  0.00000000000E+00 0.  1.
</event>
<event>
 4    1  0.8322090E+003  0.3777393E+02  0.7546771E-02  0.1362048E+00
          2   -1    0    0  502    0  0.00000000000E+00  0.00000000000E+00  0.30263102019E+01  0.30263102019E+01  0.00000000000E+00 0.  1.
          1   -1    0    0  501    0 -0.00000000000E+00 -0.00000000000E+00 -0.13298229081E+04  0.13298229081E+04  0.00000000000E+00 0.  1.
          2    1    1    2  501    0  0.25807207249E+02 -0.27583651134E+02 -0.12799327651E+03  0.13345092202E+03  0.00000000000E+00 0.  1.
          1    1    1    2  502    0 -0.25807207249E+02  0.27583651134E+02 -0.11988033214E+04  0.11993982963E+04  0.00000000000E+00 0.  1.
</event>
<event>
 4    1  0.8322090E+003  0.2642236E+02  0.7546771E-02  0.1453498E+00
          2   -1    0    0  502    0  0.00000000000E+00  0.00000000000E+00  0.51598468791E+03  0.51598468791E+03  0.00000000000E+00 0.  1.
          1   -1    0    0  501    0 -0.00000000000E+00 -0.00000000000E+00 -0.79192428261E+02  0.79192428261E+02  0.00000000000E+00 0.  1.
          2    1    1    2  501    0 -0.26168566757E+02  0.36533837190E+01  0.51343153998E+03  0.51411096793E+03  0.00000000000E+00 0.  1.
          1    1    1    2  502    0  0.26168566757E+02 -0.36533837190E+01 -0.76639280339E+02  0.81066148234E+02  0.00000000000E+00 0.  1.
</event>
<event>
 4    1  0.8322090E+003  0.2610915E+02  0.7546771E-02  0.1456768E+00
          2   -1    0    0  502    0  0.00000000000E+00  0.00000000000E+00  0.25803447438E+02  0.25803447438E+02  0.00000000000E+00 0.  1.
          1   -1    0    0  501    0 -0.00000000000E+00 -0.00000000000E+00 -0.75842400064E+03  0.75842400064E+03  0.00000000000E+00 0. -1.
          2    1    1    2  501    0  0.12069827711E+02  0.23151825626E+02  0.18913591888E+02  0.32239908947E+02  0.00000000000E+00 0.  1.
          1    1    1    2  502    0 -0.12069827711E+02 -0.23151825626E+02 -0.75153414509E+03  0.75198753913E+03  0.00000000000E+00 0. -1.
</event>
<event>
 4    1  0.8322090E+003  0.2054781E+02  0.7546771E-02  0.1525820E+00
          2   -1    0    0  502    0  0.00000000000E+00  0.00000000000E+00  0.34193884348E+03  0.34193884348E+03  0.00000000000E+00 0. -1.
          1   -1    0    0  501    0 -0.00000000000E+00 -0.00000000000E+00 -0.38283064576E+01  0.38283064576E+01  0.00000000000E+00 0.  1.
          2    1    1    2  501    0 -0.65598650534E+01 -0.19472558994E+02  0.31135281373E+03  0.31203010592E+03  0.00000000000E+00 0. -1.
          1    1    1    2  502    0  0.65598650534E+01  0.19472558994E+02  0.26757723300E+02  0.33737044024E+02  0.00000000000E+00 0.  1.
</event>
<event>
 4    1  0.8322090E+003  0.2443325E+02  0.7546771E-02  0.1475244E+00
          2   -1    0    0  502    0  0.00000000000E+00  0.00000000000E+00  0.25364350640E+03  0.25364350640E+03  0.00000000000E+00 0. -1.
          1   -1    0    0  501    0 -0.00000000000E+00 -0.00000000000E+00 -0.65428161545E+01  0.65428161545E+01  0.00000000000E+00 0. -1.
          2    1    1    2  501    0  0.79997679852E+01  0.23086520677E+02  0.22764700227E+03  0.22895445260E+03  0.00000000000E+00 0. -1.
          1    1    1    2  502    0 -0.79997679852E+01 -0.23086520677E+02  0.19453687977E+02  0.31231869952E+02  0.00000000000E+00 0. -1.
</event>
<event>
 4    1  0.8322090E+003  0.2050707E+02  0.7546771E-02  0.1526420E+00
          2   -1    0    0  502    0  0.00000000000E+00  0.00000000000E+00  0.30357452770E+02  0.30357452770E+02  0.00000000000E+00 0. -1.
          1   -1    0    0  501    0 -0.00000000000E+00 -0.00000000000E+00 -0.78502166521E+03  0.78502166521E+03  0.00000000000E+00 0. -1.
          2    1    1    2  501    0 -0.10154816026E+02  0.17816275699E+02  0.26744280595E+02  0.33701580272E+02  0.00000000000E+00 0. -1.
          1    1    1    2  502    0  0.10154816026E+02 -0.17816275699E+02 -0.78140849303E+03  0.78167753770E+03  0.00000000000E+00 0. -1.
</event>
<event>
 4    1  0.8322090E+003  0.2366922E+02  0.7546771E-02  0.1484261E+00
          2   -1    0    0  502    0  0.00000000000E+00  0.00000000000E+00  0.17856229194E+03  0.17856229194E+03  0.00000000000E+00 0. -1.
          1   -1    0    0  501    0 -0.00000000000E+00 -0.00000000000E+00 -0.45560539180E+01  0.45560539180E+01  0.00000000000E+00 0.  1.
          2    1    1    2  501    0  0.14638499789E+02  0.18599628833E+02  0.13809320507E+03  0.14010697754E+03  0.00000000000E+00 0. -1.
          1    1    1    2  502    0 -0.14638499789E+02 -0.18599628833E+02  0.35913032949E+02  0.43011368315E+02  0.00000000000E+00 0.  1.
</event>
<event>
 4    1  0.8322090E+003  0.2238742E+02  0.7546771E-02  0.1500337E+00
          2   -1    0    0  502    0  0.00000000000E+00  0.00000000000E+00  0.20262522512E+02  0.20262522512E+02  0.00000000000E+00 0. -1.
          1   -1    0    0  501    0 -0.00000000000E+00 -0.00000000000E+00 -0.29261613151E+02  0.29261613151E+02  0.00000000000E+00 0. -1.
          2    1    1    2  501    0 -0.55149165166E+01  0.21697516802E+02  0.52395195255E+01  0.22992370570E+02  0.00000000000E+00 0. -1.
          1    1    1    2  502    0  0.55149165166E+01 -0.21697516802E+02 -0.14238610164E+02  0.26531765093E+02  0.00000000000E+00 0. -1.
</event>
<event>
 4    1  0.8322090E+003  0.4136701E+02  0.7546771E-02  0.1340656E+00
          2   -1    0    0  502    0  0.00000000000E+00  0.00000000000E+00  0.81216986541E+03  0.81216986541E+03  0.00000000000E+00 0. -1.
          1   -1    0    0  501    0 -0.00000000000E+00 -0.00000000000E+00 -0.25147131710E+01  0.25147131710E+01  0.00000000000E+00 0. -1.
          2    1    1    2  501    0 -0.49263341149E+01 -0.41072607220E+02  0.24080566344E+03  0.24433296007E+03  0.00000000000E+00 0. -1.
          1    1    1    2  502    0  0.49263341149E+01  0.41072607220E+02  0.56884948879E+03  0.57035161851E+03  0.00000000000E+00 0. -1.
</event>
<event>
 4    1  0.8322090E+003  0.2057901E+03  0.7546771E-02  0.1051106E+00
          2   -1    0    0  502    0  0.00000000000E+00  0.00000000000E+00  0.11526024520E+03  0.11526024520E+03  0.00000000000E+00 0. -1.
          1   -1    0    0  501    0 -0.00000000000E+00 -0.00000000000E+00 -0.27811339663E+04  0.27811339663E+04  0.00000000000E+00 0. -1.
          2    1    1    2  501    0  0.18822455588E+03  0.83193035375E+02  0.16209663019E+02  0.20642751208E+03  0.00000000000E+00 0. -1.
          1    1    1    2  502    0 -0.18822455588E+03 -0.83193035375E+02 -0.26820833841E+04  0.26899666994E+04  0.00000000000E+00 0. -1.
</event>
<event>
 4    1  0.8322090E+003  0.2768950E+02  0.7546771E-02  0.1440802E+00
          2   -1    0    0  502    0  0.00000000000E+00  0.00000000000E+00  0.17314638897E+03  0.17314638897E+03  0.00000000000E+00 0. -1.
          1   -1    0    0  501    0 -0.00000000000E+00 -0.00000000000E+00 -0.13764923803E+02  0.13764923803E+02  0.00000000000E+00 0. -1.
          2    1    1    2  501    0  0.56406769422E+01 -0.27108877474E+02  0.15666018715E+03  0.15908841163E+03  0.00000000000E+00 0. -1.
          1    1    1    2  502    0 -0.56406769422E+01  0.27108877474E+02  0.27212780140E+01  0.27822901148E+02  0.00000000000E+00 0. -1.
</event>
<event>
 4    1  0.8322090E+003  0.3744762E+02  0.7546771E-02  0.1364129E+00
          2   -1    0    0  502    0  0.00000000000E+00  0.00000000000E+00  0.41543546846E+03  0.41543546846E+03  0.00000000000E+00 0.  1.
          1   -1    0    0  501    0 -0.00000000000E+00 -0.00000000000E+00 -0.27195154111E+04  0.27195154111E+04  0.00000000000E+00 0.  1.
          2    1    1    2  501    0 -0.63527534501E+01  0.36904829496E+02  0.41446236543E+03  0.41615066536E+03  0.00000000000E+00 0.  1.
          1    1    1    2  502    0  0.63527534501E+01 -0.36904829496E+02 -0.27185423081E+04  0.27188002142E+04  0.00000000000E+00 0.  1.
</event>
<event>
 4    1  0.8322090E+003  0.3661189E+02  0.7546771E-02  0.1369572E+00
          2   -1    0    0  502    0  0.00000000000E+00  0.00000000000E+00  0.29631398793E+03  0.29631398793E+03  0.00000000000E+00 0. -1.
          1   -1    0    0  501    0 -0.00000000000E+00 -0.00000000000E+00 -0.45282535195E+01  0.45282535195E+01  0.00000000000E+00 0. -1.
          2    1    1    2  501    0 -0.32570717897E+02 -0.16720613821E+02  0.15067167610E+03  0.15505606911E+03  0.00000000000E+00 0. -1.
          1    1    1    2  502    0  0.32570717897E+02  0.16720613821E+02  0.14111405832E+03  0.14578617234E+03  0.00000000000E+00 0. -1.
</event>
<event>
 4    1  0.8322090E+003  0.2149573E+02  0.7546771E-02  0.1512303E+00
          2   -1    0    0  502    0  0.00000000000E+00  0.00000000000E+00  0.69699499916E+03  0.69699499916E+03  0.00000000000E+00 0. -1.
          1   -1    0    0  501    0 -0.00000000000E+00 -0.00000000000E+00 -0.26188533867E+01  0.26188533867E+01  0.00000000000E+00 0. -1.
          2    1    1    2  501    0  0.52082702668E+01  0.20855221456E+02  0.64949461466E+03  0.64985022952E+03  0.00000000000E+00 0. -1.
          1    1    1    2  502    0 -0.52082702668E+01 -0.20855221456E+02  0.44881531111E+02  0.49763623020E+02  0.00000000000E+00 0. -1.
</event>
<event>
 4    1  0.8322090E+003  0.3876486E+02  0.7546771E-02  0.1355880E+00
          2   -1    0    0  502    0  0.00000000000E+00  0.00000000000E+00  0.80433396232E+01  0.80433396232E+01  0.00000000000E+00 0. -1.
          1   -1    0    0  501    0 -0.00000000000E+00 -0.00000000000E+00 -0.82358746918E+03  0.82358746918E+03  0.00000000000E+00 0.  1.
          2    1    1    2  501    0 -0.23643537835E+01  0.38692692036E+02 -0.42148911841E+02  0.57264695539E+02  0.00000000000E+00 0. -1.
          1    1    1    2  502    0  0.23643537835E+01 -0.38692692036E+02 -0.77339521771E+03  0.77436611326E+03  0.00000000000E+00 0.  1.
</event>
<event>
 4    1  0.8322090E+003  0.6184341E+02  0.7546771E-02  0.1253695E+00
          2   -1    0    0  502    0  0.00000000000E+00  0.00000000000E+00  0.17701583668E+04  0.17701583668E+04  0.00000000000E+00 0. -1.
          1   -1    0    0  501    0 -0.00000000000E+00 -0.00000000000E+00 -0.90275442139E+01  0.90275442139E+01  0.00000000000E+00 0.  1.
          2    1    1    2  501    0  0.27222957513E+02  0.55529433459E+02  0.16564340989E+04  0.16575881670E+04  0.00000000000E+00 0. -1.
          1    1    1    2  502    0 -0.27222957513E+02 -0.55529433459E+02  0.10469672364E+03  0.12159774397E+03  0.00000000000E+00 0.  1.
</event>
<event>
 4    1  0.8322090E+003  0.2661578E+02  0.7546771E-02  0.1451506E+00
          2   -1    0    0  502    0  0.00000000000E+00  0.00000000000E+00  0.71326864158E+01  0.71326864158E+01  0.00000000000E+00 0. -1.
          1   -1    0    0  501    0 -0.00000000000E+00 -0.00000000000E+00 -0.16567635977E+03  0.16567635977E+03  0.00000000000E+00 0. -1.
          2    1    1    2  501    0 -0.10372419130E+02  0.24511481912E+02 -0.24588373486E+02  0.36235175380E+02  0.00000000000E+00 0. -1.
          1    1    1    2  502    0  0.10372419130E+02 -0.24511481912E+02 -0.13395529987E+03  0.13657387081E+03  0.00000000000E+00 0. -1.
</event>
<event>
 4    1  0.8322090E+003  0.3795594E+02  0.7546771E-02  0.1360899E+00
          2   -1    0    0  502    0  0.00000000000E+00  0.00000000000E+00  0.88047312896E+03  0.88047312896E+03  0.00000000000E+00 0.  1.
          1   -1    0    0  501    0 -0.00000000000E+00 -0.00000000000E+00 -0.34339516032E+03  0.34339516032E+03  0.00000000000E+00 0. -1.
          2    1    1    2  501    0  0.23859664778E+01  0.37880875139E+02  0.87901350081E+03  0.87983259098E+03  0.00000000000E+00 0.  1.
          1    1    1    2  502    0 -0.23859664778E+01 -0.37880875139E+02 -0.34193553218E+03  0.34403569830E+03  0.00000000000E+00 0. -1.
</event>
<event>
 4    1  0.8322090E+003  0.2134783E+02  0.7546771E-02  0.1514356E+00
          2   -1    0    0  502    0  0.00000000000E+00  0.00000000000E+00  0.10959123838E+01  0.10959123838E+01  0.00000000000E+00 0.  1.
          1   -1    0    0  501    0 -0.00000000000E+00 -0.00000000000E+00 -0.83267156067E+03  0.83267156067E+03  0.00000000000E+00 0.  1.
          2    1    1    2  501    0 -0.18489654332E+02  0.10670633895E+02 -0.12083283212E+03  0.12270412815E+03  0.00000000000E+00 0.  1.
          1    1    1    2  502    0  0.18489654332E+02 -0.10670633895E+02 -0.71074281616E+03  0.71106334491E+03  0.00000000000E+00 0.  1.
</event>
<event>
 4    1  0.8322090E+003  0.2153585E+02  0.7546771E-02  0.1511750E+00
          2   -1    0    0  502    0  0.00000000000E+00  0.00000000000E+00  0.34959447176E+02  0.34959447176E+02  0.00000000000E+00 0.  1.
          1   -1    0    0  501    0 -0.00000000000E+00 -0.00000000000E+00 -0.13698444762E+02  0.13698444762E+02  0.00000000000E+00 0.  1.
          2    1    1    2  501    0  0.12887708091E+02  0.17253975327E+02  0.14950225779E+02  0.26216443986E+02  0.00000000000E+00 0.  1.
          1    1    1    2  502    0 -0.12887708091E+02 -0.17253975327E+02  0.63107766342E+01  0.22441447951E+02  0.00000000000E+00 0.  1.
</event>
<event>
 4    1  0.8322090E+003  0.3245531E+02  0.7546771E-02  0.1399394E+00
          2   -1    0    0  502    0  0.00000000000E+00  0.00000000000E+00  0.10540847342E+02  0.10540847342E+02  0.00000000000E+00 0. -1.
          1   -1    0    0  501    0 -0.00000000000E+00 -0.00000000000E+00 -0.66572861291E+03  0.66572861291E+03  0.00000000000E+00 0. -1.
          2    1    1    2  501    0  0.32345721471E+02 -0.26649034417E+01 -0.15868556626E+02  0.36126977417E+02  0.00000000000E+00 0. -1.
          1    1    1    2  502    0 -0.32345721471E+02  0.26649034417E+01 -0.63931920894E+03  0.64014248283E+03  0.00000000000E+00 0. -1.
</event>
<event>
 4    1  0.8322090E+003  0.4306567E+02  0.7546771E-02  0.1331401E+00
          2   -1    0    0  502    0  0.00000000000E+00  0.00000000000E+00  0.61632309658E+02  0.61632309658E+02  0.00000000000E+00 0. -1.
          1   -1    0    0  501    0 -0.00000000000E+00 -0.00000000000E+00 -0.22264225526E+03  0.22264225526E+03  0.00000000000E+00 0.  1.
          2    1    1    2  501    0  0.35549565580E+02  0.24308021547E+02  0.51678159872E+02  0.67270229167E+02  0.00000000000E+00 0. -1.
          1    1    1    2  502    0 -0.35549565580E+02 -0.24308021547E+02 -0.21268810547E+03  0.21700433575E+03  0.00000000000E+00 0.  1.
</event>
<event>
 4    1  0.8322090E+003  0.2388282E+02  0.7546771E-02  0.1481700E+00
          2   -1    0    0  502    0  0.00000000000E+00  0.00000000000E+00  0.37271345206E+03  0.37271345206E+03  0.00000000000E+00 0. -1.
          1   -1    0    0  501    0 -0.00000000000E+00 -0.00000000000E+00 -0.30545387066E+01  0.30545387066E+01  0.00000000000E+00 0.  1.
          2    1    1    2  501    0  0.18064477840E+02  0.15622537648E+02  0.31754862771E+03  0.31844547414E+03  0.00000000000E+00 0. -1.
          1    1    1    2  502    0 -0.18064477840E+02 -0.15622537648E+02  0.52110285648E+02  0.57322516628E+02  0.00000000000E+00 0.  1.
</event>
<event>
 4    1  0.8322090E+003  0.2283322E+02  0.7546771E-02  0.1494603E+00
          2   -1    0    0  502    0  0.00000000000E+00  0.00000000000E+00  0.18535094323E+03  0.18535094323E+03  0.00000000000E+00 0. -1.
          1   -1    0    0  501    0 -0.00000000000E+00 -0.00000000000E+00 -0.24745254129E+03  0.24745254129E+03  0.00000000000E+00 0. -1.
          2    1    1    2  501    0  0.18938442927E+02 -0.12755057900E+02  0.18411750339E+03  0.18552792560E+03  0.00000000000E+00 0. -1.
          1    1    1    2  502    0 -0.18938442927E+02  0.12755057900E+02 -0.24621910145E+03  0.24727555892E+03  0.00000000000E+00 0. -1.
</event>
<event>
 4    1  0.8322090E+003  0.2227247E+02  0.7546771E-02  0.1501842E+00
          2   -1    0    0  502    0  0.00000000000E+00  0.00000000000E+00  0.38811981427E+03  0.38811981427E+03  0.00000000000E+00 0. -1.
          1   -1    0    0  501    0 -0.00000000000E+00 -0.00000000000E+00 -0.10952783154E+02  0.10952783154E+02  0.00000000000E+00 0. -1.
          2    1    1    2  501    0 -0.10639459648E+00  0.22272211409E+02  0.37611649357E+03  0.37677537002E+03  0.00000000000E+00 0. -1.
          1    1    1    2  502    0  0.10639459648E+00 -0.22272211409E+02  0.10505375519E+01  0.22297227407E+02  0.00000000000E+00 0. -1.
</event>
<event>
 4    1  0.8322090E+003  0.2738502E+02  0.7546771E-02  0.1443778E+00
          2   -1    0    0  502    0  0.00000000000E+00  0.00000000000E+00  0.46770768301E+02  0.46770768301E+02  0.00000000000E+00 0. -1.
          1   -1    0    0  501    0 -0.00000000000E+00 -0.00000000000E+00 -0.80260136324E+03  0.80260136324E+03  0.00000000000E+00 0.  1.
          2    1    1    2  501    0  0.15898918366E+02 -0.22297173319E+02  0.42507178753E+02  0.50564807809E+02  0.00000000000E+00 0. -1.
          1    1    1    2  502    0 -0.15898918366E+02  0.22297173319E+02 -0.79833777370E+03  0.79880732374E+03  0.00000000000E+00 0.  1.
</event>
<event>
 4    1  0.8322090E+003  0.2129762E+02  0.7546771E-02  0.1515058E+00
          2   -1    0    0  502    0  0.00000000000E+00  0.00000000000E+00  0.73263056038E+01  0.73263056038E+01  0.00000000000E+00 0.  1.
          1   -1    0    0  501    0 -0.00000000000E+00 -0.00000000000E+00 -0.41242764847E+03  0.41242764847E+03  0.00000000000E+00 0. -1.
          2    1    1    2  501    0 -0.20916399129E+02 -0.40115664909E+01 -0.90669485839E+01  0.23147310316E+02  0.00000000000E+00 0.  1.
          1    1    1    2  502    0  0.20916399129E+02  0.40115664909E+01 -0.39603439428E+03  0.39660664376E+03  0.00000000000E+00 0. -1.
</event>
<event>
 4    1  0.8322090E+003  0.5054640E+02  0.7546771E-02  0.1295821E+00
          2   -1    0    0  502    0  0.00000000000E+00  0.00000000000E+00  0.59209397000E+01  0.59209397000E+01  0.00000000000E+00 0.  1.
          1   -1    0    0  501    0 -0.00000000000E+00 -0.00000000000E+00 -0.50571778202E+03  0.50571778202E+03  0.00000000000E+00 0.  1.
          2    1    1    2  501    0 -0.33821313668E+02 -0.37564042595E+02 -0.15190271310E+03  0.16009176369E+03  0.00000000000E+00 0.  1.
          1    1    1    2  502    0  0.33821313668E+02  0.37564042595E+02 -0.34789412923E+03  0.35154695804E+03  0.00000000000E+00 0.  1.
</event>
<event>
 4    1  0.8322090E+003  0.2131677E+02  0.7546771E-02  0.1514790E+00
          2   -1    0    0  502    0  0.00000000000E+00  0.00000000000E+00  0.94898391900E+01  0.94898391900E+01  0.00000000000E+00 0. -1.
          1   -1    0    0  501    0 -0.00000000000E+00 -0.00000000000E+00 -0.88284939622E+03  0.88284939622E+03  0.00000000000E+00 0. -1.
          2    1    1    2  501    0  0.98614111868E+01  0.18898603555E+02 -0.27783235066E+01  0.21497063251E+02  0.00000000000E+00 0. -1.
          1    1    1    2  502    0 -0.98614111868E+01 -0.18898603555E+02 -0.87058123352E+03  0.87084217215E+03  0.00000000000E+00 0. -1.
</event>
<event>
 4    1  0.8322090E+003  0.3013083E+02  0.7546771E-02  0.1418463E+00
          2   -1    0    0  502    0  0.00000000000E+00  0.00000000000E+00  0.84110796814E+03  0.84110796814E+03  0.00000000000E+00 0.  1.
          1   -1    0    0  501    0 -0.00000000000E+00 -0.00000000000E+00 -0.50308938827E+01  0.50308938827E+01  0.00000000000E+00 0. -1.
          2    1    1    2  501    0  0.27514016215E+02 -0.12281940913E+02  0.79298679835E+03  0.79355902712E+03  0.00000000000E+00 0.  1.
          1    1    1    2  502    0 -0.27514016215E+02  0.12281940913E+02  0.43090275903E+02  0.52579834901E+02  0.00000000000E+00 0. -1.
</event>
<event>
 4    1  0.8322090E+003  0.2542369E+02  0.7546771E-02  0.1464119E+00
          2   -1    0    0  502    0  0.00000000000E+00  0.00000000000E+00  0.13376585744E+03  0.13376585744E+03  0.00000000000E+00 0.  1.
          1   -1    0    0  501    0 -0.00000000000E+00 -0.00000000000E+00 -0.84759666912E+02  0.84759666912E+02  0.00000000000E+00 0. -1.
          2    1    1    2  501    0  0.25377874748E+02  0.15255789855E+01  0.13060568264E+03  0.13305716161E+03  0.00000000000E+00 0.  1.
          1    1    1    2  502    0 -0.25377874748E+02 -0.15255789855E+01 -0.81599492108E+02  0.85468362745E+02  0.00000000000E+00 0. -1.
</event>
<event>
 4    1  0.8322090E+003  0.3527242E+02  0.7546771E-02  0.1378658E+00
          2   -1    0    0  502    0  0.00000000000E+00  0.00000000000E+00  0.12604251736E+02  0.12604251736E+02  0.00000000000E+00 0. -1.
          1   -1    0    0  501    0 -0.00000000000E+00 -0.00000000000E+00 -0.13759548555E+03  0.13759548555E+03  0.00000000000E+00 0.  1.
          2    1    1    2  501    0  0.31724690884E+02 -0.15417120635E+02 -0.22571012180E+02  0.41875938332E+02  0.00000000000E+00 0. -1.
          1    1    1    2  502    0 -0.31724690884E+02  0.15417120635E+02 -0.10242022163E+03  0.10832379895E+03  0.00000000000E+00 0.  1.
</event>
<event>
 4    1  0.8322090E+003  0.2473617E+02  0.7546771E-02  0.1471777E+00
          2   -1    0    0  502    0  0.00000000000E+00  0.00000000000E+00  0.16348756974E+04  0.16348756974E+04  0.00000000000E+00 0.  1.
          1   -1    0    0  501    0 -0.00000000000E+00 -0.00000000000E+00 -0.65165107934E+00  0.65165107934E+00  0.00000000000E+00 0.  1.
          2    1    1    2  501    0  0.79288205233E+01  0.23430998597E+02  0.13506459512E+04  0.13508724453E+04  0.00000000000E+00 0.  1.
          1    1    1    2  502    0 -0.79288205233E+01 -0.23430998597E+02  0.28357809507E+03  0.28465490316E+03  0.00000000000E+00 0.  1.
</event>
<event>
 4    1  0.8322090E+003  0.9988985E+02  0.7546771E-02  0.1163999E+00
          2   -1    0    0  502    0  0.00000000000E+00  0.00000000000E+00  0.10807268481E+04  0.10807268481E+04  0.00000000000E+00 0.  1.
          1   -1    0    0  501    0 -0.00000000000E+00 -0.00000000000E+00 -0.11527617659E+03  0.11527617659E+03  0.00000000000E+00 0.  1.
          2    1    1    2  501    0 -0.85205610782E+02 -0.52134305478E+02  0.10562796677E+04  0.10609923271E+04  0.00000000000E+00 0.  1.
          1    1    1    2  502    0  0.85205610782E+02  0.52134305478E+02 -0.90828996145E+02  0.13501069757E+03  0.00000000000E+00 0.  1.
</event>
<event>
 4    1  0.8322090E+003  0.3583850E+02  0.7546771E-02  0.1374762E+00
          2   -1    0    0  502    0  0.00000000000E+00  0.00000000000E+00  0.87503753965E+03  0.87503753965E+03  0.00000000000E+00 0. -1.
          1   -1    0    0  501    0 -0.00000000000E+00 -0.00000000000E+00 -0.17913478787E+02  0.17913478787E+02  0.00000000000E+00 0.  1.
          2    1    1    2  501    0 -0.22886957287E+02 -0.27578715013E+02  0.85635466307E+03  0.85710425696E+03  0.00000000000E+00 0. -1.
          1    1    1    2  502    0  0.22886957287E+02  0.27578715013E+02  0.76939779577E+00  0.35846761480E+02  0.00000000000E+00 0.  1.
</event>
<event>
 4    1  0.8322090E+003  0.2757741E+02  0.7546771E-02  0.1441893E+00
          2   -1    0    0  502    0  0.00000000000E+00  0.00000000000E+00  0.72409320163E+02  0.72409320163E+02  0.00000000000E+00 0.  1.
          1   -1    0    0  501    0 -0.00000000000E+00 -0.00000000000E+00 -0.10733957012E+02  0.10733957012E+02  0.00000000000E+00 0. -1.
          2    1    1    2  501    0  0.21095443735E+02  0.17762182707E+02  0.24739343860E+02  0.37047915130E+02  0.00000000000E+00 0.  1.
          1    1    1    2  502    0 -0.21095443735E+02 -0.17762182707E+02  0.36936019292E+02  0.46095362044E+02  0.00000000000E+00 0. -1.
</event>
<event>
 4    1  0.8322090E+003  0.2035018E+02  0.7546771E-02  0.1528748E+00
          2   -1    0    0  502    0  0.00000000000E+00  0.00000000000E+00  0.95486024526E+00  0.95486024526E+00  0.00000000000E+00 0.  1.
          1   -1    0    0  501    0 -0.00000000000E+00 -0.00000000000E+00 -0.75789431739E+03  0.75789431739E+03  0.00000000000E+00 0. -1.
          2    1    1    2  501    0 -0.19934195578E+02  0.40936225343E+01 -0.13031707240E+03  0.13189643383E+03  0.00000000000E+00 0.  1.
          1    1    1    2  502    0  0.19934195578E+02 -0.40936225343E+01 -0.62662238475E+03  0.62695274381E+03  0.00000000000E+00 0. -1.
</event>
<event>
 4    1  0.8322090E+003  0.5873214E+02  0.7546771E-02  0.1264202E+00
          2   -1    0    0  502    0  0.00000000000E+00  0.00000000000E+00  0.10687521141E+04  0.10687521141E+04  0.00000000000E+00 0.  1.
          1   -1    0    0  501    0 -0.00000000000E+00 -0.00000000000E+00 -0.92663789482E+02  0.92663789482E+02  0.00000000000E+00 0. -1.
          2    1    1    2  501    0  0.52634343247E+02 -0.26059355076E+02  0.10585491948E+04  0.10601772785E+04  0.00000000000E+00 0.  1.
          1    1    1    2  502    0 -0.52634343247E+02  0.26059355076E+02 -0.82460870229E+02  0.10123862502E+03  0.00000000000E+00 0. -1.
</event>
<event>
 4    1  0.8322090E+003  0.2394675E+02  0.7546771E-02  0.1480940E+00
          2   -1    0    0  502    0  0.00000000000E+00  0.00000000000E+00  0.60292759475E+03  0.60292759475E+03  0.00000000000E+00 0. -1.
          1   -1    0    0  501    0 -0.00000000000E+00 -0.00000000000E+00 -0.10599570565E+01  0.10599570565E+01  0.00000000000E+00 0. -1.
          2    1    1    2  501    0 -0.32809219905E+00  0.23944500770E+02  0.39771133105E+03  0.39843161221E+03  0.00000000000E+00 0. -1.
          1    1    1    2  502    0  0.32809219905E+00 -0.23944500770E+02  0.20415630664E+03  0.20555593959E+03  0.00000000000E+00 0. -1.
</event>
<event>
 4    1  0.8322090E+003  0.3991368E+02  0.7546771E-02  0.1348992E+00
          2   -1    0    0  502    0  0.00000000000E+00  0.00000000000E+00  0.57819951964E+01  0.57819951964E+01  0.00000000000E+00 0.  1.
          1   -1    0    0  501    0 -0.00000000000E+00 -0.00000000000E+00 -0.27592462882E+03  0.27592462882E+03  0.00000000000E+00 0.  1.
          2    1    1    2  501    0  0.22531782097E+02 -0.32945719383E+02 -0.12973110480E+03  0.13573231444E+03  0.00000000000E+00 0.  1.
          1    1    1    2  502    0 -0.22531782097E+02  0.32945719383E+02 -0.14041152882E+03  0.14597430957E+03  0.00000000000E+00 0.  1.
</event>
<event>
 4    1  0.8322090E+003  0.2321918E+02  0.7546771E-02  0.1489764E+00
          2   -1    0    0  502    0  0.00000000000E+00  0.00000000000E+00  0.54514644557E+03  0.54514644557E+03  0.00000000000E+00 0.  1.
          1   -1    0    0  501    0 -0.00000000000E+00 -0.00000000000E+00 -0.10873437579E+01  0.10873437579E+01  0.00000000000E+00 0.  1.
          2    1    1    2  501    0  0.17303835003E+02 -0.15482486536E+02  0.35418161324E+03  0.35494188996E+03  0.00000000000E+00 0.  1.
          1    1    1    2  502    0 -0.17303835003E+02  0.15482486536E+02  0.18987748858E+03  0.19129189937E+03  0.00000000000E+00 0.  1.
</event>
<event>
 4    1  0.8322090E+003  0.2701054E+02  0.7546771E-02  0.1447502E+00
          2   -1    0    0  502    0  0.00000000000E+00  0.00000000000E+00  0.14214518954E+04  0.14214518954E+04  0.00000000000E+00 0.  1.
          1   -1    0    0  501    0 -0.00000000000E+00 -0.00000000000E+00 -0.80252224742E+02  0.80252224742E+02  0.00000000000E+00 0.  1.
          2    1    1    2  501    0 -0.24663123674E+02  0.11013606502E+02  0.14190469917E+04  0.14193040315E+04  0.00000000000E+00 0.  1.
          1    1    1    2  502    0  0.24663123674E+02 -0.11013606502E+02 -0.77847321093E+02  0.82400088585E+02  0.00000000000E+00 0.  1.
</event>
<event>
 4    1  0.8322090E+003  0.2134651E+02  0.7546771E-02  0.1514375E+00
          2   -1    0    0  502    0  0.00000000000E+00  0.00000000000E+00  0.19504315887E+01  0.19504315887E+01  0.00000000000E+00 0.  1.
          1   -1    0    0  501    0 -0.00000000000E+00 -0.00000000000E+00 -0.40944350681E+03  0.40944350681E+03  0.00000000000E+00 0. -1.
          2    1    1    2  501    0 -0.19907911339E+02 -0.77038127776E+01 -0.68955627598E+02  0.72184155066E+02  0.00000000000E+00 0.  1.
          1    1    1    2  502    0  0.19907911339E+02  0.77038127776E+01 -0.33853744763E+03  0.33920978334E+03  0.00000000000E+00 0. -1.
</event>
<event>
 4    1  0.8322090E+003  0.2575796E+02  0.7546771E-02  0.1460500E+00
          2   -1    0    0  502    0  0.00000000000E+00  0.00000000000E+00  0.26443311173E+01  0.26443311173E+01  0.00000000000E+00 0. -1.
          1   -1    0    0  501    0 -0.00000000000E+00 -0.00000000000E+00 -0.10561862639E+04  0.10561862639E+04  0.00000000000E+00 0. -1.
          2    1    1    2  501    0  0.25126728697E+02  0.56674656563E+01 -0.64496020908E+02  0.69449329550E+02  0.00000000000E+00 0. -1.
          1    1    1    2  502    0 -0.25126728697E+02 -0.56674656563E+01 -0.98904591189E+03  0.98938126549E+03  0.00000000000E+00 0. -1.
</event>
<event>
 4    1  0.8322090E+003  0.3206531E+02  0.7546771E-02  0.1402459E+00
          2   -1    0    0  502    0  0.00000000000E+00  0.00000000000E+00  0.73047377274E+00  0.73047377274E+00  0.00000000000E+00 0. -1.
          1   -1    0    0  501    0 -0.00000000000E+00 -0.00000000000E+00 -0.14075622762E+04  0.14075622762E+04  0.00000000000E+00 0. -1.
          2    1    1    2  501    0 -0.15414661170E+02  0.28117098887E+02 -0.70485547942E+03  0.70558445979E+03  0.00000000000E+00 0. -1.
          1    1    1    2  502    0  0.15414661170E+02 -0.28117098887E+02 -0.70197632304E+03  0.70270829022E+03  0.00000000000E+00 0. -1.
</event>
<event>
 4    1  0.8322090E+003  0.2063896E+02  0.7546771E-02  0.1524482E+00
          2   -1    0    0  502    0  0.00000000000E+00  0.00000000000E+00  0.17641428825E+01  0.17641428825E+01  0.00000000000E+00 0. -1.
          1   -1    0    0  501    0 -0.00000000000E+00 -0.00000000000E+00 -0.11726477716E+04  0.11726477716E+04  0.00000000000E+00 0.  1.
          2    1    1    2  501    0 -0.16821813171E+02 -0.11957981533E+02 -0.62171955715E+02  0.65508158257E+02  0.00000000000E+00 0. -1.
          1    1    1    2  502    0  0.16821813171E+02  0.11957981533E+02 -0.11087116730E+04  0.11089037562E+04  0.00000000000E+00 0.  1.
</event>
<event>
 4    1  0.8322090E+003  0.2718605E+02  0.7546771E-02  0.1445748E+00
          2   -1    0    0  502    0  0.00000000000E+00  0.00000000000E+00  0.15200555910E+02  0.15200555910E+02  0.00000000000E+00 0. -1.
          1   -1    0    0  501    0 -0.00000000000E+00 -0.00000000000E+00 -0.13498246017E+04  0.13498246017E+04  0.00000000000E+00 0.  1.
          2    1    1    2  501    0 -0.26646818072E+02 -0.53877894516E+01  0.27954396145E+01  0.27329392075E+02  0.00000000000E+00 0. -1.
          1    1    1    2  502    0  0.26646818072E+02  0.53877894516E+01 -0.13374194854E+04  0.13376957655E+04  0.00000000000E+00 0.  1.
</event>
<event>
 4    1  0.8322090E+003  0.2012620E+02  0.7546771E-02  0.1532115E+00
          2   -1    0    0  502    0  0.00000000000E+00  0.00000000000E+00  0.84919551971E+02  0.84919551971E+02  0.00000000000E+00 0. -1.
          1   -1    0    0  501    0 -0.00000000000E+00 -0.00000000000E+00 -0.68368797458E+01  0.68368797458E+01  0.00000000000E+00 0. -1.
          2    1    1    2  501    0 -0.17624059262E+02 -0.97188471964E+01  0.13815903239E+02  0.24411936384E+02  0.00000000000E+00 0. -1.
          1    1    1    2  502    0  0.17624059262E+02  0.97188471964E+01  0.64266768986E+02  0.67344495333E+02  0.00000000000E+00 0. -1.
</event>
<event>
 4    1  0.8322090E+003  0.4010296E+02  0.7546771E-02  0.1347884E+00
          2   -1    0    0  502    0  0.00000000000E+00  0.00000000000E+00  0.10300376625E+04  0.10300376625E+04  0.00000000000E+00 0. -1.
          1   -1    0    0  501    0 -0.00000000000E+00 -0.00000000000E+00 -0.34950790542E+02  0.34950790542E+02  0.00000000000E+00 0. -1.
          2    1    1    2  501    0 -0.38798067990E+02  0.10146797897E+02  0.10180077818E+04  0.10187973750E+04  0.00000000000E+00 0. -1.
          1    1    1    2  502    0  0.38798067990E+02 -0.10146797897E+02 -0.22920909781E+02  0.46191078062E+02  0.00000000000E+00 0. -1.
</event>
<event>
 4    1  0.8322090E+003  0.2186366E+02  0.7546771E-02  0.1507282E+00
          2   -1    0    0  502    0  0.00000000000E+00  0.00000000000E+00  0.20439260395E+01  0.20439260395E+01  0.00000000000E+00 0. -1.
          1   -1    0    0  501    0 -0.00000000000E+00 -0.00000000000E+00 -0.48262112862E+03  0.48262112862E+03  0.00000000000E+00 0. -1.
          2    1    1    2  501    0  0.14110122521E+02  0.16701017131E+02 -0.66313026684E+02  0.69824329848E+02  0.00000000000E+00 0. -1.
          1    1    1    2  502    0 -0.14110122521E+02 -0.16701017131E+02 -0.41426417590E+03  0.41484072481E+03  0.00000000000E+00 0. -1.
</event>
<event>
 4    1  0.8322090E+003  0.4010057E+02  0.7546771E-02  0.1347897E+00
          2   -1    0    0  502    0  0.00000000000E+00  0.00000000000E+00  0.12037001169E+04  0.12037001169E+04  0.00000000000E+00 0. -1.
          1   -1    0    0  501    0 -0.00000000000E+00 -0.00000000000E+00 -0.16619756304E+01  0.16619756304E+01  0.00000000000E+00 0. -1.
          2    1    1    2  501    0  0.38535304102E+02  0.11094423197E+02  0.86796061909E+03  0.86888646680E+03  0.00000000000E+00 0. -1.
          1    1    1    2  502    0 -0.38535304102E+02 -0.11094423197E+02  0.33407752214E+03  0.33647562570E+03  0.00000000000E+00 0. -1.
</event>
<event>
 4    1  0.8322090E+003  0.2242228E+02  0.7546771E-02  0.1499883E+00
          2   -1    0    0  502    0  0.00000000000E+00  0.00000000000E+00  0.68887071962E+03  0.68887071962E+03  0.00000000000E+00 0. -1.
          1   -1    0    0  501    0 -0.00000000000E+00 -0.00000000000E+00 -0.44802687900E+02  0.44802687900E+02  0.00000000000E+00 0. -1.
          2    1    1    2  501    0 -0.97199608353E+01 -0.20205960767E+02  0.68587059042E+03  0.68623700374E+03  0.00000000000E+00 0. -1.
          1    1    1    2  502    0  0.97199608353E+01  0.20205960767E+02 -0.41802558707E+02  0.47436403780E+02  0.00000000000E+00 0. -1.
</event>
<event>
 4    1  0.8322090E+003  0.8288067E+02  0.7546771E-02  0.1197313E+00
          2   -1    0    0  502    0  0.00000000000E+00  0.00000000000E+00  0.22938636690E+04  0.22938636690E+04  0.00000000000E+00 0. -1.
          1   -1    0    0  501    0 -0.00000000000E+00 -0.00000000000E+00 -0.86140920791E+02  0.86140920791E+02  0.00000000000E+00 0.  1.
          2    1    1    2  501    0  0.33502736450E+02 -0.75807469222E+02  0.22729961008E+04  0.22745066454E+04  0.00000000000E+00 0. -1.
          1    1    1    2  502    0 -0.33502736450E+02  0.75807469222E+02 -0.65273352508E+02  0.10549794447E+03  0.00000000000E+00 0.  1.
</event>
<event>
 4    1  0.8322090E+003  0.5623195E+02  0.7546771E-02  0.1273202E+00
          2   -1    0    0  502    0  0.00000000000E+00  0.00000000000E+00  0.31636722982E+03  0.31636722982E+03  0.00000000000E+00 0. -1.
          1   -1    0    0  501    0 -0.00000000000E+00 -0.00000000000E+00 -0.32438031919E+03  0.32438031919E+03  0.00000000000E+00 0.  1.
          2    1    1    2  501    0 -0.48987552600E+02 -0.27608908164E+02  0.31139293006E+03  0.31642943764E+03  0.00000000000E+00 0. -1.
          1    1    1    2  502    0  0.48987552600E+02  0.27608908164E+02 -0.31940601942E+03  0.32431811137E+03  0.00000000000E+00 0.  1.
</event>
<event>
 4    1  0.8322090E+003  0.2973343E+02  0.7546771E-02  0.1421927E+00
          2   -1    0    0  502    0  0.00000000000E+00  0.00000000000E+00  0.11364547508E+04  0.11364547508E+04  0.00000000000E+00 0. -1.
          1   -1    0    0  501    0 -0.00000000000E+00 -0.00000000000E+00 -0.10822907966E+01  0.10822907966E+01  0.00000000000E+00 0. -1.
          2    1    1    2  501    0  0.22717527600E+02  0.19183066319E+02  0.26606508348E+03  0.26772131917E+03  0.00000000000E+00 0. -1.
          1    1    1    2  502    0 -0.22717527600E+02 -0.19183066319E+02  0.86930737649E+03  0.86981572239E+03  0.00000000000E+00 0. -1.
</event>
<event>
 4    1  0.8322090E+003  0.2096468E+02  0.7546771E-02  0.1519770E+00
          2   -1    0    0  502    0  0.00000000000E+00  0.00000000000E+00  0.10610667291E+04  0.10610667291E+04  0.00000000000E+00 0. -1.
          1   -1    0    0  501    0 -0.00000000000E+00 -0.00000000000E+00 -0.43037090252E+00  0.43037090252E+00  0.00000000000E+00 0. -1.
          2    1    1    2  501    0  0.19512218122E+02  0.76675210047E+01  0.42750840264E+03  0.42802213945E+03  0.00000000000E+00 0. -1.
          1    1    1    2  502    0 -0.19512218122E+02 -0.76675210047E+01  0.63312795556E+03  0.63347496055E+03  0.00000000000E+00 0. -1.
</event>
<event>
 4    1  0.8322090E+003  0.2096499E+02  0.7546771E-02  0.1519765E+00
          2   -1    0    0  502    0  0.00000000000E+00  0.00000000000E+00  0.76449137463E+01  0.76449137463E+01  0.00000000000E+00 0. -1.
          1   -1    0    0  501    0 -0.00000000000E+00 -0.00000000000E+00 -0.12968106372E+03  0.12968106372E+03  0.00000000000E+00 0.  1.
          2    1    1    2  501    0 -0.97576943402E-01  0.20964760118E+02 -0.97890059494E+01  0.23137746769E+02  0.00000000000E+00 0. -1.
          1    1    1    2  502    0  0.97576943402E-01 -0.20964760118E+02 -0.11224714403E+03  0.11418823070E+03  0.00000000000E+00 0.  1.
</event>
<event>
 4    1  0.8322090E+003  0.3396196E+02  0.7546771E-02  0.1388011E+00
          2   -1    0    0  502    0  0.00000000000E+00  0.00000000000E+00  0.16721297495E+03  0.16721297495E+03  0.00000000000E+00 0.  1.
          1   -1    0    0  501    0 -0.00000000000E+00 -0.00000000000E+00 -0.24978494598E+03  0.24978494598E+03  0.00000000000E+00 0.  1.
          2    1    1    2  501    0 -0.10403227498E+02 -0.32329362020E+02  0.16431394298E+03  0.16778702765E+03  0.00000000000E+00 0.  1.
          1    1    1    2  502    0  0.10403227498E+02  0.32329362020E+02 -0.24688591401E+03  0.24921089328E+03  0.00000000000E+00 0.  1.
</event>
<event>
 4    1  0.8322090E+003  0.3502089E+02  0.7546771E-02  0.1380416E+00
          2   -1    0    0  502    0  0.00000000000E+00  0.00000000000E+00  0.28683109198E+03  0.28683109198E+03  0.00000000000E+00 0. -1.
          1   -1    0    0  501    0 -0.00000000000E+00 -0.00000000000E+00 -0.53139842788E+01  0.53139842788E+01  0.00000000000E+00 0. -1.
          2    1    1    2  501    0  0.52188706605E+01 -0.34629847153E+02  0.20532002150E+03  0.20828531910E+03  0.00000000000E+00 0. -1.
          1    1    1    2  502    0 -0.52188706605E+01  0.34629847153E+02  0.76197086201E+02  0.83859757157E+02  0.00000000000E+00 0. -1.
</event>
<event>
 4    1  0.8322090E+003  0.2028018E+02  0.7546771E-02  0.1529795E+00
          2   -1    0    0  502    0  0.00000000000E+00  0.00000000000E+00  0.91959120224E+03  0.91959120224E+03  0.00000000000E+00 0. -1.
          1   -1    0    0  501    0 -0.00000000000E+00 -0.00000000000E+00 -0.12100744241E+02  0.12100744241E+02  0.00000000000E+00 0.  1.
          2    1    1    2  501    0  0.17934359854E+02  0.94680652039E+01  0.91090122586E+03  0.91112695537E+03  0.00000000000E+00 0. -1.
          1    1    1    2  502    0 -0.17934359854E+02 -0.94680652039E+01 -0.34107678627E+01  0.20564991114E+02  0.00000000000E+00 0.  1.
</event>
<event>
 4    1  0.8322090E+003  0.3021402E+02  0.7546771E-02  0.1417745E+00
          2   -1    0    0  502    0  0.00000000000E+00  0.00000000000E+00  0.11858388499E+03  0.11858388499E+03  0.00000000000E+00 0. -1.
          1   -1    0    0  501    0 -0.00000000000E+00 -0.00000000000E+00 -0.11585348826E+02  0.11585348826E+02  0.00000000000E+00 0. -1.
          2    1    1    2  501    0  0.29440952170E+02 -0.67909757411E+01  0.91198910872E+02  0.96073557031E+02  0.00000000000E+00 0. -1.
          1    1    1    2  502    0 -0.29440952170E+02  0.67909757411E+01  0.15799625296E+02  0.34095676789E+02  0.00000000000E+00 0. -1.
</event>
<event>
 4    1  0.8322090E+003  0.3435213E+02  0.7546771E-02  0.1385176E+00
          2   -1    0    0  502    0  0.00000000000E+00  0.00000000000E+00  0.56865936241E+02  0.56865936241E+02  0.00000000000E+00 0.  1.
          1   -1    0    0  501    0 -0.00000000000E+00 -0.00000000000E+00 -0.59238829901E+03  0.59238829901E+03  0.00000000000E+00 0.  1.
          2    1    1    2  501    0 -0.33115995094E+02  0.91323604331E+01  0.51129291501E+02  0.61597675179E+02  0.00000000000E+00 0.  1.
          1    1    1    2  502    0  0.33115995094E+02 -0.91323604331E+01 -0.58665165427E+03  0.58765656007E+03  0.00000000000E+00 0.  1.
</event>
<event>
 4    1  0.8322090E+003  0.3689954E+02  0.7546771E-02  0.1367679E+00
          2   -1    0    0  502    0  0.00000000000E+00  0.00000000000E+00  0.39433647575E+03  0.39433647575E+03  0.00000000000E+00 0. -1.
          1   -1    0    0  501    0 -0.00000000000E+00 -0.00000000000E+00 -0.21868415830E+04  0.21868415830E+04  0.00000000000E+00 0.  1.
          2    1    1    2  501    0  0.34875278940E+02 -0.12053665207E+02  0.39331721079E+03  0.39504430667E+03  0.00000000000E+00 0. -1.
          1    1    1    2  502    0 -0.34875278940E+02  0.12053665207E+02 -0.21858223181E+04  0.21861337521E+04  0.00000000000E+00 0.  1.
</event>
<event>
 4    1  0.8322090E+003  0.2024199E+02  0.7546771E-02  0.1530368E+00
          2   -1    0    0  502    0  0.00000000000E+00  0.00000000000E+00  0.96528837988E+01  0.96528837988E+01  0.00000000000E+00 0.  1.
          1   -1    0    0  501    0 -0.00000000000E+00 -0.00000000000E+00 -0.13551974740E+03  0.13551974740E+03  0.00000000000E+00 0.  1.
          2    1    1    2  501    0  0.92301931307E+01 -0.18015044634E+02 -0.27794801544E+01  0.20431931096E+02  0.00000000000E+00 0.  1.
          1    1    1    2  502    0 -0.92301931307E+01  0.18015044634E+02 -0.12308738345E+03  0.12474070011E+03  0.00000000000E+00 0.  1.
</event>
<event>
 4    1  0.8322090E+003  0.2498730E+02  0.7546771E-02  0.1468945E+00
          2   -1    0    0  502    0  0.00000000000E+00  0.00000000000E+00  0.71571794496E+03  0.71571794496E+03  0.00000000000E+00 0. -1.
          1   -1    0    0  501    0 -0.00000000000E+00 -0.00000000000E+00 -0.87887680898E+00  0.87887680898E+00  0.00000000000E+00 0.  1.
          2    1    1    2  501    0 -0.24942609872E+02  0.14938527297E+01  0.38826705724E+03  0.38907026758E+03  0.00000000000E+00 0. -1.
          1    1    1    2  502    0  0.24942609872E+02 -0.14938527297E+01  0.32657201091E+03  0.32752655418E+03  0.00000000000E+00 0.  1.
</event>
<event>
 4    1  0.8322090E+003  0.3052746E+02  0.7546771E-02  0.1415067E+00
          2   -1    0    0  502    0  0.00000000000E+00  0.00000000000E+00  0.52259888773E+03  0.52259888773E+03  0.00000000000E+00 0. -1.
          1   -1    0    0  501    0 -0.00000000000E+00 -0.00000000000E+00 -0.58734136243E+01  0.58734136243E+01  0.00000000000E+00 0.  1.
          2    1    1    2  501    0 -0.18634353223E+02  0.24180296036E+02  0.47886707756E+03  0.47983914367E+03  0.00000000000E+00 0. -1.
          1    1    1    2  502    0  0.18634353223E+02 -0.24180296036E+02  0.37858396546E+02  0.48633157675E+02  0.00000000000E+00 0.  1.
</event>
<event>
 4    1  0.8322090E+003  0.2092317E+02  0.7546771E-02  0.1520365E+00
          2   -1    0    0  502    0  0.00000000000E+00  0.00000000000E+00  0.24301720698E+02  0.24301720698E+02  0.00000000000E+00 0. -1.
          1   -1    0    0  501    0 -0.00000000000E+00 -0.00000000000E+00 -0.51131137876E+03  0.51131137876E+03  0.00000000000E+00 0.  1.
          2    1    1    2  501    0  0.12162841433E+02  0.17024812477E+02  0.19541792888E+02  0.28629715696E+02  0.00000000000E+00 0. -1.
          1    1    1    2  502    0 -0.12162841433E+02 -0.17024812477E+02 -0.50655145095E+03  0.50698338377E+03  0.00000000000E+00 0.  1.
</event>
<event>
 4    1  0.8322090E+003  0.2652789E+02  0.7546771E-02  0.1452409E+00
          2   -1    0    0  502    0  0.00000000000E+00  0.00000000000E+00  0.41460788286E+03  0.41460788286E+03  0.00000000000E+00 0.  1.
          1   -1    0    0  501    0 -0.00000000000E+00 -0.00000000000E+00 -0.40614884620E+01  0.40614884620E+01  0.00000000000E+00 0. -1.
          2    1    1    2  501    0  0.20294696105E+02 -0.17083744224E+02  0.36498473673E+03  0.36594751953E+03  0.00000000000E+00 0.  1.
          1    1    1    2  502    0 -0.20294696105E+02  0.17083744224E+02  0.45561657675E+02  0.52721851796E+02  0.00000000000E+00 0. -1.
</event>
<event>
 4    1  0.8322090E+003  0.2681143E+02  0.7546771E-02  0.1449512E+00
          2   -1    0    0  502    0  0.00000000000E+00  0.00000000000E+00  0.13631416827E+04  0.13631416827E+04  0.00000000000E+00 0. -1.
          1   -1    0    0  501    0 -0.00000000000E+00 -0.00000000000E+00 -0.38351060419E+01  0.38351060419E+01  0.00000000000E+00 0.  1.
          2    1    1    2  501    0 -0.95738741606E+01  0.25043832470E+02  0.13144127738E+04  0.13146861954E+04  0.00000000000E+00 0. -1.
          1    1    1    2  502    0  0.95738741606E+01 -0.25043832470E+02  0.44893802913E+02  0.52290593335E+02  0.00000000000E+00 0.  1.
</event>
<event>
 4    1  0.8322090E+003  0.2820098E+02  0.7546771E-02  0.1435903E+00
          2   -1    0    0  502    0  0.00000000000E+00  0.00000000000E+00  0.35472363091E+02  0.35472363091E+02  0.00000000000E+00 0.  1.
          1   -1    0    0  501    0 -0.00000000000E+00 -0.00000000000E+00 -0.75720509671E+02  0.75720509671E+02  0.00000000000E+00 0.  1.
          2    1    1    2  501    0 -0.21764938017E+02 -0.17932728207E+02  0.26520949589E+02  0.38712479060E+02  0.00000000000E+00 0.  1.
          1    1    1    2  502    0  0.21764938017E+02  0.17932728207E+02 -0.66769096170E+02  0.72480393702E+02  0.00000000000E+00 0.  1.
</event>
<event>
 4    1  0.8322090E+003  0.3956551E+02  0.7546771E-02  0.1351051E+00
          2   -1    0    0  502    0  0.00000000000E+00  0.00000000000E+00  0.13777150208E+04  0.13777150208E+04  0.00000000000E+00 0. -1.
          1   -1    0    0  501    0 -0.00000000000E+00 -0.00000000000E+00 -0.27006970531E+02  0.27006970531E+02  0.00000000000E+00 0. -1.
          2    1    1    2  501    0  0.21758284313E+02 -0.33045529103E+02  0.13627812141E+04  0.13633554443E+04  0.00000000000E+00 0. -1.
          1    1    1    2  502    0 -0.21758284313E+02  0.33045529103E+02 -0.12073163836E+02  0.41366547051E+02  0.00000000000E+00 0. -1.
</event>
<event>
 4    1  0.8322090E+003  0.3193467E+02  0.7546771E-02  0.1403497E+00
          2   -1    0    0  502    0  0.00000000000E+00  0.00000000000E+00  0.31541089019E+03  0.31541089019E+03  0.00000000000E+00 0. -1.
          1   -1    0    0  501    0 -0.00000000000E+00 -0.00000000000E+00 -0.36413341185E+01  0.36413341185E+01  0.00000000000E+00 0. -1.
          2    1    1    2  501    0  0.26714080702E+02  0.17498027000E+02  0.20928478037E+03  0.21170720902E+03  0.00000000000E+00 0. -1.
          1    1    1    2  502    0 -0.26714080702E+02 -0.17498027000E+02  0.10248477570E+03  0.10734501529E+03  0.00000000000E+00 0. -1.
</event>
<event>
 4    1  0.8322090E+003  0.2129911E+02  0.7546771E-02  0.1515037E+00
          2   -1    0    0  502    0  0.00000000000E+00  0.00000000000E+00  0.18663630373E+04  0.18663630373E+04  0.00000000000E+00 0. -1.
          1   -1    0    0  501    0 -0.00000000000E+00 -0.00000000000E+00 -0.24316802599E+00  0.24316802599E+00  0.00000000000E+00 0.  1.
          2    1    1    2  501    0  0.20989373723E+02  0.36191805044E+01  0.95203210196E+03  0.95227032687E+03  0.00000000000E+00 0. -1.
          1    1    1    2  502    0 -0.20989373723E+02 -0.36191805044E+01  0.91408776734E+03  0.91433587849E+03  0.00000000000E+00 0.  1.
</event>
<event>
 4    1  0.8322090E+003  0.2006537E+02  0.7546771E-02  0.1533039E+00
          2   -1    0    0  502    0  0.00000000000E+00  0.00000000000E+00  0.73330851531E+03  0.73330851531E+03  0.00000000000E+00 0. -1.
          1   -1    0    0  501    0 -0.00000000000E+00 -0.00000000000E+00 -0.56021520412E+00  0.56021520412E+00  0.00000000000E+00 0. -1.
          2    1    1    2  501    0 -0.49463139927E+01 -0.19446155605E+02  0.41818869302E+03  0.41866980063E+03  0.00000000000E+00 0. -1.
          1    1    1    2  502    0  0.49463139927E+01  0.19446155605E+02  0.31455960708E+03  0.31519892988E+03  0.00000000000E+00 0. -1.
</event>
<event>
 4    1  0.8322090E+003  0.3200018E+02  0.7546771E-02  0.1402976E+00
          2   -1    0    0  502    0  0.00000000000E+00  0.00000000000E+00  0.10433839820E+02  0.10433839820E+02  0.00000000000E+00 0.  1.
          1   -1    0    0  501    0 -0.00000000000E+00 -0.00000000000E+00 -0.15441133345E+03  0.15441133345E+03  0.00000000000E+00 0.  1.
          2    1    1    2  501    0 -0.21618674399E+02 -0.23593309978E+02 -0.22233651413E+02  0.38965967377E+02  0.00000000000E+00 0.  1.
          1    1    1    2  502    0  0.21618674399E+02  0.23593309978E+02 -0.12174384222E+03  0.12587920590E+03  0.00000000000E+00 0.  1.
</event>
<event>
 4    1  0.8322090E+003  0.2451475E+02  0.7546771E-02  0.1474306E+00
          2   -1    0    0  502    0  0.00000000000E+00  0.00000000000E+00  0.15721919325E+04  0.15721919325E+04  0.00000000000E+00 0. -1.
          1   -1    0    0  501    0 -0.00000000000E+00 -0.00000000000E+00 -0.39066743959E+00  0.39066743959E+00  0.00000000000E+00 0. -1.
          2    1    1    2  501    0  0.10931015949E+02 -0.21942782429E+02  0.90130699603E+03  0.90164032403E+03  0.00000000000E+00 0. -1.
          1    1    1    2  502    0 -0.10931015949E+02  0.21942782429E+02  0.67049426899E+03  0.67094227587E+03  0.00000000000E+00 0. -1.
</event>
<event>
 4    1  0.8322090E+003  0.2148051E+02  0.7546771E-02  0.1512514E+00
          2   -1    0    0  502    0  0.00000000000E+00  0.00000000000E+00  0.17630643390E+02  0.17630643390E+02  0.00000000000E+00 0. -1.
          1   -1    0    0  501    0 -0.00000000000E+00 -0.00000000000E+00 -0.26171068258E+02  0.26171068258E+02  0.00000000000E+00 0. -1.
          2    1    1    2  501    0 -0.11240511935E+02 -0.18304717843E+02 -0.43019296617E+01  0.21907040026E+02  0.00000000000E+00 0. -1.
          1    1    1    2  502    0  0.11240511935E+02  0.18304717843E+02 -0.42384952064E+01  0.21894671623E+02  0.00000000000E+00 0. -1.
</event>
<event>
 4    1  0.8322090E+003  0.2988655E+02  0.7546771E-02  0.1420585E+00
          2   -1    0    0  502    0  0.00000000000E+00  0.00000000000E+00  0.11330731969E+03  0.11330731969E+03  0.00000000000E+00 0.  1.
          1   -1    0    0  501    0 -0.00000000000E+00 -0.00000000000E+00 -0.10551981105E+02  0.10551981105E+02  0.00000000000E+00 0.  1.
          2    1    1    2  501    0  0.21733357278E+02  0.20515040645E+02  0.82523607968E+02  0.87768739214E+02  0.00000000000E+00 0.  1.
          1    1    1    2  502    0 -0.21733357278E+02 -0.20515040645E+02  0.20231730613E+02  0.36090561576E+02  0.00000000000E+00 0.  1.
</event>
<event>
 4    1  0.8322090E+003  0.2397146E+02  0.7546771E-02  0.1480647E+00
          2   -1    0    0  502    0  0.00000000000E+00  0.00000000000E+00  0.41625898507E+02  0.41625898507E+02  0.00000000000E+00 0. -1.
          1   -1    0    0  501    0 -0.00000000000E+00 -0.00000000000E+00 -0.22799067468E+02  0.22799067468E+02  0.00000000000E+00 0. -1.
          2    1    1    2  501    0 -0.55902824028E+01  0.23310496394E+02 -0.10819219527E+02  0.26299924157E+02  0.00000000000E+00 0. -1.
          1    1    1    2  502    0  0.55902824028E+01 -0.23310496394E+02  0.29646050566E+02  0.38125041818E+02  0.00000000000E+00 0. -1.
</event>
<event>
 4    1  0.8322090E+003  0.2333056E+02  0.7546771E-02  0.1488388E+00
          2   -1    0    0  502    0  0.00000000000E+00  0.00000000000E+00  0.19159052258E+01  0.19159052258E+01  0.00000000000E+00 0. -1.
          1   -1    0    0  501    0 -0.00000000000E+00 -0.00000000000E+00 -0.10804451505E+04  0.10804451505E+04  0.00000000000E+00 0. -1.
          2    1    1    2  501    0  0.14736222593E+02 -0.18087532049E+02 -0.74652476679E+02  0.78213217209E+02  0.00000000000E+00 0. -1.
          1    1    1    2  502    0 -0.14736222593E+02  0.18087532049E+02 -0.10038767686E+04  0.10041478385E+04  0.00000000000E+00 0. -1.
</event>
<event>
 4    1  0.8322090E+003  0.2517685E+02  0.7546771E-02  0.1466835E+00
          2   -1    0    0  502    0  0.00000000000E+00  0.00000000000E+00  0.23717622242E+02  0.23717622242E+02  0.00000000000E+00 0.  1.
          1   -1    0    0  501    0 -0.00000000000E+00 -0.00000000000E+00 -0.88375174105E+03  0.88375174105E+03  0.00000000000E+00 0. -1.
          2    1    1    2  501    0  0.11455643679E+02 -0.22419677121E+02  0.16804176366E+02  0.30269688430E+02  0.00000000000E+00 0.  1.
          1    1    1    2  502    0 -0.11455643679E+02  0.22419677121E+02 -0.87683829518E+03  0.87719967487E+03  0.00000000000E+00 0. -1.
</event>
<event>
 4    1  0.8322090E+003  0.3651389E+02  0.7546771E-02  0.1370221E+00
          2   -1    0    0  502    0  0.00000000000E+00  0.00000000000E+00  0.17800751058E+02  0.17800751058E+02  0.00000000000E+00 0. -1.
          1   -1    0    0  501    0 -0.00000000000E+00 -0.00000000000E+00 -0.13290762168E+04  0.13290762168E+04  0.00000000000E+00 0. -1.
          2    1    1    2  501    0 -0.24225328697E+02  0.27320282464E+02 -0.14500192614E+01  0.36542672867E+02  0.00000000000E+00 0. -1.
          1    1    1    2  502    0  0.24225328697E+02 -0.27320282464E+02 -0.13098254465E+04  0.13103342950E+04  0.00000000000E+00 0. -1.
</event>
<event>
 4    1  0.8322090E+003  0.2447836E+02  0.7546771E-02  0.1474724E+00
          2   -1    0    0  502    0  0.00000000000E+00  0.00000000000E+00  0.10095546351E+02  0.10095546351E+02  0.00000000000E+00 0. -1.
          1   -1    0    0  501    0 -0.00000000000E+00 -0.00000000000E+00 -0.60245402593E+03  0.60245402593E+03  0.00000000000E+00 0.  1.
          2    1    1    2  501    0  0.20065646351E+02  0.14019982742E+02 -0.53821657252E+01  0.25063076177E+02  0.00000000000E+00 0. -1.
          1    1    1    2  502    0 -0.20065646351E+02 -0.14019982742E+02 -0.58697631385E+03  0.58748649610E+03  0.00000000000E+00 0.  1.
</event>
<event>
 4    1  0.8322090E+003  0.2303422E+02  0.7546771E-02  0.1492069E+00
          2   -1    0    0  502    0  0.00000000000E+00  0.00000000000E+00  0.15487482960E+01  0.15487482960E+01  0.00000000000E+00 0. -1.
          1   -1    0    0  501    0 -0.00000000000E+00 -0.00000000000E+00 -0.34660507201E+03  0.34660507201E+03  0.00000000000E+00 0. -1.
          2    1    1    2  501    0 -0.15038044622E+02 -0.17447973352E+02 -0.19128062414E+03  0.19266253328E+03  0.00000000000E+00 0. -1.
          1    1    1    2  502    0  0.15038044622E+02  0.17447973352E+02 -0.15377569957E+03  0.15549128702E+03  0.00000000000E+00 0. -1.
</event>
<event>
 4    1  0.8322090E+003  0.2686253E+02  0.7546771E-02  0.1448994E+00
          2   -1    0    0  502    0  0.00000000000E+00  0.00000000000E+00  0.29637101011E+03  0.29637101011E+03  0.00000000000E+00 0. -1.
          1   -1    0    0  501    0 -0.00000000000E+00 -0.00000000000E+00 -0.65091022888E+01  0.65091022888E+01  0.00000000000E+00 0.  1.
          2    1    1    2  501    0 -0.24115021531E+02  0.11834749939E+02  0.26474517763E+03  0.26610449949E+03  0.00000000000E+00 0. -1.
          1    1    1    2  502    0  0.24115021531E+02 -0.11834749939E+02  0.25116730195E+02  0.36775612915E+02  0.00000000000E+00 0.  1.
</event>
<event>
 4    1  0.8322090E+003  0.2306943E+02  0.7546771E-02  0.1491628E+00
          2   -1    0    0  502    0  0.00000000000E+00  0.00000000000E+00  0.55886439249E+02  0.55886439249E+02  0.00000000000E+00 0.  1.
          1   -1    0    0  501    0 -0.00000000000E+00 -0.00000000000E+00 -0.48465610108E+02  0.48465610108E+02  0.00000000000E+00 0.  1.
          2    1    1    2  501    0  0.15661474700E+02 -0.16938617908E+02  0.50480425423E+02  0.55501999219E+02  0.00000000000E+00 0.  1.
          1    1    1    2  502    0 -0.15661474700E+02  0.16938617908E+02 -0.43059596283E+02  0.48850050138E+02  0.00000000000E+00 0.  1.
</event>
<event>
 4    1  0.8322090E+003  0.3002164E+02  0.7546771E-02  0.1419409E+00
          2   -1    0    0  502    0  0.00000000000E+00  0.00000000000E+00  0.31224845659E+01  0.31224845659E+01  0.00000000000E+00 0.  1.
          1   -1    0    0  501    0 -0.00000000000E+00 -0.00000000000E+00 -0.18637888543E+04  0.18637888543E+04  0.00000000000E+00 0.  1.
          2    1    1    2  501    0 -0.19089110241E+02  0.23171209139E+02 -0.72199332893E+02  0.78192344465E+02  0.00000000000E+00 0.  1.
          1    1    1    2  502    0  0.19089110241E+02 -0.23171209139E+02 -0.17884670368E+04  0.17887189944E+04  0.00000000000E+00 0.  1.
</event>
<event>
 4    1  0.8322090E+003  0.2879729E+02  0.7546771E-02  0.1430344E+00
          2   -1    0    0  502    0  0.00000000000E+00  0.00000000000E+00  0.14506361201E+03  0.14506361201E+03  0.00000000000E+00 0. -1.
          1   -1    0    0  501    0 -0.00000000000E+00 -0.00000000000E+00 -0.22427807354E+02  0.22427807354E+02  0.00000000000E+00 0.  1.
          2    1    1    2  501    0  0.26557925770E+02 -0.11133763555E+02  0.13360684396E+03  0.13667506307E+03  0.00000000000E+00 0. -1.
          1    1    1    2  502    0 -0.26557925770E+02  0.11133763555E+02 -0.10971039301E+02  0.30816356298E+02  0.00000000000E+00 0.  1.
</event>
<event>
 4    1  0.8322090E+003  0.2089773E+02  0.7546771E-02  0.1520730E+00
          2   -1    0    0  502    0  0.00000000000E+00  0.00000000000E+00  0.53561720284E+02  0.53561720284E+02  0.00000000000E+00 0.  1.
          1   -1    0    0  501    0 -0.00000000000E+00 -0.00000000000E+00 -0.25201589560E+03  0.25201589560E+03  0.00000000000E+00 0.  1.
          2    1    1    2  501    0  0.56572698452E+01  0.20117415009E+02  0.51069804363E+02  0.55180068923E+02  0.00000000000E+00 0.  1.
          1    1    1    2  502    0 -0.56572698452E+01 -0.20117415009E+02 -0.24952397967E+03  0.25039754696E+03  0.00000000000E+00 0.  1.
</event>
<event>
 4    1  0.1300101E+004  0.2062813E+02  0.7546771E-02  0.1524641E+00
          2   -1    0    0  502    0  0.00000000000E+00  0.00000000000E+00  0.75762025461E+03  0.75762025461E+03  0.00000000000E+00 0.  1.
          1   -1    0    0  501    0 -0.00000000000E+00 -0.00000000000E+00 -0.57996880676E+03  0.57996880676E+03  0.00000000000E+00 0. -1.
          2    1    1    2  501    0  0.17573917356E+02  0.10801728197E+02  0.75729633923E+03  0.75757723389E+03  0.00000000000E+00 0.  1.
          1    1    1    2  502    0 -0.17573917356E+02 -0.10801728197E+02 -0.57964489138E+03  0.58001182747E+03  0.00000000000E+00 0. -1.
</event>
<event>
 4    1  0.8322090E+003  0.2654067E+02  0.7546771E-02  0.1452277E+00
          2   -1    0    0  502    0  0.00000000000E+00  0.00000000000E+00  0.10229088322E+03  0.10229088322E+03  0.00000000000E+00 0. -1.
          1   -1    0    0  501    0 -0.00000000000E+00 -0.00000000000E+00 -0.27056517678E+02  0.27056517678E+02  0.00000000000E+00 0.  1.
          2    1    1    2  501    0  0.19428369590E+02 -0.18081644522E+02  0.93457371071E+02  0.97152908453E+02  0.00000000000E+00 0. -1.
          1    1    1    2  502    0 -0.19428369590E+02  0.18081644522E+02 -0.18223005526E+02  0.32194492447E+02  0.00000000000E+00 0.  1.
</event>
<event>
 4    1  0.8322090E+003  0.2678578E+02  0.7546771E-02  0.1449772E+00
          2   -1    0    0  502    0  0.00000000000E+00  0.00000000000E+00  0.75780801856E+02  0.75780801856E+02  0.00000000000E+00 0.  1.
          1   -1    0    0  501    0 -0.00000000000E+00 -0.00000000000E+00 -0.96489295980E+01  0.96489295980E+01  0.00000000000E+00 0.  1.
          2    1    1    2  501    0  0.25669767650E+02  0.76512102077E+01  0.38918229273E+02  0.47245174977E+02  0.00000000000E+00 0.  1.
          1    1    1    2  502    0 -0.25669767650E+02 -0.76512102077E+01  0.27213642985E+02  0.38184556477E+02  0.00000000000E+00 0.  1.
</event>
<event>
 4    1  0.8322090E+003  0.2908775E+02  0.7546771E-02  0.1427693E+00
          2   -1    0    0  502    0  0.00000000000E+00  0.00000000000E+00  0.61888680153E+02  0.61888680153E+02  0.00000000000E+00 0.  1.
          1   -1    0    0  501    0 -0.00000000000E+00 -0.00000000000E+00 -0.11407590682E+03  0.11407590682E+03  0.00000000000E+00 0. -1.
          2    1    1    2  501    0  0.27349667663E+02 -0.99041917355E+01  0.56448423594E+02  0.63502140605E+02  0.00000000000E+00 0.  1.
          1    1    1    2  502    0 -0.27349667663E+02  0.99041917355E+01 -0.10863565027E+03  0.11246244637E+03  0.00000000000E+00 0. -1.
</event>
<event>
 4    1  0.8322090E+003  0.2358707E+02  0.7546771E-02  0.1485255E+00
          2   -1    0    0  502    0  0.00000000000E+00  0.00000000000E+00  0.41848554141E+01  0.41848554141E+01  0.00000000000E+00 0.  1.
          1   -1    0    0  501    0 -0.00000000000E+00 -0.00000000000E+00 -0.10843900442E+04  0.10843900442E+04  0.00000000000E+00 0. -1.
          2    1    1    2  501    0 -0.85031859260E+01 -0.22001039530E+02 -0.30269850833E+02  0.38374650236E+02  0.00000000000E+00 0.  1.
          1    1    1    2  502    0  0.85031859260E+01  0.22001039530E+02 -0.10499353380E+04  0.10502002494E+04  0.00000000000E+00 0. -1.
</event>
<event>
 4    1  0.8322090E+003  0.3105663E+02  0.7546771E-02  0.1410631E+00
          2   -1    0    0  502    0  0.00000000000E+00  0.00000000000E+00  0.16996460969E+04  0.16996460969E+04  0.00000000000E+00 0.  1.
          1   -1    0    0  501    0 -0.00000000000E+00 -0.00000000000E+00 -0.19492839050E+02  0.19492839050E+02  0.00000000000E+00 0.  1.
          2    1    1    2  501    0  0.30964051382E+02  0.23962195145E+01  0.16870417028E+04  0.16873275383E+04  0.00000000000E+00 0.  1.
          1    1    1    2  502    0 -0.30964051382E+02 -0.23962195145E+01 -0.68884450006E+01  0.31811397651E+02  0.00000000000E+00 0.  1.
</event>
<event>
 4    1  0.8322090E+003  0.4005761E+02  0.7546771E-02  0.1348149E+00
          2   -1    0    0  502    0  0.00000000000E+00  0.00000000000E+00  0.85311608628E+02  0.85311608628E+02  0.00000000000E+00 0. -1.
          1   -1    0    0  501    0 -0.00000000000E+00 -0.00000000000E+00 -0.98637074668E+02  0.98637074668E+02  0.00000000000E+00 0. -1.
          2    1    1    2  501    0 -0.37210134624E+02  0.14832994609E+02  0.76079050153E+02  0.85980426377E+02  0.00000000000E+00 0. -1.
          1    1    1    2  502    0  0.37210134624E+02 -0.14832994609E+02 -0.89404516193E+02  0.97968256918E+02  0.00000000000E+00 0. -1.
</event>
<event>
 4    1  0.8322090E+003  0.2331328E+02  0.7546771E-02  0.1488601E+00
          2   -1    0    0  502    0  0.00000000000E+00  0.00000000000E+00  0.25250580034E+02  0.25250580034E+02  0.00000000000E+00 0. -1.
          1   -1    0    0  501    0 -0.00000000000E+00 -0.00000000000E+00 -0.59268580133E+02  0.59268580133E+02  0.00000000000E+00 0. -1.
          2    1    1    2  501    0 -0.22575562069E+02  0.58183219779E+01  0.16714815780E+02  0.28686128005E+02  0.00000000000E+00 0. -1.
          1    1    1    2  502    0  0.22575562069E+02 -0.58183219779E+01 -0.50732815879E+02  0.55833032161E+02  0.00000000000E+00 0. -1.
</event>
<event>
 4    1  0.8322090E+003  0.2526905E+02  0.7546771E-02  0.1465816E+00
          2   -1    0    0  502    0  0.00000000000E+00  0.00000000000E+00  0.17429379497E+02  0.17429379497E+02  0.00000000000E+00 0.  1.
          1   -1    0    0  501    0 -0.00000000000E+00 -0.00000000000E+00 -0.20063431764E+03  0.20063431764E+03  0.00000000000E+00 0.  1.
          2    1    1    2  501    0 -0.54324910767E+01  0.24678183334E+02  0.69736767304E+01  0.26213676947E+02  0.00000000000E+00 0.  1.
          1    1    1    2  502    0  0.54324910767E+01 -0.24678183334E+02 -0.19017861488E+03  0.19185002019E+03  0.00000000000E+00 0.  1.
</event>
<event>
 4    1  0.8322090E+003  0.2553867E+02  0.7546771E-02  0.1462867E+00
          2   -1    0    0  502    0  0.00000000000E+00  0.00000000000E+00  0.80813733005E+00  0.80813733005E+00  0.00000000000E+00 0. -1.
          1   -1    0    0  501    0 -0.00000000000E+00 -0.00000000000E+00 -0.14503044857E+04  0.14503044857E+04  0.00000000000E+00 0. -1.
          2    1    1    2  501    0  0.14977237129E+02 -0.20685885825E+02 -0.24154904425E+03  0.24289537724E+03  0.00000000000E+00 0. -1.
          1    1    1    2  502    0 -0.14977237129E+02  0.20685885825E+02 -0.12079473041E+04  0.12082172458E+04  0.00000000000E+00 0. -1.
</event>
<event>
 4    1  0.8322090E+003  0.3498365E+02  0.7546771E-02  0.1380678E+00
          2   -1    0    0  502    0  0.00000000000E+00  0.00000000000E+00  0.12202487923E+04  0.12202487923E+04  0.00000000000E+00 0. -1.
          1   -1    0    0  501    0 -0.00000000000E+00 -0.00000000000E+00 -0.12065191012E+01  0.12065191012E+01  0.00000000000E+00 0. -1.
          2    1    1    2  501    0  0.25992444215E+02  0.23414703074E+02  0.86038051382E+03  0.86109144929E+03  0.00000000000E+00 0. -1.
          1    1    1    2  502    0 -0.25992444215E+02 -0.23414703074E+02  0.35866175940E+03  0.36036386213E+03  0.00000000000E+00 0. -1.
</event>
<event>
 4    1  0.8322090E+003  0.2105749E+02  0.7546771E-02  0.1518446E+00
          2   -1    0    0  502    0  0.00000000000E+00  0.00000000000E+00  0.26655934048E+02  0.26655934048E+02  0.00000000000E+00 0. -1.
          1   -1    0    0  501    0 -0.00000000000E+00 -0.00000000000E+00 -0.25731020484E+02  0.25731020484E+02  0.00000000000E+00 0.  1.
          2    1    1    2  501    0  0.32928585887E+00  0.21054915072E+02  0.16036220324E+02  0.26468438566E+02  0.00000000000E+00 0. -1.
          1    1    1    2  502    0 -0.32928585887E+00 -0.21054915072E+02 -0.15111306760E+02  0.25918515966E+02  0.00000000000E+00 0.  1.
</event>
<event>
 4    1  0.8322090E+003  0.2194758E+02  0.7546771E-02  0.1506154E+00
          2   -1    0    0  502    0  0.00000000000E+00  0.00000000000E+00  0.12960524871E+04  0.12960524871E+04  0.00000000000E+00 0. -1.
          1   -1    0    0  501    0 -0.00000000000E+00 -0.00000000000E+00 -0.62057136460E+00  0.62057136460E+00  0.00000000000E+00 0. -1.
          2    1    1    2  501    0 -0.11936157927E+02  0.18418039836E+02  0.10583202598E+04  0.10585478111E+04  0.00000000000E+00 0. -1.
          1    1    1    2  502    0  0.11936157927E+02 -0.18418039836E+02  0.23711165596E+03  0.23812524740E+03  0.00000000000E+00 0. -1.
</event>
<event>
 4    1  0.8322090E+003  0.7533222E+02  0.7546771E-02  0.1215119E+00
          2   -1    0    0  502    0  0.00000000000E+00  0.00000000000E+00  0.17226438817E+03  0.17226438817E+03  0.00000000000E+00 0.  1.
          1   -1    0    0  501    0 -0.00000000000E+00 -0.00000000000E+00 -0.34113692217E+02  0.34113692217E+02  0.00000000000E+00 0.  1.
          2    1    1    2  501    0  0.58664179132E+02 -0.47259472321E+02  0.88189268015E+02  0.11598401024E+03  0.00000000000E+00 0.  1.
          1    1    1    2  502    0 -0.58664179132E+02  0.47259472321E+02  0.49961427943E+02  0.90394070156E+02  0.00000000000E+00 0.  1.
</event>
<event>
 4    1  0.8322090E+003  0.6458767E+02  0.7546771E-02  0.1244994E+00
          2   -1    0    0  502    0  0.00000000000E+00  0.00000000000E+00  0.27520377056E+03  0.27520377056E+03  0.00000000000E+00 0.  1.
          1   -1    0    0  501    0 -0.00000000000E+00 -0.00000000000E+00 -0.57573250353E+03  0.57573250353E+03  0.00000000000E+00 0. -1.
          2    1    1    2  501    0 -0.50507046113E+02 -0.40256742528E+02  0.26956546830E+03  0.27719507342E+03  0.00000000000E+00 0.  1.
          1    1    1    2  502    0  0.50507046113E+02  0.40256742528E+02 -0.57009420127E+03  0.57374120067E+03  0.00000000000E+00 0. -1.
</event>
<event>
 4    1  0.8322090E+003  0.2657472E+02  0.7546771E-02  0.1451928E+00
          2   -1    0    0  502    0  0.00000000000E+00  0.00000000000E+00  0.73226841876E+02  0.73226841876E+02  0.00000000000E+00 0. -1.
          1   -1    0    0  501    0 -0.00000000000E+00 -0.00000000000E+00 -0.11243574937E+03  0.11243574937E+03  0.00000000000E+00 0.  1.
          2    1    1    2  501    0  0.12218896967E+02 -0.23599032589E+02  0.69156276390E+02  0.74086478836E+02  0.00000000000E+00 0. -1.
          1    1    1    2  502    0 -0.12218896967E+02  0.23599032589E+02 -0.10836518389E+03  0.11157611241E+03  0.00000000000E+00 0.  1.
</event>
<event>
 4    1  0.8322090E+003  0.2399508E+02  0.7546771E-02  0.1480367E+00
          2   -1    0    0  502    0  0.00000000000E+00  0.00000000000E+00  0.30189307570E+03  0.30189307570E+03  0.00000000000E+00 0.  1.
          1   -1    0    0  501    0 -0.00000000000E+00 -0.00000000000E+00 -0.18159885840E+02  0.18159885840E+02  0.00000000000E+00 0. -1.
          2    1    1    2  501    0 -0.14995237522E+01 -0.23948174530E+02  0.29325693708E+03  0.29423697046E+03  0.00000000000E+00 0.  1.
          1    1    1    2  502    0  0.14995237522E+01  0.23948174530E+02 -0.95237472198E+01  0.25815991089E+02  0.00000000000E+00 0. -1.
</event>
<event>
 4    1  0.8322090E+003  0.3708124E+02  0.7546771E-02  0.1366494E+00
          2   -1    0    0  502    0  0.00000000000E+00  0.00000000000E+00  0.37326043742E+02  0.37326043742E+02  0.00000000000E+00 0.  1.
          1   -1    0    0  501    0 -0.00000000000E+00 -0.00000000000E+00 -0.92064460584E+02  0.92064460584E+02  0.00000000000E+00 0.  1.
          2    1    1    2  501    0  0.25453407006E+02 -0.26965581148E+02  0.22737956413E+02  0.43497507477E+02  0.00000000000E+00 0.  1.
          1    1    1    2  502    0 -0.25453407006E+02  0.26965581148E+02 -0.77476373255E+02  0.85892996849E+02  0.00000000000E+00 0.  1.
</event>
<event>
 4    1  0.8322090E+003  0.2292154E+02  0.7546771E-02  0.1493486E+00
          2   -1    0    0  502    0  0.00000000000E+00  0.00000000000E+00  0.11284166955E+02  0.11284166955E+02  0.00000000000E+00 0. -1.
          1   -1    0    0  501    0 -0.00000000000E+00 -0.00000000000E+00 -0.13815079786E+03  0.13815079786E+03  0.00000000000E+00 0.  1.
          2    1    1    2  501    0 -0.18321319804E+02 -0.13774115885E+02 -0.25959853048E+01  0.23068076804E+02  0.00000000000E+00 0. -1.
          1    1    1    2  502    0  0.18321319804E+02  0.13774115885E+02 -0.12427064560E+03  0.12636688801E+03  0.00000000000E+00 0.  1.
</event>
<event>
 4    1  0.8322090E+003  0.2916046E+02  0.7546771E-02  0.1427035E+00
          2   -1    0    0  502    0  0.00000000000E+00  0.00000000000E+00  0.13338779002E+03  0.13338779002E+03  0.00000000000E+00 0.  1.
          1   -1    0    0  501    0 -0.00000000000E+00 -0.00000000000E+00 -0.12602687395E+04  0.12602687395E+04  0.00000000000E+00 0.  1.
          2    1    1    2  501    0  0.23558870026E+02  0.17184653635E+02  0.13162315197E+03  0.13481463871E+03  0.00000000000E+00 0.  1.
          1    1    1    2  502    0 -0.23558870026E+02 -0.17184653635E+02 -0.12585041014E+04  0.12588418908E+04  0.00000000000E+00 0.  1.
</event>
<event>
 4    1  0.8322090E+003  0.2122179E+02  0.7546771E-02  0.1516122E+00
          2   -1    0    0  502    0  0.00000000000E+00  0.00000000000E+00  0.21625869713E+03  0.21625869713E+03  0.00000000000E+00 0. -1.
          1   -1    0    0  501    0 -0.00000000000E+00 -0.00000000000E+00 -0.51960223502E+02  0.51960223502E+02  0.00000000000E+00 0. -1.
          2    1    1    2  501    0 -0.12525106171E+02  0.17131432797E+02  0.21354371357E+03  0.21459562410E+03  0.00000000000E+00 0. -1.
          1    1    1    2  502    0  0.12525106171E+02 -0.17131432797E+02 -0.49245239945E+02  0.53623296537E+02  0.00000000000E+00 0. -1.
</event>
<event>
 4    1  0.8322090E+003  0.2324251E+02  0.7546771E-02  0.1489475E+00
          2   -1    0    0  502    0  0.00000000000E+00  0.00000000000E+00  0.30051127103E+03  0.30051127103E+03  0.00000000000E+00 0.  1.
          1   -1    0    0  501    0 -0.00000000000E+00 -0.00000000000E+00 -0.53127024831E+02  0.53127024831E+02  0.00000000000E+00 0.  1.
          2    1    1    2  501    0 -0.17754577687E+02 -0.14999638187E+02  0.29749402786E+03  0.29840058778E+03  0.00000000000E+00 0.  1.
          1    1    1    2  502    0  0.17754577687E+02  0.14999638187E+02 -0.50109781668E+02  0.55237708075E+02  0.00000000000E+00 0.  1.
</event>
<event>
 4    1  0.8322090E+003  0.2481490E+02  0.7546771E-02  0.1470885E+00
          2   -1    0    0  502    0  0.00000000000E+00  0.00000000000E+00  0.34527744082E+00  0.34527744082E+00  0.00000000000E+00 0. -1.
          1   -1    0    0  501    0 -0.00000000000E+00 -0.00000000000E+00 -0.21652965664E+04  0.21652965664E+04  0.00000000000E+00 0. -1.
          2    1    1    2  501    0 -0.21958042456E+02 -0.11559560039E+02 -0.62774705126E+03  0.62823732731E+03  0.00000000000E+00 0. -1.
          1    1    1    2  502    0  0.21958042456E+02  0.11559560039E+02 -0.15372042377E+04  0.15374045165E+04  0.00000000000E+00 0. -1.
</event>
<event>
 4    1  0.8322090E+003  0.2202520E+02  0.7546771E-02  0.1505115E+00
          2   -1    0    0  502    0  0.00000000000E+00  0.00000000000E+00  0.37622022861E+03  0.37622022861E+03  0.00000000000E+00 0.  1.
          1   -1    0    0  501    0 -0.00000000000E+00 -0.00000000000E+00 -0.17895465609E+03  0.17895465609E+03  0.00000000000E+00 0. -1.
          2    1    1    2  501    0  0.21755582851E+02  0.34357214337E+01  0.37521836421E+03  0.37586424465E+03  0.00000000000E+00 0.  1.
          1    1    1    2  502    0 -0.21755582851E+02 -0.34357214337E+01 -0.17795279169E+03  0.17931064005E+03  0.00000000000E+00 0. -1.
</event>
<event>
 4    1  0.8322090E+003  0.3164063E+02  0.7546771E-02  0.1405856E+00
          2   -1    0    0  502    0  0.00000000000E+00  0.00000000000E+00  0.10141649621E+04  0.10141649621E+04  0.00000000000E+00 0. -1.
          1   -1    0    0  501    0 -0.00000000000E+00 -0.00000000000E+00 -0.40976089889E+02  0.40976089889E+02  0.00000000000E+00 0.  1.
          2    1    1    2  501    0 -0.40154546184E+01  0.31384802054E+02  0.10077714230E+04  0.10082680054E+04  0.00000000000E+00 0. -1.
          1    1    1    2  502    0  0.40154546184E+01 -0.31384802054E+02 -0.34582550806E+02  0.46873046583E+02  0.00000000000E+00 0.  1.
</event>
<event>
 4    1  0.8322090E+003  0.2017222E+02  0.7546771E-02  0.1531419E+00
          2   -1    0    0  502    0  0.00000000000E+00  0.00000000000E+00  0.13377421488E+04  0.13377421488E+04  0.00000000000E+00 0. -1.
          1   -1    0    0  501    0 -0.00000000000E+00 -0.00000000000E+00 -0.29996197018E+03  0.29996197018E+03  0.00000000000E+00 0.  1.
          2    1    1    2  501    0 -0.19095597710E+02 -0.65020503984E+01  0.13373268560E+04  0.13374789861E+04  0.00000000000E+00 0. -1.
          1    1    1    2  502    0  0.19095597710E+02  0.65020503984E+01 -0.29954667736E+03  0.30022513290E+03  0.00000000000E+00 0.  1.
</event>
<event>
 4    1  0.8322090E+003  0.4322053E+02  0.7546771E-02  0.1330581E+00
          2   -1    0    0  502    0  0.00000000000E+00  0.00000000000E+00  0.11674829481E+03  0.11674829481E+03  0.00000000000E+00 0. -1.
          1   -1    0    0  501    0 -0.00000000000E+00 -0.00000000000E+00 -0.98433303079E+02  0.98433303079E+02  0.00000000000E+00 0.  1.
          2    1    1    2  501    0  0.24992101119E+02  0.35262005803E+02  0.10761629145E+03  0.11597103241E+03  0.00000000000E+00 0. -1.
          1    1    1    2  502    0 -0.24992101119E+02 -0.35262005803E+02 -0.89301299720E+02  0.99210565482E+02  0.00000000000E+00 0.  1.
</event>
<event>
 4    1  0.8322090E+003  0.2303200E+02  0.7546771E-02  0.1492097E+00
          2   -1    0    0  502    0  0.00000000000E+00  0.00000000000E+00  0.81545365900E+03  0.81545365900E+03  0.00000000000E+00 0.  1.
          1   -1    0    0  501    0 -0.00000000000E+00 -0.00000000000E+00 -0.97818331137E+00  0.97818331137E+00  0.00000000000E+00 0. -1.
          2    1    1    2  501    0 -0.72204479612E+01 -0.21870941010E+02  0.64349787909E+03  0.64390992640E+03  0.00000000000E+00 0.  1.
          1    1    1    2  502    0  0.72204479612E+01  0.21870941010E+02  0.17097759660E+03  0.17252191591E+03  0.00000000000E+00 0. -1.
</event>
<event>
 4    1  0.8322090E+003  0.2567038E+02  0.7546771E-02  0.1461442E+00
          2   -1    0    0  502    0  0.00000000000E+00  0.00000000000E+00  0.10995960750E+04  0.10995960750E+04  0.00000000000E+00 0. -1.
          1   -1    0    0  501    0 -0.00000000000E+00 -0.00000000000E+00 -0.15469326285E+01  0.15469326285E+01  0.00000000000E+00 0. -1.
          2    1    1    2  501    0 -0.15377296203E+01  0.25624283567E+02  0.97994995474E+03  0.98028612267E+03  0.00000000000E+00 0. -1.
          1    1    1    2  502    0  0.15377296203E+01 -0.25624283567E+02  0.11809918763E+03  0.12085688495E+03  0.00000000000E+00 0. -1.
</event>
<event>
 4    1  0.8322090E+003  0.2654622E+02  0.7546771E-02  0.1452220E+00
          2   -1    0    0  502    0  0.00000000000E+00  0.00000000000E+00  0.96086622819E+02  0.96086622819E+02  0.00000000000E+00 0. -1.
          1   -1    0    0  501    0 -0.00000000000E+00 -0.00000000000E+00 -0.23726099949E+03  0.23726099949E+03  0.00000000000E+00 0. -1.
          2    1    1    2  501    0 -0.16091105960E+02 -0.21113454624E+02  0.93490357300E+02  0.97186154185E+02  0.00000000000E+00 0. -1.
          1    1    1    2  502    0  0.16091105960E+02  0.21113454624E+02 -0.23466473397E+03  0.23616146812E+03  0.00000000000E+00 0. -1.
</event>
<event>
 4    1  0.8322090E+003  0.6101170E+02  0.7546771E-02  0.1256433E+00
          2   -1    0    0  502    0  0.00000000000E+00  0.00000000000E+00  0.22813992492E+03  0.22813992492E+03  0.00000000000E+00 0.  1.
          1   -1    0    0  501    0 -0.00000000000E+00 -0.00000000000E+00 -0.87989132175E+03  0.87989132175E+03  0.00000000000E+00 0.  1.
          2    1    1    2  501    0  0.54451089065E+02 -0.27522845558E+02  0.22297914296E+03  0.23117553141E+03  0.00000000000E+00 0.  1.
          1    1    1    2  502    0 -0.54451089065E+02  0.27522845558E+02 -0.87473053979E+03  0.87685571525E+03  0.00000000000E+00 0.  1.
</event>
<event>
 4    1  0.8322090E+003  0.2702963E+02  0.7546771E-02  0.1447311E+00
          2   -1    0    0  502    0  0.00000000000E+00  0.00000000000E+00  0.17660136745E+03  0.17660136745E+03  0.00000000000E+00 0.  1.
          1   -1    0    0  501    0 -0.00000000000E+00 -0.00000000000E+00 -0.31493502365E+03  0.31493502365E+03  0.00000000000E+00 0.  1.
          2    1    1    2  501    0  0.26164110600E+02  0.67852985704E+01  0.17498181802E+03  0.17705715912E+03  0.00000000000E+00 0.  1.
          1    1    1    2  502    0 -0.26164110600E+02 -0.67852985704E+01 -0.31331547422E+03  0.31447923198E+03  0.00000000000E+00 0.  1.
</event>
<event>
 4    1  0.8322090E+003  0.2218184E+02  0.7546771E-02  0.1503036E+00
          2   -1    0    0  502    0  0.00000000000E+00  0.00000000000E+00  0.92154074533E+01  0.92154074533E+01  0.00000000000E+00 0. -1.
          1   -1    0    0  501    0 -0.00000000000E+00 -0.00000000000E+00 -0.83121134604E+03  0.83121134604E+03  0.00000000000E+00 0.  1.
          2    1    1    2  501    0  0.12267477230E+02  0.18480884011E+02 -0.45046992644E+01  0.22634628048E+02  0.00000000000E+00 0. -1.
          1    1    1    2  502    0 -0.12267477230E+02 -0.18480884011E+02 -0.81749123932E+03  0.81779212545E+03  0.00000000000E+00 0.  1.
</event>
<event>
 4    1  0.8322090E+003  0.2800560E+02  0.7546771E-02  0.1437760E+00
          2   -1    0    0  502    0  0.00000000000E+00  0.00000000000E+00  0.13739574750E+04  0.13739574750E+04  0.00000000000E+00 0.  1.
          1   -1    0    0  501    0 -0.00000000000E+00 -0.00000000000E+00 -0.82884334032E+01  0.82884334032E+01  0.00000000000E+00 0. -1.
          2    1    1    2  501    0  0.87079015734E+01 -0.26617398060E+02  0.13497333666E+04  0.13500238792E+04  0.00000000000E+00 0.  1.
          1    1    1    2  502    0 -0.87079015734E+01  0.26617398060E+02  0.15935674975E+02  0.32222029207E+02  0.00000000000E+00 0. -1.
</event>
<event>
 4    1  0.8322090E+003  0.2759533E+02  0.7546771E-02  0.1441718E+00
          2   -1    0    0  502    0  0.00000000000E+00  0.00000000000E+00  0.14083183597E+03  0.14083183597E+03  0.00000000000E+00 0. -1.
          1   -1    0    0  501    0 -0.00000000000E+00 -0.00000000000E+00 -0.59580154593E+03  0.59580154593E+03  0.00000000000E+00 0. -1.
          2    1    1    2  501    0 -0.65711388721E+01 -0.26801531894E+02  0.13915670526E+03  0.14186645339E+03  0.00000000000E+00 0. -1.
          1    1    1    2  502    0  0.65711388721E+01  0.26801531894E+02 -0.59412641523E+03  0.59476692851E+03  0.00000000000E+00 0. -1.
</event>
<event>
 4    1  0.8322090E+003  0.5152356E+02  0.7546771E-02  0.1291699E+00
          2   -1    0    0  502    0  0.00000000000E+00  0.00000000000E+00  0.57392899162E+02  0.57392899162E+02  0.00000000000E+00 0.  1.
          1   -1    0    0  501    0 -0.00000000000E+00 -0.00000000000E+00 -0.46520377517E+02  0.46520377517E+02  0.00000000000E+00 0.  1.
          2    1    1    2  501    0 -0.57353256333E+01 -0.51203347190E+02  0.93645620472E+01  0.52367659351E+02  0.00000000000E+00 0.  1.
          1    1    1    2  502    0  0.57353256333E+01  0.51203347190E+02  0.15079595980E+01  0.51545617328E+02  0.00000000000E+00 0.  1.
</event>
<event>
 4    1  0.8322090E+003  0.2578630E+02  0.7546771E-02  0.1460196E+00
          2   -1    0    0  502    0  0.00000000000E+00  0.00000000000E+00  0.15061158008E+01  0.15061158008E+01  0.00000000000E+00 0.  1.
          1   -1    0    0  501    0 -0.00000000000E+00 -0.00000000000E+00 -0.44960544713E+03  0.44960544713E+03  0.00000000000E+00 0.  1.
          2    1    1    2  501    0 -0.55729917930E+01 -0.25176863524E+02 -0.25435621677E+03  0.25565996500E+03  0.00000000000E+00 0.  1.
          1    1    1    2  502    0  0.55729917930E+01  0.25176863524E+02 -0.19374311456E+03  0.19545159793E+03  0.00000000000E+00 0.  1.
</event>
<event>
 4    1  0.8322090E+003  0.3297571E+02  0.7546771E-02  0.1395382E+00
          2   -1    0    0  502    0  0.00000000000E+00  0.00000000000E+00  0.13566399076E+04  0.13566399076E+04  0.00000000000E+00 0. -1.
          1   -1    0    0  501    0 -0.00000000000E+00 -0.00000000000E+00 -0.14776774232E+02  0.14776774232E+02  0.00000000000E+00 0. -1.
          2    1    1    2  501    0  0.35810867907E+01 -0.32780689208E+02  0.13377831702E+04  0.13381895263E+04  0.00000000000E+00 0. -1.
          1    1    1    2  502    0 -0.35810867907E+01  0.32780689208E+02  0.40799631804E+01  0.33227155567E+02  0.00000000000E+00 0. -1.
</event>
<event>
 4    1  0.8322090E+003  0.2000351E+02  0.7546771E-02  0.1533982E+00
          2   -1    0    0  502    0  0.00000000000E+00  0.00000000000E+00  0.44847732971E+00  0.44847732971E+00  0.00000000000E+00 0. -1.
          1   -1    0    0  501    0 -0.00000000000E+00 -0.00000000000E+00 -0.15778911910E+04  0.15778911910E+04  0.00000000000E+00 0. -1.
          2    1    1    2  501    0 -0.17141068505E+02 -0.10311357092E+02 -0.26849782602E+03  0.26924194118E+03  0.00000000000E+00 0. -1.
          1    1    1    2  502    0  0.17141068505E+02  0.10311357092E+02 -0.13089448876E+04  0.13090977271E+04  0.00000000000E+00 0. -1.
</event>
<event>
 4    1  0.8322090E+003  0.2013729E+02  0.7546771E-02  0.1531947E+00
          2   -1    0    0  502    0  0.00000000000E+00  0.00000000000E+00  0.12558916177E+04  0.12558916177E+04  0.00000000000E+00 0.  1.
          1   -1    0    0  501    0 -0.00000000000E+00 -0.00000000000E+00 -0.26420747460E+02  0.26420747460E+02  0.00000000000E+00 0.  1.
          2    1    1    2  501    0  0.19964521209E+02 -0.26321743970E+01  0.12519618071E+04  0.12521237466E+04  0.00000000000E+00 0.  1.
          1    1    1    2  502    0 -0.19964521209E+02  0.26321743970E+01 -0.22490936846E+02  0.30188618540E+02  0.00000000000E+00 0.  1.
</event>
<event>
 4    1  0.8322090E+003  0.3154406E+02  0.7546771E-02  0.1406637E+00
          2   -1    0    0  502    0  0.00000000000E+00  0.00000000000E+00  0.86932965687E+03  0.86932965687E+03  0.00000000000E+00 0. -1.
          1   -1    0    0  501    0 -0.00000000000E+00 -0.00000000000E+00 -0.64230519175E+01  0.64230519175E+01  0.00000000000E+00 0.  1.
          2    1    1    2  501    0  0.29431350224E+02  0.11350046543E+02  0.82840200230E+03  0.82900235546E+03  0.00000000000E+00 0. -1.
          1    1    1    2  502    0 -0.29431350224E+02 -0.11350046543E+02  0.34504602646E+02  0.46750353328E+02  0.00000000000E+00 0.  1.
</event>
<event>
 4    1  0.8322090E+003  0.2061052E+02  0.7546771E-02  0.1524899E+00
          2   -1    0    0  502    0  0.00000000000E+00  0.00000000000E+00  0.21156311643E+01  0.21156311643E+01  0.00000000000E+00 0.  1.
          1   -1    0    0  501    0 -0.00000000000E+00 -0.00000000000E+00 -0.47446315955E+03  0.47446315955E+03  0.00000000000E+00 0.  1.
          2    1    1    2  501    0  0.12350808941E+02  0.16500032634E+02 -0.55197725095E+02  0.58920135897E+02  0.00000000000E+00 0.  1.
          1    1    1    2  502    0 -0.12350808941E+02 -0.16500032634E+02 -0.41714980329E+03  0.41765865482E+03  0.00000000000E+00 0.  1.
</event>
<event>
 4    1  0.8322090E+003  0.3010165E+02  0.7546771E-02  0.1418715E+00
          2   -1    0    0  502    0  0.00000000000E+00  0.00000000000E+00  0.17402371910E+04  0.17402371910E+04  0.00000000000E+00 0.  1.
          1   -1    0    0  501    0 -0.00000000000E+00 -0.00000000000E+00 -0.10469650306E+03  0.10469650306E+03  0.00000000000E+00 0.  1.
          2    1    1    2  501    0  0.10194462103E+02  0.28322823357E+02  0.17379405043E+04  0.17382011696E+04  0.00000000000E+00 0.  1.
          1    1    1    2  502    0 -0.10194462103E+02 -0.28322823357E+02 -0.10239981640E+03  0.10673252447E+03  0.00000000000E+00 0.  1.
</event>
<event>
 4    1  0.8322090E+003  0.3035363E+02  0.7546771E-02  0.1416548E+00
          2   -1    0    0  502    0  0.00000000000E+00  0.00000000000E+00  0.50481189745E+02  0.50481189745E+02  0.00000000000E+00 0.  1.
          1   -1    0    0  501    0 -0.00000000000E+00 -0.00000000000E+00 -0.62859773447E+02  0.62859773447E+02  0.00000000000E+00 0.  1.
          2    1    1    2  501    0  0.18347272307E+02  0.24180989641E+02  0.41550401977E+02  0.51456569702E+02  0.00000000000E+00 0.  1.
          1    1    1    2  502    0 -0.18347272307E+02 -0.24180989641E+02 -0.53928985679E+02  0.61884393489E+02  0.00000000000E+00 0.  1.
</event>
<event>
 4    1  0.8322090E+003  0.4711306E+02  0.7546771E-02  0.1311199E+00
          2   -1    0    0  502    0  0.00000000000E+00  0.00000000000E+00  0.46959483433E+03  0.46959483433E+03  0.00000000000E+00 0.  1.
          1   -1    0    0  501    0 -0.00000000000E+00 -0.00000000000E+00 -0.62448532159E+01  0.62448532159E+01  0.00000000000E+00 0. -1.
          2    1    1    2  501    0 -0.17754668231E+02  0.43639568003E+02  0.34898240187E+03  0.35214820311E+03  0.00000000000E+00 0.  1.
          1    1    1    2  502    0  0.17754668231E+02 -0.43639568003E+02  0.11436757924E+03  0.12369148443E+03  0.00000000000E+00 0. -1.
</event>
<event>
 4    1  0.8322090E+003  0.2298019E+02  0.7546771E-02  0.1492747E+00
          2   -1    0    0  502    0  0.00000000000E+00  0.00000000000E+00  0.38222640531E+02  0.38222640531E+02  0.00000000000E+00 0.  1.
          1   -1    0    0  501    0 -0.00000000000E+00 -0.00000000000E+00 -0.38975173912E+03  0.38975173912E+03  0.00000000000E+00 0. -1.
          2    1    1    2  501    0 -0.16944582301E+02 -0.15523216278E+02  0.34395651498E+02  0.41366048336E+02  0.00000000000E+00 0.  1.
          1    1    1    2  502    0  0.16944582301E+02  0.15523216278E+02 -0.38592475009E+03  0.38660833132E+03  0.00000000000E+00 0. -1.
</event>
<event>
 4    1  0.8322090E+003  0.2169485E+02  0.7546771E-02  0.1509571E+00
          2   -1    0    0  502    0  0.00000000000E+00  0.00000000000E+00  0.98012691475E+01  0.98012691475E+01  0.00000000000E+00 0.  1.
          1   -1    0    0  501    0 -0.00000000000E+00 -0.00000000000E+00 -0.62715354126E+03  0.62715354126E+03  0.00000000000E+00 0. -1.
          2    1    1    2  501    0  0.21674771369E+02 -0.93325017322E+00 -0.26343880251E+01  0.21854214012E+02  0.00000000000E+00 0.  1.
          1    1    1    2  502    0 -0.21674771369E+02  0.93325017322E+00 -0.61471788409E+03  0.61510059640E+03  0.00000000000E+00 0. -1.
</event>
<event>
 4    1  0.8322090E+003  0.4243727E+02  0.7546771E-02  0.1334766E+00
          2   -1    0    0  502    0  0.00000000000E+00  0.00000000000E+00  0.26540105603E+04  0.26540105603E+04  0.00000000000E+00 0.  1.
          1   -1    0    0  501    0 -0.00000000000E+00 -0.00000000000E+00 -0.14750190560E+02  0.14750190560E+02  0.00000000000E+00 0.  1.
          2    1    1    2  501    0 -0.37315379232E+02  0.20211000839E+02  0.26229558455E+04  0.26232991232E+04  0.00000000000E+00 0.  1.
          1    1    1    2  502    0  0.37315379232E+02 -0.20211000839E+02  0.16304524220E+02  0.45461627690E+02  0.00000000000E+00 0.  1.
</event>
<event>
 4    1  0.8322090E+003  0.2731542E+02  0.7546771E-02  0.1444465E+00
          2   -1    0    0  502    0  0.00000000000E+00  0.00000000000E+00  0.79856377433E+01  0.79856377433E+01  0.00000000000E+00 0. -1.
          1   -1    0    0  501    0 -0.00000000000E+00 -0.00000000000E+00 -0.28326912839E+03  0.28326912839E+03  0.00000000000E+00 0.  1.
          2    1    1    2  501    0  0.26657968177E+02 -0.59568985819E+01 -0.18426595192E+02  0.32949526832E+02  0.00000000000E+00 0. -1.
          1    1    1    2  502    0 -0.26657968177E+02  0.59568985819E+01 -0.25685689545E+03  0.25830523930E+03  0.00000000000E+00 0.  1.
</event>
<event>
 4    1  0.8322090E+003  0.2230988E+02  0.7546771E-02  0.1501351E+00
          2   -1    0    0  502    0  0.00000000000E+00  0.00000000000E+00  0.32948980397E+02  0.32948980397E+02  0.00000000000E+00 0.  1.
          1   -1    0    0  501    0 -0.00000000000E+00 -0.00000000000E+00 -0.82502580364E+02  0.82502580364E+02  0.00000000000E+00 0.  1.
          2    1    1    2  501    0  0.18485336886E+02 -0.12490923020E+02  0.27397259790E+02  0.35331864962E+02  0.00000000000E+00 0.  1.
          1    1    1    2  502    0 -0.18485336886E+02  0.12490923020E+02 -0.76950859757E+02  0.80119695800E+02  0.00000000000E+00 0.  1.
</event>
<event>
 4    1  0.8322090E+003  0.2559648E+02  0.7546771E-02  0.1462240E+00
          2   -1    0    0  502    0  0.00000000000E+00  0.00000000000E+00  0.25204161072E+03  0.25204161072E+03  0.00000000000E+00 0.  1.
          1   -1    0    0  501    0 -0.00000000000E+00 -0.00000000000E+00 -0.13722738232E+02  0.13722738232E+02  0.00000000000E+00 0.  1.
          2    1    1    2  501    0  0.19007758973E+02 -0.17143073156E+02  0.23879550536E+03  0.24016343027E+03  0.00000000000E+00 0.  1.
          1    1    1    2  502    0 -0.19007758973E+02  0.17143073156E+02 -0.47663287481E+00  0.25600918681E+02  0.00000000000E+00 0.  1.
</event>
<event>
 4    1  0.8322090E+003  0.3730990E+02  0.7546771E-02  0.1365014E+00
          2   -1    0    0  502    0  0.00000000000E+00  0.00000000000E+00  0.60812983796E+03  0.60812983796E+03  0.00000000000E+00 0.  1.
          1   -1    0    0  501    0 -0.00000000000E+00 -0.00000000000E+00 -0.62256284939E+01  0.62256284939E+01  0.00000000000E+00 0.  1.
          2    1    1    2  501    0 -0.31205901619E+02  0.20450430603E+02  0.54521562073E+03  0.54649071492E+03  0.00000000000E+00 0.  1.
          1    1    1    2  502    0  0.31205901619E+02 -0.20450430603E+02  0.56688588738E+02  0.67864751534E+02  0.00000000000E+00 0.  1.
</event>
<event>
 4    1  0.8322090E+003  0.5554239E+02  0.7546771E-02  0.1275779E+00
          2   -1    0    0  502    0  0.00000000000E+00  0.00000000000E+00  0.14498573395E+02  0.14498573395E+02  0.00000000000E+00 0. -1.
          1   -1    0    0  501    0 -0.00000000000E+00 -0.00000000000E+00 -0.80129157127E+03  0.80129157127E+03  0.00000000000E+00 0. -1.
          2    1    1    2  501    0  0.54913184410E+02 -0.83365916662E+01 -0.43828278460E+02  0.70752205445E+02  0.00000000000E+00 0. -1.
          1    1    1    2  502    0 -0.54913184410E+02  0.83365916662E+01 -0.74296471941E+03  0.74503793922E+03  0.00000000000E+00 0. -1.
</event>
<event>
 4    1  0.8322090E+003  0.5394571E+02  0.7546771E-02  0.1281915E+00
          2   -1    0    0  502    0  0.00000000000E+00  0.00000000000E+00  0.49202967407E+02  0.49202967407E+02  0.00000000000E+00 0.  1.
          1   -1    0    0  501    0 -0.00000000000E+00 -0.00000000000E+00 -0.21088790904E+04  0.21088790904E+04  0.00000000000E+00 0.  1.
          2    1    1    2  501    0 -0.86399904023E+01  0.53249320324E+02  0.33963970164E+02  0.63747084784E+02  0.00000000000E+00 0.  1.
          1    1    1    2  502    0  0.86399904023E+01 -0.53249320324E+02 -0.20936400931E+04  0.20943349730E+04  0.00000000000E+00 0.  1.
</event>
<event>
 4    1  0.8322090E+003  0.2215498E+02  0.7546771E-02  0.1503391E+00
          2   -1    0    0  502    0  0.00000000000E+00  0.00000000000E+00  0.15659470159E+03  0.15659470159E+03  0.00000000000E+00 0. -1.
          1   -1    0    0  501    0 -0.00000000000E+00 -0.00000000000E+00 -0.20042315565E+02  0.20042315565E+02  0.00000000000E+00 0. -1.
          2    1    1    2  501    0 -0.21812924987E+02 -0.38780699708E+01  0.14939504076E+03  0.15102887580E+03  0.00000000000E+00 0. -1.
          1    1    1    2  502    0  0.21812924987E+02  0.38780699708E+01 -0.12842654729E+02  0.25608141356E+02  0.00000000000E+00 0. -1.
</event>
<event>
 4    1  0.8322090E+003  0.2094761E+02  0.7546771E-02  0.1520014E+00
          2   -1    0    0  502    0  0.00000000000E+00  0.00000000000E+00  0.10273707996E+03  0.10273707996E+03  0.00000000000E+00 0. -1.
          1   -1    0    0  501    0 -0.00000000000E+00 -0.00000000000E+00 -0.68908299494E+01  0.68908299494E+01  0.00000000000E+00 0. -1.
          2    1    1    2  501    0 -0.19905476931E+02  0.65249166800E+01  0.81720413108E+02  0.84362482586E+02  0.00000000000E+00 0. -1.
          1    1    1    2  502    0  0.19905476931E+02 -0.65249166800E+01  0.14125836897E+02  0.25265427318E+02  0.00000000000E+00 0. -1.
</event>
<event>
 4    1  0.8322090E+003  0.2691995E+02  0.7546771E-02  0.1448414E+00
          2   -1    0    0  502    0  0.00000000000E+00  0.00000000000E+00  0.10362425464E+02  0.10362425464E+02  0.00000000000E+00 0. -1.
          1   -1    0    0  501    0 -0.00000000000E+00 -0.00000000000E+00 -0.71189882939E+02  0.71189882939E+02  0.00000000000E+00 0.  1.
          2    1    1    2  501    0  0.25912444702E+02 -0.72957805493E+01 -0.35830195128E+02  0.44816136459E+02  0.00000000000E+00 0. -1.
          1    1    1    2  502    0 -0.25912444702E+02  0.72957805493E+01 -0.24997262347E+02  0.36736171944E+02  0.00000000000E+00 0.  1.
</event>
<event>
 4    1  0.8322090E+003  0.2505320E+02  0.7546771E-02  0.1468209E+00
          2   -1    0    0  502    0  0.00000000000E+00  0.00000000000E+00  0.93630517865E+03  0.93630517865E+03  0.00000000000E+00 0. -1.
          1   -1    0    0  501    0 -0.00000000000E+00 -0.00000000000E+00 -0.12485361751E+02  0.12485361751E+02  0.00000000000E+00 0.  1.
          2    1    1    2  501    0  0.23808887225E+02  0.77974233201E+01  0.92339391384E+03  0.92373371868E+03  0.00000000000E+00 0. -1.
          1    1    1    2  502    0 -0.23808887225E+02 -0.77974233201E+01  0.42590306413E+00  0.25056821721E+02  0.00000000000E+00 0.  1.
</event>
<event>
 4    1  0.8322090E+003  0.2119887E+02  0.7546771E-02  0.1516444E+00
          2   -1    0    0  502    0  0.00000000000E+00  0.00000000000E+00  0.13594705145E+04  0.13594705145E+04  0.00000000000E+00 0. -1.
          1   -1    0    0  501    0 -0.00000000000E+00 -0.00000000000E+00 -0.36522858934E+00  0.36522858934E+00  0.00000000000E+00 0. -1.
          2    1    1    2  501    0  0.43580731817E+01 -0.20746051732E+02  0.47008370864E+03  0.47056145676E+03  0.00000000000E+00 0. -1.
          1    1    1    2  502    0 -0.43580731817E+01  0.20746051732E+02  0.88902157727E+03  0.88927428633E+03  0.00000000000E+00 0. -1.
</event>
<event>
 4    1  0.8322090E+003  0.3293417E+02  0.7546771E-02  0.1395699E+00
          2   -1    0    0  502    0  0.00000000000E+00  0.00000000000E+00  0.70002965711E+01  0.70002965711E+01  0.00000000000E+00 0.  1.
          1   -1    0    0  501    0 -0.00000000000E+00 -0.00000000000E+00 -0.28493800688E+03  0.28493800688E+03  0.00000000000E+00 0. -1.
          2    1    1    2  501    0 -0.13166201227E+02 -0.30187924274E+02 -0.40375827310E+02  0.52104386166E+02  0.00000000000E+00 0.  1.
          1    1    1    2  502    0  0.13166201227E+02  0.30187924274E+02 -0.23756188300E+03  0.23983391729E+03  0.00000000000E+00 0. -1.
</event>
<event>
 4    1  0.8322090E+003  0.4122567E+02  0.7546771E-02  0.1341449E+00
          2   -1    0    0  502    0  0.00000000000E+00  0.00000000000E+00  0.11873156762E+04  0.11873156762E+04  0.00000000000E+00 0.  1.
          1   -1    0    0  501    0 -0.00000000000E+00 -0.00000000000E+00 -0.14506314914E+03  0.14506314914E+03  0.00000000000E+00 0.  1.
          2    1    1    2  501    0  0.28026999161E+02  0.30233151481E+02  0.11840206772E+04  0.11847381652E+04  0.00000000000E+00 0.  1.
          1    1    1    2  502    0 -0.28026999161E+02 -0.30233151481E+02 -0.14176815012E+03  0.14764066011E+03  0.00000000000E+00 0.  1.
</event>
<event>
 4    1  0.8322090E+003  0.2036061E+02  0.7546771E-02  0.1528593E+00
          2   -1    0    0  502    0  0.00000000000E+00  0.00000000000E+00  0.17222510244E+03  0.17222510244E+03  0.00000000000E+00 0.  1.
          1   -1    0    0  501    0 -0.00000000000E+00 -0.00000000000E+00 -0.39796757331E+02  0.39796757331E+02  0.00000000000E+00 0. -1.
          2    1    1    2  501    0 -0.26522720527E+00 -0.20358887379E+02  0.16896914010E+03  0.17019143617E+03  0.00000000000E+00 0.  1.
          1    1    1    2  502    0  0.26522720527E+00  0.20358887379E+02 -0.36540794984E+02  0.41830423604E+02  0.00000000000E+00 0. -1.
</event>
<event>
 4    1  0.8322090E+003  0.2000337E+02  0.7546771E-02  0.1533984E+00
          2   -1    0    0  502    0  0.00000000000E+00  0.00000000000E+00  0.16102212960E+04  0.16102212960E+04  0.00000000000E+00 0. -1.
          1   -1    0    0  501    0 -0.00000000000E+00 -0.00000000000E+00 -0.35003809883E+00  0.35003809883E+00  0.00000000000E+00 0.  1.
          2    1    1    2  501    0 -0.14461339578E+02  0.13820442136E+02  0.12386596782E+04  0.12388211870E+04  0.00000000000E+00 0. -1.
          1    1    1    2  502    0  0.14461339578E+02 -0.13820442136E+02  0.37121157966E+03  0.37175014706E+03  0.00000000000E+00 0.  1.
</event>
<event>
 4    1  0.8322090E+003  0.3148002E+02  0.7546771E-02  0.1407157E+00
          2   -1    0    0  502    0  0.00000000000E+00  0.00000000000E+00  0.17479279462E+04  0.17479279462E+04  0.00000000000E+00 0. -1.
          1   -1    0    0  501    0 -0.00000000000E+00 -0.00000000000E+00 -0.12191988517E+01  0.12191988517E+01  0.00000000000E+00 0. -1.
          2    1    1    2  501    0  0.17775588652E+01 -0.31429792694E+02  0.15130376672E+04  0.15133651159E+04  0.00000000000E+00 0. -1.
          1    1    1    2  502    0 -0.17775588652E+01  0.31429792694E+02  0.23367108009E+03  0.23578202911E+03  0.00000000000E+00 0. -1.
</event>
<event>
 4    1  0.8322090E+003  0.7609776E+02  0.7546771E-02  0.1213208E+00
          2   -1    0    0  502    0  0.00000000000E+00  0.00000000000E+00  0.70529322843E+03  0.70529322843E+03  0.00000000000E+00 0. -1.
          1   -1    0    0  501    0 -0.00000000000E+00 -0.00000000000E+00 -0.37220058984E+02  0.37220058984E+02  0.00000000000E+00 0. -1.
          2    1    1    2  501    0 -0.10017089836E+02 -0.75435582807E+02  0.66179635060E+03  0.66615709777E+03  0.00000000000E+00 0. -1.
          1    1    1    2  502    0  0.10017089836E+02  0.75435582807E+02  0.62768188475E+01  0.76356189644E+02  0.00000000000E+00 0. -1.
</event>
<event>
 4    1  0.8322090E+003  0.2731950E+02  0.7546771E-02  0.1444425E+00
          2   -1    0    0  502    0  0.00000000000E+00  0.00000000000E+00  0.11531754668E+02  0.11531754668E+02  0.00000000000E+00 0.  1.
          1   -1    0    0  501    0 -0.00000000000E+00 -0.00000000000E+00 -0.16485515598E+03  0.16485515598E+03  0.00000000000E+00 0. -1.
          2    1    1    2  501    0  0.25983436727E+02 -0.84389759368E+01 -0.79272298437E+01  0.28446375376E+02  0.00000000000E+00 0.  1.
          1    1    1    2  502    0 -0.25983436727E+02  0.84389759368E+01 -0.14539617147E+03  0.14794053527E+03  0.00000000000E+00 0. -1.
</event>
<event>
 4    1  0.8322090E+003  0.2324422E+02  0.7546771E-02  0.1489454E+00
          2   -1    0    0  502    0  0.00000000000E+00  0.00000000000E+00  0.93316143300E+02  0.93316143300E+02  0.00000000000E+00 0.  1.
          1   -1    0    0  501    0 -0.00000000000E+00 -0.00000000000E+00 -0.58294636064E+01  0.58294636064E+01  0.00000000000E+00 0.  1.
          2    1    1    2  501    0  0.17993785846E+02  0.14714513221E+02  0.39660577150E+02  0.45970149100E+02  0.00000000000E+00 0.  1.
          1    1    1    2  502    0 -0.17993785846E+02 -0.14714513221E+02  0.47826102544E+02  0.53175457807E+02  0.00000000000E+00 0.  1.
</event>
<event>
 4    1  0.8322090E+003  0.2027676E+02  0.7546771E-02  0.1529846E+00
          2   -1    0    0  502    0  0.00000000000E+00  0.00000000000E+00  0.18140322294E+04  0.18140322294E+04  0.00000000000E+00 0. -1.
          1   -1    0    0  501    0 -0.00000000000E+00 -0.00000000000E+00 -0.38810885198E+00  0.38810885198E+00  0.00000000000E+00 0.  1.
          2    1    1    2  501    0  0.19569262355E+02  0.53094995829E+01  0.14919687159E+04  0.14921064962E+04  0.00000000000E+00 0. -1.
          1    1    1    2  502    0 -0.19569262355E+02 -0.53094995829E+01  0.32167540472E+03  0.32231384212E+03  0.00000000000E+00 0.  1.
</event>
<event>
 4    1  0.8322090E+003  0.2136596E+02  0.7546771E-02  0.1514104E+00
          2   -1    0    0  502    0  0.00000000000E+00  0.00000000000E+00  0.69889119970E+03  0.69889119970E+03  0.00000000000E+00 0.  1.
          1   -1    0    0  501    0 -0.00000000000E+00 -0.00000000000E+00 -0.76275778155E+01  0.76275778155E+01  0.00000000000E+00 0.  1.
          2    1    1    2  501    0 -0.21345904512E+02 -0.92554667956E+00  0.68342713624E+03  0.68376103634E+03  0.00000000000E+00 0.  1.
          1    1    1    2  502    0  0.21345904512E+02  0.92554667956E+00  0.78364856515E+01  0.22757741176E+02  0.00000000000E+00 0.  1.
</event>
<event>
 4    1  0.8322090E+003  0.2210741E+02  0.7546771E-02  0.1504021E+00
          2   -1    0    0  502    0  0.00000000000E+00  0.00000000000E+00  0.19264386554E+01  0.19264386554E+01  0.00000000000E+00 0.  1.
          1   -1    0    0  501    0 -0.00000000000E+00 -0.00000000000E+00 -0.70700687674E+03  0.70700687674E+03  0.00000000000E+00 0.  1.
          2    1    1    2  501    0 -0.98304590082E+01  0.19801511359E+02 -0.68709332981E+02  0.72178322336E+02  0.00000000000E+00 0.  1.
          1    1    1    2  502    0  0.98304590082E+01 -0.19801511359E+02 -0.63637110510E+03  0.63675499306E+03  0.00000000000E+00 0.  1.
</event>
<event>
 4    1  0.8322090E+003  0.2674057E+02  0.7546771E-02  0.1450232E+00
          2   -1    0    0  502    0  0.00000000000E+00  0.00000000000E+00  0.13387405129E+04  0.13387405129E+04  0.00000000000E+00 0.  1.
          1   -1    0    0  501    0 -0.00000000000E+00 -0.00000000000E+00 -0.72443084464E+02  0.72443084464E+02  0.00000000000E+00 0.  1.
          2    1    1    2  501    0  0.13638804442E+02 -0.23000890594E+02  0.13361345143E+04  0.13364020721E+04  0.00000000000E+00 0.  1.
          1    1    1    2  502    0 -0.13638804442E+02  0.23000890594E+02 -0.69837085889E+02  0.74781525260E+02  0.00000000000E+00 0.  1.
</event>
<event>
 4    1  0.8322090E+003  0.2535761E+02  0.7546771E-02  0.1464842E+00
          2   -1    0    0  502    0  0.00000000000E+00  0.00000000000E+00  0.20961141723E+03  0.20961141723E+03  0.00000000000E+00 0. -1.
          1   -1    0    0  501    0 -0.00000000000E+00 -0.00000000000E+00 -0.53555361611E+03  0.53555361611E+03  0.00000000000E+00 0.  1.
          2    1    1    2  501    0 -0.11757057133E+02  0.22467312288E+02  0.20854281874E+03  0.21007883226E+03  0.00000000000E+00 0. -1.
          1    1    1    2  502    0  0.11757057133E+02 -0.22467312288E+02 -0.53448501763E+03  0.53508620108E+03  0.00000000000E+00 0.  1.
</event>
<event>
 4    1  0.8322090E+003  0.2793844E+02  0.7546771E-02  0.1438402E+00
          2   -1    0    0  502    0  0.00000000000E+00  0.00000000000E+00  0.17313362255E+02  0.17313362255E+02  0.00000000000E+00 0. -1.
          1   -1    0    0  501    0 -0.00000000000E+00 -0.00000000000E+00 -0.55895505871E+03  0.55895505871E+03  0.00000000000E+00 0.  1.
          2    1    1    2  501    0  0.78899845298E+01 -0.26801206060E+02  0.54489675395E+01  0.28464851122E+02  0.00000000000E+00 0. -1.
          1    1    1    2  502    0 -0.78899845298E+01  0.26801206060E+02 -0.54709066399E+03  0.54780356984E+03  0.00000000000E+00 0.  1.
</event>
<event>
 4    1  0.8322090E+003  0.2830505E+02  0.7546771E-02  0.1434921E+00
          2   -1    0    0  502    0  0.00000000000E+00  0.00000000000E+00  0.81043921297E+01  0.81043921297E+01  0.00000000000E+00 0.  1.
          1   -1    0    0  501    0 -0.00000000000E+00 -0.00000000000E+00 -0.21267359443E+03  0.21267359443E+03  0.00000000000E+00 0. -1.
          2    1    1    2  501    0  0.21945094399E+02 -0.17877046318E+02 -0.21529165157E+02  0.35562352363E+02  0.00000000000E+00 0.  1.
          1    1    1    2  502    0 -0.21945094399E+02  0.17877046318E+02 -0.18304003715E+03  0.18521563420E+03  0.00000000000E+00 0. -1.
</event>
<event>
 4    1  0.8322090E+003  0.2986685E+02  0.7546771E-02  0.1420757E+00
          2   -1    0    0  502    0  0.00000000000E+00  0.00000000000E+00  0.35944834850E+03  0.35944834850E+03  0.00000000000E+00 0. -1.
          1   -1    0    0  501    0 -0.00000000000E+00 -0.00000000000E+00 -0.74169773567E+01  0.74169773567E+01  0.00000000000E+00 0. -1.
          2    1    1    2  501    0  0.25653716658E+02  0.15294292323E+02  0.32564639688E+03  0.32701315624E+03  0.00000000000E+00 0. -1.
          1    1    1    2  502    0 -0.25653716658E+02 -0.15294292323E+02  0.26384974266E+02  0.39852169615E+02  0.00000000000E+00 0. -1.
</event>
<event>
 4    1  0.8322090E+003  0.2344260E+02  0.7546771E-02  0.1487014E+00
          2   -1    0    0  502    0  0.00000000000E+00  0.00000000000E+00  0.14443362860E+04  0.14443362860E+04  0.00000000000E+00 0.  1.
          1   -1    0    0  501    0 -0.00000000000E+00 -0.00000000000E+00 -0.14534788480E+01  0.14534788480E+01  0.00000000000E+00 0. -1.
          2    1    1    2  501    0 -0.65144255026E+01 -0.22519279482E+02  0.13425511896E+04  0.13427558424E+04  0.00000000000E+00 0.  1.
          1    1    1    2  502    0  0.65144255026E+01  0.22519279482E+02  0.10033161757E+03  0.10303392244E+03  0.00000000000E+00 0. -1.
</event>
<event>
 4    1  0.8322090E+003  0.2706760E+02  0.7546771E-02  0.1446930E+00
          2   -1    0    0  502    0  0.00000000000E+00  0.00000000000E+00  0.97011312477E+03  0.97011312477E+03  0.00000000000E+00 0.  1.
          1   -1    0    0  501    0 -0.00000000000E+00 -0.00000000000E+00 -0.15976018500E+01  0.15976018500E+01  0.00000000000E+00 0.  1.
          2    1    1    2  501    0 -0.13909800339E+02  0.23220088429E+02  0.83705532083E+03  0.83749284485E+03  0.00000000000E+00 0.  1.
          1    1    1    2  502    0  0.13909800339E+02 -0.23220088429E+02  0.13146020209E+03  0.13421788177E+03  0.00000000000E+00 0.  1.
</event>
<event>
 4    1  0.8322090E+003  0.2525654E+02  0.7546771E-02  0.1465954E+00
          2   -1    0    0  502    0  0.00000000000E+00  0.00000000000E+00  0.17089605202E+02  0.17089605202E+02  0.00000000000E+00 0.  1.
          1   -1    0    0  501    0 -0.00000000000E+00 -0.00000000000E+00 -0.81695404933E+03  0.81695404933E+03  0.00000000000E+00 0.  1.
          2    1    1    2  501    0  0.22742432751E+02 -0.10985194997E+02  0.74514322776E+01  0.26332804627E+02  0.00000000000E+00 0.  1.
          1    1    1    2  502    0 -0.22742432751E+02  0.10985194997E+02 -0.80731587640E+03  0.80771084990E+03  0.00000000000E+00 0.  1.
</event>
<event>
 4    1  0.8322090E+003  0.2549622E+02  0.7546771E-02  0.1463328E+00
          2   -1    0    0  502    0  0.00000000000E+00  0.00000000000E+00  0.21283762129E+02  0.21283762129E+02  0.00000000000E+00 0.  1.
          1   -1    0    0  501    0 -0.00000000000E+00 -0.00000000000E+00 -0.12326161987E+04  0.12326161987E+04  0.00000000000E+00 0.  1.
          2    1    1    2  501    0 -0.65391525248E+01  0.24643392097E+02  0.13467593787E+02  0.28834586389E+02  0.00000000000E+00 0.  1.
          1    1    1    2  502    0  0.65391525248E+01 -0.24643392097E+02 -0.12248000304E+04  0.12250653745E+04  0.00000000000E+00 0.  1.
</event>
<event>
 4    1  0.8322090E+003  0.2057177E+02  0.7546771E-02  0.1525468E+00
          2   -1    0    0  502    0  0.00000000000E+00  0.00000000000E+00  0.51544999915E+03  0.51544999915E+03  0.00000000000E+00 0. -1.
          1   -1    0    0  501    0 -0.00000000000E+00 -0.00000000000E+00 -0.14778463582E+01  0.14778463582E+01  0.00000000000E+00 0. -1.
          2    1    1    2  501    0 -0.19718512149E+02 -0.58632586784E+01  0.42929540933E+03  0.42978802449E+03  0.00000000000E+00 0. -1.
          1    1    1    2  502    0  0.19718512149E+02  0.58632586784E+01  0.84676743465E+02  0.87139821021E+02  0.00000000000E+00 0. -1.
</event>
<event>
 4    1  0.8322090E+003  0.2257817E+02  0.7546771E-02  0.1497864E+00
          2   -1    0    0  502    0  0.00000000000E+00  0.00000000000E+00  0.12351640953E+04  0.12351640953E+04  0.00000000000E+00 0. -1.
          1   -1    0    0  501    0 -0.00000000000E+00 -0.00000000000E+00 -0.58085509293E+00  0.58085509293E+00  0.00000000000E+00 0. -1.
          2    1    1    2  501    0 -0.20288700806E+02  0.99066724610E+01  0.94971967802E+03  0.94998802116E+03  0.00000000000E+00 0. -1.
          1    1    1    2  502    0  0.20288700806E+02 -0.99066724610E+01  0.28486356223E+03  0.28575692927E+03  0.00000000000E+00 0. -1.
</event>
<event>
 4    1  0.8322090E+003  0.2071284E+02  0.7546771E-02  0.1523405E+00
          2   -1    0    0  502    0  0.00000000000E+00  0.00000000000E+00  0.36606560287E+02  0.36606560287E+02  0.00000000000E+00 0. -1.
          1   -1    0    0  501    0 -0.00000000000E+00 -0.00000000000E+00 -0.40048013084E+02  0.40048013084E+02  0.00000000000E+00 0.  1.
          2    1    1    2  501    0  0.11130009799E+02  0.17468389826E+02  0.30514233728E+02  0.36880078922E+02  0.00000000000E+00 0. -1.
          1    1    1    2  502    0 -0.11130009799E+02 -0.17468389826E+02 -0.33955686526E+02  0.39774494449E+02  0.00000000000E+00 0.  1.
</event>
<event>
 4    1  0.8322090E+003  0.6078342E+02  0.7546771E-02  0.1257194E+00
          2   -1    0    0  502    0  0.00000000000E+00  0.00000000000E+00  0.28443447039E+02  0.28443447039E+02  0.00000000000E+00 0. -1.
          1   -1    0    0  501    0 -0.00000000000E+00 -0.00000000000E+00 -0.69798985655E+03  0.69798985655E+03  0.00000000000E+00 0.  1.
          2    1    1    2  501    0 -0.59407199863E+02  0.12861117520E+02 -0.70915472068E+01  0.61195700676E+02  0.00000000000E+00 0. -1.
          1    1    1    2  502    0  0.59407199863E+02 -0.12861117520E+02 -0.66245486231E+03  0.66523760292E+03  0.00000000000E+00 0.  1.
</event>
<event>
 4    1  0.8322090E+003  0.2352428E+02  0.7546771E-02  0.1486018E+00
          2   -1    0    0  502    0  0.00000000000E+00  0.00000000000E+00  0.16558638966E+04  0.16558638966E+04  0.00000000000E+00 0. -1.
          1   -1    0    0  501    0 -0.00000000000E+00 -0.00000000000E+00 -0.82151127771E+00  0.82151127771E+00  0.00000000000E+00 0.  1.
          2    1    1    2  501    0  0.49012246291E+01 -0.23008031710E+02  0.14654996733E+04  0.14656884675E+04  0.00000000000E+00 0. -1.
          1    1    1    2  502    0 -0.49012246291E+01  0.23008031710E+02  0.18954271202E+03  0.19099694031E+03  0.00000000000E+00 0.  1.
</event>
<event>
 4    1  0.8322090E+003  0.2295315E+02  0.7546771E-02  0.1493087E+00
          2   -1    0    0  502    0  0.00000000000E+00  0.00000000000E+00  0.56430848842E+02  0.56430848842E+02  0.00000000000E+00 0. -1.
          1   -1    0    0  501    0 -0.00000000000E+00 -0.00000000000E+00 -0.72715717358E+02  0.72715717358E+02  0.00000000000E+00 0. -1.
          2    1    1    2  501    0  0.31577495163E+01  0.22734898864E+02  0.52143132486E+02  0.56971512827E+02  0.00000000000E+00 0. -1.
          1    1    1    2  502    0 -0.31577495163E+01 -0.22734898864E+02 -0.68428001001E+02  0.72175053373E+02  0.00000000000E+00 0. -1.
</event>
<event>
 4    1  0.8322090E+003  0.2727993E+02  0.7546771E-02  0.1444816E+00
          2   -1    0    0  502    0  0.00000000000E+00  0.00000000000E+00  0.14525839792E+03  0.14525839792E+03  0.00000000000E+00 0.  1.
          1   -1    0    0  501    0 -0.00000000000E+00 -0.00000000000E+00 -0.12027917233E+03  0.12027917233E+03  0.00000000000E+00 0.  1.
          2    1    1    2  501    0 -0.23473473386E+01 -0.27178755248E+02  0.14240000950E+03  0.14498950818E+03  0.00000000000E+00 0.  1.
          1    1    1    2  502    0  0.23473473386E+01  0.27178755248E+02 -0.11742078390E+03  0.12054806207E+03  0.00000000000E+00 0.  1.
</event>
<event>
 4    1  0.8322090E+003  0.3636045E+02  0.7546771E-02  0.1371243E+00
          2   -1    0    0  502    0  0.00000000000E+00  0.00000000000E+00  0.15090542934E+01  0.15090542934E+01  0.00000000000E+00 0. -1.
          1   -1    0    0  501    0 -0.00000000000E+00 -0.00000000000E+00 -0.10893450193E+04  0.10893450193E+04  0.00000000000E+00 0. -1.
          2    1    1    2  501    0 -0.35373054334E+02 -0.84160236580E+01 -0.30259793023E+03  0.30477465414E+03  0.00000000000E+00 0. -1.
          1    1    1    2  502    0  0.35373054334E+02  0.84160236580E+01 -0.78523803480E+03  0.78607941948E+03  0.00000000000E+00 0. -1.
</event>
<event>
 4    1  0.8322090E+003  0.3615051E+02  0.7546771E-02  0.1372650E+00
          2   -1    0    0  502    0  0.00000000000E+00  0.00000000000E+00  0.56487310805E+02  0.56487310805E+02  0.00000000000E+00 0.  1.
          1   -1    0    0  501    0 -0.00000000000E+00 -0.00000000000E+00 -0.30747338959E+03  0.30747338959E+03  0.00000000000E+00 0.  1.
          2    1    1    2  501    0 -0.33924820192E+02  0.12488633726E+02  0.49506995031E+02  0.61300913161E+02  0.00000000000E+00 0.  1.
          1    1    1    2  502    0  0.33924820192E+02 -0.12488633726E+02 -0.30049307382E+03  0.30265978724E+03  0.00000000000E+00 0.  1.
</event>
<event>
 4    1  0.8322090E+003  0.3181031E+02  0.7546771E-02  0.1404491E+00
          2   -1    0    0  502    0  0.00000000000E+00  0.00000000000E+00  0.74646971767E+02  0.74646971767E+02  0.00000000000E+00 0. -1.
          1   -1    0    0  501    0 -0.00000000000E+00 -0.00000000000E+00 -0.18298539306E+04  0.18298539306E+04  0.00000000000E+00 0.  1.
          2    1    1    2  501    0  0.21690699546E+02  0.23268202136E+02  0.71113229402E+02  0.77903703849E+02  0.00000000000E+00 0. -1.
          1    1    1    2  502    0 -0.21690699546E+02 -0.23268202136E+02 -0.18263201882E+04  0.18265971985E+04  0.00000000000E+00 0.  1.
</event>
<event>
 4    1  0.8322090E+003  0.2840792E+02  0.7546771E-02  0.1433956E+00
          2   -1    0    0  502    0  0.00000000000E+00  0.00000000000E+00  0.23315992700E+02  0.23315992700E+02  0.00000000000E+00 0. -1.
          1   -1    0    0  501    0 -0.00000000000E+00 -0.00000000000E+00 -0.74043706388E+03  0.74043706388E+03  0.00000000000E+00 0.  1.
          2    1    1    2  501    0 -0.26889571131E+01 -0.28280374570E+02  0.14283731014E+02  0.31796777319E+02  0.00000000000E+00 0. -1.
          1    1    1    2  502    0  0.26889571131E+01  0.28280374570E+02 -0.73140480219E+03  0.73195627926E+03  0.00000000000E+00 0.  1.
</event>
<event>
 4    1  0.8322090E+003  0.2550626E+02  0.7546771E-02  0.1463219E+00
          2   -1    0    0  502    0  0.00000000000E+00  0.00000000000E+00  0.60357537138E+02  0.60357537138E+02  0.00000000000E+00 0.  1.
          1   -1    0    0  501    0 -0.00000000000E+00 -0.00000000000E+00 -0.14359477361E+02  0.14359477361E+02  0.00000000000E+00 0. -1.
          2    1    1    2  501    0  0.25114286319E+01  0.25382316059E+02  0.41654896658E+02  0.48843624537E+02  0.00000000000E+00 0.  1.
          1    1    1    2  502    0 -0.25114286319E+01 -0.25382316059E+02  0.43431631183E+01  0.25873389963E+02  0.00000000000E+00 0. -1.
</event>
<event>
 4    1  0.8322090E+003  0.5808678E+02  0.7546771E-02  0.1266475E+00
          2   -1    0    0  502    0  0.00000000000E+00  0.00000000000E+00  0.30269626207E+03  0.30269626207E+03  0.00000000000E+00 0. -1.
          1   -1    0    0  501    0 -0.00000000000E+00 -0.00000000000E+00 -0.25597859200E+02  0.25597859200E+02  0.00000000000E+00 0. -1.
          2    1    1    2  501    0  0.23823317779E+02  0.52976632140E+02  0.26188301306E+03  0.26824762171E+03  0.00000000000E+00 0. -1.
          1    1    1    2  502    0 -0.23823317779E+02 -0.52976632140E+02  0.15215389815E+02  0.60046499566E+02  0.00000000000E+00 0. -1.
</event>
<event>
 4    1  0.8322090E+003  0.2171030E+02  0.7546771E-02  0.1509361E+00
          2   -1    0    0  502    0  0.00000000000E+00  0.00000000000E+00  0.56418552306E+03  0.56418552306E+03  0.00000000000E+00 0. -1.
          1   -1    0    0  501    0 -0.00000000000E+00 -0.00000000000E+00 -0.69987004426E+02  0.69987004426E+02  0.00000000000E+00 0.  1.
          2    1    1    2  501    0 -0.21359909187E+02 -0.38847718920E+01  0.56228732442E+03  0.56270629318E+03  0.00000000000E+00 0. -1.
          1    1    1    2  502    0  0.21359909187E+02  0.38847718920E+01 -0.68088805787E+02  0.71466234311E+02  0.00000000000E+00 0.  1.
</event>
<event>
 4    1  0.8322090E+003  0.2163525E+02  0.7546771E-02  0.1510385E+00
          2   -1    0    0  502    0  0.00000000000E+00  0.00000000000E+00  0.40949458843E+03  0.40949458843E+03  0.00000000000E+00 0.  1.
          1   -1    0    0  501    0 -0.00000000000E+00 -0.00000000000E+00 -0.30801239073E+01  0.30801239073E+01  0.00000000000E+00 0. -1.
          2    1    1    2  501    0 -0.17561228977E+02  0.12636740581E+02  0.36679790911E+03  0.36743542303E+03  0.00000000000E+00 0.  1.
          1    1    1    2  502    0  0.17561228977E+02 -0.12636740581E+02  0.39616555414E+02  0.45139289301E+02  0.00000000000E+00 0. -1.
</event>
<event>
 4    1  0.8322090E+003  0.4479859E+02  0.7546771E-02  0.1322450E+00
          2   -1    0    0  502    0  0.00000000000E+00  0.00000000000E+00  0.51615752296E+02  0.51615752296E+02  0.00000000000E+00 0.  1.
          1   -1    0    0  501    0 -0.00000000000E+00 -0.00000000000E+00 -0.19393632222E+03  0.19393632222E+03  0.00000000000E+00 0. -1.
          2    1    1    2  501    0 -0.13120182867E+02  0.42834264097E+02  0.38620479869E+02  0.59147737442E+02  0.00000000000E+00 0.  1.
          1    1    1    2  502    0  0.13120182867E+02 -0.42834264097E+02 -0.18094104980E+03  0.18640433707E+03  0.00000000000E+00 0. -1.
</event>
<event>
 4    1  0.8322090E+003  0.4116128E+02  0.7546771E-02  0.1341812E+00
          2   -1    0    0  502    0  0.00000000000E+00  0.00000000000E+00  0.31641365555E+03  0.31641365555E+03  0.00000000000E+00 0. -1.
          1   -1    0    0  501    0 -0.00000000000E+00 -0.00000000000E+00 -0.13479644617E+02  0.13479644617E+02  0.00000000000E+00 0. -1.
          2    1    1    2  501    0  0.85413061814E+01 -0.40265338334E+02  0.27952851204E+03  0.28254281167E+03  0.00000000000E+00 0. -1.
          1    1    1    2  502    0 -0.85413061814E+01  0.40265338334E+02  0.23405498888E+02  0.47350488494E+02  0.00000000000E+00 0. -1.
</event>
<event>
 4    1  0.8322090E+003  0.2117799E+02  0.7546771E-02  0.1516739E+00
          2   -1    0    0  502    0  0.00000000000E+00  0.00000000000E+00  0.87953286286E+01  0.87953286286E+01  0.00000000000E+00 0.  1.
          1   -1    0    0  501    0 -0.00000000000E+00 -0.00000000000E+00 -0.83611730699E+03  0.83611730699E+03  0.00000000000E+00 0.  1.
          2    1    1    2  501    0  0.14324019987E+02  0.15599031178E+02 -0.42898795423E+01  0.21608109329E+02  0.00000000000E+00 0.  1.
          1    1    1    2  502    0 -0.14324019987E+02 -0.15599031178E+02 -0.82303209882E+03  0.82330452629E+03  0.00000000000E+00 0.  1.
</event>
<event>
 4    1  0.8322090E+003  0.3095745E+02  0.7546771E-02  0.1411454E+00
          2   -1    0    0  502    0  0.00000000000E+00  0.00000000000E+00  0.11248783348E+04  0.11248783348E+04  0.00000000000E+00 0.  1.
          1   -1    0    0  501    0 -0.00000000000E+00 -0.00000000000E+00 -0.10332713737E+02  0.10332713737E+02  0.00000000000E+00 0.  1.
          2    1    1    2  501    0 -0.25618118152E+02  0.17380331934E+02  0.11009743865E+04  0.11014095349E+04  0.00000000000E+00 0.  1.
          1    1    1    2  502    0  0.25618118152E+02 -0.17380331934E+02  0.13571234602E+02  0.33801513641E+02  0.00000000000E+00 0.  1.
</event>
<event>
 4    1  0.8322090E+003  0.2186740E+02  0.7546771E-02  0.1507232E+00
          2   -1    0    0  502    0  0.00000000000E+00  0.00000000000E+00  0.11992816041E+01  0.11992816041E+01  0.00000000000E+00 0.  1.
          1   -1    0    0  501    0 -0.00000000000E+00 -0.00000000000E+00 -0.53082700844E+03  0.53082700844E+03  0.00000000000E+00 0.  1.
          2    1    1    2  501    0  0.19638049972E+02  0.96192390746E+01 -0.39751736600E+03  0.39811837315E+03  0.00000000000E+00 0.  1.
          1    1    1    2  502    0 -0.19638049972E+02 -0.96192390746E+01 -0.13211036084E+03  0.13390791690E+03  0.00000000000E+00 0.  1.
</event>
<event>
 4    1  0.8322090E+003  0.2083020E+02  0.7546771E-02  0.1521703E+00
          2   -1    0    0  502    0  0.00000000000E+00  0.00000000000E+00  0.10317715576E+02  0.10317715576E+02  0.00000000000E+00 0.  1.
          1   -1    0    0  501    0 -0.00000000000E+00 -0.00000000000E+00 -0.71494572793E+02  0.71494572793E+02  0.00000000000E+00 0. -1.
          2    1    1    2  501    0  0.20785428221E+02 -0.13649250520E+01 -0.43385009114E+01  0.21277209331E+02  0.00000000000E+00 0.  1.
          1    1    1    2  502    0 -0.20785428221E+02  0.13649250520E+01 -0.56838356305E+02  0.60535079039E+02  0.00000000000E+00 0. -1.
</event>
<event>
 4    1  0.8322090E+003  0.2328454E+02  0.7546771E-02  0.1488956E+00
          2   -1    0    0  502    0  0.00000000000E+00  0.00000000000E+00  0.49834432863E+02  0.49834432863E+02  0.00000000000E+00 0.  1.
          1   -1    0    0  501    0 -0.00000000000E+00 -0.00000000000E+00 -0.37441898654E+02  0.37441898654E+02  0.00000000000E+00 0.  1.
          2    1    1    2  501    0 -0.65713013655E+01  0.22338031024E+02  0.42951727793E+02  0.48857144330E+02  0.00000000000E+00 0.  1.
          1    1    1    2  502    0  0.65713013655E+01 -0.22338031024E+02 -0.30559193583E+02  0.38419187187E+02  0.00000000000E+00 0.  1.
</event>
<event>
 4    1  0.8322090E+003  0.2859902E+02  0.7546771E-02  0.1432175E+00
          2   -1    0    0  502    0  0.00000000000E+00  0.00000000000E+00  0.74093933129E+02  0.74093933129E+02  0.00000000000E+00 0.  1.
          1   -1    0    0  501    0 -0.00000000000E+00 -0.00000000000E+00 -0.73920424395E+02  0.73920424395E+02  0.00000000000E+00 0.  1.
          2    1    1    2  501    0  0.20456338106E+02  0.19986049724E+02  0.68344775377E+02  0.74087193722E+02  0.00000000000E+00 0.  1.
          1    1    1    2  502    0 -0.20456338106E+02 -0.19986049724E+02 -0.68171266642E+02  0.73927163803E+02  0.00000000000E+00 0.  1.
</event>
<event>
 4    1  0.8322090E+003  0.3036951E+02  0.7546771E-02  0.1416412E+00
          2   -1    0    0  502    0  0.00000000000E+00  0.00000000000E+00  0.47124749593E+03  0.47124749593E+03  0.00000000000E+00 0.  1.
          1   -1    0    0  501    0 -0.00000000000E+00 -0.00000000000E+00 -0.26149980407E+03  0.26149980407E+03  0.00000000000E+00 0.  1.
          2    1    1    2  501    0 -0.30354817455E+02 -0.94444107861E+00  0.46987388363E+03  0.47085430170E+03  0.00000000000E+00 0.  1.
          1    1    1    2  502    0  0.30354817455E+02  0.94444107861E+00 -0.26012619177E+03  0.26189299830E+03  0.00000000000E+00 0.  1.
</event>
<event>
 4    1  0.8322090E+003  0.2054502E+02  0.7546771E-02  0.1525861E+00
          2   -1    0    0  502    0  0.00000000000E+00  0.00000000000E+00  0.53759112917E+03  0.53759112917E+03  0.00000000000E+00 0.  1.
          1   -1    0    0  501    0 -0.00000000000E+00 -0.00000000000E+00 -0.79045858065E+00  0.79045858065E+00  0.00000000000E+00 0. -1.
          2    1    1    2  501    0 -0.18333146949E+02  0.92732599622E+01  0.24637087172E+03  0.24722601817E+03  0.00000000000E+00 0.  1.
          1    1    1    2  502    0  0.18333146949E+02 -0.92732599622E+01  0.29042979887E+03  0.29115556959E+03  0.00000000000E+00 0. -1.
</event>
<event>
 4    1  0.8322090E+003  0.3487667E+02  0.7546771E-02  0.1381432E+00
          2   -1    0    0  502    0  0.00000000000E+00  0.00000000000E+00  0.61105478813E+03  0.61105478813E+03  0.00000000000E+00 0. -1.
          1   -1    0    0  501    0 -0.00000000000E+00 -0.00000000000E+00 -0.40373294151E+01  0.40373294151E+01  0.00000000000E+00 0. -1.
          2    1    1    2  501    0  0.34767523318E+02 -0.27570449678E+01  0.52248167272E+03  0.52364442163E+03  0.00000000000E+00 0. -1.
          1    1    1    2  502    0 -0.34767523318E+02  0.27570449678E+01  0.84535785995E+02  0.91447695916E+02  0.00000000000E+00 0. -1.
</event>
<event>
 4    1  0.8322090E+003  0.7900550E+02  0.7546771E-02  0.1206175E+00
          2   -1    0    0  502    0  0.00000000000E+00  0.00000000000E+00  0.47243786889E+01  0.47243786889E+01  0.00000000000E+00 0. -1.
          1   -1    0    0  501    0 -0.00000000000E+00 -0.00000000000E+00 -0.21660555216E+04  0.21660555216E+04  0.00000000000E+00 0. -1.
          2    1    1    2  501    0 -0.12594600768E+02 -0.77995164405E+02 -0.40280384865E+03  0.41047875721E+03  0.00000000000E+00 0. -1.
          1    1    1    2  502    0  0.12594600768E+02  0.77995164405E+02 -0.17585272942E+04  0.17603011430E+04  0.00000000000E+00 0. -1.
</event>
<event>
 4    1  0.8322090E+003  0.2146836E+02  0.7546771E-02  0.1512682E+00
          2   -1    0    0  502    0  0.00000000000E+00  0.00000000000E+00  0.99629132399E+02  0.99629132399E+02  0.00000000000E+00 0.  1.
          1   -1    0    0  501    0 -0.00000000000E+00 -0.00000000000E+00 -0.11137920713E+03  0.11137920713E+03  0.00000000000E+00 0.  1.
          2    1    1    2  501    0  0.16907953711E+02  0.13229189636E+02  0.97414874432E+02  0.99752434145E+02  0.00000000000E+00 0.  1.
          1    1    1    2  502    0 -0.16907953711E+02 -0.13229189636E+02 -0.10916494916E+03  0.11125590538E+03  0.00000000000E+00 0.  1.
</event>
<event>
 4    1  0.8322090E+003  0.2580382E+02  0.7546771E-02  0.1460009E+00
          2   -1    0    0  502    0  0.00000000000E+00  0.00000000000E+00  0.17083285705E+03  0.17083285705E+03  0.00000000000E+00 0.  1.
          1   -1    0    0  501    0 -0.00000000000E+00 -0.00000000000E+00 -0.25002351533E+03  0.25002351533E+03  0.00000000000E+00 0.  1.
          2    1    1    2  501    0  0.19826155347E+02 -0.16515465768E+02  0.16918624179E+03  0.17114269326E+03  0.00000000000E+00 0.  1.
          1    1    1    2  502    0 -0.19826155347E+02  0.16515465768E+02 -0.24837690008E+03  0.24971367912E+03  0.00000000000E+00 0.  1.
</event>
<event>
 4    1  0.8322090E+003  0.5189017E+02  0.7546771E-02  0.1290179E+00
          2   -1    0    0  502    0  0.00000000000E+00  0.00000000000E+00  0.27033885065E+03  0.27033885065E+03  0.00000000000E+00 0.  1.
          1   -1    0    0  501    0 -0.00000000000E+00 -0.00000000000E+00 -0.39575620138E+02  0.39575620138E+02  0.00000000000E+00 0.  1.
          2    1    1    2  501    0  0.51567351932E+02 -0.57791138797E+01  0.24942889464E+03  0.25476923563E+03  0.00000000000E+00 0.  1.
          1    1    1    2  502    0 -0.51567351932E+02  0.57791138797E+01 -0.18665664133E+02  0.55145235153E+02  0.00000000000E+00 0.  1.
</event>
<event>
 4    1  0.8322090E+003  0.2437631E+02  0.7546771E-02  0.1475903E+00
          2   -1    0    0  502    0  0.00000000000E+00  0.00000000000E+00  0.92415224749E+01  0.92415224749E+01  0.00000000000E+00 0. -1.
          1   -1    0    0  501    0 -0.00000000000E+00 -0.00000000000E+00 -0.95423796682E+03  0.95423796682E+03  0.00000000000E+00 0.  1.
          2    1    1    2  501    0  0.53367074684E+01 -0.23784959204E+02 -0.72714873422E+01  0.25437752634E+02  0.00000000000E+00 0. -1.
          1    1    1    2  502    0 -0.53367074684E+01  0.23784959204E+02 -0.93772495700E+03  0.93804173666E+03  0.00000000000E+00 0.  1.
</event>
<event>
 4    1  0.8322090E+003  0.2750375E+02  0.7546771E-02  0.1442612E+00
          2   -1    0    0  502    0  0.00000000000E+00  0.00000000000E+00  0.31121053611E+02  0.31121053611E+02  0.00000000000E+00 0. -1.
          1   -1    0    0  501    0 -0.00000000000E+00 -0.00000000000E+00 -0.98750725224E+03  0.98750725224E+03  0.00000000000E+00 0.  1.
          2    1    1    2  501    0  0.27163183857E+02  0.43148123864E+01  0.24813769212E+02  0.37042938675E+02  0.00000000000E+00 0. -1.
          1    1    1    2  502    0 -0.27163183857E+02 -0.43148123864E+01 -0.98119996784E+03  0.98158536718E+03  0.00000000000E+00 0.  1.
</event>
<event>
 4    1  0.8322090E+003  0.2204872E+02  0.7546771E-02  0.1504802E+00
          2   -1    0    0  502    0  0.00000000000E+00  0.00000000000E+00  0.11023558851E+04  0.11023558851E+04  0.00000000000E+00 0.  1.
          1   -1    0    0  501    0 -0.00000000000E+00 -0.00000000000E+00 -0.15032310107E+02  0.15032310107E+02  0.00000000000E+00 0. -1.
          2    1    1    2  501    0  0.18844376805E+02 -0.11447076050E+02  0.10940996091E+04  0.10943217537E+04  0.00000000000E+00 0.  1.
          1    1    1    2  502    0 -0.18844376805E+02  0.11447076050E+02 -0.67760340435E+01  0.23066441525E+02  0.00000000000E+00 0. -1.
</event>
<event>
 4    1  0.8322090E+003  0.2811929E+02  0.7546771E-02  0.1436677E+00
          2   -1    0    0  502    0  0.00000000000E+00  0.00000000000E+00  0.18768890932E+04  0.18768890932E+04  0.00000000000E+00 0. -1.
          1   -1    0    0  501    0 -0.00000000000E+00 -0.00000000000E+00 -0.17046361632E+01  0.17046361632E+01  0.00000000000E+00 0. -1.
          2    1    1    2  501    0  0.15465159662E+02  0.23484531564E+02  0.17525981329E+04  0.17528236961E+04  0.00000000000E+00 0. -1.
          1    1    1    2  502    0 -0.15465159662E+02 -0.23484531564E+02  0.12258632419E+03  0.12577003325E+03  0.00000000000E+00 0. -1.
</event>
<event>
 4    1  0.8322090E+003  0.2420844E+02  0.7546771E-02  0.1477857E+00
          2   -1    0    0  502    0  0.00000000000E+00  0.00000000000E+00  0.40284548170E+01  0.40284548170E+01  0.00000000000E+00 0. -1.
          1   -1    0    0  501    0 -0.00000000000E+00 -0.00000000000E+00 -0.17615562648E+03  0.17615562648E+03  0.00000000000E+00 0. -1.
          2    1    1    2  501    0  0.23798283404E+02 -0.44373950852E+01 -0.48466521989E+02  0.54176125017E+02  0.00000000000E+00 0. -1.
          1    1    1    2  502    0 -0.23798283404E+02  0.44373950852E+01 -0.12366064967E+03  0.12600795628E+03  0.00000000000E+00 0. -1.
</event>
<event>
 4    1  0.8322090E+003  0.2526871E+02  0.7546771E-02  0.1465820E+00
          2   -1    0    0  502    0  0.00000000000E+00  0.00000000000E+00  0.81772814359E+03  0.81772814359E+03  0.00000000000E+00 0. -1.
          1   -1    0    0  501    0 -0.00000000000E+00 -0.00000000000E+00 -0.28838302726E+01  0.28838302726E+01  0.00000000000E+00 0.  1.
          2    1    1    2  501    0  0.34302668543E+00 -0.25266378239E+02  0.75780478036E+03  0.75822595093E+03  0.00000000000E+00 0. -1.
          1    1    1    2  502    0 -0.34302668543E+00  0.25266378239E+02  0.57039532961E+02  0.62386022930E+02  0.00000000000E+00 0.  1.
</event>
<event>
 4    1  0.8322090E+003  0.2959342E+02  0.7546771E-02  0.1423163E+00
          2   -1    0    0  502    0  0.00000000000E+00  0.00000000000E+00  0.10670725499E+03  0.10670725499E+03  0.00000000000E+00 0.  1.
          1   -1    0    0  501    0 -0.00000000000E+00 -0.00000000000E+00 -0.85278907871E+01  0.85278907871E+01  0.00000000000E+00 0.  1.
          2    1    1    2  501    0  0.22254025730E+02  0.19507132663E+02  0.37916830172E+02  0.48098398063E+02  0.00000000000E+00 0.  1.
          1    1    1    2  502    0 -0.22254025730E+02 -0.19507132663E+02  0.60262534035E+02  0.67136747719E+02  0.00000000000E+00 0.  1.
</event>
<event>
 4    1  0.8322090E+003  0.2129302E+02  0.7546771E-02  0.1515122E+00
          2   -1    0    0  502    0  0.00000000000E+00  0.00000000000E+00  0.57253476780E+03  0.57253476780E+03  0.00000000000E+00 0.  1.
          1   -1    0    0  501    0 -0.00000000000E+00 -0.00000000000E+00 -0.17204859918E+02  0.17204859918E+02  0.00000000000E+00 0. -1.
          2    1    1    2  501    0  0.14775629881E+02  0.15332111111E+02  0.56566870211E+03  0.56606931856E+03  0.00000000000E+00 0.  1.
          1    1    1    2  502    0 -0.14775629881E+02 -0.15332111111E+02 -0.10338794228E+02  0.23670309157E+02  0.00000000000E+00 0. -1.
</event>
<event>
 4    1  0.8322090E+003  0.2034823E+02  0.7546771E-02  0.1528777E+00
          2   -1    0    0  502    0  0.00000000000E+00  0.00000000000E+00  0.55419934481E+03  0.55419934481E+03  0.00000000000E+00 0. -1.
          1   -1    0    0  501    0 -0.00000000000E+00 -0.00000000000E+00 -0.14860470751E+01  0.14860470751E+01  0.00000000000E+00 0. -1.
          2    1    1    2  501    0  0.66478672742E+01  0.19231644224E+02  0.47227952760E+03  0.47271767734E+03  0.00000000000E+00 0. -1.
          1    1    1    2  502    0 -0.66478672742E+01 -0.19231644224E+02  0.80433770132E+02  0.82967714544E+02  0.00000000000E+00 0. -1.
</event>
<event>
 4    1  0.8322090E+003  0.2264676E+02  0.7546771E-02  0.1496982E+00
          2   -1    0    0  502    0  0.00000000000E+00  0.00000000000E+00  0.20456794422E+02  0.20456794422E+02  0.00000000000E+00 0. -1.
          1   -1    0    0  501    0 -0.00000000000E+00 -0.00000000000E+00 -0.71749018692E+03  0.71749018692E+03  0.00000000000E+00 0. -1.
          2    1    1    2  501    0  0.22318781597E+02  0.38402738571E+01  0.13952977111E+02  0.26600024164E+02  0.00000000000E+00 0. -1.
          1    1    1    2  502    0 -0.22318781597E+02 -0.38402738571E+01 -0.71098636961E+03  0.71134695718E+03  0.00000000000E+00 0. -1.
</event>
<event>
 4    1  0.8322090E+003  0.2427432E+02  0.7546771E-02  0.1477088E+00
          2   -1    0    0  502    0  0.00000000000E+00  0.00000000000E+00  0.24219021968E+02  0.24219021968E+02  0.00000000000E+00 0.  1.
          1   -1    0    0  501    0 -0.00000000000E+00 -0.00000000000E+00 -0.49186514807E+03  0.49186514807E+03  0.00000000000E+00 0. -1.
          2    1    1    2  501    0  0.22322093690E+02 -0.95376400720E+01  0.17756160048E+02  0.30075299907E+02  0.00000000000E+00 0.  1.
          1    1    1    2  502    0 -0.22322093690E+02  0.95376400720E+01 -0.48540228615E+03  0.48600887013E+03  0.00000000000E+00 0. -1.
</event>
<event>
 4    1  0.8322090E+003  0.3004795E+02  0.7546771E-02  0.1419180E+00
          2   -1    0    0  502    0  0.00000000000E+00  0.00000000000E+00  0.43533088946E+02  0.43533088946E+02  0.00000000000E+00 0. -1.
          1   -1    0    0  501    0 -0.00000000000E+00 -0.00000000000E+00 -0.13921961948E+03  0.13921961948E+03  0.00000000000E+00 0.  1.
          2    1    1    2  501    0 -0.13467672850E+02 -0.26860770687E+02  0.36452412389E+02  0.47240423187E+02  0.00000000000E+00 0. -1.
          1    1    1    2  502    0  0.13467672850E+02  0.26860770687E+02 -0.13213894292E+03  0.13551228524E+03  0.00000000000E+00 0.  1.
</event>
<event>
 4    1  0.8322090E+003  0.2097228E+02  0.7546771E-02  0.1519661E+00
          2   -1    0    0  502    0  0.00000000000E+00  0.00000000000E+00  0.39434345820E+03  0.39434345820E+03  0.00000000000E+00 0. -1.
          1   -1    0    0  501    0 -0.00000000000E+00 -0.00000000000E+00 -0.16047441195E+01  0.16047441195E+01  0.00000000000E+00 0.  1.
          2    1    1    2  501    0 -0.26580099096E+01 -0.20803162727E+02  0.30569663448E+03  0.30641519043E+03  0.00000000000E+00 0. -1.
          1    1    1    2  502    0  0.26580099096E+01  0.20803162727E+02  0.87042079598E+02  0.89533011883E+02  0.00000000000E+00 0.  1.
</event>
<event>
 4    1  0.8322090E+003  0.2131327E+02  0.7546771E-02  0.1514839E+00
          2   -1    0    0  502    0  0.00000000000E+00  0.00000000000E+00  0.66649451585E+00  0.66649451585E+00  0.00000000000E+00 0. -1.
          1   -1    0    0  501    0 -0.00000000000E+00 -0.00000000000E+00 -0.12224060211E+04  0.12224060211E+04  0.00000000000E+00 0.  1.
          2    1    1    2  501    0  0.18654339014E+02  0.10308792270E+02 -0.20409729031E+03  0.20520711360E+03  0.00000000000E+00 0. -1.
          1    1    1    2  502    0 -0.18654339014E+02 -0.10308792270E+02 -0.10176422363E+04  0.10178654020E+04  0.00000000000E+00 0.  1.
</event>
<event>
 4    1  0.8322090E+003  0.2016348E+02  0.7546771E-02  0.1531551E+00
          2   -1    0    0  502    0  0.00000000000E+00  0.00000000000E+00  0.66570765845E+03  0.66570765845E+03  0.00000000000E+00 0. -1.
          1   -1    0    0  501    0 -0.00000000000E+00 -0.00000000000E+00 -0.46850314946E+03  0.46850314946E+03  0.00000000000E+00 0.  1.
          2    1    1    2  501    0 -0.88457825128E+01 -0.18119554234E+02  0.66533790647E+03  0.66564336991E+03  0.00000000000E+00 0. -1.
          1    1    1    2  502    0  0.88457825128E+01  0.18119554234E+02 -0.46813339748E+03  0.46856743800E+03  0.00000000000E+00 0.  1.
</event>
<event>
 4    1  0.8322090E+003  0.2109264E+02  0.7546771E-02  0.1517946E+00
          2   -1    0    0  502    0  0.00000000000E+00  0.00000000000E+00  0.78100787104E+02  0.78100787104E+02  0.00000000000E+00 0.  1.
          1   -1    0    0  501    0 -0.00000000000E+00 -0.00000000000E+00 -0.18885302139E+02  0.18885302139E+02  0.00000000000E+00 0. -1.
          2    1    1    2  501    0 -0.50237951575E+01 -0.20485627539E+02  0.70132508318E+02  0.73235702881E+02  0.00000000000E+00 0.  1.
          1    1    1    2  502    0  0.50237951575E+01  0.20485627539E+02 -0.10917023353E+02  0.23750386362E+02  0.00000000000E+00 0. -1.
</event>
<event>
 4    1  0.8322090E+003  0.2182347E+02  0.7546771E-02  0.1507825E+00
          2   -1    0    0  502    0  0.00000000000E+00  0.00000000000E+00  0.24985951843E+02  0.24985951843E+02  0.00000000000E+00 0.  1.
          1   -1    0    0  501    0 -0.00000000000E+00 -0.00000000000E+00 -0.19229628921E+02  0.19229628921E+02  0.00000000000E+00 0.  1.
          2    1    1    2  501    0 -0.12385786990E+02 -0.17968203580E+02  0.49467473971E+01  0.22377094741E+02  0.00000000000E+00 0.  1.
          1    1    1    2  502    0  0.12385786990E+02  0.17968203580E+02  0.80957552538E+00  0.21838486023E+02  0.00000000000E+00 0.  1.
</event>
<event>
 4    1  0.8322090E+003  0.2595346E+02  0.7546771E-02  0.1458414E+00
          2   -1    0    0  502    0  0.00000000000E+00  0.00000000000E+00  0.17739277082E+02  0.17739277082E+02  0.00000000000E+00 0. -1.
          1   -1    0    0  501    0 -0.00000000000E+00 -0.00000000000E+00 -0.10354190964E+03  0.10354190964E+03  0.00000000000E+00 0. -1.
          2    1    1    2  501    0 -0.25587165068E+02 -0.43450215968E+01  0.53556691607E+01  0.26500290962E+02  0.00000000000E+00 0. -1.
          1    1    1    2  502    0  0.25587165068E+02  0.43450215968E+01 -0.91158301716E+02  0.94780895758E+02  0.00000000000E+00 0. -1.
</event>
<event>
 4    1  0.8322090E+003  0.3804706E+02  0.7546771E-02  0.1360326E+00
          2   -1    0    0  502    0  0.00000000000E+00  0.00000000000E+00  0.16166324819E+04  0.16166324819E+04  0.00000000000E+00 0.  1.
          1   -1    0    0  501    0 -0.00000000000E+00 -0.00000000000E+00 -0.90761686876E+00  0.90761686876E+00  0.00000000000E+00 0.  1.
          2    1    1    2  501    0  0.35817847366E+02  0.12831948045E+02  0.71413526287E+03  0.71514806212E+03  0.00000000000E+00 0.  1.
          1    1    1    2  502    0 -0.35817847366E+02 -0.12831948045E+02  0.90158960213E+03  0.90239203662E+03  0.00000000000E+00 0.  1.
</event>
<event>
 4    1  0.8322090E+003  0.2421121E+02  0.7546771E-02  0.1477824E+00
          2   -1    0    0  502    0  0.00000000000E+00  0.00000000000E+00  0.11834985780E+03  0.11834985780E+03  0.00000000000E+00 0. -1.
          1   -1    0    0  501    0 -0.00000000000E+00 -0.00000000000E+00 -0.13243198998E+04  0.13243198998E+04  0.00000000000E+00 0. -1.
          2    1    1    2  501    0  0.13436314628E+02  0.20140707413E+02  0.11699969579E+03  0.11947849790E+03  0.00000000000E+00 0. -1.
          1    1    1    2  502    0 -0.13436314628E+02 -0.20140707413E+02 -0.13229697377E+04  0.13231912597E+04  0.00000000000E+00 0. -1.
</event>
<event>
 4    1  0.8322090E+003  0.2663005E+02  0.7546771E-02  0.1451360E+00
          2   -1    0    0  502    0  0.00000000000E+00  0.00000000000E+00  0.30198212677E+03  0.30198212677E+03  0.00000000000E+00 0. -1.
          1   -1    0    0  501    0 -0.00000000000E+00 -0.00000000000E+00 -0.11929033214E+03  0.11929033214E+03  0.00000000000E+00 0.  1.
          2    1    1    2  501    0  0.25933961383E+02  0.60489040667E+01  0.29989852889E+03  0.30107853996E+03  0.00000000000E+00 0. -1.
          1    1    1    2  502    0 -0.25933961383E+02 -0.60489040667E+01 -0.11720673427E+03  0.12019391894E+03  0.00000000000E+00 0.  1.
</event>
<event>
 4    1  0.8322090E+003  0.3228957E+02  0.7546771E-02  0.1400690E+00
          2   -1    0    0  502    0  0.00000000000E+00  0.00000000000E+00  0.66807640831E+02  0.66807640831E+02  0.00000000000E+00 0. -1.
          1   -1    0    0  501    0 -0.00000000000E+00 -0.00000000000E+00 -0.34897094606E+02  0.34897094606E+02  0.00000000000E+00 0. -1.
          2    1    1    2  501    0  0.29053804226E+02 -0.14088740571E+02  0.53764018359E+02  0.62715116367E+02  0.00000000000E+00 0. -1.
          1    1    1    2  502    0 -0.29053804226E+02  0.14088740571E+02 -0.21853472134E+02  0.38989619069E+02  0.00000000000E+00 0. -1.
</event>
<event>
 4    1  0.8322090E+003  0.2016513E+02  0.7546771E-02  0.1531526E+00
          2   -1    0    0  502    0  0.00000000000E+00  0.00000000000E+00  0.53547222119E+02  0.53547222119E+02  0.00000000000E+00 0.  1.
          1   -1    0    0  501    0 -0.00000000000E+00 -0.00000000000E+00 -0.19410310163E+02  0.19410310163E+02  0.00000000000E+00 0. -1.
          2    1    1    2  501    0  0.62787684097E+01  0.19162712358E+02  0.45530533904E+02  0.49796204627E+02  0.00000000000E+00 0.  1.
          1    1    1    2  502    0 -0.62787684097E+01 -0.19162712358E+02 -0.11393621948E+02  0.23161327655E+02  0.00000000000E+00 0. -1.
</event>
<event>
 4    1  0.8322090E+003  0.3593235E+02  0.7546771E-02  0.1374124E+00
          2   -1    0    0  502    0  0.00000000000E+00  0.00000000000E+00  0.22074394897E+03  0.22074394897E+03  0.00000000000E+00 0. -1.
          1   -1    0    0  501    0 -0.00000000000E+00 -0.00000000000E+00 -0.11797291977E+02  0.11797291977E+02  0.00000000000E+00 0.  1.
          2    1    1    2  501    0 -0.28466889908E+02 -0.21926460094E+02  0.18703426587E+03  0.19045458798E+03  0.00000000000E+00 0. -1.
          1    1    1    2  502    0  0.28466889908E+02  0.21926460094E+02  0.21912391123E+02  0.42086652968E+02  0.00000000000E+00 0.  1.
</event>
<event>
 4    1  0.1034885E+004  0.2095286E+02  0.7546771E-02  0.1519939E+00
          2   -1    0    0  502    0  0.00000000000E+00  0.00000000000E+00  0.68897004227E+03  0.68897004227E+03  0.00000000000E+00 0. -1.
          1   -1    0    0  501    0 -0.00000000000E+00 -0.00000000000E+00 -0.38068985551E+03  0.38068985551E+03  0.00000000000E+00 0.  1.
          2    1    1    2  501    0  0.19164287229E+02  0.84706725334E+01  0.68852224401E+03  0.68884098505E+03  0.00000000000E+00 0. -1.
          1    1    1    2  502    0 -0.19164287229E+02 -0.84706725334E+01 -0.38024205724E+03  0.38081891273E+03  0.00000000000E+00 0.  1.
</event>
<event>
 4    1  0.8322090E+003  0.2644859E+02  0.7546771E-02  0.1453227E+00
          2   -1    0    0  502    0  0.00000000000E+00  0.00000000000E+00  0.24133863050E+03  0.24133863050E+03  0.00000000000E+00 0. -1.
          1   -1    0    0  501    0 -0.00000000000E+00 -0.00000000000E+00 -0.58980837282E+01  0.58980837282E+01  0.00000000000E+00 0.  1.
          2    1    1    2  501    0  0.24744319010E+02 -0.93405798103E+01  0.20587704457E+03  0.20756898910E+03  0.00000000000E+00 0. -1.
          1    1    1    2  502    0 -0.24744319010E+02  0.93405798103E+01  0.29563502197E+02  0.39667725125E+02  0.00000000000E+00 0.  1.
</event>
<event>
 4    1  0.8322090E+003  0.2886153E+02  0.7546771E-02  0.1429754E+00
          2   -1    0    0  502    0  0.00000000000E+00  0.00000000000E+00  0.42284016047E+01  0.42284016047E+01  0.00000000000E+00 0.  1.
          1   -1    0    0  501    0 -0.00000000000E+00 -0.00000000000E+00 -0.52016850469E+03  0.52016850469E+03  0.00000000000E+00 0.  1.
          2    1    1    2  501    0 -0.25425268019E+02  0.13658099524E+02 -0.51301805324E+02  0.58863088315E+02  0.00000000000E+00 0.  1.
          1    1    1    2  502    0  0.25425268019E+02 -0.13658099524E+02 -0.46463829776E+03  0.46553381798E+03  0.00000000000E+00 0.  1.
</event>
<event>
 4    1  0.8322090E+003  0.2100163E+02  0.7546771E-02  0.1519241E+00
          2   -1    0    0  502    0  0.00000000000E+00  0.00000000000E+00  0.54925454269E+02  0.54925454269E+02  0.00000000000E+00 0.  1.
          1   -1    0    0  501    0 -0.00000000000E+00 -0.00000000000E+00 -0.38218724863E+02  0.38218724863E+02  0.00000000000E+00 0. -1.
          2    1    1    2  501    0 -0.43088857703E+01  0.20554853852E+02  0.49744541177E+02  0.53996184035E+02  0.00000000000E+00 0.  1.
          1    1    1    2  502    0  0.43088857703E+01 -0.20554853852E+02 -0.33037811771E+02  0.39147995097E+02  0.00000000000E+00 0. -1.
</event>
<event>
 4    1  0.1188808E+004  0.3159245E+02  0.7546771E-02  0.1406245E+00
          2   -1    0    0  502    0  0.00000000000E+00  0.00000000000E+00  0.62884207186E+03  0.62884207186E+03  0.00000000000E+00 0. -1.
          1   -1    0    0  501    0 -0.00000000000E+00 -0.00000000000E+00 -0.39099240839E+03  0.39099240839E+03  0.00000000000E+00 0.  1.
          2    1    1    2  501    0  0.10762932748E+02 -0.29702562998E+02  0.62780605258E+03  0.62860044752E+03  0.00000000000E+00 0. -1.
          1    1    1    2  502    0 -0.10762932748E+02  0.29702562998E+02 -0.38995638910E+03  0.39123403273E+03  0.00000000000E+00 0.  1.
</event>
<event>
 4    1  0.8322090E+003  0.2599901E+02  0.7546771E-02  0.1457931E+00
          2   -1    0    0  502    0  0.00000000000E+00  0.00000000000E+00  0.12828364498E+04  0.12828364498E+04  0.00000000000E+00 0.  1.
          1   -1    0    0  501    0 -0.00000000000E+00 -0.00000000000E+00 -0.12877340353E+02  0.12877340353E+02  0.00000000000E+00 0.  1.
          2    1    1    2  501    0 -0.25990065014E+02 -0.68204067605E+00  0.12694434541E+04  0.12697096643E+04  0.00000000000E+00 0.  1.
          1    1    1    2  502    0  0.25990065014E+02  0.68204067605E+00  0.51565538625E+00  0.26004125815E+02  0.00000000000E+00 0.  1.
</event>
<event>
 4    1  0.8322090E+003  0.2420312E+02  0.7546771E-02  0.1477919E+00
          2   -1    0    0  502    0  0.00000000000E+00  0.00000000000E+00  0.18015730154E+03  0.18015730154E+03  0.00000000000E+00 0.  1.
          1   -1    0    0  501    0 -0.00000000000E+00 -0.00000000000E+00 -0.33225399260E+01  0.33225399260E+01  0.00000000000E+00 0. -1.
          2    1    1    2  501    0 -0.10084551032E+02  0.22002108884E+02  0.10182690228E+03  0.10466379027E+03  0.00000000000E+00 0.  1.
          1    1    1    2  502    0  0.10084551032E+02 -0.22002108884E+02  0.75007859327E+02  0.78816051193E+02  0.00000000000E+00 0. -1.
</event>
<event>
 4    1  0.8322090E+003  0.2191736E+02  0.7546771E-02  0.1506560E+00
          2   -1    0    0  502    0  0.00000000000E+00  0.00000000000E+00  0.10654338889E+02  0.10654338889E+02  0.00000000000E+00 0.  1.
          1   -1    0    0  501    0 -0.00000000000E+00 -0.00000000000E+00 -0.49954927790E+03  0.49954927790E+03  0.00000000000E+00 0. -1.
          2    1    1    2  501    0  0.21118351229E+02 -0.58639350601E+01 -0.11299583251E+01  0.21946464381E+02  0.00000000000E+00 0.  1.
          1    1    1    2  502    0 -0.21118351229E+02  0.58639350601E+01 -0.48776498069E+03  0.48825715241E+03  0.00000000000E+00 0. -1.
</event>
<event>
 4    1  0.8322090E+003  0.2447309E+02  0.7546771E-02  0.1474785E+00
          2   -1    0    0  502    0  0.00000000000E+00  0.00000000000E+00  0.14192036491E+04  0.14192036491E+04  0.00000000000E+00 0. -1.
          1   -1    0    0  501    0 -0.00000000000E+00 -0.00000000000E+00 -0.82025497526E+02  0.82025497526E+02  0.00000000000E+00 0.  1.
          2    1    1    2  501    0 -0.35732624540E+01  0.24210825091E+02  0.14172702087E+04  0.14174814908E+04  0.00000000000E+00 0. -1.
          1    1    1    2  502    0  0.35732624540E+01 -0.24210825091E+02 -0.80092057088E+02  0.83747655877E+02  0.00000000000E+00 0.  1.
</event>
<event>
 4    1  0.8322090E+003  0.2612356E+02  0.7546771E-02  0.1456616E+00
          2   -1    0    0  502    0  0.00000000000E+00  0.00000000000E+00  0.10564230689E+04  0.10564230689E+04  0.00000000000E+00 0. -1.
          1   -1    0    0  501    0 -0.00000000000E+00 -0.00000000000E+00 -0.12758078312E+01  0.12758078312E+01  0.00000000000E+00 0.  1.
          2    1    1    2  501    0 -0.26269687874E+00 -0.26122241330E+02  0.89914848478E+03  0.89952789739E+03  0.00000000000E+00 0. -1.
          1    1    1    2  502    0  0.26269687874E+00  0.26122241330E+02  0.15599877624E+03  0.15817097929E+03  0.00000000000E+00 0.  1.
</event>
<event>
 4    1  0.8322090E+003  0.2595678E+02  0.7546771E-02  0.1458378E+00
          2   -1    0    0  502    0  0.00000000000E+00  0.00000000000E+00  0.12830257015E+04  0.12830257015E+04  0.00000000000E+00 0.  1.
          1   -1    0    0  501    0 -0.00000000000E+00 -0.00000000000E+00 -0.69680595843E+00  0.69680595843E+00  0.00000000000E+00 0.  1.
          2    1    1    2  501    0 -0.22588112057E+01  0.25858313229E+02  0.95976069663E+03  0.96011163381E+03  0.00000000000E+00 0.  1.
          1    1    1    2  502    0  0.22588112057E+01 -0.25858313229E+02  0.32256819886E+03  0.32361087360E+03  0.00000000000E+00 0.  1.
</event>
<event>
 4    1  0.8322090E+003  0.5058736E+02  0.7546771E-02  0.1295646E+00
          2   -1    0    0  502    0  0.00000000000E+00  0.00000000000E+00  0.82030993859E+00  0.82030993859E+00  0.00000000000E+00 0.  1.
          1   -1    0    0  501    0 -0.00000000000E+00 -0.00000000000E+00 -0.33995539079E+04  0.33995539079E+04  0.00000000000E+00 0.  1.
          2    1    1    2  501    0  0.50544834893E+02 -0.20737891662E+01 -0.12115134911E+04  0.12125691816E+04  0.00000000000E+00 0.  1.
          1    1    1    2  502    0 -0.50544834893E+02  0.20737891662E+01 -0.21872201069E+04  0.21878050363E+04  0.00000000000E+00 0.  1.
</event>
<event>
 4    1  0.8322090E+003  0.2323269E+02  0.7546771E-02  0.1489597E+00
          2   -1    0    0  502    0  0.00000000000E+00  0.00000000000E+00  0.39949823699E+01  0.39949823699E+01  0.00000000000E+00 0. -1.
          1   -1    0    0  501    0 -0.00000000000E+00 -0.00000000000E+00 -0.35688789526E+03  0.35688789526E+03  0.00000000000E+00 0. -1.
          2    1    1    2  501    0  0.23145047999E+02 -0.20160782085E+01 -0.34203574519E+02  0.41347821322E+02  0.00000000000E+00 0. -1.
          1    1    1    2  502    0 -0.23145047999E+02  0.20160782085E+01 -0.31868933837E+03  0.31953505631E+03  0.00000000000E+00 0. -1.
</event>
<event>
 4    1  0.8322090E+003  0.2802430E+02  0.7546771E-02  0.1437582E+00
          2   -1    0    0  502    0  0.00000000000E+00  0.00000000000E+00  0.23577851548E+01  0.23577851548E+01  0.00000000000E+00 0.  1.
          1   -1    0    0  501    0 -0.00000000000E+00 -0.00000000000E+00 -0.46203974291E+03  0.46203974291E+03  0.00000000000E+00 0. -1.
          2    1    1    2  501    0  0.27171408287E+01  0.27892261658E+02 -0.10717450958E+03  0.11077787061E+03  0.00000000000E+00 0.  1.
          1    1    1    2  502    0 -0.27171408287E+01 -0.27892261658E+02 -0.35250744818E+03  0.35361965745E+03  0.00000000000E+00 0. -1.
</event>
<event>
 4    1  0.8322090E+003  0.3608389E+02  0.7546771E-02  0.1373099E+00
          2   -1    0    0  502    0  0.00000000000E+00  0.00000000000E+00  0.31076359300E+02  0.31076359300E+02  0.00000000000E+00 0.  1.
          1   -1    0    0  501    0 -0.00000000000E+00 -0.00000000000E+00 -0.67219137338E+03  0.67219137338E+03  0.00000000000E+00 0. -1.
          2    1    1    2  501    0  0.21992512705E+02  0.28607281874E+02  0.19941217586E+02  0.41227410180E+02  0.00000000000E+00 0.  1.
          1    1    1    2  502    0 -0.21992512705E+02 -0.28607281874E+02 -0.66105623167E+03  0.66204032250E+03  0.00000000000E+00 0. -1.
</event>
<event>
 4    1  0.8322090E+003  0.2642942E+02  0.7546771E-02  0.1453425E+00
          2   -1    0    0  502    0  0.00000000000E+00  0.00000000000E+00  0.26527115339E+01  0.26527115339E+01  0.00000000000E+00 0. -1.
          1   -1    0    0  501    0 -0.00000000000E+00 -0.00000000000E+00 -0.47464742294E+03  0.47464742294E+03  0.00000000000E+00 0. -1.
          2    1    1    2  501    0 -0.49515564370E+01  0.25961435469E+02 -0.76757001442E+02  0.81179746939E+02  0.00000000000E+00 0. -1.
          1    1    1    2  502    0  0.49515564370E+01 -0.25961435469E+02 -0.39523770996E+03  0.39612038753E+03  0.00000000000E+00 0. -1.
</event>
<event>
 4    1  0.8322090E+003  0.2383732E+02  0.7546771E-02  0.1482243E+00
          2   -1    0    0  502    0  0.00000000000E+00  0.00000000000E+00  0.98493716614E+03  0.98493716614E+03  0.00000000000E+00 0.  1.
          1   -1    0    0  501    0 -0.00000000000E+00 -0.00000000000E+00 -0.26821088186E+01  0.26821088186E+01  0.00000000000E+00 0. -1.
          2    1    1    2  501    0 -0.20518185526E+01 -0.23748852242E+02  0.92861754772E+03  0.92892344565E+03  0.00000000000E+00 0.  1.
          1    1    1    2  502    0  0.20518185526E+01  0.23748852242E+02  0.53637509604E+02  0.58695829313E+02  0.00000000000E+00 0. -1.
</event>
<event>
 4    1  0.8322090E+003  0.3203454E+02  0.7546771E-02  0.1402703E+00
          2   -1    0    0  502    0  0.00000000000E+00  0.00000000000E+00  0.22452352676E+02  0.22452352676E+02  0.00000000000E+00 0. -1.
          1   -1    0    0  501    0 -0.00000000000E+00 -0.00000000000E+00 -0.80919650110E+02  0.80919650110E+02  0.00000000000E+00 0.  1.
          2    1    1    2  501    0  0.30678306203E+02  0.92224402307E+01  0.48620962361E+01  0.32401417486E+02  0.00000000000E+00 0. -1.
          1    1    1    2  502    0 -0.30678306203E+02 -0.92224402307E+01 -0.63329393669E+02  0.70970585300E+02  0.00000000000E+00 0.  1.
</event>
<event>
 4    1  0.8322090E+003  0.2315853E+02  0.7546771E-02  0.1490517E+00
          2   -1    0    0  502    0  0.00000000000E+00  0.00000000000E+00  0.35260861134E+03  0.35260861134E+03  0.00000000000E+00 0. -1.
          1   -1    0    0  501    0 -0.00000000000E+00 -0.00000000000E+00 -0.15377986962E+03  0.15377986962E+03  0.00000000000E+00 0. -1.
          2    1    1    2  501    0 -0.19961672275E+02  0.11740924603E+02  0.35135335792E+03  0.35211574772E+03  0.00000000000E+00 0. -1.
          1    1    1    2  502    0  0.19961672275E+02 -0.11740924603E+02 -0.15252461621E+03  0.15427273323E+03  0.00000000000E+00 0. -1.
</event>
<event>
 4    1  0.8322090E+003  0.2314538E+02  0.7546771E-02  0.1490681E+00
          2   -1    0    0  502    0  0.00000000000E+00  0.00000000000E+00  0.31494817515E+03  0.31494817515E+03  0.00000000000E+00 0.  1.
          1   -1    0    0  501    0 -0.00000000000E+00 -0.00000000000E+00 -0.17562403232E+02  0.17562403232E+02  0.00000000000E+00 0. -1.
          2    1    1    2  501    0 -0.20646841622E+02  0.10460243112E+02  0.30669215870E+03  0.30756428428E+03  0.00000000000E+00 0.  1.
          1    1    1    2  502    0  0.20646841622E+02 -0.10460243112E+02 -0.93063867775E+01  0.24946294110E+02  0.00000000000E+00 0. -1.
</event>
<event>
 4    1  0.8322090E+003  0.2150581E+02  0.7546771E-02  0.1512164E+00
          2   -1    0    0  502    0  0.00000000000E+00  0.00000000000E+00  0.69188453820E+00  0.69188453820E+00  0.00000000000E+00 0.  1.
          1   -1    0    0  501    0 -0.00000000000E+00 -0.00000000000E+00 -0.73623490711E+03  0.73623490711E+03  0.00000000000E+00 0.  1.
          2    1    1    2  501    0 -0.99522239318E+01 -0.19064435601E+02 -0.47956328189E+03  0.48004524871E+03  0.00000000000E+00 0.  1.
          1    1    1    2  502    0  0.99522239318E+01  0.19064435601E+02 -0.25597974068E+03  0.25688154294E+03  0.00000000000E+00 0.  1.
</event>
<event>
 4    1  0.8322090E+003  0.2936570E+02  0.7546771E-02  0.1425190E+00
          2   -1    0    0  502    0  0.00000000000E+00  0.00000000000E+00  0.14244574136E+02  0.14244574136E+02  0.00000000000E+00 0.  1.
          1   -1    0    0  501    0 -0.00000000000E+00 -0.00000000000E+00 -0.60605237218E+02  0.60605237218E+02  0.00000000000E+00 0.  1.
          2    1    1    2  501    0  0.25956039938E+02 -0.13734163132E+02 -0.24423484108E+02  0.38194892619E+02  0.00000000000E+00 0.  1.
          1    1    1    2  502    0 -0.25956039938E+02  0.13734163132E+02 -0.21937178974E+02  0.36654918736E+02  0.00000000000E+00 0.  1.
</event>
<event>
 4    1  0.8322090E+003  0.3651807E+02  0.7546771E-02  0.1370194E+00
          2   -1    0    0  502    0  0.00000000000E+00  0.00000000000E+00  0.15613856425E+04  0.15613856425E+04  0.00000000000E+00 0. -1.
          1   -1    0    0  501    0 -0.00000000000E+00 -0.00000000000E+00 -0.10814824029E+03  0.10814824029E+03  0.00000000000E+00 0. -1.
          2    1    1    2  501    0 -0.27381409753E+02  0.24162530463E+02  0.15580828502E+04  0.15585107435E+04  0.00000000000E+00 0. -1.
          1    1    1    2  502    0  0.27381409753E+02 -0.24162530463E+02 -0.10484544803E+03  0.11102313926E+03  0.00000000000E+00 0. -1.
</event>
<event>
 4    1  0.8322090E+003  0.4986138E+02  0.7546771E-02  0.1298775E+00
          2   -1    0    0  502    0  0.00000000000E+00  0.00000000000E+00  0.61362387179E+01  0.61362387179E+01  0.00000000000E+00 0. -1.
          1   -1    0    0  501    0 -0.00000000000E+00 -0.00000000000E+00 -0.41510406328E+03  0.41510406328E+03  0.00000000000E+00 0. -1.
          2    1    1    2  501    0 -0.40526460690E+02  0.29047560479E+02 -0.23708383040E+03  0.24227029827E+03  0.00000000000E+00 0. -1.
          1    1    1    2  502    0  0.40526460690E+02 -0.29047560479E+02 -0.17188399416E+03  0.17897000373E+03  0.00000000000E+00 0. -1.
</event>
<event>
 4    1  0.8322090E+003  0.4282408E+02  0.7546771E-02  0.1332687E+00
          2   -1    0    0  502    0  0.00000000000E+00  0.00000000000E+00  0.11456384598E+03  0.11456384598E+03  0.00000000000E+00 0. -1.
          1   -1    0    0  501    0 -0.00000000000E+00 -0.00000000000E+00 -0.39610830849E+02  0.39610830849E+02  0.00000000000E+00 0. -1.
          2    1    1    2  501    0  0.38199851425E+02 -0.19356484471E+02  0.96982541501E+02  0.10601658123E+03  0.00000000000E+00 0. -1.
          1    1    1    2  502    0 -0.38199851425E+02  0.19356484471E+02 -0.22029526367E+02  0.48158095601E+02  0.00000000000E+00 0. -1.
</event>
<event>
 4    1  0.1079154E+004  0.3078625E+02  0.7546771E-02  0.1412884E+00
          2   -1    0    0  502    0  0.00000000000E+00  0.00000000000E+00  0.22680271566E+04  0.22680271566E+04  0.00000000000E+00 0. -1.
          1   -1    0    0  501    0 -0.00000000000E+00 -0.00000000000E+00 -0.22484882250E+03  0.22484882250E+03  0.00000000000E+00 0. -1.
          2    1    1    2  501    0  0.28111895987E+02  0.12550480958E+02  0.22668683329E+04  0.22670773767E+04  0.00000000000E+00 0. -1.
          1    1    1    2  502    0 -0.28111895987E+02 -0.12550480958E+02 -0.22368999881E+03  0.22579860238E+03  0.00000000000E+00 0. -1.
</event>
<event>
 4    1  0.8322090E+003  0.2110349E+02  0.7546771E-02  0.1517792E+00
          2   -1    0    0  502    0  0.00000000000E+00  0.00000000000E+00  0.13237117458E+04  0.13237117458E+04  0.00000000000E+00 0. -1.
          1   -1    0    0  501    0 -0.00000000000E+00 -0.00000000000E+00 -0.16929128786E+01  0.16929128786E+01  0.00000000000E+00 0.  1.
          2    1    1    2  501    0  0.85628361845E+01 -0.19288211127E+02  0.12542158087E+04  0.12543933403E+04  0.00000000000E+00 0. -1.
          1    1    1    2  502    0 -0.85628361845E+01  0.19288211127E+02  0.67803024155E+02  0.71011318369E+02  0.00000000000E+00 0.  1.
</event>
<event>
 4    1  0.8322090E+003  0.2299202E+02  0.7546771E-02  0.1492598E+00
          2   -1    0    0  502    0  0.00000000000E+00  0.00000000000E+00  0.73595696943E+03  0.73595696943E+03  0.00000000000E+00 0. -1.
          1   -1    0    0  501    0 -0.00000000000E+00 -0.00000000000E+00 -0.13488988396E+01  0.13488988396E+01  0.00000000000E+00 0.  1.
          2    1    1    2  501    0  0.18563647456E+02 -0.13565546357E+02  0.61936572938E+03  0.61979233602E+03  0.00000000000E+00 0. -1.
          1    1    1    2  502    0 -0.18563647456E+02  0.13565546357E+02  0.11524234121E+03  0.11751353225E+03  0.00000000000E+00 0.  1.
</event>
<event>
 4    1  0.8322090E+003  0.2099409E+02  0.7546771E-02  0.1519349E+00
          2   -1    0    0  502    0  0.00000000000E+00  0.00000000000E+00  0.29140545772E+03  0.29140545772E+03  0.00000000000E+00 0. -1.
          1   -1    0    0  501    0 -0.00000000000E+00 -0.00000000000E+00 -0.38314737604E+02  0.38314737604E+02  0.00000000000E+00 0.  1.
          2    1    1    2  501    0  0.10834272592E+02  0.17982503456E+02  0.28811870440E+03  0.28888257081E+03  0.00000000000E+00 0. -1.
          1    1    1    2  502    0 -0.10834272592E+02 -0.17982503456E+02 -0.35027984282E+02  0.40837624515E+02  0.00000000000E+00 0.  1.
</event>
<event>
 4    1  0.8322090E+003  0.2700891E+02  0.7546771E-02  0.1447519E+00
          2   -1    0    0  502    0  0.00000000000E+00  0.00000000000E+00  0.16499665157E+03  0.16499665157E+03  0.00000000000E+00 0.  1.
          1   -1    0    0  501    0 -0.00000000000E+00 -0.00000000000E+00 -0.41679391418E+02  0.41679391418E+02  0.00000000000E+00 0.  1.
          2    1    1    2  501    0 -0.26226511202E+02  0.64537971244E+01  0.15936219417E+03  0.16163474354E+03  0.00000000000E+00 0.  1.
          1    1    1    2  502    0  0.26226511202E+02 -0.64537971244E+01 -0.36044934023E+02  0.45041299447E+02  0.00000000000E+00 0.  1.
</event>
<event>
 4    1  0.8322090E+003  0.3498846E+02  0.7546771E-02  0.1380644E+00
          2   -1    0    0  502    0  0.00000000000E+00  0.00000000000E+00  0.88631804111E+03  0.88631804111E+03  0.00000000000E+00 0. -1.
          1   -1    0    0  501    0 -0.00000000000E+00 -0.00000000000E+00 -0.14092927527E+01  0.14092927527E+01  0.00000000000E+00 0. -1.
          2    1    1    2  501    0 -0.34540825847E+02  0.55787438125E+01  0.37979709686E+03  0.38140533009E+03  0.00000000000E+00 0. -1.
          1    1    1    2  502    0  0.34540825847E+02 -0.55787438125E+01  0.50511165149E+03  0.50632200377E+03  0.00000000000E+00 0. -1.
</event>
<event>
 4    1  0.8322090E+003  0.2545836E+02  0.7546771E-02  0.1463741E+00
          2   -1    0    0  502    0  0.00000000000E+00  0.00000000000E+00  0.55361378736E+01  0.55361378736E+01  0.00000000000E+00 0. -1.
          1   -1    0    0  501    0 -0.00000000000E+00 -0.00000000000E+00 -0.28353149552E+03  0.28353149552E+03  0.00000000000E+00 0.  1.
          2    1    1    2  501    0  0.21191531825E+02  0.14108398205E+02 -0.28253011195E+02  0.38031047351E+02  0.00000000000E+00 0. -1.
          1    1    1    2  502    0 -0.21191531825E+02 -0.14108398205E+02 -0.24974234646E+03  0.25103658605E+03  0.00000000000E+00 0.  1.
</event>
<event>
 4    1  0.8322090E+003  0.2243993E+02  0.7546771E-02  0.1499653E+00
          2   -1    0    0  502    0  0.00000000000E+00  0.00000000000E+00  0.12375217540E+01  0.12375217540E+01  0.00000000000E+00 0. -1.
          1   -1    0    0  501    0 -0.00000000000E+00 -0.00000000000E+00 -0.40712076558E+03  0.40712076558E+03  0.00000000000E+00 0.  1.
          2    1    1    2  501    0 -0.70909211152E+00  0.22428725490E+02 -0.19821263216E+03  0.19947881613E+03  0.00000000000E+00 0. -1.
          1    1    1    2  502    0  0.70909211152E+00 -0.22428725490E+02 -0.20767061166E+03  0.20887947120E+03  0.00000000000E+00 0.  1.
</event>
<event>
 4    1  0.8322090E+003  0.2071281E+02  0.7546771E-02  0.1523405E+00
          2   -1    0    0  502    0  0.00000000000E+00  0.00000000000E+00  0.37674934650E+03  0.37674934650E+03  0.00000000000E+00 0. -1.
          1   -1    0    0  501    0 -0.00000000000E+00 -0.00000000000E+00 -0.16538412422E+02  0.16538412422E+02  0.00000000000E+00 0.  1.
          2    1    1    2  501    0  0.11719482659E+02  0.17078476262E+02  0.36985871825E+03  0.37043824329E+03  0.00000000000E+00 0. -1.
          1    1    1    2  502    0 -0.11719482659E+02 -0.17078476262E+02 -0.96477841719E+01  0.22849515633E+02  0.00000000000E+00 0.  1.
</event>
<event>
 4    1  0.1597167E+004  0.2563923E+02  0.7546771E-02  0.1461778E+00
          2   -1    0    0  502    0  0.00000000000E+00  0.00000000000E+00  0.48212155328E+03  0.48212155328E+03  0.00000000000E+00 0. -1.
          1   -1    0    0  501    0 -0.00000000000E+00 -0.00000000000E+00 -0.77996100555E+03  0.77996100555E+03  0.00000000000E+00 0.  1.
          2    1    1    2  501    0  0.82725063035E+01  0.24267993750E+02  0.48156973248E+03  0.48225177773E+03  0.00000000000E+00 0. -1.
          1    1    1    2  502    0 -0.82725063035E+01 -0.24267993750E+02 -0.77940918475E+03  0.77983078111E+03  0.00000000000E+00 0.  1.
</event>
<event>
 4    1  0.8322090E+003  0.2072728E+02  0.7546771E-02  0.1523194E+00
          2   -1    0    0  502    0  0.00000000000E+00  0.00000000000E+00  0.57493228238E+03  0.57493228238E+03  0.00000000000E+00 0.  1.
          1   -1    0    0  501    0 -0.00000000000E+00 -0.00000000000E+00 -0.42093434725E+02  0.42093434725E+02  0.00000000000E+00 0. -1.
          2    1    1    2  501    0  0.16446820037E+02 -0.12614371505E+02  0.57218161959E+03  0.57255691949E+03  0.00000000000E+00 0.  1.
          1    1    1    2  502    0 -0.16446820037E+02  0.12614371505E+02 -0.39342771936E+02  0.44468797616E+02  0.00000000000E+00 0. -1.
</event>
<event>
 4    1  0.8322090E+003  0.3378214E+02  0.7546771E-02  0.1389333E+00
          2   -1    0    0  502    0  0.00000000000E+00  0.00000000000E+00  0.54269965870E+02  0.54269965870E+02  0.00000000000E+00 0.  1.
          1   -1    0    0  501    0 -0.00000000000E+00 -0.00000000000E+00 -0.67196184910E+03  0.67196184910E+03  0.00000000000E+00 0. -1.
          2    1    1    2  501    0  0.21516607264E+02 -0.26043588699E+02  0.48543011093E+02  0.59140991084E+02  0.00000000000E+00 0.  1.
          1    1    1    2  502    0 -0.21516607264E+02  0.26043588699E+02 -0.66623489432E+03  0.66709082388E+03  0.00000000000E+00 0. -1.
</event>
<event>
 4    1  0.8322090E+003  0.2990414E+02  0.7546771E-02  0.1420431E+00
          2   -1    0    0  502    0  0.00000000000E+00  0.00000000000E+00  0.12964988979E+04  0.12964988979E+04  0.00000000000E+00 0.  1.
          1   -1    0    0  501    0 -0.00000000000E+00 -0.00000000000E+00 -0.10814842993E+01  0.10814842993E+01  0.00000000000E+00 0. -1.
          2    1    1    2  501    0 -0.37712228201E+01 -0.29665394275E+02  0.10381816816E+04  0.10386122769E+04  0.00000000000E+00 0.  1.
          1    1    1    2  502    0  0.37712228201E+01  0.29665394275E+02  0.25723573201E+03  0.25896810530E+03  0.00000000000E+00 0. -1.
</event>
<event>
 4    1  0.8322090E+003  0.4604575E+02  0.7546771E-02  0.1316292E+00
          2   -1    0    0  502    0  0.00000000000E+00  0.00000000000E+00  0.13723746718E+03  0.13723746718E+03  0.00000000000E+00 0. -1.
          1   -1    0    0  501    0 -0.00000000000E+00 -0.00000000000E+00 -0.44238223071E+02  0.44238223071E+02  0.00000000000E+00 0.  1.
          2    1    1    2  501    0  0.42831691107E+02 -0.16901412150E+02  0.11969825245E+03  0.12824930072E+03  0.00000000000E+00 0. -1.
          1    1    1    2  502    0 -0.42831691107E+02  0.16901412150E+02 -0.26699008342E+02  0.53226389528E+02  0.00000000000E+00 0.  1.
</event>
<event>
 4    1  0.8322090E+003  0.2503247E+02  0.7546771E-02  0.1468441E+00
          2   -1    0    0  502    0  0.00000000000E+00  0.00000000000E+00  0.14219253754E+03  0.14219253754E+03  0.00000000000E+00 0.  1.
          1   -1    0    0  501    0 -0.00000000000E+00 -0.00000000000E+00 -0.22426029151E+02  0.22426029151E+02  0.00000000000E+00 0.  1.
          2    1    1    2  501    0  0.17063545194E+02  0.18315560463E+02  0.13366346031E+03  0.13598729702E+03  0.00000000000E+00 0.  1.
          1    1    1    2  502    0 -0.17063545194E+02 -0.18315560463E+02 -0.13896951926E+02  0.28631269663E+02  0.00000000000E+00 0.  1.
</event>
<event>
 4    1  0.8322090E+003  0.3518665E+02  0.7546771E-02  0.1379256E+00
          2   -1    0    0  502    0  0.00000000000E+00  0.00000000000E+00  0.20124877367E+04  0.20124877367E+04  0.00000000000E+00 0.  1.
          1   -1    0    0  501    0 -0.00000000000E+00 -0.00000000000E+00 -0.20274875703E+01  0.20274875703E+01  0.00000000000E+00 0.  1.
          2    1    1    2  501    0 -0.15083964932E+02  0.31789528342E+02  0.18458926296E+04  0.18462279653E+04  0.00000000000E+00 0.  1.
          1    1    1    2  502    0  0.15083964932E+02 -0.31789528342E+02  0.16456761960E+03  0.16828725897E+03  0.00000000000E+00 0.  1.
</event>
<event>
 4    1  0.8322090E+003  0.6556929E+02  0.7546771E-02  0.1242000E+00
          2   -1    0    0  502    0  0.00000000000E+00  0.00000000000E+00  0.20847224334E+03  0.20847224334E+03  0.00000000000E+00 0. -1.
          1   -1    0    0  501    0 -0.00000000000E+00 -0.00000000000E+00 -0.11337365696E+03  0.11337365696E+03  0.00000000000E+00 0. -1.
          2    1    1    2  501    0  0.54935710330E+02  0.35796638446E+02  0.19310200781E+03  0.20393066717E+03  0.00000000000E+00 0. -1.
          1    1    1    2  502    0 -0.54935710330E+02 -0.35796638446E+02 -0.98003421427E+02  0.11791523313E+03  0.00000000000E+00 0. -1.
</event>
<event>
 4    1  0.8322090E+003  0.4100820E+02  0.7546771E-02  0.1342677E+00
          2   -1    0    0  502    0  0.00000000000E+00  0.00000000000E+00  0.47003413260E+03  0.47003413260E+03  0.00000000000E+00 0. -1.
          1   -1    0    0  501    0 -0.00000000000E+00 -0.00000000000E+00 -0.11847719318E+02  0.11847719318E+02  0.00000000000E+00 0.  1.
          2    1    1    2  501    0  0.37914145384E+02  0.15626580069E+02  0.43039363992E+03  0.43234287054E+03  0.00000000000E+00 0. -1.
          1    1    1    2  502    0 -0.37914145384E+02 -0.15626580069E+02  0.27792773366E+02  0.49538981381E+02  0.00000000000E+00 0.  1.
</event>
<event>
 4    1  0.8322090E+003  0.4520497E+02  0.7546771E-02  0.1320418E+00
          2   -1    0    0  502    0  0.00000000000E+00  0.00000000000E+00  0.10923542476E+03  0.10923542476E+03  0.00000000000E+00 0.  1.
          1   -1    0    0  501    0 -0.00000000000E+00 -0.00000000000E+00 -0.17029111567E+03  0.17029111567E+03  0.00000000000E+00 0.  1.
          2    1    1    2  501    0 -0.39641831466E+02  0.21725888911E+02  0.10133535663E+03  0.11096100015E+03  0.00000000000E+00 0.  1.
          1    1    1    2  502    0  0.39641831466E+02 -0.21725888911E+02 -0.16239104754E+03  0.16856554029E+03  0.00000000000E+00 0.  1.
</event>
<event>
 4    1  0.8322090E+003  0.2535639E+02  0.7546771E-02  0.1464856E+00
          2   -1    0    0  502    0  0.00000000000E+00  0.00000000000E+00  0.93158271853E+01  0.93158271853E+01  0.00000000000E+00 0.  1.
          1   -1    0    0  501    0 -0.00000000000E+00 -0.00000000000E+00 -0.91656848545E+02  0.91656848545E+02  0.00000000000E+00 0.  1.
          2    1    1    2  501    0  0.25152063496E+02  0.32125036130E+01 -0.16078685549E+02  0.30024500105E+02  0.00000000000E+00 0.  1.
          1    1    1    2  502    0 -0.25152063496E+02 -0.32125036130E+01 -0.66262335810E+02  0.70948175626E+02  0.00000000000E+00 0.  1.
</event>
<event>
 4    1  0.8322090E+003  0.3176996E+02  0.7546771E-02  0.1404815E+00
          2   -1    0    0  502    0  0.00000000000E+00  0.00000000000E+00  0.20000951714E+02  0.20000951714E+02  0.00000000000E+00 0. -1.
          1   -1    0    0  501    0 -0.00000000000E+00 -0.00000000000E+00 -0.10197288174E+03  0.10197288174E+03  0.00000000000E+00 0.  1.
          2    1    1    2  501    0  0.21173334535E+02 -0.23685866705E+02  0.23586247377E+01  0.31857392981E+02  0.00000000000E+00 0. -1.
          1    1    1    2  502    0 -0.21173334535E+02  0.23685866705E+02 -0.84330554765E+02  0.90116440475E+02  0.00000000000E+00 0.  1.
</event>
<event>
 4    1  0.1053618E+004  0.3798316E+02  0.7546771E-02  0.1360728E+00
          2   -1    0    0  502    0  0.00000000000E+00  0.00000000000E+00  0.74616872911E+03  0.74616872911E+03  0.00000000000E+00 0. -1.
          1   -1    0    0  501    0 -0.00000000000E+00 -0.00000000000E+00 -0.54928291890E+03  0.54928291890E+03  0.00000000000E+00 0.  1.
          2    1    1    2  501    0  0.18362860592E+02 -0.33249453097E+02  0.74502770963E+03  0.74599531426E+03  0.00000000000E+00 0. -1.
          1    1    1    2  502    0 -0.18362860592E+02  0.33249453097E+02 -0.54814189942E+03  0.54945633374E+03  0.00000000000E+00 0.  1.
</event>
<event>
 4    1  0.8322090E+003  0.3593232E+02  0.7546771E-02  0.1374125E+00
          2   -1    0    0  502    0  0.00000000000E+00  0.00000000000E+00  0.11920926113E+02  0.11920926113E+02  0.00000000000E+00 0. -1.
          1   -1    0    0  501    0 -0.00000000000E+00 -0.00000000000E+00 -0.12268551827E+03  0.12268551827E+03  0.00000000000E+00 0.  1.
          2    1    1    2  501    0 -0.29366527920E+02  0.20706006783E+02 -0.32342366201E+02  0.48344186108E+02  0.00000000000E+00 0. -1.
          1    1    1    2  502    0  0.29366527920E+02 -0.20706006783E+02 -0.78422225959E+02  0.86262258279E+02  0.00000000000E+00 0.  1.
</event>
<event>
 4    1  0.8322090E+003  0.3105006E+02  0.7546771E-02  0.1410686E+00
          2   -1    0    0  502    0  0.00000000000E+00  0.00000000000E+00  0.12953885019E+04  0.12953885019E+04  0.00000000000E+00 0. -1.
          1   -1    0    0  501    0 -0.00000000000E+00 -0.00000000000E+00 -0.53240605435E+02  0.53240605435E+02  0.00000000000E+00 0.  1.
          2    1    1    2  501    0 -0.24788690472E+02 -0.18698317607E+02  0.12906587299E+04  0.12910321697E+04  0.00000000000E+00 0. -1.
          1    1    1    2  502    0  0.24788690472E+02  0.18698317607E+02 -0.48510833446E+02  0.57596937577E+02  0.00000000000E+00 0.  1.
</event>
<event>
 4    1  0.8322090E+003  0.2440032E+02  0.7546771E-02  0.1475625E+00
          2   -1    0    0  502    0  0.00000000000E+00  0.00000000000E+00  0.20682109624E+03  0.20682109624E+03  0.00000000000E+00 0.  1.
          1   -1    0    0  501    0 -0.00000000000E+00 -0.00000000000E+00 -0.31031038829E+03  0.31031038829E+03  0.00000000000E+00 0. -1.
          2    1    1    2  501    0  0.16492725581E+02 -0.17982373922E+02  0.20561896541E+03  0.20706166885E+03  0.00000000000E+00 0.  1.
          1    1    1    2  502    0 -0.16492725581E+02  0.17982373922E+02 -0.30910825746E+03  0.31006981569E+03  0.00000000000E+00 0. -1.
</event>
<event>
 4    1  0.8322090E+003  0.1067168E+03  0.7546771E-02  0.1152651E+00
          2   -1    0    0  502    0  0.00000000000E+00  0.00000000000E+00  0.35663283580E+03  0.35663283580E+03  0.00000000000E+00 0.  1.
          1   -1    0    0  501    0 -0.00000000000E+00 -0.00000000000E+00 -0.10983126965E+03  0.10983126965E+03  0.00000000000E+00 0.  1.
          2    1    1    2  501    0 -0.95503434091E+02 -0.47619039346E+02  0.31982190195E+03  0.33715653308E+03  0.00000000000E+00 0.  1.
          1    1    1    2  502    0  0.95503434091E+02  0.47619039346E+02 -0.73020335796E+02  0.12930757237E+03  0.00000000000E+00 0.  1.
</event>
<event>
 4    1  0.8322090E+003  0.2984308E+02  0.7546771E-02  0.1420965E+00
          2   -1    0    0  502    0  0.00000000000E+00  0.00000000000E+00  0.12046640743E+04  0.12046640743E+04  0.00000000000E+00 0. -1.
          1   -1    0    0  501    0 -0.00000000000E+00 -0.00000000000E+00 -0.81383164152E+00  0.81383164152E+00  0.00000000000E+00 0. -1.
          2    1    1    2  501    0 -0.25591454819E+02 -0.15352102050E+02  0.78432679431E+03  0.78489434312E+03  0.00000000000E+00 0. -1.
          1    1    1    2  502    0  0.25591454819E+02  0.15352102050E+02  0.41952344831E+03  0.42058356278E+03  0.00000000000E+00 0. -1.
</event>
<event>
 4    1  0.8322090E+003  0.5745743E+02  0.7546771E-02  0.1268725E+00
          2   -1    0    0  502    0  0.00000000000E+00  0.00000000000E+00  0.32210760517E+02  0.32210760517E+02  0.00000000000E+00 0. -1.
          1   -1    0    0  501    0 -0.00000000000E+00 -0.00000000000E+00 -0.69856817958E+03  0.69856817958E+03  0.00000000000E+00 0. -1.
          2    1    1    2  501    0  0.43984333881E+02  0.36969368109E+02  0.43435285433E+01  0.57621367959E+02  0.00000000000E+00 0. -1.
          1    1    1    2  502    0 -0.43984333881E+02 -0.36969368109E+02 -0.67070094761E+03  0.67315757214E+03  0.00000000000E+00 0. -1.
</event>
<event>
 4    1  0.8322090E+003  0.2031584E+02  0.7546771E-02  0.1529261E+00
          2   -1    0    0  502    0  0.00000000000E+00  0.00000000000E+00  0.19012301019E+03  0.19012301019E+03  0.00000000000E+00 0.  1.
          1   -1    0    0  501    0 -0.00000000000E+00 -0.00000000000E+00 -0.11563597704E+03  0.11563597704E+03  0.00000000000E+00 0. -1.
          2    1    1    2  501    0 -0.20293428639E+02 -0.95399952248E+00  0.18868118054E+03  0.18977176094E+03  0.00000000000E+00 0.  1.
          1    1    1    2  502    0  0.20293428639E+02  0.95399952248E+00 -0.11419414739E+03  0.11598722628E+03  0.00000000000E+00 0. -1.
</event>
<event>
 4    1  0.8322090E+003  0.2184881E+02  0.7546771E-02  0.1507483E+00
          2   -1    0    0  502    0  0.00000000000E+00  0.00000000000E+00  0.16620305755E+01  0.16620305755E+01  0.00000000000E+00 0.  1.
          1   -1    0    0  501    0 -0.00000000000E+00 -0.00000000000E+00 -0.42251492949E+03  0.42251492949E+03  0.00000000000E+00 0. -1.
          2    1    1    2  501    0  0.14131382570E+02 -0.16663571108E+02 -0.90411670177E+02  0.93014196119E+02  0.00000000000E+00 0.  1.
          1    1    1    2  502    0 -0.14131382570E+02  0.16663571108E+02 -0.33044122874E+03  0.33116276395E+03  0.00000000000E+00 0. -1.
</event>
<event>
 4    1  0.8322090E+003  0.7381447E+02  0.7546771E-02  0.1218985E+00
          2   -1    0    0  502    0  0.00000000000E+00  0.00000000000E+00  0.19236388925E+04  0.19236388925E+04  0.00000000000E+00 0. -1.
          1   -1    0    0  501    0 -0.00000000000E+00 -0.00000000000E+00 -0.30069605495E+02  0.30069605495E+02  0.00000000000E+00 0.  1.
          2    1    1    2  501    0 -0.22221844251E+02 -0.70390100394E+02  0.18764934020E+04  0.18779446383E+04  0.00000000000E+00 0. -1.
          1    1    1    2  502    0  0.22221844251E+02  0.70390100394E+02  0.17075885014E+02  0.75763859751E+02  0.00000000000E+00 0.  1.
</event>
<event>
 4    1  0.8322090E+003  0.1254370E+03  0.7546771E-02  0.1125838E+00
          2   -1    0    0  502    0  0.00000000000E+00  0.00000000000E+00  0.36961386655E+03  0.36961386655E+03  0.00000000000E+00 0. -1.
          1   -1    0    0  501    0 -0.00000000000E+00 -0.00000000000E+00 -0.46659003381E+02  0.46659003381E+02  0.00000000000E+00 0. -1.
          2    1    1    2  501    0  0.24122712297E+02  0.12309559367E+03  0.22309345922E+03  0.25593968425E+03  0.00000000000E+00 0. -1.
          1    1    1    2  502    0 -0.24122712297E+02 -0.12309559367E+03  0.99861403949E+02  0.16033318568E+03  0.00000000000E+00 0. -1.
</event>
<event>
 4    1  0.8322090E+003  0.2570286E+02  0.7546771E-02  0.1461092E+00
          2   -1    0    0  502    0  0.00000000000E+00  0.00000000000E+00  0.24365229589E+03  0.24365229589E+03  0.00000000000E+00 0.  1.
          1   -1    0    0  501    0 -0.00000000000E+00 -0.00000000000E+00 -0.69178817435E+01  0.69178817435E+01  0.00000000000E+00 0. -1.
          2    1    1    2  501    0 -0.14007154103E+02  0.21550792908E+02  0.21606228926E+03  0.21758572996E+03  0.00000000000E+00 0.  1.
          1    1    1    2  502    0  0.14007154103E+02 -0.21550792908E+02  0.20672124881E+02  0.32984447670E+02  0.00000000000E+00 0. -1.
</event>
<event>
 4    1  0.8322090E+003  0.3458290E+02  0.7546771E-02  0.1383519E+00
          2   -1    0    0  502    0  0.00000000000E+00  0.00000000000E+00  0.76842483925E+02  0.76842483925E+02  0.00000000000E+00 0.  1.
          1   -1    0    0  501    0 -0.00000000000E+00 -0.00000000000E+00 -0.44118567466E+03  0.44118567466E+03  0.00000000000E+00 0.  1.
          2    1    1    2  501    0 -0.38042005916E+01  0.34373025787E+02  0.72232756331E+02  0.80084629805E+02  0.00000000000E+00 0.  1.
          1    1    1    2  502    0  0.38042005916E+01 -0.34373025787E+02 -0.43657594707E+03  0.43794352878E+03  0.00000000000E+00 0.  1.
</event>
<event>
 4    1  0.8322090E+003  0.2931984E+02  0.7546771E-02  0.1425601E+00
          2   -1    0    0  502    0  0.00000000000E+00  0.00000000000E+00  0.54318413827E+03  0.54318413827E+03  0.00000000000E+00 0. -1.
          1   -1    0    0  501    0 -0.00000000000E+00 -0.00000000000E+00 -0.18270941256E+01  0.18270941256E+01  0.00000000000E+00 0.  1.
          2    1    1    2  501    0 -0.20355225866E+02  0.21102549862E+02  0.37035977581E+03  0.37151852762E+03  0.00000000000E+00 0. -1.
          1    1    1    2  502    0  0.20355225866E+02 -0.21102549862E+02  0.17099726834E+03  0.17349270478E+03  0.00000000000E+00 0.  1.
</event>
<event>
 4    1  0.8322090E+003  0.4104024E+02  0.7546771E-02  0.1342496E+00
          2   -1    0    0  502    0  0.00000000000E+00  0.00000000000E+00  0.20240898225E+03  0.20240898225E+03  0.00000000000E+00 0.  1.
          1   -1    0    0  501    0 -0.00000000000E+00 -0.00000000000E+00 -0.12306231082E+02  0.12306231082E+02  0.00000000000E+00 0.  1.
          2    1    1    2  501    0 -0.35610563098E+02 -0.20400715352E+02  0.15614303190E+03  0.16144642394E+03  0.00000000000E+00 0.  1.
          1    1    1    2  502    0  0.35610563098E+02  0.20400715352E+02  0.33959719275E+02  0.53268789401E+02  0.00000000000E+00 0.  1.
</event>
<event>
 4    1  0.8322090E+003  0.2203224E+02  0.7546771E-02  0.1505022E+00
          2   -1    0    0  502    0  0.00000000000E+00  0.00000000000E+00  0.16816518355E+03  0.16816518355E+03  0.00000000000E+00 0.  1.
          1   -1    0    0  501    0 -0.00000000000E+00 -0.00000000000E+00 -0.25555313449E+02  0.25555313449E+02  0.00000000000E+00 0.  1.
          2    1    1    2  501    0 -0.10221687719E+02 -0.19517594733E+02  0.16253096245E+03  0.16401747821E+03  0.00000000000E+00 0.  1.
          1    1    1    2  502    0  0.10221687719E+02  0.19517594733E+02 -0.19921092356E+02  0.29703018780E+02  0.00000000000E+00 0.  1.
</event>
<event>
 4    1  0.8322090E+003  0.2085977E+02  0.7546771E-02  0.1521276E+00
          2   -1    0    0  502    0  0.00000000000E+00  0.00000000000E+00  0.12067978554E+02  0.12067978554E+02  0.00000000000E+00 0.  1.
          1   -1    0    0  501    0 -0.00000000000E+00 -0.00000000000E+00 -0.60148712837E+02  0.60148712837E+02  0.00000000000E+00 0. -1.
          2    1    1    2  501    0  0.17413557762E+02  0.11484694762E+02 -0.11879618588E+01  0.20893574636E+02  0.00000000000E+00 0.  1.
          1    1    1    2  502    0 -0.17413557762E+02 -0.11484694762E+02 -0.46892772424E+02  0.51323116754E+02  0.00000000000E+00 0. -1.
</event>
<event>
 4    1  0.8322090E+003  0.2122850E+02  0.7546771E-02  0.1516027E+00
          2   -1    0    0  502    0  0.00000000000E+00  0.00000000000E+00  0.54944792678E+03  0.54944792678E+03  0.00000000000E+00 0. -1.
          1   -1    0    0  501    0 -0.00000000000E+00 -0.00000000000E+00 -0.23015961952E+01  0.23015961952E+01  0.00000000000E+00 0. -1.
          2    1    1    2  501    0  0.21169258945E+02 -0.15848279567E+01  0.49490054786E+03  0.49535563132E+03  0.00000000000E+00 0. -1.
          1    1    1    2  502    0 -0.21169258945E+02  0.15848279567E+01  0.52245782719E+02  0.56393891654E+02  0.00000000000E+00 0. -1.
</event>
<event>
 4    1  0.8322090E+003  0.2005356E+02  0.7546771E-02  0.1533219E+00
          2   -1    0    0  502    0  0.00000000000E+00  0.00000000000E+00  0.26829186499E+03  0.26829186499E+03  0.00000000000E+00 0.  1.
          1   -1    0    0  501    0 -0.00000000000E+00 -0.00000000000E+00 -0.74807962728E+01  0.74807962728E+01  0.00000000000E+00 0.  1.
          2    1    1    2  501    0  0.95705083518E+01 -0.17622444873E+02  0.25370647767E+03  0.25449778389E+03  0.00000000000E+00 0.  1.
          1    1    1    2  502    0 -0.95705083518E+01  0.17622444873E+02  0.71045910526E+01  0.21274877378E+02  0.00000000000E+00 0.  1.
</event>
<event>
 4    1  0.8322090E+003  0.2241543E+02  0.7546771E-02  0.1499972E+00
          2   -1    0    0  502    0  0.00000000000E+00  0.00000000000E+00  0.18602273465E+03  0.18602273465E+03  0.00000000000E+00 0.  1.
          1   -1    0    0  501    0 -0.00000000000E+00 -0.00000000000E+00 -0.27786920827E+01  0.27786920827E+01  0.00000000000E+00 0.  1.
          2    1    1    2  501    0 -0.22634936012E+01  0.22300857498E+02  0.10740466305E+03  0.10971879189E+03  0.00000000000E+00 0.  1.
          1    1    1    2  502    0  0.22634936012E+01 -0.22300857498E+02  0.75839379508E+02  0.79082634836E+02  0.00000000000E+00 0.  1.
</event>
<event>
 4    1  0.8322090E+003  0.2610828E+02  0.7546771E-02  0.1456777E+00
          2   -1    0    0  502    0  0.00000000000E+00  0.00000000000E+00  0.17249605263E+01  0.17249605263E+01  0.00000000000E+00 0.  1.
          1   -1    0    0  501    0 -0.00000000000E+00 -0.00000000000E+00 -0.11053314499E+04  0.11053314499E+04  0.00000000000E+00 0. -1.
          2    1    1    2  501    0  0.21037468232E+02  0.15461797477E+02 -0.10811912762E+03  0.11122674143E+03  0.00000000000E+00 0.  1.
          1    1    1    2  502    0 -0.21037468232E+02 -0.15461797477E+02 -0.99548736174E+03  0.99582966899E+03  0.00000000000E+00 0. -1.
</event>
<event>
 4    1  0.8322090E+003  0.2281725E+02  0.7546771E-02  0.1494806E+00
          2   -1    0    0  502    0  0.00000000000E+00  0.00000000000E+00  0.57101290334E+01  0.57101290334E+01  0.00000000000E+00 0. -1.
          1   -1    0    0  501    0 -0.00000000000E+00 -0.00000000000E+00 -0.96169381183E+02  0.96169381183E+02  0.00000000000E+00 0.  1.
          2    1    1    2  501    0 -0.10847714019E+02  0.20073709466E+02 -0.33622200551E+02  0.40633472422E+02  0.00000000000E+00 0. -1.
          1    1    1    2  502    0  0.10847714019E+02 -0.20073709466E+02 -0.56837051598E+02  0.61246037795E+02  0.00000000000E+00 0.  1.
</event>
<event>
 4    1  0.8322090E+003  0.2292414E+02  0.7546771E-02  0.1493453E+00
          2   -1    0    0  502    0  0.00000000000E+00  0.00000000000E+00  0.14432190145E+04  0.14432190145E+04  0.00000000000E+00 0.  1.
          1   -1    0    0  501    0 -0.00000000000E+00 -0.00000000000E+00 -0.16218619496E+02  0.16218619496E+02  0.00000000000E+00 0. -1.
          2    1    1    2  501    0  0.54419750483E+01 -0.22268839952E+02  0.14349809720E+04  0.14351640694E+04  0.00000000000E+00 0.  1.
          1    1    1    2  502    0 -0.54419750483E+01  0.22268839952E+02 -0.79805769935E+01  0.24273564518E+02  0.00000000000E+00 0. -1.
</event>
<event>
 4    1  0.8322090E+003  0.2190924E+02  0.7546771E-02  0.1506669E+00
          2   -1    0    0  502    0  0.00000000000E+00  0.00000000000E+00  0.12661626139E+04  0.12661626139E+04  0.00000000000E+00 0. -1.
          1   -1    0    0  501    0 -0.00000000000E+00 -0.00000000000E+00 -0.43127909953E+00  0.43127909953E+00  0.00000000000E+00 0. -1.
          2    1    1    2  501    0  0.18890749051E+02 -0.11097500714E+02  0.85312525145E+03  0.85340653243E+03  0.00000000000E+00 0. -1.
          1    1    1    2  502    0 -0.18890749051E+02  0.11097500714E+02  0.41260608333E+03  0.41318736055E+03  0.00000000000E+00 0. -1.
</event>
<event>
 4    1  0.8322090E+003  0.3947016E+02  0.7546771E-02  0.1351619E+00
          2   -1    0    0  502    0  0.00000000000E+00  0.00000000000E+00  0.13487508179E+02  0.13487508179E+02  0.00000000000E+00 0.  1.
          1   -1    0    0  501    0 -0.00000000000E+00 -0.00000000000E+00 -0.60327961189E+03  0.60327961189E+03  0.00000000000E+00 0.  1.
          2    1    1    2  501    0 -0.29929945865E+02 -0.25731149315E+02 -0.17601804466E+02  0.43217094129E+02  0.00000000000E+00 0.  1.
          1    1    1    2  502    0  0.29929945865E+02  0.25731149315E+02 -0.57219029924E+03  0.57355002594E+03  0.00000000000E+00 0.  1.
</event>
<event>
 4    1  0.8322090E+003  0.2383084E+02  0.7546771E-02  0.1482321E+00
          2   -1    0    0  502    0  0.00000000000E+00  0.00000000000E+00  0.88302508171E+03  0.88302508171E+03  0.00000000000E+00 0.  1.
          1   -1    0    0  501    0 -0.00000000000E+00 -0.00000000000E+00 -0.21078346966E+02  0.21078346966E+02  0.00000000000E+00 0. -1.
          2    1    1    2  501    0  0.63442737910E+01  0.22970836947E+02  0.87607517848E+03  0.87639923979E+03  0.00000000000E+00 0.  1.
          1    1    1    2  502    0 -0.63442737910E+01 -0.22970836947E+02 -0.14128443728E+02  0.27704188892E+02  0.00000000000E+00 0. -1.
</event>
<event>
 4    1  0.8322090E+003  0.2004877E+02  0.7546771E-02  0.1533291E+00
          2   -1    0    0  502    0  0.00000000000E+00  0.00000000000E+00  0.52582060576E+03  0.52582060576E+03  0.00000000000E+00 0.  1.
          1   -1    0    0  501    0 -0.00000000000E+00 -0.00000000000E+00 -0.65529374213E+02  0.65529374213E+02  0.00000000000E+00 0. -1.
          2    1    1    2  501    0 -0.20005377153E+02 -0.13184022030E+01  0.52409095386E+03  0.52447429033E+03  0.00000000000E+00 0.  1.
          1    1    1    2  502    0  0.20005377153E+02  0.13184022030E+01 -0.63799722308E+02  0.66875689649E+02  0.00000000000E+00 0. -1.
</event>
<event>
 4    1  0.8322090E+003  0.2457357E+02  0.7546771E-02  0.1473631E+00
          2   -1    0    0  502    0  0.00000000000E+00  0.00000000000E+00  0.19100245514E+01  0.19100245514E+01  0.00000000000E+00 0. -1.
          1   -1    0    0  501    0 -0.00000000000E+00 -0.00000000000E+00 -0.78779807978E+03  0.78779807978E+03  0.00000000000E+00 0.  1.
          2    1    1    2  501    0  0.15750851349E+02  0.18861891772E+02 -0.87426081925E+02  0.90813986149E+02  0.00000000000E+00 0. -1.
          1    1    1    2  502    0 -0.15750851349E+02 -0.18861891772E+02 -0.69846197330E+03  0.69889411818E+03  0.00000000000E+00 0.  1.
</event>
<event>
 4    1  0.8322090E+003  0.2409715E+02  0.7546771E-02  0.1479162E+00
          2   -1    0    0  502    0  0.00000000000E+00  0.00000000000E+00  0.13769752367E+04  0.13769752367E+04  0.00000000000E+00 0.  1.
          1   -1    0    0  501    0 -0.00000000000E+00 -0.00000000000E+00 -0.13637809839E+01  0.13637809839E+01  0.00000000000E+00 0.  1.
          2    1    1    2  501    0  0.67450050049E+01 -0.23133903125E+02  0.12605984682E+04  0.12608287634E+04  0.00000000000E+00 0.  1.
          1    1    1    2  502    0 -0.67450050049E+01  0.23133903125E+02  0.11501298747E+03  0.11751025424E+03  0.00000000000E+00 0.  1.
</event>
<event>
 4    1  0.8322090E+003  0.2980268E+02  0.7546771E-02  0.1421319E+00
          2   -1    0    0  502    0  0.00000000000E+00  0.00000000000E+00  0.16766801321E+01  0.16766801321E+01  0.00000000000E+00 0.  1.
          1   -1    0    0  501    0 -0.00000000000E+00 -0.00000000000E+00 -0.53043810300E+03  0.53043810300E+03  0.00000000000E+00 0.  1.
          2    1    1    2  501    0  0.28294801584E+02 -0.93597124178E+01 -0.25471008430E+03  0.25644770823E+03  0.00000000000E+00 0.  1.
          1    1    1    2  502    0 -0.28294801584E+02  0.93597124178E+01 -0.27405133857E+03  0.27566707490E+03  0.00000000000E+00 0.  1.
</event>
<event>
 4    1  0.8322090E+003  0.2398348E+02  0.7546771E-02  0.1480505E+00
          2   -1    0    0  502    0  0.00000000000E+00  0.00000000000E+00  0.10595310942E+02  0.10595310942E+02  0.00000000000E+00 0.  1.
          1   -1    0    0  501    0 -0.00000000000E+00 -0.00000000000E+00 -0.37550031949E+03  0.37550031949E+03  0.00000000000E+00 0.  1.
          2    1    1    2  501    0 -0.13568203218E+02  0.19776525908E+02 -0.39043907416E+01  0.24299205390E+02  0.00000000000E+00 0.  1.
          1    1    1    2  502    0  0.13568203218E+02 -0.19776525908E+02 -0.36100061781E+03  0.36179642504E+03  0.00000000000E+00 0.  1.
</event>
<event>
 4    1  0.8322090E+003  0.2039867E+02  0.7546771E-02  0.1528026E+00
          2   -1    0    0  502    0  0.00000000000E+00  0.00000000000E+00  0.71495772646E+03  0.71495772646E+03  0.00000000000E+00 0. -1.
          1   -1    0    0  501    0 -0.00000000000E+00 -0.00000000000E+00 -0.39382260716E+01  0.39382260716E+01  0.00000000000E+00 0.  1.
          2    1    1    2  501    0 -0.19634838067E+01 -0.20303955286E+02  0.68733641502E+03  0.68763904287E+03  0.00000000000E+00 0. -1.
          1    1    1    2  502    0  0.19634838067E+01  0.20303955286E+02  0.23683085369E+02  0.31256909661E+02  0.00000000000E+00 0.  1.
</event>
<event>
 4    1  0.8322090E+003  0.3176049E+02  0.7546771E-02  0.1404891E+00
          2   -1    0    0  502    0  0.00000000000E+00  0.00000000000E+00  0.66650817359E+03  0.66650817359E+03  0.00000000000E+00 0.  1.
          1   -1    0    0  501    0 -0.00000000000E+00 -0.00000000000E+00 -0.16386427675E+01  0.16386427675E+01  0.00000000000E+00 0. -1.
          2    1    1    2  501    0  0.29328247234E+02 -0.12189435904E+02  0.42477375583E+03  0.42595947233E+03  0.00000000000E+00 0.  1.
          1    1    1    2  502    0 -0.29328247234E+02  0.12189435904E+02  0.24009577499E+03  0.24218734402E+03  0.00000000000E+00 0. -1.
</event>
<event>
 4    1  0.8322090E+003  0.2028217E+02  0.7546771E-02  0.1529765E+00
          2   -1    0    0  502    0  0.00000000000E+00  0.00000000000E+00  0.21110788088E+03  0.21110788088E+03  0.00000000000E+00 0.  1.
          1   -1    0    0  501    0 -0.00000000000E+00 -0.00000000000E+00 -0.12019144771E+02  0.12019144771E+02  0.00000000000E+00 0. -1.
          2    1    1    2  501    0  0.11421481842E+02  0.16760556508E+02  0.20166458001E+03  0.20268194131E+03  0.00000000000E+00 0.  1.
          1    1    1    2  502    0 -0.11421481842E+02 -0.16760556508E+02 -0.25758439026E+01  0.20445084342E+02  0.00000000000E+00 0. -1.
</event>
<event>
 4    1  0.8322090E+003  0.2637533E+02  0.7546771E-02  0.1453986E+00
          2   -1    0    0  502    0  0.00000000000E+00  0.00000000000E+00  0.46446287230E+02  0.46446287230E+02  0.00000000000E+00 0.  1.
          1   -1    0    0  501    0 -0.00000000000E+00 -0.00000000000E+00 -0.51353921312E+02  0.51353921312E+02  0.00000000000E+00 0.  1.
          2    1    1    2  501    0 -0.19147965396E+02  0.18138721859E+02  0.38702060587E+02  0.46834894076E+02  0.00000000000E+00 0.  1.
          1    1    1    2  502    0  0.19147965396E+02 -0.18138721859E+02 -0.43609694669E+02  0.50965314466E+02  0.00000000000E+00 0.  1.
</event>
<event>
 4    1  0.8322090E+003  0.2651127E+02  0.7546771E-02  0.1452580E+00
          2   -1    0    0  502    0  0.00000000000E+00  0.00000000000E+00  0.34873644597E+03  0.34873644597E+03  0.00000000000E+00 0. -1.
          1   -1    0    0  501    0 -0.00000000000E+00 -0.00000000000E+00 -0.47619589291E+01  0.47619589291E+01  0.00000000000E+00 0. -1.
          2    1    1    2  501    0  0.19976454788E+02  0.17429536752E+02  0.30621989829E+03  0.30736537477E+03  0.00000000000E+00 0. -1.
          1    1    1    2  502    0 -0.19976454788E+02 -0.17429536752E+02  0.37754588745E+02  0.46133030126E+02  0.00000000000E+00 0. -1.
</event>
<event>
 4    1  0.8322090E+003  0.2448198E+02  0.7546771E-02  0.1474683E+00
          2   -1    0    0  502    0  0.00000000000E+00  0.00000000000E+00  0.39475530476E+02  0.39475530476E+02  0.00000000000E+00 0.  1.
          1   -1    0    0  501    0 -0.00000000000E+00 -0.00000000000E+00 -0.92275361276E+02  0.92275361276E+02  0.00000000000E+00 0.  1.
          2    1    1    2  501    0  0.23771315224E+02  0.58559443986E+01  0.33812439539E+02  0.41745042578E+02  0.00000000000E+00 0.  1.
          1    1    1    2  502    0 -0.23771315224E+02 -0.58559443986E+01 -0.86612270339E+02  0.90005849174E+02  0.00000000000E+00 0.  1.
</event>
<event>
 4    1  0.8322090E+003  0.2060135E+02  0.7546771E-02  0.1525033E+00
          2   -1    0    0  502    0  0.00000000000E+00  0.00000000000E+00  0.37819851560E+02  0.37819851560E+02  0.00000000000E+00 0.  1.
          1   -1    0    0  501    0 -0.00000000000E+00 -0.00000000000E+00 -0.10613636436E+03  0.10613636436E+03  0.00000000000E+00 0.  1.
          2    1    1    2  501    0 -0.98885717673E+01  0.18072958659E+02  0.33908368318E+02  0.39676102735E+02  0.00000000000E+00 0.  1.
          1    1    1    2  502    0  0.98885717673E+01 -0.18072958659E+02 -0.10222488112E+03  0.10428011319E+03  0.00000000000E+00 0.  1.
</event>
<event>
 4    1  0.8322090E+003  0.2120591E+02  0.7546771E-02  0.1516345E+00
          2   -1    0    0  502    0  0.00000000000E+00  0.00000000000E+00  0.65670322071E+02  0.65670322071E+02  0.00000000000E+00 0. -1.
          1   -1    0    0  501    0 -0.00000000000E+00 -0.00000000000E+00 -0.67359020836E+03  0.67359020836E+03  0.00000000000E+00 0.  1.
          2    1    1    2  501    0  0.10832010492E+02 -0.18230688980E+02  0.63786697746E+02  0.67219292479E+02  0.00000000000E+00 0. -1.
          1    1    1    2  502    0 -0.10832010492E+02  0.18230688980E+02 -0.67170658404E+03  0.67204123796E+03  0.00000000000E+00 0.  1.
</event>
<event>
 4    1  0.8322090E+003  0.6181093E+02  0.7546771E-02  0.1253801E+00
          2   -1    0    0  502    0  0.00000000000E+00  0.00000000000E+00  0.12971512717E+04  0.12971512717E+04  0.00000000000E+00 0. -1.
          1   -1    0    0  501    0 -0.00000000000E+00 -0.00000000000E+00 -0.36684914016E+01  0.36684914016E+01  0.00000000000E+00 0. -1.
          2    1    1    2  501    0 -0.60260316844E+02 -0.13758106103E+02  0.93550920991E+03  0.93754897103E+03  0.00000000000E+00 0. -1.
          1    1    1    2  502    0  0.60260316844E+02  0.13758106103E+02  0.35797357043E+03  0.36327079210E+03  0.00000000000E+00 0. -1.
</event>
<event>
 4    1  0.8322090E+003  0.2366429E+02  0.7546771E-02  0.1484321E+00
          2   -1    0    0  502    0  0.00000000000E+00  0.00000000000E+00  0.89158318149E+03  0.89158318149E+03  0.00000000000E+00 0. -1.
          1   -1    0    0  501    0 -0.00000000000E+00 -0.00000000000E+00 -0.60841715362E+01  0.60841715362E+01  0.00000000000E+00 0.  1.
          2    1    1    2  501    0 -0.90670772821E+01  0.21858332842E+02  0.86778475737E+03  0.86810735726E+03  0.00000000000E+00 0. -1.
          1    1    1    2  502    0  0.90670772821E+01 -0.21858332842E+02  0.17714252583E+02  0.29559995765E+02  0.00000000000E+00 0.  1.
</event>
<event>
 4    1  0.8322090E+003  0.3498016E+02  0.7546771E-02  0.1380703E+00
          2   -1    0    0  502    0  0.00000000000E+00  0.00000000000E+00  0.19545066638E+04  0.19545066638E+04  0.00000000000E+00 0.  1.
          1   -1    0    0  501    0 -0.00000000000E+00 -0.00000000000E+00 -0.88614811648E+01  0.88614811648E+01  0.00000000000E+00 0.  1.
          2    1    1    2  501    0  0.25408802028E+02  0.24041720995E+02  0.19191945315E+04  0.19195132876E+04  0.00000000000E+00 0.  1.
          1    1    1    2  502    0 -0.25408802028E+02 -0.24041720995E+02  0.26450651155E+02  0.43854857375E+02  0.00000000000E+00 0.  1.
</event>
<event>
 4    1  0.8322090E+003  0.6975837E+02  0.7546771E-02  0.1229855E+00
          2   -1    0    0  502    0  0.00000000000E+00  0.00000000000E+00  0.44989499067E+03  0.44989499067E+03  0.00000000000E+00 0. -1.
          1   -1    0    0  501    0 -0.00000000000E+00 -0.00000000000E+00 -0.16181632563E+02  0.16181632563E+02  0.00000000000E+00 0.  1.
          2    1    1    2  501    0 -0.43840000957E+02  0.54261256800E+02  0.35104407904E+03  0.35790805398E+03  0.00000000000E+00 0. -1.
          1    1    1    2  502    0  0.43840000957E+02 -0.54261256800E+02  0.82669279072E+02  0.10816856926E+03  0.00000000000E+00 0.  1.
</event>
<event>
 4    1  0.8322090E+003  0.2937001E+02  0.7546771E-02  0.1425151E+00
          2   -1    0    0  502    0  0.00000000000E+00  0.00000000000E+00  0.89139506854E+03  0.89139506854E+03  0.00000000000E+00 0. -1.
          1   -1    0    0  501    0 -0.00000000000E+00 -0.00000000000E+00 -0.13481871001E+01  0.13481871001E+01  0.00000000000E+00 0. -1.
          2    1    1    2  501    0  0.28370002146E+02  0.75987105323E+01  0.68215810435E+03  0.68279006784E+03  0.00000000000E+00 0. -1.
          1    1    1    2  502    0 -0.28370002146E+02 -0.75987105323E+01  0.20788877710E+03  0.20995318780E+03  0.00000000000E+00 0. -1.
</event>
<event>
 4    1  0.8322090E+003  0.2862879E+02  0.7546771E-02  0.1431899E+00
          2   -1    0    0  502    0  0.00000000000E+00  0.00000000000E+00  0.28745323872E+01  0.28745323872E+01  0.00000000000E+00 0. -1.
          1   -1    0    0  501    0 -0.00000000000E+00 -0.00000000000E+00 -0.13504841255E+04  0.13504841255E+04  0.00000000000E+00 0.  1.
          2    1    1    2  501    0 -0.20390949696E+02  0.20095195411E+02 -0.72789243282E+02  0.78216888494E+02  0.00000000000E+00 0. -1.
          1    1    1    2  502    0  0.20390949696E+02 -0.20095195411E+02 -0.12748203498E+04  0.12751417694E+04  0.00000000000E+00 0.  1.
</event>
<event>
 4    1  0.8322090E+003  0.2979690E+02  0.7546771E-02  0.1421370E+00
          2   -1    0    0  502    0  0.00000000000E+00  0.00000000000E+00  0.32364138277E+02  0.32364138277E+02  0.00000000000E+00 0. -1.
          1   -1    0    0  501    0 -0.00000000000E+00 -0.00000000000E+00 -0.13789199870E+03  0.13789199870E+03  0.00000000000E+00 0. -1.
          2    1    1    2  501    0  0.29774182127E+02  0.11632339600E+01  0.23426988866E+02  0.37903546561E+02  0.00000000000E+00 0. -1.
          1    1    1    2  502    0 -0.29774182127E+02 -0.11632339600E+01 -0.12895484929E+03  0.13235259042E+03  0.00000000000E+00 0. -1.
</event>
<event>
 4    1  0.8322090E+003  0.4393439E+02  0.7546771E-02  0.1326854E+00
          2   -1    0    0  502    0  0.00000000000E+00  0.00000000000E+00  0.82756563049E+02  0.82756563049E+02  0.00000000000E+00 0.  1.
          1   -1    0    0  501    0 -0.00000000000E+00 -0.00000000000E+00 -0.74066280694E+02  0.74066280694E+02  0.00000000000E+00 0. -1.
          2    1    1    2  501    0  0.22310441304E+02 -0.37848052723E+02  0.69246409394E+02  0.82007902668E+02  0.00000000000E+00 0.  1.
          1    1    1    2  502    0 -0.22310441304E+02  0.37848052723E+02 -0.60556127038E+02  0.74814941074E+02  0.00000000000E+00 0. -1.
</event>
<event>
 4    1  0.8322090E+003  0.2164412E+02  0.7546771E-02  0.1510264E+00
          2   -1    0    0  502    0  0.00000000000E+00  0.00000000000E+00  0.91166598681E+00  0.91166598681E+00  0.00000000000E+00 0. -1.
          1   -1    0    0  501    0 -0.00000000000E+00 -0.00000000000E+00 -0.11824274397E+04  0.11824274397E+04  0.00000000000E+00 0. -1.
          2    1    1    2  501    0  0.57346888430E+01  0.20870571279E+02 -0.10356605846E+04  0.10358867283E+04  0.00000000000E+00 0. -1.
          1    1    1    2  502    0 -0.57346888430E+01 -0.20870571279E+02 -0.14585518905E+03  0.14745237731E+03  0.00000000000E+00 0. -1.
</event>
<event>
 4    1  0.8322090E+003  0.4548047E+02  0.7546771E-02  0.1319054E+00
          2   -1    0    0  502    0  0.00000000000E+00  0.00000000000E+00  0.38605404966E+03  0.38605404966E+03  0.00000000000E+00 0.  1.
          1   -1    0    0  501    0 -0.00000000000E+00 -0.00000000000E+00 -0.26025359981E+03  0.26025359981E+03  0.00000000000E+00 0. -1.
          2    1    1    2  501    0 -0.42337642209E+02  0.16613163014E+02  0.38271027460E+03  0.38540320110E+03  0.00000000000E+00 0.  1.
          1    1    1    2  502    0  0.42337642209E+02 -0.16613163014E+02 -0.25690982474E+03  0.26090444837E+03  0.00000000000E+00 0. -1.
</event>
<event>
 4    1  0.8322090E+003  0.2086889E+02  0.7546771E-02  0.1521145E+00
          2   -1    0    0  502    0  0.00000000000E+00  0.00000000000E+00  0.81936741428E+03  0.81936741428E+03  0.00000000000E+00 0.  1.
          1   -1    0    0  501    0 -0.00000000000E+00 -0.00000000000E+00 -0.53771986652E+00  0.53771986652E+00  0.00000000000E+00 0.  1.
          2    1    1    2  501    0  0.60810136848E+01  0.19963253910E+02  0.36539546794E+03  0.36599092643E+03  0.00000000000E+00 0.  1.
          1    1    1    2  502    0 -0.60810136848E+01 -0.19963253910E+02  0.45343422648E+03  0.45391420772E+03  0.00000000000E+00 0.  1.
</event>
<event>
 4    1  0.8322090E+003  0.2471720E+02  0.7546771E-02  0.1471992E+00
          2   -1    0    0  502    0  0.00000000000E+00  0.00000000000E+00  0.15883615962E+04  0.15883615962E+04  0.00000000000E+00 0. -1.
          1   -1    0    0  501    0 -0.00000000000E+00 -0.00000000000E+00 -0.14011680832E+02  0.14011680832E+02  0.00000000000E+00 0.  1.
          2    1    1    2  501    0 -0.16856558497E+02  0.18077509276E+02  0.15772883693E+04  0.15774820252E+04  0.00000000000E+00 0. -1.
          1    1    1    2  502    0  0.16856558497E+02 -0.18077509276E+02 -0.29384539350E+01  0.24891251827E+02  0.00000000000E+00 0.  1.
</event>
<event>
 4    1  0.8322090E+003  0.2477768E+02  0.7546771E-02  0.1471306E+00
          2   -1    0    0  502    0  0.00000000000E+00  0.00000000000E+00  0.12679076884E+04  0.12679076884E+04  0.00000000000E+00 0. -1.
          1   -1    0    0  501    0 -0.00000000000E+00 -0.00000000000E+00 -0.72279526839E+02  0.72279526839E+02  0.00000000000E+00 0.  1.
          2    1    1    2  501    0 -0.24642850908E+02  0.25813026781E+01  0.12656593956E+04  0.12659019073E+04  0.00000000000E+00 0. -1.
          1    1    1    2  502    0  0.24642850908E+02 -0.25813026781E+01 -0.70031234077E+02  0.74285307906E+02  0.00000000000E+00 0.  1.
</event>
<event>
 4    1  0.8322090E+003  0.2457039E+02  0.7546771E-02  0.1473667E+00
          2   -1    0    0  502    0  0.00000000000E+00  0.00000000000E+00  0.20190867707E+02  0.20190867707E+02  0.00000000000E+00 0.  1.
          1   -1    0    0  501    0 -0.00000000000E+00 -0.00000000000E+00 -0.49593319551E+02  0.49593319551E+02  0.00000000000E+00 0.  1.
          2    1    1    2  501    0  0.21363594617E+01  0.24477333490E+02  0.72863105897E+01  0.25627996577E+02  0.00000000000E+00 0.  1.
          1    1    1    2  502    0 -0.21363594617E+01 -0.24477333490E+02 -0.36688762434E+02  0.44156190681E+02  0.00000000000E+00 0.  1.
</event>
<event>
 4    1  0.8322090E+003  0.2950218E+02  0.7546771E-02  0.1423972E+00
          2   -1    0    0  502    0  0.00000000000E+00  0.00000000000E+00  0.19602588252E+03  0.19602588252E+03  0.00000000000E+00 0. -1.
          1   -1    0    0  501    0 -0.00000000000E+00 -0.00000000000E+00 -0.11391636680E+02  0.11391636680E+02  0.00000000000E+00 0. -1.
          2    1    1    2  501    0 -0.87239225766E+01 -0.28182828515E+02  0.17333150595E+03  0.17582431459E+03  0.00000000000E+00 0. -1.
          1    1    1    2  502    0  0.87239225766E+01  0.28182828515E+02  0.11302739894E+02  0.31593204607E+02  0.00000000000E+00 0. -1.
</event>
<event>
 4    1  0.8322090E+003  0.7262492E+02  0.7546771E-02  0.1222089E+00
          2   -1    0    0  502    0  0.00000000000E+00  0.00000000000E+00  0.67258253044E+03  0.67258253044E+03  0.00000000000E+00 0. -1.
          1   -1    0    0  501    0 -0.00000000000E+00 -0.00000000000E+00 -0.16160053271E+02  0.16160053271E+02  0.00000000000E+00 0. -1.
          2    1    1    2  501    0  0.72595697142E+02 -0.20600975887E+01  0.57527946486E+03  0.57984553283E+03  0.00000000000E+00 0. -1.
          1    1    1    2  502    0 -0.72595697142E+02  0.20600975887E+01  0.81143012310E+02  0.10889705089E+03  0.00000000000E+00 0. -1.
</event>
<event>
 4    1  0.8322090E+003  0.2832926E+02  0.7546771E-02  0.1434694E+00
          2   -1    0    0  502    0  0.00000000000E+00  0.00000000000E+00  0.54060485809E+03  0.54060485809E+03  0.00000000000E+00 0.  1.
          1   -1    0    0  501    0 -0.00000000000E+00 -0.00000000000E+00 -0.14249549683E+03  0.14249549683E+03  0.00000000000E+00 0. -1.
          2    1    1    2  501    0  0.15775703945E+02 -0.23530278296E+02  0.53882104479E+03  0.53956525568E+03  0.00000000000E+00 0.  1.
          1    1    1    2  502    0 -0.15775703945E+02  0.23530278296E+02 -0.14071168353E+03  0.14353509924E+03  0.00000000000E+00 0. -1.
</event>
<event>
 4    1  0.8322090E+003  0.2291633E+02  0.7546771E-02  0.1493552E+00
          2   -1    0    0  502    0  0.00000000000E+00  0.00000000000E+00  0.21423042733E+02  0.21423042733E+02  0.00000000000E+00 0.  1.
          1   -1    0    0  501    0 -0.00000000000E+00 -0.00000000000E+00 -0.15313613700E+03  0.15313613700E+03  0.00000000000E+00 0. -1.
          2    1    1    2  501    0  0.13146626117E+02 -0.18770302613E+02  0.14132812568E+02  0.26923863570E+02  0.00000000000E+00 0.  1.
          1    1    1    2  502    0 -0.13146626117E+02  0.18770302613E+02 -0.14584590684E+03  0.14763531617E+03  0.00000000000E+00 0. -1.
</event>
<event>
 4    1  0.8322090E+003  0.2618868E+02  0.7546771E-02  0.1455933E+00
          2   -1    0    0  502    0  0.00000000000E+00  0.00000000000E+00  0.12597254804E+03  0.12597254804E+03  0.00000000000E+00 0.  1.
          1   -1    0    0  501    0 -0.00000000000E+00 -0.00000000000E+00 -0.10127269081E+02  0.10127269081E+02  0.00000000000E+00 0. -1.
          2    1    1    2  501    0  0.25418767353E+02  0.63034115850E+01  0.10419660518E+03  0.10743732713E+03  0.00000000000E+00 0.  1.
          1    1    1    2  502    0 -0.25418767353E+02 -0.63034115850E+01  0.11648673781E+02  0.28662489987E+02  0.00000000000E+00 0. -1.
</event>
<event>
 4    1  0.8322090E+003  0.6849926E+02  0.7546771E-02  0.1233402E+00
          2   -1    0    0  502    0  0.00000000000E+00  0.00000000000E+00  0.12997892756E+04  0.12997892756E+04  0.00000000000E+00 0.  1.
          1   -1    0    0  501    0 -0.00000000000E+00 -0.00000000000E+00 -0.60945225893E+03  0.60945225893E+03  0.00000000000E+00 0.  1.
          2    1    1    2  501    0 -0.46079680761E+02  0.50683448953E+02  0.12969578538E+04  0.12987654998E+04  0.00000000000E+00 0.  1.
          1    1    1    2  502    0  0.46079680761E+02 -0.50683448953E+02 -0.60662083711E+03  0.61047603474E+03  0.00000000000E+00 0.  1.
</event>
<event>
 4    1  0.8322090E+003  0.2279446E+02  0.7546771E-02  0.1495095E+00
          2   -1    0    0  502    0  0.00000000000E+00  0.00000000000E+00  0.11641802163E+03  0.11641802163E+03  0.00000000000E+00 0.  1.
          1   -1    0    0  501    0 -0.00000000000E+00 -0.00000000000E+00 -0.69752553455E+01  0.69752553455E+01  0.00000000000E+00 0.  1.
          2    1    1    2  501    0 -0.27132040556E+01 -0.22632407914E+02  0.91747071347E+02  0.94536302365E+02  0.00000000000E+00 0.  1.
          1    1    1    2  502    0  0.27132040556E+01  0.22632407914E+02  0.17695694933E+02  0.28856974605E+02  0.00000000000E+00 0.  1.
</event>
<event>
 4    1  0.8322090E+003  0.2176744E+02  0.7546771E-02  0.1508584E+00
          2   -1    0    0  502    0  0.00000000000E+00  0.00000000000E+00  0.13742721380E+04  0.13742721380E+04  0.00000000000E+00 0.  1.
          1   -1    0    0  501    0 -0.00000000000E+00 -0.00000000000E+00 -0.17533957666E+02  0.17533957666E+02  0.00000000000E+00 0. -1.
          2    1    1    2  501    0 -0.21730747550E+02  0.12634077413E+01  0.13673962032E+04  0.13675694491E+04  0.00000000000E+00 0.  1.
          1    1    1    2  502    0  0.21730747550E+02 -0.12634077413E+01 -0.10658022825E+02  0.24236646607E+02  0.00000000000E+00 0. -1.
</event>
<event>
 4    1  0.8322090E+003  0.2668124E+02  0.7546771E-02  0.1450837E+00
          2   -1    0    0  502    0  0.00000000000E+00  0.00000000000E+00  0.30726131355E+03  0.30726131355E+03  0.00000000000E+00 0. -1.
          1   -1    0    0  501    0 -0.00000000000E+00 -0.00000000000E+00 -0.24694805501E+01  0.24694805501E+01  0.00000000000E+00 0. -1.
          2    1    1    2  501    0  0.24341084492E+02  0.10927037396E+02  0.19089277075E+03  0.19274838122E+03  0.00000000000E+00 0. -1.
          1    1    1    2  502    0 -0.24341084492E+02 -0.10927037396E+02  0.11389906225E+03  0.11698241288E+03  0.00000000000E+00 0. -1.
</event>
<event>
 4    1  0.8322090E+003  0.2067957E+02  0.7546771E-02  0.1523889E+00
          2   -1    0    0  502    0  0.00000000000E+00  0.00000000000E+00  0.12771496932E+03  0.12771496932E+03  0.00000000000E+00 0. -1.
          1   -1    0    0  501    0 -0.00000000000E+00 -0.00000000000E+00 -0.97623241797E+01  0.97623241797E+01  0.00000000000E+00 0.  1.
          2    1    1    2  501    0 -0.13421921405E+02 -0.15732027315E+02  0.11469300569E+03  0.11654239662E+03  0.00000000000E+00 0. -1.
          1    1    1    2  502    0  0.13421921405E+02  0.15732027315E+02  0.32596394491E+01  0.20934896870E+02  0.00000000000E+00 0.  1.
</event>
<event>
 4    1  0.8322090E+003  0.3241854E+02  0.7546771E-02  0.1399681E+00
          2   -1    0    0  502    0  0.00000000000E+00  0.00000000000E+00  0.51870311432E+01  0.51870311432E+01  0.00000000000E+00 0. -1.
          1   -1    0    0  501    0 -0.00000000000E+00 -0.00000000000E+00 -0.28129466772E+03  0.28129466772E+03  0.00000000000E+00 0. -1.
          2    1    1    2  501    0  0.24317210990E+02 -0.21439092842E+02 -0.62296932722E+02  0.70227268769E+02  0.00000000000E+00 0. -1.
          1    1    1    2  502    0 -0.24317210990E+02  0.21439092842E+02 -0.21381070386E+03  0.21625443010E+03  0.00000000000E+00 0. -1.
</event>
<event>
 4    1  0.8322090E+003  0.3647183E+02  0.7546771E-02  0.1370501E+00
          2   -1    0    0  502    0  0.00000000000E+00  0.00000000000E+00  0.51131589302E+03  0.51131589302E+03  0.00000000000E+00 0. -1.
          1   -1    0    0  501    0 -0.00000000000E+00 -0.00000000000E+00 -0.17918872398E+02  0.17918872398E+02  0.00000000000E+00 0.  1.
          2    1    1    2  501    0 -0.82523670027E+00  0.36462490734E+02  0.49135402064E+03  0.49270576194E+03  0.00000000000E+00 0. -1.
          1    1    1    2  502    0  0.82523670027E+00 -0.36462490734E+02  0.20429999781E+01  0.36529003478E+02  0.00000000000E+00 0.  1.
</event>
<event>
 4    1  0.8322090E+003  0.2772311E+02  0.7546771E-02  0.1440476E+00
          2   -1    0    0  502    0  0.00000000000E+00  0.00000000000E+00  0.68495153817E+02  0.68495153817E+02  0.00000000000E+00 0. -1.
          1   -1    0    0  501    0 -0.00000000000E+00 -0.00000000000E+00 -0.29517554067E+02  0.29517554067E+02  0.00000000000E+00 0. -1.
          2    1    1    2  501    0 -0.17962930957E+02 -0.21116442774E+02  0.58072078233E+02  0.64350115107E+02  0.00000000000E+00 0. -1.
          1    1    1    2  502    0  0.17962930957E+02  0.21116442774E+02 -0.19094478482E+02  0.33662592777E+02  0.00000000000E+00 0. -1.
</event>
<event>
 4    1  0.8322090E+003  0.2847086E+02  0.7546771E-02  0.1433367E+00
          2   -1    0    0  502    0  0.00000000000E+00  0.00000000000E+00  0.12569955085E+03  0.12569955085E+03  0.00000000000E+00 0.  1.
          1   -1    0    0  501    0 -0.00000000000E+00 -0.00000000000E+00 -0.23964872384E+02  0.23964872384E+02  0.00000000000E+00 0. -1.
          2    1    1    2  501    0  0.75938211925E+00 -0.28460734756E+02  0.11484398619E+03  0.11832045997E+03  0.00000000000E+00 0.  1.
          1    1    1    2  502    0 -0.75938211925E+00  0.28460734756E+02 -0.13109307722E+02  0.31343963263E+02  0.00000000000E+00 0. -1.
</event>
<event>
 4    1  0.8322090E+003  0.3243683E+02  0.7546771E-02  0.1399538E+00
          2   -1    0    0  502    0  0.00000000000E+00  0.00000000000E+00  0.16835106275E+03  0.16835106275E+03  0.00000000000E+00 0. -1.
          1   -1    0    0  501    0 -0.00000000000E+00 -0.00000000000E+00 -0.31627992712E+03  0.31627992712E+03  0.00000000000E+00 0. -1.
          2    1    1    2  501    0  0.13467623993E+02  0.29508835298E+02  0.16594502665E+03  0.16908548171E+03  0.00000000000E+00 0. -1.
          1    1    1    2  502    0 -0.13467623993E+02 -0.29508835298E+02 -0.31387389102E+03  0.31554550816E+03  0.00000000000E+00 0. -1.
</event>
<event>
 4    1  0.8322090E+003  0.2414582E+02  0.7546771E-02  0.1478590E+00
          2   -1    0    0  502    0  0.00000000000E+00  0.00000000000E+00  0.88110604210E+03  0.88110604210E+03  0.00000000000E+00 0.  1.
          1   -1    0    0  501    0 -0.00000000000E+00 -0.00000000000E+00 -0.30177519197E+01  0.30177519197E+01  0.00000000000E+00 0. -1.
          2    1    1    2  501    0 -0.22453571118E+02 -0.88801772901E+01  0.82964620080E+03  0.82999749331E+03  0.00000000000E+00 0.  1.
          1    1    1    2  502    0  0.22453571118E+02  0.88801772901E+01  0.48442089383E+02  0.54126300709E+02  0.00000000000E+00 0. -1.
</event>
<event>
 4    1  0.8322090E+003  0.2643687E+02  0.7546771E-02  0.1453348E+00
          2   -1    0    0  502    0  0.00000000000E+00  0.00000000000E+00  0.35674076603E+02  0.35674076603E+02  0.00000000000E+00 0.  1.
          1   -1    0    0  501    0 -0.00000000000E+00 -0.00000000000E+00 -0.83538690436E+02  0.83538690436E+02  0.00000000000E+00 0. -1.
          2    1    1    2  501    0 -0.14467739043E+02 -0.22126737104E+02  0.28218345083E+02  0.38667595828E+02  0.00000000000E+00 0.  1.
          1    1    1    2  502    0  0.14467739043E+02  0.22126737104E+02 -0.76082958916E+02  0.80545171210E+02  0.00000000000E+00 0. -1.
</event>
<event>
 4    1  0.8322090E+003  0.2046456E+02  0.7546771E-02  0.1527049E+00
          2   -1    0    0  502    0  0.00000000000E+00  0.00000000000E+00  0.14277425684E+04  0.14277425684E+04  0.00000000000E+00 0.  1.
          1   -1    0    0  501    0 -0.00000000000E+00 -0.00000000000E+00 -0.14817358736E+03  0.14817358736E+03  0.00000000000E+00 0.  1.
          2    1    1    2  501    0 -0.19277687839E+02 -0.68679696293E+01  0.14269622490E+04  0.14271089862E+04  0.00000000000E+00 0.  1.
          1    1    1    2  502    0  0.19277687839E+02  0.68679696293E+01 -0.14739326802E+03  0.14880716956E+03  0.00000000000E+00 0.  1.
</event>
<event>
 4    1  0.8322090E+003  0.4696459E+02  0.7546771E-02  0.1311898E+00
          2   -1    0    0  502    0  0.00000000000E+00  0.00000000000E+00  0.10457914752E+01  0.10457914752E+01  0.00000000000E+00 0.  1.
          1   -1    0    0  501    0 -0.00000000000E+00 -0.00000000000E+00 -0.31583336118E+04  0.31583336118E+04  0.00000000000E+00 0.  1.
          2    1    1    2  501    0 -0.31504910545E+02 -0.34829783079E+02 -0.66814381450E+03  0.66979237830E+03  0.00000000000E+00 0.  1.
          1    1    1    2  502    0  0.31504910545E+02  0.34829783079E+02 -0.24891440058E+04  0.24895870250E+04  0.00000000000E+00 0.  1.
</event>
<event>
 4    1  0.8322090E+003  0.2680429E+02  0.7546771E-02  0.1449584E+00
          2   -1    0    0  502    0  0.00000000000E+00  0.00000000000E+00  0.94940903742E+03  0.94940903742E+03  0.00000000000E+00 0.  1.
          1   -1    0    0  501    0 -0.00000000000E+00 -0.00000000000E+00 -0.55750781286E+01  0.55750781286E+01  0.00000000000E+00 0. -1.
          2    1    1    2  501    0 -0.26797856420E+02 -0.58705868248E+00  0.91582055991E+03  0.91621273059E+03  0.00000000000E+00 0.  1.
          1    1    1    2  502    0  0.26797856420E+02  0.58705868248E+00  0.28013399388E+02  0.38771384962E+02  0.00000000000E+00 0. -1.
</event>
<event>
 4    1  0.8322090E+003  0.2119816E+02  0.7546771E-02  0.1516454E+00
          2   -1    0    0  502    0  0.00000000000E+00  0.00000000000E+00  0.14484311763E+03  0.14484311763E+03  0.00000000000E+00 0.  1.
          1   -1    0    0  501    0 -0.00000000000E+00 -0.00000000000E+00 -0.81626586632E+02  0.81626586632E+02  0.00000000000E+00 0. -1.
          2    1    1    2  501    0  0.88299736430E+01  0.19271577434E+02  0.14267039759E+03  0.14423662669E+03  0.00000000000E+00 0.  1.
          1    1    1    2  502    0 -0.88299736430E+01 -0.19271577434E+02 -0.79453866588E+02  0.82233077573E+02  0.00000000000E+00 0. -1.
</event>
<event>
 4    1  0.8322090E+003  0.2388670E+02  0.7546771E-02  0.1481654E+00
          2   -1    0    0  502    0  0.00000000000E+00  0.00000000000E+00  0.23025688573E+03  0.23025688573E+03  0.00000000000E+00 0. -1.
          1   -1    0    0  501    0 -0.00000000000E+00 -0.00000000000E+00 -0.47473353753E+01  0.47473353753E+01  0.00000000000E+00 0.  1.
          2    1    1    2  501    0 -0.14897361153E+02  0.18671990193E+02  0.19399495448E+03  0.19546001369E+03  0.00000000000E+00 0. -1.
          1    1    1    2  502    0  0.14897361153E+02 -0.18671990193E+02  0.31514595873E+02  0.39544207416E+02  0.00000000000E+00 0.  1.
</event>
<event>
 4    1  0.8322090E+003  0.2576838E+02  0.7546771E-02  0.1460388E+00
          2   -1    0    0  502    0  0.00000000000E+00  0.00000000000E+00  0.26158034596E+01  0.26158034596E+01  0.00000000000E+00 0.  1.
          1   -1    0    0  501    0 -0.00000000000E+00 -0.00000000000E+00 -0.88258290698E+03  0.88258290698E+03  0.00000000000E+00 0. -1.
          2    1    1    2  501    0  0.31251663509E+01 -0.25578170197E+02 -0.66417214512E+02  0.71240829858E+02  0.00000000000E+00 0.  1.
          1    1    1    2  502    0 -0.31251663509E+01  0.25578170197E+02 -0.81354988901E+03  0.81395788058E+03  0.00000000000E+00 0. -1.
</event>
<event>
 4    1  0.8322090E+003  0.2500711E+02  0.7546771E-02  0.1468724E+00
          2   -1    0    0  502    0  0.00000000000E+00  0.00000000000E+00  0.57800412775E+01  0.57800412775E+01  0.00000000000E+00 0. -1.
          1   -1    0    0  501    0 -0.00000000000E+00 -0.00000000000E+00 -0.19341886280E+03  0.19341886280E+03  0.00000000000E+00 0. -1.
          2    1    1    2  501    0 -0.10714094543E+01 -0.24984136198E+02 -0.15993371854E+03  0.16187695730E+03  0.00000000000E+00 0. -1.
          1    1    1    2  502    0  0.10714094543E+01  0.24984136198E+02 -0.27705102986E+02  0.37321946778E+02  0.00000000000E+00 0. -1.
</event>
<event>
 4    1  0.8322090E+003  0.2833352E+02  0.7546771E-02  0.1434654E+00
          2   -1    0    0  502    0  0.00000000000E+00  0.00000000000E+00  0.13417012624E+03  0.13417012624E+03  0.00000000000E+00 0. -1.
          1   -1    0    0  501    0 -0.00000000000E+00 -0.00000000000E+00 -0.98195178945E+01  0.98195178945E+01  0.00000000000E+00 0. -1.
          2    1    1    2  501    0  0.98232073073E+01  0.26576177760E+02  0.10717444512E+03  0.11085644011E+03  0.00000000000E+00 0. -1.
          1    1    1    2  502    0 -0.98232073073E+01 -0.26576177760E+02  0.17176163227E+02  0.33133204030E+02  0.00000000000E+00 0. -1.
</event>
<event>
 4    1  0.8322090E+003  0.2464293E+02  0.7546771E-02  0.1472838E+00
          2   -1    0    0  502    0  0.00000000000E+00  0.00000000000E+00  0.37712771030E+02  0.37712771030E+02  0.00000000000E+00 0.  1.
          1   -1    0    0  501    0 -0.00000000000E+00 -0.00000000000E+00 -0.99378870752E+02  0.99378870752E+02  0.00000000000E+00 0.  1.
          2    1    1    2  501    0  0.19016911034E+02  0.15672614592E+02  0.31914183439E+02  0.40321072134E+02  0.00000000000E+00 0.  1.
          1    1    1    2  502    0 -0.19016911034E+02 -0.15672614592E+02 -0.93580283162E+02  0.96770569648E+02  0.00000000000E+00 0.  1.
</event>
<event>
 4    1  0.8322090E+003  0.2843339E+02  0.7546771E-02  0.1433717E+00
          2   -1    0    0  502    0  0.00000000000E+00  0.00000000000E+00  0.11252718481E+04  0.11252718481E+04  0.00000000000E+00 0.  1.
          1   -1    0    0  501    0 -0.00000000000E+00 -0.00000000000E+00 -0.15205557002E+01  0.15205557002E+01  0.00000000000E+00 0.  1.
          2    1    1    2  501    0  0.10780569829E+02  0.26310398598E+02  0.97106757381E+03  0.97148375728E+03  0.00000000000E+00 0.  1.
          1    1    1    2  502    0 -0.10780569829E+02 -0.26310398598E+02  0.15268371855E+03  0.15530864648E+03  0.00000000000E+00 0.  1.
</event>
<event>
 4    1  0.8322090E+003  0.2768718E+02  0.7546771E-02  0.1440825E+00
          2   -1    0    0  502    0  0.00000000000E+00  0.00000000000E+00  0.19143841195E+04  0.19143841195E+04  0.00000000000E+00 0. -1.
          1   -1    0    0  501    0 -0.00000000000E+00 -0.00000000000E+00 -0.16797559730E+01  0.16797559730E+01  0.00000000000E+00 0. -1.
          2    1    1    2  501    0 -0.27062511544E+02  0.58481207292E+01  0.17924309864E+04  0.17926448118E+04  0.00000000000E+00 0. -1.
          1    1    1    2  502    0  0.27062511544E+02 -0.58481207292E+01  0.12027337707E+03  0.12341906368E+03  0.00000000000E+00 0. -1.
</event>
<event>
 4    1  0.8322090E+003  0.3079637E+02  0.7546771E-02  0.1412800E+00
          2   -1    0    0  502    0  0.00000000000E+00  0.00000000000E+00  0.18048679122E+03  0.18048679122E+03  0.00000000000E+00 0. -1.
          1   -1    0    0  501    0 -0.00000000000E+00 -0.00000000000E+00 -0.73924382319E+02  0.73924382319E+02  0.00000000000E+00 0. -1.
          2    1    1    2  501    0 -0.28091952794E+02  0.12619781867E+02  0.17588237844E+03  0.17855819150E+03  0.00000000000E+00 0. -1.
          1    1    1    2  502    0  0.28091952794E+02 -0.12619781867E+02 -0.69319969543E+02  0.75852982035E+02  0.00000000000E+00 0. -1.
</event>
<event>
 4    1  0.8322090E+003  0.2387613E+02  0.7546771E-02  0.1481780E+00
          2   -1    0    0  502    0  0.00000000000E+00  0.00000000000E+00  0.96480251675E+03  0.96480251675E+03  0.00000000000E+00 0. -1.
          1   -1    0    0  501    0 -0.00000000000E+00 -0.00000000000E+00 -0.76873605827E+00  0.76873605827E+00  0.00000000000E+00 0. -1.
          2    1    1    2  501    0  0.11057447832E+02 -0.21161346229E+02  0.71424576323E+03  0.71464472293E+03  0.00000000000E+00 0. -1.
          1    1    1    2  502    0 -0.11057447832E+02  0.21161346229E+02  0.24978801746E+03  0.25092652987E+03  0.00000000000E+00 0. -1.
</event>
<event>
 4    1  0.8322090E+003  0.2397274E+02  0.7546771E-02  0.1480632E+00
          2   -1    0    0  502    0  0.00000000000E+00  0.00000000000E+00  0.83561039594E+03  0.83561039594E+03  0.00000000000E+00 0. -1.
          1   -1    0    0  501    0 -0.00000000000E+00 -0.00000000000E+00 -0.32964762130E+02  0.32964762130E+02  0.00000000000E+00 0.  1.
          2    1    1    2  501    0 -0.21552038627E+02 -0.10497710491E+02  0.83105619558E+03  0.83140188387E+03  0.00000000000E+00 0. -1.
          1    1    1    2  502    0  0.21552038627E+02  0.10497710491E+02 -0.28410561770E+02  0.37173274198E+02  0.00000000000E+00 0.  1.
</event>
<event>
 4    1  0.8322090E+003  0.7715299E+02  0.7546771E-02  0.1210616E+00
          2   -1    0    0  502    0  0.00000000000E+00  0.00000000000E+00  0.18511912624E+04  0.18511912624E+04  0.00000000000E+00 0.  1.
          1   -1    0    0  501    0 -0.00000000000E+00 -0.00000000000E+00 -0.23115260518E+02  0.23115260518E+02  0.00000000000E+00 0. -1.
          2    1    1    2  501    0  0.87419255352E+01  0.76656134692E+02  0.17835682315E+04  0.17852361806E+04  0.00000000000E+00 0.  1.
          1    1    1    2  502    0 -0.87419255352E+01 -0.76656134692E+02  0.44507770367E+02  0.89070342264E+02  0.00000000000E+00 0. -1.
</event>
<event>
 4    1  0.8322090E+003  0.2309565E+02  0.7546771E-02  0.1491301E+00
          2   -1    0    0  502    0  0.00000000000E+00  0.00000000000E+00  0.22078356435E+03  0.22078356435E+03  0.00000000000E+00 0.  1.
          1   -1    0    0  501    0 -0.00000000000E+00 -0.00000000000E+00 -0.33017060138E+02  0.33017060138E+02  0.00000000000E+00 0.  1.
          2    1    1    2  501    0 -0.21489343534E+02  0.84626862747E+01  0.21605248862E+03  0.21728342501E+03  0.00000000000E+00 0.  1.
          1    1    1    2  502    0  0.21489343534E+02 -0.84626862747E+01 -0.28285984403E+02  0.36517199484E+02  0.00000000000E+00 0.  1.
</event>
<event>
 4    1  0.8322090E+003  0.2327350E+02  0.7546771E-02  0.1489092E+00
          2   -1    0    0  502    0  0.00000000000E+00  0.00000000000E+00  0.16086016686E+04  0.16086016686E+04  0.00000000000E+00 0.  1.
          1   -1    0    0  501    0 -0.00000000000E+00 -0.00000000000E+00 -0.64903550109E+02  0.64903550109E+02  0.00000000000E+00 0. -1.
          2    1    1    2  501    0 -0.22937318533E+02  0.39414923306E+01  0.16064282769E+04  0.16065968582E+04  0.00000000000E+00 0.  1.
          1    1    1    2  502    0  0.22937318533E+02 -0.39414923306E+01 -0.62730158367E+02  0.66908360554E+02  0.00000000000E+00 0. -1.
</event>
<event>
 4    1  0.8322090E+003  0.2359635E+02  0.7546771E-02  0.1485143E+00
          2   -1    0    0  502    0  0.00000000000E+00  0.00000000000E+00  0.32446554281E+03  0.32446554281E+03  0.00000000000E+00 0. -1.
          1   -1    0    0  501    0 -0.00000000000E+00 -0.00000000000E+00 -0.36659510308E+02  0.36659510308E+02  0.00000000000E+00 0.  1.
          2    1    1    2  501    0 -0.22181827479E+02  0.80469951218E+01  0.32018887196E+03  0.32105716209E+03  0.00000000000E+00 0. -1.
          1    1    1    2  502    0  0.22181827479E+02 -0.80469951218E+01 -0.32382839455E+02  0.40067891034E+02  0.00000000000E+00 0.  1.
</event>
<event>
 4    1  0.8322090E+003  0.3077565E+02  0.7546771E-02  0.1412973E+00
          2   -1    0    0  502    0  0.00000000000E+00  0.00000000000E+00  0.12489623791E+03  0.12489623791E+03  0.00000000000E+00 0. -1.
          1   -1    0    0  501    0 -0.00000000000E+00 -0.00000000000E+00 -0.15733277227E+03  0.15733277227E+03  0.00000000000E+00 0. -1.
          2    1    1    2  501    0  0.27056828156E+02  0.14665220577E+02  0.12145338852E+03  0.12529192403E+03  0.00000000000E+00 0. -1.
          1    1    1    2  502    0 -0.27056828156E+02 -0.14665220577E+02 -0.15388992288E+03  0.15693708615E+03  0.00000000000E+00 0. -1.
</event>
<event>
 4    1  0.8322090E+003  0.2106433E+02  0.7546771E-02  0.1518348E+00
          2   -1    0    0  502    0  0.00000000000E+00  0.00000000000E+00  0.93450210630E+03  0.93450210630E+03  0.00000000000E+00 0.  1.
          1   -1    0    0  501    0 -0.00000000000E+00 -0.00000000000E+00 -0.63064094652E+01  0.63064094652E+01  0.00000000000E+00 0.  1.
          2    1    1    2  501    0  0.19975465125E+02  0.66848024317E+01  0.91644744835E+03  0.91668949562E+03  0.00000000000E+00 0.  1.
          1    1    1    2  502    0 -0.19975465125E+02 -0.66848024317E+01  0.11748248492E+02  0.24119020153E+02  0.00000000000E+00 0.  1.
</event>
<event>
 4    1  0.8322090E+003  0.2186307E+02  0.7546771E-02  0.1507290E+00
          2   -1    0    0  502    0  0.00000000000E+00  0.00000000000E+00  0.32287925699E+02  0.32287925699E+02  0.00000000000E+00 0. -1.
          1   -1    0    0  501    0 -0.00000000000E+00 -0.00000000000E+00 -0.44272184060E+02  0.44272184060E+02  0.00000000000E+00 0. -1.
          2    1    1    2  501    0  0.21168637538E+02 -0.54664950159E+01  0.25238663313E+02  0.33391374766E+02  0.00000000000E+00 0. -1.
          1    1    1    2  502    0 -0.21168637538E+02  0.54664950159E+01 -0.37222921674E+02  0.43168734993E+02  0.00000000000E+00 0. -1.
</event>
<event>
 4    1  0.8322090E+003  0.3216902E+02  0.7546771E-02  0.1401639E+00
          2   -1    0    0  502    0  0.00000000000E+00  0.00000000000E+00  0.23054375913E+03  0.23054375913E+03  0.00000000000E+00 0. -1.
          1   -1    0    0  501    0 -0.00000000000E+00 -0.00000000000E+00 -0.50459614839E+01  0.50459614839E+01  0.00000000000E+00 0. -1.
          2    1    1    2  501    0 -0.17281155789E+02  0.27133147724E+02  0.15189393119E+03  0.15526304256E+03  0.00000000000E+00 0. -1.
          1    1    1    2  502    0  0.17281155789E+02 -0.27133147724E+02  0.73603866450E+02  0.80326678054E+02  0.00000000000E+00 0. -1.
</event>
<event>
 4    1  0.8322090E+003  0.3753194E+02  0.7546771E-02  0.1363589E+00
          2   -1    0    0  502    0  0.00000000000E+00  0.00000000000E+00  0.39712750791E+03  0.39712750791E+03  0.00000000000E+00 0.  1.
          1   -1    0    0  501    0 -0.00000000000E+00 -0.00000000000E+00 -0.12820969920E+02  0.12820969920E+02  0.00000000000E+00 0. -1.
          2    1    1    2  501    0 -0.15458793890E+02 -0.34200469113E+02  0.36648225832E+03  0.36839909346E+03  0.00000000000E+00 0.  1.
          1    1    1    2  502    0  0.15458793890E+02  0.34200469113E+02  0.17824279668E+02  0.41549384373E+02  0.00000000000E+00 0. -1.
</event>
<event>
 4    1  0.8322090E+003  0.3512350E+02  0.7546771E-02  0.1379697E+00
          2   -1    0    0  502    0  0.00000000000E+00  0.00000000000E+00  0.48803085578E+02  0.48803085578E+02  0.00000000000E+00 0.  1.
          1   -1    0    0  501    0 -0.00000000000E+00 -0.00000000000E+00 -0.58572725040E+02  0.58572725040E+02  0.00000000000E+00 0.  1.
          2    1    1    2  501    0 -0.23816573851E+02 -0.25815326973E+02  0.35592741326E+02  0.50005035065E+02  0.00000000000E+00 0.  1.
          1    1    1    2  502    0  0.23816573851E+02  0.25815326973E+02 -0.45362380788E+02  0.57370775553E+02  0.00000000000E+00 0.  1.
</event>
<event>
 4    1  0.8322090E+003  0.2164602E+02  0.7546771E-02  0.1510238E+00
          2   -1    0    0  502    0  0.00000000000E+00  0.00000000000E+00  0.78463928628E+00  0.78463928628E+00  0.00000000000E+00 0.  1.
          1   -1    0    0  501    0 -0.00000000000E+00 -0.00000000000E+00 -0.86744819702E+03  0.86744819702E+03  0.00000000000E+00 0. -1.
          2    1    1    2  501    0 -0.18412764666E+02  0.11380705430E+02 -0.19100415139E+03  0.19222678327E+03  0.00000000000E+00 0.  1.
          1    1    1    2  502    0  0.18412764666E+02 -0.11380705430E+02 -0.67565940634E+03  0.67600605303E+03  0.00000000000E+00 0. -1.
</event>
<event>
 4    1  0.8322090E+003  0.2317381E+02  0.7546771E-02  0.1490327E+00
          2   -1    0    0  502    0  0.00000000000E+00  0.00000000000E+00  0.75219734221E+03  0.75219734221E+03  0.00000000000E+00 0.  1.
          1   -1    0    0  501    0 -0.00000000000E+00 -0.00000000000E+00 -0.22274257052E+03  0.22274257052E+03  0.00000000000E+00 0. -1.
          2    1    1    2  501    0 -0.16376927892E+02 -0.16395776263E+02  0.75141548767E+03  0.75177274515E+03  0.00000000000E+00 0.  1.
          1    1    1    2  502    0  0.16376927892E+02  0.16395776263E+02 -0.22196071598E+03  0.22316716757E+03  0.00000000000E+00 0. -1.
</event>
<event>
 4    1  0.8322090E+003  0.2045893E+02  0.7546771E-02  0.1527132E+00
          2   -1    0    0  502    0  0.00000000000E+00  0.00000000000E+00  0.14423572447E+03  0.14423572447E+03  0.00000000000E+00 0.  1.
          1   -1    0    0  501    0 -0.00000000000E+00 -0.00000000000E+00 -0.12205020917E+03  0.12205020917E+03  0.00000000000E+00 0. -1.
          2    1    1    2  501    0 -0.88838750380E+01 -0.18429447918E+02  0.14264334146E+03  0.14410305566E+03  0.00000000000E+00 0.  1.
          1    1    1    2  502    0  0.88838750380E+01  0.18429447918E+02 -0.12045782617E+03  0.12218287798E+03  0.00000000000E+00 0. -1.
</event>
<event>
 4    1  0.8322090E+003  0.2237385E+02  0.7546771E-02  0.1500514E+00
          2   -1    0    0  502    0  0.00000000000E+00  0.00000000000E+00  0.11763576678E+04  0.11763576678E+04  0.00000000000E+00 0.  1.
          1   -1    0    0  501    0 -0.00000000000E+00 -0.00000000000E+00 -0.17301562335E+01  0.17301562335E+01  0.00000000000E+00 0. -1.
          2    1    1    2  501    0 -0.20619103948E+02  0.86857208799E+01  0.10988143277E+04  0.10990420902E+04  0.00000000000E+00 0.  1.
          1    1    1    2  502    0  0.20619103948E+02 -0.86857208799E+01  0.75813183856E+02  0.79045733858E+02  0.00000000000E+00 0. -1.
</event>
<event>
 4    1  0.8322090E+003  0.3559153E+02  0.7546771E-02  0.1376452E+00
          2   -1    0    0  502    0  0.00000000000E+00  0.00000000000E+00  0.20681467377E+03  0.20681467377E+03  0.00000000000E+00 0.  1.
          1   -1    0    0  501    0 -0.00000000000E+00 -0.00000000000E+00 -0.71841000973E+01  0.71841000973E+01  0.00000000000E+00 0.  1.
          2    1    1    2  501    0  0.30934289431E+02  0.17601901337E+02  0.14089680062E+03  0.14532262597E+03  0.00000000000E+00 0.  1.
          1    1    1    2  502    0 -0.30934289431E+02 -0.17601901337E+02  0.58733773050E+02  0.68676147897E+02  0.00000000000E+00 0.  1.
</event>
<event>
 4    1  0.8322090E+003  0.3272910E+02  0.7546771E-02  0.1397272E+00
          2   -1    0    0  502    0  0.00000000000E+00  0.00000000000E+00  0.11324017220E+03  0.11324017220E+03  0.00000000000E+00 0. -1.
          1   -1    0    0  501    0 -0.00000000000E+00 -0.00000000000E+00 -0.42351495634E+03  0.42351495634E+03  0.00000000000E+00 0.  1.
          2    1    1    2  501    0  0.19356019036E+01 -0.32671811629E+02  0.11022605155E+03  0.11498250419E+03  0.00000000000E+00 0. -1.
          1    1    1    2  502    0 -0.19356019036E+01  0.32671811629E+02 -0.42050083569E+03  0.42177262434E+03  0.00000000000E+00 0.  1.
</event>
<event>
 4    1  0.8322090E+003  0.2072411E+02  0.7546771E-02  0.1523241E+00
          2   -1    0    0  502    0  0.00000000000E+00  0.00000000000E+00  0.30084258780E+03  0.30084258780E+03  0.00000000000E+00 0.  1.
          1   -1    0    0  501    0 -0.00000000000E+00 -0.00000000000E+00 -0.16044479444E+01  0.16044479444E+01  0.00000000000E+00 0. -1.
          2    1    1    2  501    0 -0.53886568834E+01 -0.20011276545E+02  0.19982237509E+03  0.20089417711E+03  0.00000000000E+00 0.  1.
          1    1    1    2  502    0  0.53886568834E+01  0.20011276545E+02  0.99415764768E+02  0.10155285863E+03  0.00000000000E+00 0. -1.
</event>
<event>
 4    1  0.8322090E+003  0.2773591E+02  0.7546771E-02  0.1440353E+00
          2   -1    0    0  502    0  0.00000000000E+00  0.00000000000E+00  0.44955174216E+02  0.44955174216E+02  0.00000000000E+00 0. -1.
          1   -1    0    0  501    0 -0.00000000000E+00 -0.00000000000E+00 -0.17118057400E+02  0.17118057400E+02  0.00000000000E+00 0. -1.
          2    1    1    2  501    0  0.24935911955E+02 -0.12144144933E+02  0.13342297822E+02  0.30778188256E+02  0.00000000000E+00 0. -1.
          1    1    1    2  502    0 -0.24935911955E+02  0.12144144933E+02  0.14494818994E+02  0.31295043359E+02  0.00000000000E+00 0. -1.
</event>
<event>
 4    1  0.8322090E+003  0.2097831E+02  0.7546771E-02  0.1519575E+00
          2   -1    0    0  502    0  0.00000000000E+00  0.00000000000E+00  0.22916649015E+03  0.22916649015E+03  0.00000000000E+00 0. -1.
          1   -1    0    0  501    0 -0.00000000000E+00 -0.00000000000E+00 -0.19789397951E+03  0.19789397951E+03  0.00000000000E+00 0. -1.
          2    1    1    2  501    0 -0.11637593689E+02  0.17454399704E+02  0.22812789972E+03  0.22909043692E+03  0.00000000000E+00 0. -1.
          1    1    1    2  502    0  0.11637593689E+02 -0.17454399704E+02 -0.19685538908E+03  0.19797003274E+03  0.00000000000E+00 0. -1.
</event>
<event>
 4    1  0.8322090E+003  0.2280207E+02  0.7546771E-02  0.1494999E+00
          2   -1    0    0  502    0  0.00000000000E+00  0.00000000000E+00  0.21735661381E+03  0.21735661381E+03  0.00000000000E+00 0. -1.
          1   -1    0    0  501    0 -0.00000000000E+00 -0.00000000000E+00 -0.29347070908E+01  0.29347070908E+01  0.00000000000E+00 0. -1.
          2    1    1    2  501    0  0.32929378838E+01 -0.22563047996E+02  0.15457354309E+03  0.15624632731E+03  0.00000000000E+00 0. -1.
          1    1    1    2  502    0 -0.32929378838E+01  0.22563047996E+02  0.59848363625E+02  0.64044993586E+02  0.00000000000E+00 0. -1.
</event>
<event>
 4    1  0.8322090E+003  0.3223347E+02  0.7546771E-02  0.1401131E+00
          2   -1    0    0  502    0  0.00000000000E+00  0.00000000000E+00  0.23188740070E+04  0.23188740070E+04  0.00000000000E+00 0.  1.
          1   -1    0    0  501    0 -0.00000000000E+00 -0.00000000000E+00 -0.16133742391E+01  0.16133742391E+01  0.00000000000E+00 0. -1.
          2    1    1    2  501    0 -0.46663777067E+01 -0.31893914004E+02  0.21446895644E+04  0.21449317762E+04  0.00000000000E+00 0.  1.
          1    1    1    2  502    0  0.46663777067E+01  0.31893914004E+02  0.17257106833E+03  0.17555560503E+03  0.00000000000E+00 0. -1.
</event>
<event>
 4    1  0.8322090E+003  0.2442774E+02  0.7546771E-02  0.1475308E+00
          2   -1    0    0  502    0  0.00000000000E+00  0.00000000000E+00  0.61254968118E+03  0.61254968118E+03  0.00000000000E+00 0. -1.
          1   -1    0    0  501    0 -0.00000000000E+00 -0.00000000000E+00 -0.51984318818E+02  0.51984318818E+02  0.00000000000E+00 0. -1.
          2    1    1    2  501    0  0.24150932742E+02  0.36669842572E+01  0.60942173665E+03  0.60991111436E+03  0.00000000000E+00 0. -1.
          1    1    1    2  502    0 -0.24150932742E+02 -0.36669842572E+01 -0.48856374290E+02  0.54622885630E+02  0.00000000000E+00 0. -1.
</event>
<event>
 4    1  0.8322090E+003  0.3720381E+02  0.7546771E-02  0.1365699E+00
          2   -1    0    0  502    0  0.00000000000E+00  0.00000000000E+00  0.12922489624E+03  0.12922489624E+03  0.00000000000E+00 0. -1.
          1   -1    0    0  501    0 -0.00000000000E+00 -0.00000000000E+00 -0.74855704692E+02  0.74855704692E+02  0.00000000000E+00 0.  1.
          2    1    1    2  501    0 -0.36205833593E+02 -0.85592500523E+01  0.12164282631E+03  0.12720495407E+03  0.00000000000E+00 0. -1.
          1    1    1    2  502    0  0.36205833593E+02  0.85592500523E+01 -0.67273634757E+02  0.76875646866E+02  0.00000000000E+00 0.  1.
</event>
<event>
 4    1  0.2000262E+004  0.2888337E+02  0.7546771E-02  0.1429554E+00
          2   -1    0    0  502    0  0.00000000000E+00  0.00000000000E+00  0.15608798304E+04  0.15608798304E+04  0.00000000000E+00 0.  1.
          1   -1    0    0  501    0 -0.00000000000E+00 -0.00000000000E+00 -0.53120878573E+03  0.53120878573E+03  0.00000000000E+00 0. -1.
          2    1    1    2  501    0 -0.80484566590E+00 -0.28872153487E+02  0.15603534614E+04  0.15606207654E+04  0.00000000000E+00 0.  1.
          1    1    1    2  502    0  0.80484566590E+00  0.28872153487E+02 -0.53068241667E+03  0.53146785076E+03  0.00000000000E+00 0. -1.
</event>
<event>
 4    1  0.8322090E+003  0.3716234E+02  0.7546771E-02  0.1365968E+00
          2   -1    0    0  502    0  0.00000000000E+00  0.00000000000E+00  0.88158149897E+03  0.88158149897E+03  0.00000000000E+00 0. -1.
          1   -1    0    0  501    0 -0.00000000000E+00 -0.00000000000E+00 -0.17545279794E+01  0.17545279794E+01  0.00000000000E+00 0. -1.
          2    1    1    2  501    0 -0.32842145173E+02  0.17390555090E+02  0.29534487958E+03  0.29767370694E+03  0.00000000000E+00 0. -1.
          1    1    1    2  502    0  0.32842145173E+02 -0.17390555090E+02  0.58448209141E+03  0.58566232001E+03  0.00000000000E+00 0. -1.
</event>
<event>
 4    1  0.8322090E+003  0.4984545E+02  0.7546771E-02  0.1298844E+00
          2   -1    0    0  502    0  0.00000000000E+00  0.00000000000E+00  0.26701623221E+03  0.26701623221E+03  0.00000000000E+00 0. -1.
          1   -1    0    0  501    0 -0.00000000000E+00 -0.00000000000E+00 -0.76284618002E+02  0.76284618002E+02  0.00000000000E+00 0. -1.
          2    1    1    2  501    0  0.45760693827E+02  0.19761764490E+02  0.25620724329E+03  0.26101095753E+03  0.00000000000E+00 0. -1.
          1    1    1    2  502    0 -0.45760693827E+02 -0.19761764490E+02 -0.65475629078E+02  0.82289892687E+02  0.00000000000E+00 0. -1.
</event>
<event>
 4    1  0.8322090E+003  0.6455521E+02  0.7546771E-02  0.1245094E+00
          2   -1    0    0  502    0  0.00000000000E+00  0.00000000000E+00  0.20432872661E+04  0.20432872661E+04  0.00000000000E+00 0. -1.
          1   -1    0    0  501    0 -0.00000000000E+00 -0.00000000000E+00 -0.11159627607E+02  0.11159627607E+02  0.00000000000E+00 0. -1.
          2    1    1    2  501    0 -0.47797930481E+02  0.43390476508E+02  0.19446868854E+04  0.19457580676E+04  0.00000000000E+00 0. -1.
          1    1    1    2  502    0  0.47797930481E+02 -0.43390476508E+02  0.87440753171E+02  0.10868882613E+03  0.00000000000E+00 0. -1.
</event>
<event>
 4    1  0.8322090E+003  0.2469219E+02  0.7546771E-02  0.1472276E+00
          2   -1    0    0  502    0  0.00000000000E+00  0.00000000000E+00  0.93319036156E+02  0.93319036156E+02  0.00000000000E+00 0. -1.
          1   -1    0    0  501    0 -0.00000000000E+00 -0.00000000000E+00 -0.68864618415E+02  0.68864618415E+02  0.00000000000E+00 0.  1.
          2    1    1    2  501    0 -0.42373660957E+01 -0.24325889490E+02  0.89376389014E+02  0.92724554915E+02  0.00000000000E+00 0. -1.
          1    1    1    2  502    0  0.42373660957E+01  0.24325889490E+02 -0.64921971274E+02  0.69459099656E+02  0.00000000000E+00 0.  1.
</event>
<event>
 4    1  0.8322090E+003  0.4222560E+02  0.7546771E-02  0.1335915E+00
          2   -1    0    0  502    0  0.00000000000E+00  0.00000000000E+00  0.15293884015E+04  0.15293884015E+04  0.00000000000E+00 0.  1.
          1   -1    0    0  501    0 -0.00000000000E+00 -0.00000000000E+00 -0.28739871899E+02  0.28739871899E+02  0.00000000000E+00 0. -1.
          2    1    1    2  501    0  0.40337374249E+02 -0.12485891184E+02  0.15134235437E+04  0.15140124913E+04  0.00000000000E+00 0.  1.
          1    1    1    2  502    0 -0.40337374249E+02  0.12485891184E+02 -0.12775014129E+02  0.44115782051E+02  0.00000000000E+00 0. -1.
</event>
<event>
 4    1  0.8322090E+003  0.2242804E+02  0.7546771E-02  0.1499808E+00
          2   -1    0    0  502    0  0.00000000000E+00  0.00000000000E+00  0.12364904879E+04  0.12364904879E+04  0.00000000000E+00 0.  1.
          1   -1    0    0  501    0 -0.00000000000E+00 -0.00000000000E+00 -0.20013312793E+01  0.20013312793E+01  0.00000000000E+00 0.  1.
          2    1    1    2  501    0 -0.21364933556E+02 -0.68232465148E+01  0.11699818779E+04  0.11701968260E+04  0.00000000000E+00 0.  1.
          1    1    1    2  502    0  0.21364933556E+02  0.68232465148E+01  0.64507278727E+02  0.68294993137E+02  0.00000000000E+00 0.  1.
</event>
<event>
 4    1  0.8322090E+003  0.2215295E+02  0.7546771E-02  0.1503418E+00
          2   -1    0    0  502    0  0.00000000000E+00  0.00000000000E+00  0.39574240033E+02  0.39574240033E+02  0.00000000000E+00 0. -1.
          1   -1    0    0  501    0 -0.00000000000E+00 -0.00000000000E+00 -0.63912063201E+02  0.63912063201E+02  0.00000000000E+00 0. -1.
          2    1    1    2  501    0  0.20232462253E+02 -0.90222270098E+01  0.34283949284E+02  0.40818406234E+02  0.00000000000E+00 0. -1.
          1    1    1    2  502    0 -0.20232462253E+02  0.90222270098E+01 -0.58621772451E+02  0.62667897000E+02  0.00000000000E+00 0. -1.
</event>
<event>
 4    1  0.8322090E+003  0.2597049E+02  0.7546771E-02  0.1458233E+00
          2   -1    0    0  502    0  0.00000000000E+00  0.00000000000E+00  0.42872638108E+02  0.42872638108E+02  0.00000000000E+00 0. -1.
          1   -1    0    0  501    0 -0.00000000000E+00 -0.00000000000E+00 -0.77110885453E+02  0.77110885453E+02  0.00000000000E+00 0. -1.
          2    1    1    2  501    0 -0.25449742829E+02  0.51746336036E+01  0.36404286162E+02  0.44718433492E+02  0.00000000000E+00 0. -1.
          1    1    1    2  502    0  0.25449742829E+02 -0.51746336036E+01 -0.70642533506E+02  0.75265090069E+02  0.00000000000E+00 0. -1.
</event>
<event>
 4    1  0.8322090E+003  0.2301150E+02  0.7546771E-02  0.1492354E+00
          2   -1    0    0  502    0  0.00000000000E+00  0.00000000000E+00  0.53101713149E+02  0.53101713149E+02  0.00000000000E+00 0. -1.
          1   -1    0    0  501    0 -0.00000000000E+00 -0.00000000000E+00 -0.24137110407E+03  0.24137110407E+03  0.00000000000E+00 0. -1.
          2    1    1    2  501    0 -0.59245739451E+01  0.22235745212E+02  0.50028180418E+02  0.55066757463E+02  0.00000000000E+00 0. -1.
          1    1    1    2  502    0  0.59245739451E+01 -0.22235745212E+02 -0.23829757134E+03  0.23940605975E+03  0.00000000000E+00 0. -1.
</event>
<event>
 4    1  0.8322090E+003  0.2179747E+02  0.7546771E-02  0.1508177E+00
          2   -1    0    0  502    0  0.00000000000E+00  0.00000000000E+00  0.53995418069E+03  0.53995418069E+03  0.00000000000E+00 0. -1.
          1   -1    0    0  501    0 -0.00000000000E+00 -0.00000000000E+00 -0.22971527095E+01  0.22971527095E+01  0.00000000000E+00 0.  1.
          2    1    1    2  501    0 -0.21698727413E+02  0.20723728688E+01  0.48178584197E+03  0.48227868191E+03  0.00000000000E+00 0. -1.
          1    1    1    2  502    0  0.21698727413E+02 -0.20723728688E+01  0.55871186015E+02  0.59972651495E+02  0.00000000000E+00 0.  1.
</event>
<event>
 4    1  0.8322090E+003  0.2051976E+02  0.7546771E-02  0.1526233E+00
          2   -1    0    0  502    0  0.00000000000E+00  0.00000000000E+00  0.53719869314E+03  0.53719869314E+03  0.00000000000E+00 0.  1.
          1   -1    0    0  501    0 -0.00000000000E+00 -0.00000000000E+00 -0.27858307837E+02  0.27858307837E+02  0.00000000000E+00 0.  1.
          2    1    1    2  501    0 -0.17627350158E+02  0.10504153724E+02  0.53319579226E+03  0.53359049242E+03  0.00000000000E+00 0.  1.
          1    1    1    2  502    0  0.17627350158E+02 -0.10504153724E+02 -0.23855406961E+02  0.31466508550E+02  0.00000000000E+00 0.  1.
</event>
<event>
 4    1  0.8322090E+003  0.5018675E+02  0.7546771E-02  0.1297365E+00
          2   -1    0    0  502    0  0.00000000000E+00  0.00000000000E+00  0.15100233023E+03  0.15100233023E+03  0.00000000000E+00 0.  1.
          1   -1    0    0  501    0 -0.00000000000E+00 -0.00000000000E+00 -0.17499950695E+02  0.17499950695E+02  0.00000000000E+00 0.  1.
          2    1    1    2  501    0  0.90463289126E+01  0.49364698899E+02  0.84988784545E+02  0.98700572758E+02  0.00000000000E+00 0.  1.
          1    1    1    2  502    0 -0.90463289126E+01 -0.49364698899E+02  0.48513594991E+02  0.69801708168E+02  0.00000000000E+00 0.  1.
</event>
<event>
 4    1  0.8322090E+003  0.2019858E+02  0.7546771E-02  0.1531021E+00
          2   -1    0    0  502    0  0.00000000000E+00  0.00000000000E+00  0.60171308083E+03  0.60171308083E+03  0.00000000000E+00 0. -1.
          1   -1    0    0  501    0 -0.00000000000E+00 -0.00000000000E+00 -0.40159009876E+02  0.40159009876E+02  0.00000000000E+00 0. -1.
          2    1    1    2  501    0 -0.14102527534E+02  0.14460333971E+02  0.59899224412E+03  0.59933270482E+03  0.00000000000E+00 0. -1.
          1    1    1    2  502    0  0.14102527534E+02 -0.14460333971E+02 -0.37438173171E+02  0.42539385889E+02  0.00000000000E+00 0. -1.
</event>
<event>
 4    1  0.8322090E+003  0.2138511E+02  0.7546771E-02  0.1513837E+00
          2   -1    0    0  502    0  0.00000000000E+00  0.00000000000E+00  0.12546899202E+03  0.12546899202E+03  0.00000000000E+00 0.  1.
          1   -1    0    0  501    0 -0.00000000000E+00 -0.00000000000E+00 -0.25600194043E+02  0.25600194043E+02  0.00000000000E+00 0. -1.
          2    1    1    2  501    0 -0.21131338230E+02 -0.32847325039E+01  0.11988538099E+03  0.12177777916E+03  0.00000000000E+00 0.  1.
          1    1    1    2  502    0  0.21131338230E+02  0.32847325039E+01 -0.20016583009E+02  0.29291406903E+02  0.00000000000E+00 0. -1.
</event>
<event>
 4    1  0.8322090E+003  0.2166350E+02  0.7546771E-02  0.1509999E+00
          2   -1    0    0  502    0  0.00000000000E+00  0.00000000000E+00  0.31012552675E+03  0.31012552675E+03  0.00000000000E+00 0. -1.
          1   -1    0    0  501    0 -0.00000000000E+00 -0.00000000000E+00 -0.85945341429E+01  0.85945341429E+01  0.00000000000E+00 0.  1.
          2    1    1    2  501    0 -0.15267443016E+02  0.15369205439E+02  0.29541710611E+03  0.29621035409E+03  0.00000000000E+00 0. -1.
          1    1    1    2  502    0  0.15267443016E+02 -0.15369205439E+02  0.61138865020E+01  0.22509706801E+02  0.00000000000E+00 0.  1.
</event>
<event>
 4    1  0.8322090E+003  0.2331779E+02  0.7546771E-02  0.1488546E+00
          2   -1    0    0  502    0  0.00000000000E+00  0.00000000000E+00  0.17549843730E+02  0.17549843730E+02  0.00000000000E+00 0. -1.
          1   -1    0    0  501    0 -0.00000000000E+00 -0.00000000000E+00 -0.51257424347E+02  0.51257424347E+02  0.00000000000E+00 0.  1.
          2    1    1    2  501    0  0.30704947107E+01 -0.23114746174E+02  0.47841991318E+01  0.23803528936E+02  0.00000000000E+00 0. -1.
          1    1    1    2  502    0 -0.30704947107E+01  0.23114746174E+02 -0.38491779748E+02  0.45003739141E+02  0.00000000000E+00 0.  1.
</event>
<event>
 4    1  0.8322090E+003  0.5170971E+02  0.7546771E-02  0.1290925E+00
          2   -1    0    0  502    0  0.00000000000E+00  0.00000000000E+00  0.15231668147E+04  0.15231668147E+04  0.00000000000E+00 0. -1.
          1   -1    0    0  501    0 -0.00000000000E+00 -0.00000000000E+00 -0.15483161937E+02  0.15483161937E+02  0.00000000000E+00 0.  1.
          2    1    1    2  501    0  0.34958558144E+02  0.38102405079E+02  0.14782420258E+04  0.14791461662E+04  0.00000000000E+00 0. -1.
          1    1    1    2  502    0 -0.34958558144E+02 -0.38102405079E+02  0.29441626940E+02  0.59503810443E+02  0.00000000000E+00 0.  1.
</event>
<event>
 4    1  0.8322090E+003  0.2335667E+02  0.7546771E-02  0.1488067E+00
          2   -1    0    0  502    0  0.00000000000E+00  0.00000000000E+00  0.14705158920E+03  0.14705158920E+03  0.00000000000E+00 0.  1.
          1   -1    0    0  501    0 -0.00000000000E+00 -0.00000000000E+00 -0.66141479922E+03  0.66141479922E+03  0.00000000000E+00 0.  1.
          2    1    1    2  501    0  0.13663466718E+02 -0.18943170214E+02  0.14591634197E+03  0.14777385721E+03  0.00000000000E+00 0.  1.
          1    1    1    2  502    0 -0.13663466718E+02  0.18943170214E+02 -0.66027955199E+03  0.66069253121E+03  0.00000000000E+00 0.  1.
</event>
<event>
 4    1  0.8322090E+003  0.3480579E+02  0.7546771E-02  0.1381934E+00
          2   -1    0    0  502    0  0.00000000000E+00  0.00000000000E+00  0.13325963855E+03  0.13325963855E+03  0.00000000000E+00 0.  1.
          1   -1    0    0  501    0 -0.00000000000E+00 -0.00000000000E+00 -0.43628436491E+02  0.43628436491E+02  0.00000000000E+00 0.  1.
          2    1    1    2  501    0 -0.34755370059E+02  0.18728482717E+01  0.12350744674E+03  0.12831809190E+03  0.00000000000E+00 0.  1.
          1    1    1    2  502    0  0.34755370059E+02 -0.18728482717E+01 -0.33876244681E+02  0.48569983141E+02  0.00000000000E+00 0.  1.
</event>
<event>
 4    1  0.8322090E+003  0.4636080E+02  0.7546771E-02  0.1314772E+00
          2   -1    0    0  502    0  0.00000000000E+00  0.00000000000E+00  0.14936622360E+03  0.14936622360E+03  0.00000000000E+00 0. -1.
          1   -1    0    0  501    0 -0.00000000000E+00 -0.00000000000E+00 -0.49475472558E+03  0.49475472558E+03  0.00000000000E+00 0.  1.
          2    1    1    2  501    0  0.38042353402E+02 -0.26497225053E+02  0.14464820457E+03  0.15189610487E+03  0.00000000000E+00 0. -1.
          1    1    1    2  502    0 -0.38042353402E+02  0.26497225053E+02 -0.49003670656E+03  0.49222484431E+03  0.00000000000E+00 0.  1.
</event>
<event>
 4    1  0.8322090E+003  0.4001599E+02  0.7546771E-02  0.1348392E+00
          2   -1    0    0  502    0  0.00000000000E+00  0.00000000000E+00  0.97918514565E+02  0.97918514565E+02  0.00000000000E+00 0. -1.
          1   -1    0    0  501    0 -0.00000000000E+00 -0.00000000000E+00 -0.16082816898E+03  0.16082816898E+03  0.00000000000E+00 0. -1.
          2    1    1    2  501    0  0.16501021008E+01  0.39981955769E+02  0.91164820604E+02  0.99560555141E+02  0.00000000000E+00 0. -1.
          1    1    1    2  502    0 -0.16501021008E+01 -0.39981955769E+02 -0.15407447502E+03  0.15918612840E+03  0.00000000000E+00 0. -1.
</event>
<event>
 4    1  0.8322090E+003  0.2272587E+02  0.7546771E-02  0.1495969E+00
          2   -1    0    0  502    0  0.00000000000E+00  0.00000000000E+00  0.10513985399E+04  0.10513985399E+04  0.00000000000E+00 0.  1.
          1   -1    0    0  501    0 -0.00000000000E+00 -0.00000000000E+00 -0.61425402712E+00  0.61425402712E+00  0.00000000000E+00 0.  1.
          2    1    1    2  501    0 -0.15184717262E+01  0.22675082203E+02  0.76080732982E+03  0.76114667326E+03  0.00000000000E+00 0.  1.
          1    1    1    2  502    0  0.15184717262E+01 -0.22675082203E+02  0.28997695603E+03  0.29086612065E+03  0.00000000000E+00 0.  1.
</event>
<event>
 4    1  0.8322090E+003  0.2778115E+02  0.7546771E-02  0.1439915E+00
          2   -1    0    0  502    0  0.00000000000E+00  0.00000000000E+00  0.24823315398E+02  0.24823315398E+02  0.00000000000E+00 0.  1.
          1   -1    0    0  501    0 -0.00000000000E+00 -0.00000000000E+00 -0.14871781855E+03  0.14871781855E+03  0.00000000000E+00 0.  1.
          2    1    1    2  501    0  0.59644244187E+01  0.27133338305E+02  0.15221826375E+02  0.31678011371E+02  0.00000000000E+00 0.  1.
          1    1    1    2  502    0 -0.59644244187E+01 -0.27133338305E+02 -0.13911632952E+03  0.14186312257E+03  0.00000000000E+00 0.  1.
</event>
<event>
 4    1  0.8322090E+003  0.2796020E+02  0.7546771E-02  0.1438194E+00
          2   -1    0    0  502    0  0.00000000000E+00  0.00000000000E+00  0.14014322158E+04  0.14014322158E+04  0.00000000000E+00 0. -1.
          1   -1    0    0  501    0 -0.00000000000E+00 -0.00000000000E+00 -0.32063798361E+01  0.32063798361E+01  0.00000000000E+00 0. -1.
          2    1    1    2  501    0  0.16221771650E+01 -0.27913103799E+02  0.13374212251E+04  0.13377134619E+04  0.00000000000E+00 0. -1.
          1    1    1    2  502    0 -0.16221771650E+01  0.27913103799E+02  0.60804610885E+02  0.66925133749E+02  0.00000000000E+00 0. -1.
</event>
<event>
 4    1  0.8322090E+003  0.3285177E+02  0.7546771E-02  0.1396329E+00
          2   -1    0    0  502    0  0.00000000000E+00  0.00000000000E+00  0.13735335856E+03  0.13735335856E+03  0.00000000000E+00 0.  1.
          1   -1    0    0  501    0 -0.00000000000E+00 -0.00000000000E+00 -0.31987635351E+02  0.31987635351E+02  0.00000000000E+00 0.  1.
          2    1    1    2  501    0  0.32512654742E+02 -0.47080859342E+01  0.12622257227E+03  0.13042766786E+03  0.00000000000E+00 0.  1.
          1    1    1    2  502    0 -0.32512654742E+02  0.47080859342E+01 -0.20856849066E+02  0.38913326052E+02  0.00000000000E+00 0.  1.
</event>
<event>
 4    1  0.8322090E+003  0.2945479E+02  0.7546771E-02  0.1424394E+00
          2   -1    0    0  502    0  0.00000000000E+00  0.00000000000E+00  0.51266149039E+00  0.51266149039E+00  0.00000000000E+00 0.  1.
          1   -1    0    0  501    0 -0.00000000000E+00 -0.00000000000E+00 -0.17258685721E+04  0.17258685721E+04  0.00000000000E+00 0. -1.
          2    1    1    2  501    0 -0.28841898566E+02 -0.59774213623E+01 -0.74232053362E+03  0.74290467714E+03  0.00000000000E+00 0.  1.
          1    1    1    2  502    0  0.28841898566E+02  0.59774213623E+01 -0.98303537695E+03  0.98347655641E+03  0.00000000000E+00 0. -1.
</event>
<event>
 4    1  0.8322090E+003  0.2070919E+02  0.7546771E-02  0.1523458E+00
          2   -1    0    0  502    0  0.00000000000E+00  0.00000000000E+00  0.19002282659E+03  0.19002282659E+03  0.00000000000E+00 0. -1.
          1   -1    0    0  501    0 -0.00000000000E+00 -0.00000000000E+00 -0.48525561052E+01  0.48525561052E+01  0.00000000000E+00 0.  1.
          2    1    1    2  501    0 -0.17560058338E+02  0.10977920403E+02  0.16384776015E+03  0.16515132119E+03  0.00000000000E+00 0. -1.
          1    1    1    2  502    0  0.17560058338E+02 -0.10977920403E+02  0.21322510331E+02  0.29724061499E+02  0.00000000000E+00 0.  1.
</event>
<event>
 4    1  0.8322090E+003  0.2054793E+02  0.7546771E-02  0.1525818E+00
          2   -1    0    0  502    0  0.00000000000E+00  0.00000000000E+00  0.47177932636E+03  0.47177932636E+03  0.00000000000E+00 0. -1.
          1   -1    0    0  501    0 -0.00000000000E+00 -0.00000000000E+00 -0.97937712754E+01  0.97937712754E+01  0.00000000000E+00 0.  1.
          2    1    1    2  501    0  0.80543104747E+01  0.18903580858E+02  0.46051438114E+03  0.46097257242E+03  0.00000000000E+00 0. -1.
          1    1    1    2  502    0 -0.80543104747E+01 -0.18903580858E+02  0.14711739468E+01  0.20600525218E+02  0.00000000000E+00 0.  1.
</event>
<event>
 4    1  0.8322090E+003  0.2023699E+02  0.7546771E-02  0.1530443E+00
          2   -1    0    0  502    0  0.00000000000E+00  0.00000000000E+00  0.33259404539E+03  0.33259404539E+03  0.00000000000E+00 0.  1.
          1   -1    0    0  501    0 -0.00000000000E+00 -0.00000000000E+00 -0.14886961264E+01  0.14886961264E+01  0.00000000000E+00 0. -1.
          2    1    1    2  501    0  0.19912993500E+02  0.36067514673E+01  0.23500539319E+03  0.23587511694E+03  0.00000000000E+00 0.  1.
          1    1    1    2  502    0 -0.19912993500E+02 -0.36067514673E+01  0.96099956081E+02  0.98207624577E+02  0.00000000000E+00 0. -1.
</event>
<event>
 4    1  0.8322090E+003  0.2631634E+02  0.7546771E-02  0.1454599E+00
          2   -1    0    0  502    0  0.00000000000E+00  0.00000000000E+00  0.76204306978E+03  0.76204306978E+03  0.00000000000E+00 0. -1.
          1   -1    0    0  501    0 -0.00000000000E+00 -0.00000000000E+00 -0.17938474897E+02  0.17938474897E+02  0.00000000000E+00 0.  1.
          2    1    1    2  501    0  0.26060847368E+02  0.36581090201E+01  0.75203573834E+03  0.75249604735E+03  0.00000000000E+00 0. -1.
          1    1    1    2  502    0 -0.26060847368E+02 -0.36581090201E+01 -0.79311434562E+01  0.27485497334E+02  0.00000000000E+00 0.  1.
</event>
<event>
 4    1  0.8322090E+003  0.2149001E+02  0.7546771E-02  0.1512382E+00
          2   -1    0    0  502    0  0.00000000000E+00  0.00000000000E+00  0.80654974160E+01  0.80654974160E+01  0.00000000000E+00 0. -1.
          1   -1    0    0  501    0 -0.00000000000E+00 -0.00000000000E+00 -0.12258812465E+04  0.12258812465E+04  0.00000000000E+00 0.  1.
          2    1    1    2  501    0 -0.20593360588E+02 -0.61427971169E+01 -0.65156775867E+01  0.22456057338E+02  0.00000000000E+00 0. -1.
          1    1    1    2  502    0  0.20593360588E+02  0.61427971169E+01 -0.12113000715E+04  0.12114906866E+04  0.00000000000E+00 0.  1.
</event>
<event>
 4    1  0.8322090E+003  0.2245901E+02  0.7546771E-02  0.1499405E+00
          2   -1    0    0  502    0  0.00000000000E+00  0.00000000000E+00  0.41516565821E+01  0.41516565821E+01  0.00000000000E+00 0.  1.
          1   -1    0    0  501    0 -0.00000000000E+00 -0.00000000000E+00 -0.30448798609E+03  0.30448798609E+03  0.00000000000E+00 0. -1.
          2    1    1    2  501    0 -0.14941897677E+02 -0.16767437459E+02 -0.30534514758E+02  0.37904668006E+02  0.00000000000E+00 0.  1.
          1    1    1    2  502    0  0.14941897677E+02  0.16767437459E+02 -0.26980181475E+03  0.27073497466E+03  0.00000000000E+00 0. -1.
</event>
<event>
 4    1  0.8322090E+003  0.3031238E+02  0.7546771E-02  0.1416901E+00
          2   -1    0    0  502    0  0.00000000000E+00  0.00000000000E+00  0.65072635471E+03  0.65072635471E+03  0.00000000000E+00 0.  1.
          1   -1    0    0  501    0 -0.00000000000E+00 -0.00000000000E+00 -0.17886542009E+02  0.17886542009E+02  0.00000000000E+00 0. -1.
          2    1    1    2  501    0 -0.20900752925E+02 -0.21954473698E+02  0.63725948403E+03  0.63798000781E+03  0.00000000000E+00 0.  1.
          1    1    1    2  502    0  0.20900752925E+02  0.21954473698E+02 -0.44196713236E+01  0.30632888907E+02  0.00000000000E+00 0. -1.
</event>
<event>
 4    1  0.8322090E+003  0.2307273E+02  0.7546771E-02  0.1491587E+00
          2   -1    0    0  502    0  0.00000000000E+00  0.00000000000E+00  0.43655335182E+01  0.43655335182E+01  0.00000000000E+00 0. -1.
          1   -1    0    0  501    0 -0.00000000000E+00 -0.00000000000E+00 -0.57843326265E+03  0.57843326265E+03  0.00000000000E+00 0.  1.
          2    1    1    2  501    0  0.22360073369E+02  0.56901632196E+01 -0.28166513123E+02  0.36410208734E+02  0.00000000000E+00 0. -1.
          1    1    1    2  502    0 -0.22360073369E+02 -0.56901632196E+01 -0.54590121601E+03  0.54638858744E+03  0.00000000000E+00 0.  1.
</event>
<event>
 4    1  0.8322090E+003  0.2122510E+02  0.7546771E-02  0.1516075E+00
          2   -1    0    0  502    0  0.00000000000E+00  0.00000000000E+00  0.32605605405E+02  0.32605605405E+02  0.00000000000E+00 0. -1.
          1   -1    0    0  501    0 -0.00000000000E+00 -0.00000000000E+00 -0.15553697934E+03  0.15553697934E+03  0.00000000000E+00 0. -1.
          2    1    1    2  501    0 -0.18792470749E+02  0.98665087019E+01  0.28330136053E+02  0.35399174561E+02  0.00000000000E+00 0. -1.
          1    1    1    2  502    0  0.18792470749E+02 -0.98665087019E+01 -0.15126150998E+03  0.15274341018E+03  0.00000000000E+00 0. -1.
</event>
<event>
 4    1  0.8322090E+003  0.2360403E+02  0.7546771E-02  0.1485049E+00
          2   -1    0    0  502    0  0.00000000000E+00  0.00000000000E+00  0.10046545797E+04  0.10046545797E+04  0.00000000000E+00 0.  1.
          1   -1    0    0  501    0 -0.00000000000E+00 -0.00000000000E+00 -0.18464605186E+01  0.18464605186E+01  0.00000000000E+00 0. -1.
          2    1    1    2  501    0 -0.13138414936E+02 -0.19609494800E+02  0.92235089769E+03  0.92265287552E+03  0.00000000000E+00 0.  1.
          1    1    1    2  502    0  0.13138414936E+02  0.19609494800E+02  0.80457221476E+02  0.83848164684E+02  0.00000000000E+00 0. -1.
</event>
<event>
 4    1  0.8322090E+003  0.2109078E+02  0.7546771E-02  0.1517973E+00
          2   -1    0    0  502    0  0.00000000000E+00  0.00000000000E+00  0.36884481073E+03  0.36884481073E+03  0.00000000000E+00 0.  1.
          1   -1    0    0  501    0 -0.00000000000E+00 -0.00000000000E+00 -0.82522505818E+01  0.82522505818E+01  0.00000000000E+00 0. -1.
          2    1    1    2  501    0 -0.17253847021E+02 -0.12129538266E+02  0.35452369150E+03  0.35515048750E+03  0.00000000000E+00 0.  1.
          1    1    1    2  502    0  0.17253847021E+02  0.12129538266E+02  0.60688686506E+01  0.21946573816E+02  0.00000000000E+00 0. -1.
</event>
<event>
 4    1  0.8322090E+003  0.2823458E+02  0.7546771E-02  0.1435586E+00
          2   -1    0    0  502    0  0.00000000000E+00  0.00000000000E+00  0.28502208803E+01  0.28502208803E+01  0.00000000000E+00 0.  1.
          1   -1    0    0  501    0 -0.00000000000E+00 -0.00000000000E+00 -0.65270737219E+03  0.65270737219E+03  0.00000000000E+00 0. -1.
          2    1    1    2  501    0  0.27163327683E+02 -0.77035914610E+01 -0.77138797575E+02  0.82143689858E+02  0.00000000000E+00 0.  1.
          1    1    1    2  502    0 -0.27163327683E+02  0.77035914610E+01 -0.57271835374E+03  0.57341390321E+03  0.00000000000E+00 0. -1.
</event>
<event>
 4    1  0.8322090E+003  0.2039966E+02  0.7546771E-02  0.1528011E+00
          2   -1    0    0  502    0  0.00000000000E+00  0.00000000000E+00  0.18344995333E+03  0.18344995333E+03  0.00000000000E+00 0.  1.
          1   -1    0    0  501    0 -0.00000000000E+00 -0.00000000000E+00 -0.28990330627E+01  0.28990330627E+01  0.00000000000E+00 0. -1.
          2    1    1    2  501    0 -0.93412409534E+01 -0.18135246921E+02  0.13373084884E+03  0.13527781006E+03  0.00000000000E+00 0.  1.
          1    1    1    2  502    0  0.93412409534E+01  0.18135246921E+02  0.46820071428E+02  0.51071176332E+02  0.00000000000E+00 0. -1.
</event>
<event>
 4    1  0.8322090E+003  0.2067726E+02  0.7546771E-02  0.1523923E+00
          2   -1    0    0  502    0  0.00000000000E+00  0.00000000000E+00  0.20725172003E+03  0.20725172003E+03  0.00000000000E+00 0. -1.
          1   -1    0    0  501    0 -0.00000000000E+00 -0.00000000000E+00 -0.34106724132E+02  0.34106724132E+02  0.00000000000E+00 0. -1.
          2    1    1    2  501    0  0.12234454288E+02  0.16669354771E+02  0.20354515383E+03  0.20459271470E+03  0.00000000000E+00 0. -1.
          1    1    1    2  502    0 -0.12234454288E+02 -0.16669354771E+02 -0.30400157935E+02  0.36765729459E+02  0.00000000000E+00 0. -1.
</event>
<event>
 4    1  0.8322090E+003  0.2552884E+02  0.7546771E-02  0.1462973E+00
          2   -1    0    0  502    0  0.00000000000E+00  0.00000000000E+00  0.21799548377E+03  0.21799548377E+03  0.00000000000E+00 0.  1.
          1   -1    0    0  501    0 -0.00000000000E+00 -0.00000000000E+00 -0.62107688267E+01  0.62107688267E+01  0.00000000000E+00 0. -1.
          2    1    1    2  501    0 -0.15668155845E+02  0.20155166318E+02  0.18662534069E+03  0.18836331815E+03  0.00000000000E+00 0.  1.
          1    1    1    2  502    0  0.15668155845E+02 -0.20155166318E+02  0.25159374253E+02  0.35842934446E+02  0.00000000000E+00 0. -1.
</event>
<event>
 4    1  0.8322090E+003  0.2105876E+02  0.7546771E-02  0.1518427E+00
          2   -1    0    0  502    0  0.00000000000E+00  0.00000000000E+00  0.11232708709E+02  0.11232708709E+02  0.00000000000E+00 0. -1.
          1   -1    0    0  501    0 -0.00000000000E+00 -0.00000000000E+00 -0.88636232643E+02  0.88636232643E+02  0.00000000000E+00 0. -1.
          2    1    1    2  501    0 -0.16326793681E+02  0.13300652452E+02 -0.15155066408E+01  0.21113225900E+02  0.00000000000E+00 0. -1.
          1    1    1    2  502    0  0.16326793681E+02 -0.13300652452E+02 -0.75888017293E+02  0.78755715451E+02  0.00000000000E+00 0. -1.
</event>
<event>
 4    1  0.8322090E+003  0.3679745E+02  0.7546771E-02  0.1368349E+00
          2   -1    0    0  502    0  0.00000000000E+00  0.00000000000E+00  0.14643207025E+04  0.14643207025E+04  0.00000000000E+00 0.  1.
          1   -1    0    0  501    0 -0.00000000000E+00 -0.00000000000E+00 -0.11973431211E+03  0.11973431211E+03  0.00000000000E+00 0.  1.
          2    1    1    2  501    0 -0.72986061157E+01  0.36066366446E+02  0.14612563983E+04  0.14617196428E+04  0.00000000000E+00 0.  1.
          1    1    1    2  502    0  0.72986061157E+01 -0.36066366446E+02 -0.11667000796E+03  0.12233537182E+03  0.00000000000E+00 0.  1.
</event>
<event>
 4    1  0.8322090E+003  0.2003114E+02  0.7546771E-02  0.1533560E+00
          2   -1    0    0  502    0  0.00000000000E+00  0.00000000000E+00  0.19003263512E+02  0.19003263512E+02  0.00000000000E+00 0.  1.
          1   -1    0    0  501    0 -0.00000000000E+00 -0.00000000000E+00 -0.87314010376E+03  0.87314010376E+03  0.00000000000E+00 0. -1.
          2    1    1    2  501    0 -0.64247427372E+01  0.18972859024E+02  0.13576714742E+02  0.24198633886E+02  0.00000000000E+00 0.  1.
          1    1    1    2  502    0  0.64247427372E+01 -0.18972859024E+02 -0.86771355499E+03  0.86794473338E+03  0.00000000000E+00 0. -1.
</event>
<event>
 4    1  0.8322090E+003  0.6256772E+02  0.7546771E-02  0.1251349E+00
          2   -1    0    0  502    0  0.00000000000E+00  0.00000000000E+00  0.17782191071E+02  0.17782191071E+02  0.00000000000E+00 0.  1.
          1   -1    0    0  501    0 -0.00000000000E+00 -0.00000000000E+00 -0.22028433321E+03  0.22028433321E+03  0.00000000000E+00 0.  1.
          2    1    1    2  501    0 -0.49953012147E+02 -0.37675143158E+02 -0.98293493435E+02  0.11651751236E+03  0.00000000000E+00 0.  1.
          1    1    1    2  502    0  0.49953012147E+02  0.37675143158E+02 -0.10420864870E+03  0.12154901192E+03  0.00000000000E+00 0.  1.
</event>
<event>
 4    1  0.8322090E+003  0.2460632E+02  0.7546771E-02  0.1473256E+00
          2   -1    0    0  502    0  0.00000000000E+00  0.00000000000E+00  0.38707010028E+02  0.38707010028E+02  0.00000000000E+00 0. -1.
          1   -1    0    0  501    0 -0.00000000000E+00 -0.00000000000E+00 -0.41932700499E+03  0.41932700499E+03  0.00000000000E+00 0. -1.
          2    1    1    2  501    0 -0.23919447720E+02  0.57732918220E+01  0.34394832914E+02  0.42290370167E+02  0.00000000000E+00 0. -1.
          1    1    1    2  502    0  0.23919447720E+02 -0.57732918220E+01 -0.41501482787E+03  0.41574364485E+03  0.00000000000E+00 0. -1.
</event>
<event>
 4    1  0.8322090E+003  0.3090631E+02  0.7546771E-02  0.1411880E+00
          2   -1    0    0  502    0  0.00000000000E+00  0.00000000000E+00  0.56570982687E+01  0.56570982687E+01  0.00000000000E+00 0.  1.
          1   -1    0    0  501    0 -0.00000000000E+00 -0.00000000000E+00 -0.94738094135E+03  0.94738094135E+03  0.00000000000E+00 0.  1.
          2    1    1    2  501    0  0.11605378311E+02  0.28644641184E+02 -0.38889625741E+02  0.49674976242E+02  0.00000000000E+00 0.  1.
          1    1    1    2  502    0 -0.11605378311E+02 -0.28644641184E+02 -0.90283421734E+03  0.90336306338E+03  0.00000000000E+00 0.  1.
</event>
<event>
 4    1  0.8322090E+003  0.2910021E+02  0.7546771E-02  0.1427580E+00
          2   -1    0    0  502    0  0.00000000000E+00  0.00000000000E+00  0.21209181317E+02  0.21209181317E+02  0.00000000000E+00 0. -1.
          1   -1    0    0  501    0 -0.00000000000E+00 -0.00000000000E+00 -0.11913082884E+03  0.11913082884E+03  0.00000000000E+00 0. -1.
          2    1    1    2  501    0  0.90658451282E+01  0.27651995992E+02  0.82544616749E+01  0.30248282063E+02  0.00000000000E+00 0. -1.
          1    1    1    2  502    0 -0.90658451282E+01 -0.27651995992E+02 -0.10617610920E+03  0.11009172810E+03  0.00000000000E+00 0. -1.
</event>
<event>
 4    1  0.8322090E+003  0.2587890E+02  0.7546771E-02  0.1459207E+00
          2   -1    0    0  502    0  0.00000000000E+00  0.00000000000E+00  0.73108263842E+03  0.73108263842E+03  0.00000000000E+00 0.  1.
          1   -1    0    0  501    0 -0.00000000000E+00 -0.00000000000E+00 -0.16098763508E+03  0.16098763508E+03  0.00000000000E+00 0. -1.
          2    1    1    2  501    0  0.14743357256E+02  0.21268546040E+02  0.72981179818E+03  0.73027048304E+03  0.00000000000E+00 0.  1.
          1    1    1    2  502    0 -0.14743357256E+02 -0.21268546040E+02 -0.15971679485E+03  0.16179979046E+03  0.00000000000E+00 0. -1.
</event>
<event>
 4    1  0.8322090E+003  0.2033292E+02  0.7546771E-02  0.1529006E+00
          2   -1    0    0  502    0  0.00000000000E+00  0.00000000000E+00  0.10161409111E+04  0.10161409111E+04  0.00000000000E+00 0. -1.
          1   -1    0    0  501    0 -0.00000000000E+00 -0.00000000000E+00 -0.11135053496E+01  0.11135053496E+01  0.00000000000E+00 0.  1.
          2    1    1    2  501    0 -0.87090245297E+01  0.18373368367E+02  0.91269928256E+03  0.91292574077E+03  0.00000000000E+00 0. -1.
          1    1    1    2  502    0  0.87090245297E+01 -0.18373368367E+02  0.10232812315E+03  0.10432867564E+03  0.00000000000E+00 0.  1.
</event>
<event>
 4    1  0.8322090E+003  0.3584531E+02  0.7546771E-02  0.1374716E+00
          2   -1    0    0  502    0  0.00000000000E+00  0.00000000000E+00  0.80658262192E+03  0.80658262192E+03  0.00000000000E+00 0. -1.
          1   -1    0    0  501    0 -0.00000000000E+00 -0.00000000000E+00 -0.78895749259E+02  0.78895749259E+02  0.00000000000E+00 0. -1.
          2    1    1    2  501    0 -0.35029431422E+02  0.76042789397E+01  0.80209011082E+03  0.80289067251E+03  0.00000000000E+00 0. -1.
          1    1    1    2  502    0  0.35029431422E+02 -0.76042789397E+01 -0.74403238157E+02  0.82587698674E+02  0.00000000000E+00 0. -1.
</event>
<event>
 4    1  0.8322090E+003  0.2447743E+02  0.7546771E-02  0.1474735E+00
          2   -1    0    0  502    0  0.00000000000E+00  0.00000000000E+00  0.76095385460E+03  0.76095385460E+03  0.00000000000E+00 0.  1.
          1   -1    0    0  501    0 -0.00000000000E+00 -0.00000000000E+00 -0.10556227282E+01  0.10556227282E+01  0.00000000000E+00 0.  1.
          2    1    1    2  501    0  0.17440802471E+02 -0.17174492374E+02  0.57201755974E+03  0.57254103210E+03  0.00000000000E+00 0.  1.
          1    1    1    2  502    0 -0.17440802471E+02  0.17174492374E+02  0.18788067212E+03  0.18946844523E+03  0.00000000000E+00 0.  1.
</event>
<event>
 4    1  0.8322090E+003  0.4043586E+02  0.7546771E-02  0.1345950E+00
          2   -1    0    0  502    0  0.00000000000E+00  0.00000000000E+00  0.14924025918E+03  0.14924025918E+03  0.00000000000E+00 0. -1.
          1   -1    0    0  501    0 -0.00000000000E+00 -0.00000000000E+00 -0.38012869007E+03  0.38012869007E+03  0.00000000000E+00 0.  1.
          2    1    1    2  501    0 -0.37442635226E+02  0.15267860570E+02  0.14539806993E+03  0.15091606024E+03  0.00000000000E+00 0. -1.
          1    1    1    2  502    0  0.37442635226E+02 -0.15267860570E+02 -0.37628650082E+03  0.37845288900E+03  0.00000000000E+00 0.  1.
</event>
<event>
 4    1  0.8322090E+003  0.2367311E+02  0.7546771E-02  0.1484215E+00
          2   -1    0    0  502    0  0.00000000000E+00  0.00000000000E+00  0.10289076446E+04  0.10289076446E+04  0.00000000000E+00 0. -1.
          1   -1    0    0  501    0 -0.00000000000E+00 -0.00000000000E+00 -0.22191488721E+01  0.22191488721E+01  0.00000000000E+00 0.  1.
          2    1    1    2  501    0  0.16897697462E+02 -0.16579623233E+02  0.96119011680E+03  0.96148159458E+03  0.00000000000E+00 0. -1.
          1    1    1    2  502    0 -0.16897697462E+02  0.16579623233E+02  0.65498378902E+02  0.69645198864E+02  0.00000000000E+00 0.  1.
</event>
<event>
 4    1  0.8322090E+003  0.2244448E+02  0.7546771E-02  0.1499594E+00
          2   -1    0    0  502    0  0.00000000000E+00  0.00000000000E+00  0.87426686325E+03  0.87426686325E+03  0.00000000000E+00 0. -1.
          1   -1    0    0  501    0 -0.00000000000E+00 -0.00000000000E+00 -0.70341149097E+01  0.70341149097E+01  0.00000000000E+00 0.  1.
          2    1    1    2  501    0 -0.61519366650E+00  0.22436046425E+02  0.85583326809E+03  0.85612752404E+03  0.00000000000E+00 0. -1.
          1    1    1    2  502    0  0.61519366650E+00 -0.22436046425E+02  0.11399480246E+02  0.25173454119E+02  0.00000000000E+00 0.  1.
</event>
<event>
 4    1  0.8322090E+003  0.2056853E+02  0.7546771E-02  0.1525515E+00
          2   -1    0    0  502    0  0.00000000000E+00  0.00000000000E+00  0.10429301518E+04  0.10429301518E+04  0.00000000000E+00 0. -1.
          1   -1    0    0  501    0 -0.00000000000E+00 -0.00000000000E+00 -0.16888565241E+02  0.16888565241E+02  0.00000000000E+00 0.  1.
          2    1    1    2  501    0  0.67813472084E+01 -0.19418488011E+02  0.10365274732E+04  0.10367315309E+04  0.00000000000E+00 0. -1.
          1    1    1    2  502    0 -0.67813472084E+01  0.19418488011E+02 -0.10485886660E+02  0.23087186179E+02  0.00000000000E+00 0.  1.
</event>
<event>
 4    1  0.8322090E+003  0.2573196E+02  0.7546771E-02  0.1460779E+00
          2   -1    0    0  502    0  0.00000000000E+00  0.00000000000E+00  0.79826879216E+00  0.79826879216E+00  0.00000000000E+00 0.  1.
          1   -1    0    0  501    0 -0.00000000000E+00 -0.00000000000E+00 -0.13161054221E+04  0.13161054221E+04  0.00000000000E+00 0. -1.
          2    1    1    2  501    0 -0.67681950979E+01  0.24825895054E+02 -0.25726270836E+03  0.25854638780E+03  0.00000000000E+00 0.  1.
          1    1    1    2  502    0  0.67681950979E+01 -0.24825895054E+02 -0.10580444450E+04  0.10583573031E+04  0.00000000000E+00 0. -1.
</event>
<event>
 4    1  0.8322090E+003  0.4248691E+02  0.7546771E-02  0.1334498E+00
          2   -1    0    0  502    0  0.00000000000E+00  0.00000000000E+00  0.20228251310E+03  0.20228251310E+03  0.00000000000E+00 0.  1.
          1   -1    0    0  501    0 -0.00000000000E+00 -0.00000000000E+00 -0.22522898357E+02  0.22522898357E+02  0.00000000000E+00 0.  1.
          2    1    1    2  501    0  0.41773375203E+02 -0.77538573911E+01  0.17722097920E+03  0.18224273003E+03  0.00000000000E+00 0.  1.
          1    1    1    2  502    0 -0.41773375203E+02  0.77538573911E+01  0.25386355484E+01  0.42562681433E+02  0.00000000000E+00 0.  1.
</event>
<event>
 4    1  0.8322090E+003  0.2930846E+02  0.7546771E-02  0.1425703E+00
          2   -1    0    0  502    0  0.00000000000E+00  0.00000000000E+00  0.33119981730E+03  0.33119981730E+03  0.00000000000E+00 0. -1.
          1   -1    0    0  501    0 -0.00000000000E+00 -0.00000000000E+00 -0.28880272779E+03  0.28880272779E+03  0.00000000000E+00 0. -1.
          2    1    1    2  501    0  0.63844660272E+01 -0.28604624917E+02  0.32980471355E+03  0.33110441715E+03  0.00000000000E+00 0. -1.
          1    1    1    2  502    0 -0.63844660272E+01  0.28604624917E+02 -0.28740762404E+03  0.28889812795E+03  0.00000000000E+00 0. -1.
</event>
<event>
 4    1  0.8322090E+003  0.5731433E+02  0.7546771E-02  0.1269241E+00
          2   -1    0    0  502    0  0.00000000000E+00  0.00000000000E+00  0.38490936022E+03  0.38490936022E+03  0.00000000000E+00 0. -1.
          1   -1    0    0  501    0 -0.00000000000E+00 -0.00000000000E+00 -0.31128445786E+02  0.31128445786E+02  0.00000000000E+00 0.  1.
          2    1    1    2  501    0 -0.53947055753E+01 -0.57059877519E+02  0.35411425278E+03  0.35872250626E+03  0.00000000000E+00 0. -1.
          1    1    1    2  502    0  0.53947055753E+01  0.57059877519E+02 -0.33333835154E+00  0.57315299747E+02  0.00000000000E+00 0.  1.
</event>
<event>
 4    1  0.8322090E+003  0.2334433E+02  0.7546771E-02  0.1488219E+00
          2   -1    0    0  502    0  0.00000000000E+00  0.00000000000E+00  0.94866369172E+03  0.94866369172E+03  0.00000000000E+00 0. -1.
          1   -1    0    0  501    0 -0.00000000000E+00 -0.00000000000E+00 -0.83215444318E+02  0.83215444318E+02  0.00000000000E+00 0. -1.
          2    1    1    2  501    0 -0.20667249840E+02  0.10854613242E+02  0.94687980620E+03  0.94716752754E+03  0.00000000000E+00 0. -1.
          1    1    1    2  502    0  0.20667249840E+02 -0.10854613242E+02 -0.81431558800E+02  0.84711608492E+02  0.00000000000E+00 0. -1.
</event>
<event>
 4    1  0.8322090E+003  0.2578113E+02  0.7546771E-02  0.1460252E+00
          2   -1    0    0  502    0  0.00000000000E+00  0.00000000000E+00  0.74306839382E+01  0.74306839382E+01  0.00000000000E+00 0. -1.
          1   -1    0    0  501    0 -0.00000000000E+00 -0.00000000000E+00 -0.29058193050E+03  0.29058193050E+03  0.00000000000E+00 0.  1.
          2    1    1    2  501    0 -0.11532703606E+02  0.23057832120E+02 -0.17606938307E+02  0.31219723751E+02  0.00000000000E+00 0. -1.
          1    1    1    2  502    0  0.11532703606E+02 -0.23057832120E+02 -0.26554430825E+03  0.26679289069E+03  0.00000000000E+00 0.  1.
</event>
<event>
 4    1  0.8322090E+003  0.2007318E+02  0.7546771E-02  0.1532920E+00
          2   -1    0    0  502    0  0.00000000000E+00  0.00000000000E+00  0.10312666910E+04  0.10312666910E+04  0.00000000000E+00 0. -1.
          1   -1    0    0  501    0 -0.00000000000E+00 -0.00000000000E+00 -0.42894630555E+02  0.42894630555E+02  0.00000000000E+00 0.  1.
          2    1    1    2  501    0 -0.18742035815E+02  0.71880895232E+01  0.10288150307E+04  0.10290108356E+04  0.00000000000E+00 0. -1.
          1    1    1    2  502    0  0.18742035815E+02 -0.71880895232E+01 -0.40442970225E+02  0.45150485912E+02  0.00000000000E+00 0.  1.
</event>
<event>
 4    1  0.8322090E+003  0.6406609E+02  0.7546771E-02  0.1246610E+00
          2   -1    0    0  502    0  0.00000000000E+00  0.00000000000E+00  0.80971146499E+02  0.80971146499E+02  0.00000000000E+00 0. -1.
          1   -1    0    0  501    0 -0.00000000000E+00 -0.00000000000E+00 -0.24627418171E+03  0.24627418171E+03  0.00000000000E+00 0.  1.
          2    1    1    2  501    0 -0.31494697746E+02 -0.55790217588E+02  0.63162868668E+02  0.89966729090E+02  0.00000000000E+00 0. -1.
          1    1    1    2  502    0  0.31494697746E+02  0.55790217588E+02 -0.22846590388E+03  0.23727859912E+03  0.00000000000E+00 0.  1.
</event>
<event>
 4    1  0.8322090E+003  0.3413250E+02  0.7546771E-02  0.1386767E+00
          2   -1    0    0  502    0  0.00000000000E+00  0.00000000000E+00  0.30477571823E+01  0.30477571823E+01  0.00000000000E+00 0.  1.
          1   -1    0    0  501    0 -0.00000000000E+00 -0.00000000000E+00 -0.19075293190E+04  0.19075293190E+04  0.00000000000E+00 0.  1.
          2    1    1    2  501    0  0.57410966509E+01  0.33646203864E+02 -0.98015112515E+02  0.10378819541E+03  0.00000000000E+00 0.  1.
          1    1    1    2  502    0 -0.57410966509E+01 -0.33646203864E+02 -0.18064664493E+04  0.18067888807E+04  0.00000000000E+00 0.  1.
</event>
<event>
 4    1  0.8322090E+003  0.3877492E+02  0.7546771E-02  0.1355818E+00
          2   -1    0    0  502    0  0.00000000000E+00  0.00000000000E+00  0.23679201530E+02  0.23679201530E+02  0.00000000000E+00 0.  1.
          1   -1    0    0  501    0 -0.00000000000E+00 -0.00000000000E+00 -0.73465459625E+03  0.73465459625E+03  0.00000000000E+00 0.  1.
          2    1    1    2  501    0  0.15439724814E+02  0.35568375250E+02  0.69237806239E+01  0.39388236295E+02  0.00000000000E+00 0.  1.
          1    1    1    2  502    0 -0.15439724814E+02 -0.35568375250E+02 -0.71789917535E+03  0.71894556149E+03  0.00000000000E+00 0.  1.
</event>
<event>
 4    1  0.8322090E+003  0.2376158E+02  0.7546771E-02  0.1483150E+00
          2   -1    0    0  502    0  0.00000000000E+00  0.00000000000E+00  0.15564453279E+03  0.15564453279E+03  0.00000000000E+00 0. -1.
          1   -1    0    0  501    0 -0.00000000000E+00 -0.00000000000E+00 -0.93918268121E+01  0.93918268121E+01  0.00000000000E+00 0. -1.
          2    1    1    2  501    0 -0.18626218384E+02 -0.14753867285E+02  0.13777299615E+03  0.13980704947E+03  0.00000000000E+00 0. -1.
          1    1    1    2  502    0  0.18626218384E+02  0.14753867285E+02  0.84797098206E+01  0.25229310133E+02  0.00000000000E+00 0. -1.
</event>
<event>
 4    1  0.8322090E+003  0.2045049E+02  0.7546771E-02  0.1527257E+00
          2   -1    0    0  502    0  0.00000000000E+00  0.00000000000E+00  0.30009052774E+01  0.30009052774E+01  0.00000000000E+00 0. -1.
          1   -1    0    0  501    0 -0.00000000000E+00 -0.00000000000E+00 -0.15153307150E+04  0.15153307150E+04  0.00000000000E+00 0.  1.
          2    1    1    2  501    0  0.17433479158E+02 -0.10690937706E+02 -0.32751299971E+02  0.38611785693E+02  0.00000000000E+00 0. -1.
          1    1    1    2  502    0 -0.17433479158E+02  0.10690937706E+02 -0.14795785098E+04  0.14797198346E+04  0.00000000000E+00 0.  1.
</event>
<event>
 4    1  0.8322090E+003  0.1266918E+03  0.7546771E-02  0.1124229E+00
          2   -1    0    0  502    0  0.00000000000E+00  0.00000000000E+00  0.63350024202E+02  0.63350024202E+02  0.00000000000E+00 0.  1.
          1   -1    0    0  501    0 -0.00000000000E+00 -0.00000000000E+00 -0.10826196658E+04  0.10826196658E+04  0.00000000000E+00 0. -1.
          2    1    1    2  501    0  0.12610302611E+03 -0.12200357475E+02 -0.81606717231E+01  0.12695439528E+03  0.00000000000E+00 0.  1.
          1    1    1    2  502    0 -0.12610302611E+03  0.12200357475E+02 -0.10111089698E+04  0.10190152947E+04  0.00000000000E+00 0. -1.
</event>
<event>
 4    1  0.8322090E+003  0.2325840E+02  0.7546771E-02  0.1489279E+00
          2   -1    0    0  502    0  0.00000000000E+00  0.00000000000E+00  0.42861246413E+02  0.42861246413E+02  0.00000000000E+00 0. -1.
          1   -1    0    0  501    0 -0.00000000000E+00 -0.00000000000E+00 -0.53314932253E+03  0.53314932253E+03  0.00000000000E+00 0.  1.
          2    1    1    2  501    0 -0.14386749986E+02 -0.18274966466E+02  0.39431913430E+02  0.45780222490E+02  0.00000000000E+00 0. -1.
          1    1    1    2  502    0  0.14386749986E+02  0.18274966466E+02 -0.52971998955E+03  0.53023034646E+03  0.00000000000E+00 0.  1.
</event>
<event>
 4    1  0.8322090E+003  0.2224984E+02  0.7546771E-02  0.1502139E+00
          2   -1    0    0  502    0  0.00000000000E+00  0.00000000000E+00  0.60124360973E+01  0.60124360973E+01  0.00000000000E+00 0.  1.
          1   -1    0    0  501    0 -0.00000000000E+00 -0.00000000000E+00 -0.16364684289E+03  0.16364684289E+03  0.00000000000E+00 0.  1.
          2    1    1    2  501    0 -0.22188082568E+02  0.16566201934E+01 -0.19022712821E+02  0.29273178877E+02  0.00000000000E+00 0.  1.
          1    1    1    2  502    0  0.22188082568E+02 -0.16566201934E+01 -0.13861169397E+03  0.14038610011E+03  0.00000000000E+00 0.  1.
</event>
<event>
 4    1  0.8322090E+003  0.3153863E+02  0.7546771E-02  0.1406681E+00
          2   -1    0    0  502    0  0.00000000000E+00  0.00000000000E+00  0.15312670016E+03  0.15312670016E+03  0.00000000000E+00 0.  1.
          1   -1    0    0  501    0 -0.00000000000E+00 -0.00000000000E+00 -0.19757992879E+03  0.19757992879E+03  0.00000000000E+00 0. -1.
          2    1    1    2  501    0 -0.30716001225E+02 -0.71562680989E+01  0.15022006740E+03  0.15349512550E+03  0.00000000000E+00 0.  1.
          1    1    1    2  502    0  0.30716001225E+02  0.71562680989E+01 -0.19467329603E+03  0.19721150345E+03  0.00000000000E+00 0. -1.
</event>
<event>
 4    1  0.8322090E+003  0.3408179E+02  0.7546771E-02  0.1387136E+00
          2   -1    0    0  502    0  0.00000000000E+00  0.00000000000E+00  0.87549887926E+03  0.87549887926E+03  0.00000000000E+00 0. -1.
          1   -1    0    0  501    0 -0.00000000000E+00 -0.00000000000E+00 -0.49468057388E+02  0.49468057388E+02  0.00000000000E+00 0.  1.
          2    1    1    2  501    0  0.79630266549E+01 -0.33138477831E+02  0.86925474389E+03  0.86992262776E+03  0.00000000000E+00 0. -1.
          1    1    1    2  502    0 -0.79630266549E+01  0.33138477831E+02 -0.43223922019E+02  0.55044308890E+02  0.00000000000E+00 0.  1.
</event>
<event>
 4    1  0.8322090E+003  0.2864997E+02  0.7546771E-02  0.1431703E+00
          2   -1    0    0  502    0  0.00000000000E+00  0.00000000000E+00  0.19358366005E+03  0.19358366005E+03  0.00000000000E+00 0. -1.
          1   -1    0    0  501    0 -0.00000000000E+00 -0.00000000000E+00 -0.33728120950E+02  0.33728120950E+02  0.00000000000E+00 0. -1.
          2    1    1    2  501    0  0.15494145226E+02 -0.24098804621E+02  0.18619966548E+03  0.18839091365E+03  0.00000000000E+00 0. -1.
          1    1    1    2  502    0 -0.15494145226E+02  0.24098804621E+02 -0.26344126382E+02  0.38920867350E+02  0.00000000000E+00 0. -1.
</event>
<event>
 4    1  0.8322090E+003  0.2273894E+02  0.7546771E-02  0.1495803E+00
          2   -1    0    0  502    0  0.00000000000E+00  0.00000000000E+00  0.14569225802E+04  0.14569225802E+04  0.00000000000E+00 0. -1.
          1   -1    0    0  501    0 -0.00000000000E+00 -0.00000000000E+00 -0.35597843105E+00  0.35597843105E+00  0.00000000000E+00 0. -1.
          2    1    1    2  501    0  0.81976394873E+01  0.21209844514E+02  0.68813984412E+03  0.68851543473E+03  0.00000000000E+00 0. -1.
          1    1    1    2  502    0 -0.81976394873E+01 -0.21209844514E+02  0.76842675762E+03  0.76876312387E+03  0.00000000000E+00 0. -1.
</event>
<event>
 4    1  0.8322090E+003  0.2019135E+02  0.7546771E-02  0.1531130E+00
          2   -1    0    0  502    0  0.00000000000E+00  0.00000000000E+00  0.10450344570E+04  0.10450344570E+04  0.00000000000E+00 0. -1.
          1   -1    0    0  501    0 -0.00000000000E+00 -0.00000000000E+00 -0.49872861007E+01  0.49872861007E+01  0.00000000000E+00 0.  1.
          2    1    1    2  501    0 -0.18164851502E+02 -0.88164015541E+01  0.10240823446E+04  0.10242813770E+04  0.00000000000E+00 0. -1.
          1    1    1    2  502    0  0.18164851502E+02  0.88164015541E+01  0.15964826233E+02  0.25740366025E+02  0.00000000000E+00 0.  1.
</event>
<event>
 4    1  0.8322090E+003  0.2167355E+02  0.7546771E-02  0.1509862E+00
          2   -1    0    0  502    0  0.00000000000E+00  0.00000000000E+00  0.11618156841E+04  0.11618156841E+04  0.00000000000E+00 0. -1.
          1   -1    0    0  501    0 -0.00000000000E+00 -0.00000000000E+00 -0.40744896782E+00  0.40744896782E+00  0.00000000000E+00 0. -1.
          2    1    1    2  501    0 -0.10044354808E+02  0.19205547692E+02  0.52975765584E+03  0.53020082615E+03  0.00000000000E+00 0. -1.
          1    1    1    2  502    0  0.10044354808E+02 -0.19205547692E+02  0.63165057934E+03  0.63202230697E+03  0.00000000000E+00 0. -1.
</event>
<event>
 4    1  0.8322090E+003  0.2042592E+02  0.7546771E-02  0.1527621E+00
          2   -1    0    0  502    0  0.00000000000E+00  0.00000000000E+00  0.13502810881E+04  0.13502810881E+04  0.00000000000E+00 0.  1.
          1   -1    0    0  501    0 -0.00000000000E+00 -0.00000000000E+00 -0.90044927014E+02  0.90044927014E+02  0.00000000000E+00 0.  1.
          2    1    1    2  501    0  0.78902668643E+01  0.18840432398E+02  0.13490444185E+04  0.13491990443E+04  0.00000000000E+00 0.  1.
          1    1    1    2  502    0 -0.78902668643E+01 -0.18840432398E+02 -0.88808257444E+02  0.91126970729E+02  0.00000000000E+00 0.  1.
</event>
<event>
 4    1  0.8322090E+003  0.2923350E+02  0.7546771E-02  0.1426376E+00
          2   -1    0    0  502    0  0.00000000000E+00  0.00000000000E+00  0.29674875811E+03  0.29674875811E+03  0.00000000000E+00 0.  1.
          1   -1    0    0  501    0 -0.00000000000E+00 -0.00000000000E+00 -0.15078820030E+02  0.15078820030E+02  0.00000000000E+00 0.  1.
          2    1    1    2  501    0 -0.28904711527E+02 -0.43721188346E+01  0.28107179634E+03  0.28258795528E+03  0.00000000000E+00 0.  1.
          1    1    1    2  502    0  0.28904711527E+02  0.43721188346E+01  0.59814174271E+00  0.29239622862E+02  0.00000000000E+00 0.  1.
</event>
<event>
 4    1  0.8322090E+003  0.2355736E+02  0.7546771E-02  0.1485616E+00
          2   -1    0    0  502    0  0.00000000000E+00  0.00000000000E+00  0.49436932979E+02  0.49436932979E+02  0.00000000000E+00 0.  1.
          1   -1    0    0  501    0 -0.00000000000E+00 -0.00000000000E+00 -0.49394419421E+03  0.49394419421E+03  0.00000000000E+00 0.  1.
          2    1    1    2  501    0 -0.21554057910E+02 -0.95063990922E+01  0.46331965889E+02  0.51976918908E+02  0.00000000000E+00 0.  1.
          1    1    1    2  502    0  0.21554057910E+02  0.95063990922E+01 -0.49083922712E+03  0.49140420828E+03  0.00000000000E+00 0.  1.
</event>
<event>
 4    1  0.8322090E+003  0.2218995E+02  0.7546771E-02  0.1502928E+00
          2   -1    0    0  502    0  0.00000000000E+00  0.00000000000E+00  0.13181321812E+04  0.13181321812E+04  0.00000000000E+00 0.  1.
          1   -1    0    0  501    0 -0.00000000000E+00 -0.00000000000E+00 -0.67316042545E+02  0.67316042545E+02  0.00000000000E+00 0. -1.
          2    1    1    2  501    0  0.22004297953E+02  0.28643659868E+01  0.13162074547E+04  0.13163944916E+04  0.00000000000E+00 0.  1.
          1    1    1    2  502    0 -0.22004297953E+02 -0.28643659868E+01 -0.65391315998E+02  0.69053732186E+02  0.00000000000E+00 0. -1.
</event>
<event>
 4    1  0.8322090E+003  0.3102053E+02  0.7546771E-02  0.1410930E+00
          2   -1    0    0  502    0  0.00000000000E+00  0.00000000000E+00  0.19023162909E+03  0.19023162909E+03  0.00000000000E+00 0.  1.
          1   -1    0    0  501    0 -0.00000000000E+00 -0.00000000000E+00 -0.60040965816E+02  0.60040965816E+02  0.00000000000E+00 0. -1.
          2    1    1    2  501    0  0.12585939018E+02  0.28352554184E+02  0.18484431991E+03  0.18742917541E+03  0.00000000000E+00 0.  1.
          1    1    1    2  502    0 -0.12585939018E+02 -0.28352554184E+02 -0.54653656642E+02  0.62843419497E+02  0.00000000000E+00 0. -1.
</event>
<event>
 4    1  0.8322090E+003  0.2307383E+02  0.7546771E-02  0.1491573E+00
          2   -1    0    0  502    0  0.00000000000E+00  0.00000000000E+00  0.11798710670E+04  0.11798710670E+04  0.00000000000E+00 0. -1.
          1   -1    0    0  501    0 -0.00000000000E+00 -0.00000000000E+00 -0.13783222579E+01  0.13783222579E+01  0.00000000000E+00 0. -1.
          2    1    1    2  501    0 -0.50610140852E+01  0.22511949952E+02  0.10736372994E+04  0.10738852138E+04  0.00000000000E+00 0. -1.
          1    1    1    2  502    0  0.50610140852E+01 -0.22511949952E+02  0.10485544539E+03  0.10736417551E+03  0.00000000000E+00 0. -1.
</event>
<event>
 4    1  0.8322090E+003  0.3060054E+02  0.7546771E-02  0.1414448E+00
          2   -1    0    0  502    0  0.00000000000E+00  0.00000000000E+00  0.15929615154E+03  0.15929615154E+03  0.00000000000E+00 0.  1.
          1   -1    0    0  501    0 -0.00000000000E+00 -0.00000000000E+00 -0.63947347733E+01  0.63947347733E+01  0.00000000000E+00 0. -1.
          2    1    1    2  501    0  0.17925095915E+02  0.24800892649E+02  0.99993490215E+02  0.10457098749E+03  0.00000000000E+00 0.  1.
          1    1    1    2  502    0 -0.17925095915E+02 -0.24800892649E+02  0.52907926547E+02  0.61119898816E+02  0.00000000000E+00 0. -1.
</event>
<event>
 4    1  0.8322090E+003  0.2418283E+02  0.7546771E-02  0.1478156E+00
          2   -1    0    0  502    0  0.00000000000E+00  0.00000000000E+00  0.28676821299E+03  0.28676821299E+03  0.00000000000E+00 0. -1.
          1   -1    0    0  501    0 -0.00000000000E+00 -0.00000000000E+00 -0.26883355232E+01  0.26883355232E+01  0.00000000000E+00 0. -1.
          2    1    1    2  501    0 -0.15160647178E+02  0.18840486573E+02  0.21315190459E+03  0.21451933150E+03  0.00000000000E+00 0. -1.
          1    1    1    2  502    0  0.15160647178E+02 -0.18840486573E+02  0.70927972880E+02  0.74937217015E+02  0.00000000000E+00 0. -1.
</event>
<event>
 4    1  0.8322090E+003  0.3872884E+02  0.7546771E-02  0.1356100E+00
          2   -1    0    0  502    0  0.00000000000E+00  0.00000000000E+00  0.72648360957E+02  0.72648360957E+02  0.00000000000E+00 0.  1.
          1   -1    0    0  501    0 -0.00000000000E+00 -0.00000000000E+00 -0.26243123557E+02  0.26243123557E+02  0.00000000000E+00 0.  1.
          2    1    1    2  501    0  0.12904515056E+02  0.36515707817E+02  0.46037041528E+02  0.60160889445E+02  0.00000000000E+00 0.  1.
          1    1    1    2  502    0 -0.12904515056E+02 -0.36515707817E+02  0.36819587225E+00  0.38730595069E+02  0.00000000000E+00 0.  1.
</event>
<event>
 4    1  0.1077917E+004  0.3807749E+02  0.7546771E-02  0.1360135E+00
          2   -1    0    0  502    0  0.00000000000E+00  0.00000000000E+00  0.65742159028E+03  0.65742159028E+03  0.00000000000E+00 0.  1.
          1   -1    0    0  501    0 -0.00000000000E+00 -0.00000000000E+00 -0.14651704997E+04  0.14651704997E+04  0.00000000000E+00 0.  1.
          2    1    1    2  501    0 -0.17718384292E+02 -0.33703923729E+02  0.65662253895E+03  0.65772566794E+03  0.00000000000E+00 0.  1.
          1    1    1    2  502    0  0.17718384292E+02  0.33703923729E+02 -0.14643714483E+04  0.14648664220E+04  0.00000000000E+00 0.  1.
</event>
<event>
 4    1  0.8322090E+003  0.2126052E+02  0.7546771E-02  0.1515578E+00
          2   -1    0    0  502    0  0.00000000000E+00  0.00000000000E+00  0.62483716422E+02  0.62483716422E+02  0.00000000000E+00 0. -1.
          1   -1    0    0  501    0 -0.00000000000E+00 -0.00000000000E+00 -0.26862245227E+03  0.26862245227E+03  0.00000000000E+00 0.  1.
          2    1    1    2  501    0  0.21259593285E+02  0.19812464855E+00  0.60239319739E+02  0.63881023807E+02  0.00000000000E+00 0. -1.
          1    1    1    2  502    0 -0.21259593285E+02 -0.19812464855E+00 -0.26637805559E+03  0.26722514489E+03  0.00000000000E+00 0.  1.
</event>
<event>
 4    1  0.8322090E+003  0.3723449E+02  0.7546771E-02  0.1365501E+00
          2   -1    0    0  502    0  0.00000000000E+00  0.00000000000E+00  0.81530644921E+03  0.81530644921E+03  0.00000000000E+00 0.  1.
          1   -1    0    0  501    0 -0.00000000000E+00 -0.00000000000E+00 -0.31024519157E+02  0.31024519157E+02  0.00000000000E+00 0. -1.
          2    1    1    2  501    0  0.35744703323E+02 -0.10427067496E+02  0.80354604113E+03  0.80440825939E+03  0.00000000000E+00 0.  1.
          1    1    1    2  502    0 -0.35744703323E+02  0.10427067496E+02 -0.19264111082E+02  0.41922708977E+02  0.00000000000E+00 0. -1.
</event>
<event>
 4    1  0.8322090E+003  0.3220540E+02  0.7546771E-02  0.1401352E+00
          2   -1    0    0  502    0  0.00000000000E+00  0.00000000000E+00  0.19775539554E+04  0.19775539554E+04  0.00000000000E+00 0.  1.
          1   -1    0    0  501    0 -0.00000000000E+00 -0.00000000000E+00 -0.11617773067E+01  0.11617773067E+01  0.00000000000E+00 0.  1.
          2    1    1    2  501    0  0.12977887327E+02 -0.29474772905E+02  0.17209581184E+04  0.17212594323E+04  0.00000000000E+00 0.  1.
          1    1    1    2  502    0 -0.12977887327E+02  0.29474772905E+02  0.25543405971E+03  0.25745630048E+03  0.00000000000E+00 0.  1.
</event>
<event>
 4    1  0.8322090E+003  0.2041803E+02  0.7546771E-02  0.1527738E+00
          2   -1    0    0  502    0  0.00000000000E+00  0.00000000000E+00  0.15197943355E+03  0.15197943355E+03  0.00000000000E+00 0. -1.
          1   -1    0    0  501    0 -0.00000000000E+00 -0.00000000000E+00 -0.29295191315E+03  0.29295191315E+03  0.00000000000E+00 0.  1.
          2    1    1    2  501    0 -0.15477645426E+02  0.13316854352E+02  0.15093543489E+03  0.15231021509E+03  0.00000000000E+00 0. -1.
          1    1    1    2  502    0  0.15477645426E+02 -0.13316854352E+02 -0.29190791449E+03  0.29262113160E+03  0.00000000000E+00 0.  1.
</event>
<event>
 4    1  0.8322090E+003  0.2193905E+02  0.7546771E-02  0.1506268E+00
          2   -1    0    0  502    0  0.00000000000E+00  0.00000000000E+00  0.68868277783E+02  0.68868277783E+02  0.00000000000E+00 0. -1.
          1   -1    0    0  501    0 -0.00000000000E+00 -0.00000000000E+00 -0.30591308200E+02  0.30591308200E+02  0.00000000000E+00 0.  1.
          2    1    1    2  501    0  0.97798782778E+01  0.19638636496E+02  0.62819692994E+02  0.66540483094E+02  0.00000000000E+00 0. -1.
          1    1    1    2  502    0 -0.97798782778E+01 -0.19638636496E+02 -0.24542723411E+02  0.32919102888E+02  0.00000000000E+00 0.  1.
</event>
<event>
 4    1  0.8322090E+003  0.3136878E+02  0.7546771E-02  0.1408063E+00
          2   -1    0    0  502    0  0.00000000000E+00  0.00000000000E+00  0.23541857178E+02  0.23541857178E+02  0.00000000000E+00 0. -1.
          1   -1    0    0  501    0 -0.00000000000E+00 -0.00000000000E+00 -0.36883611074E+03  0.36883611074E+03  0.00000000000E+00 0. -1.
          2    1    1    2  501    0  0.21147342895E+02 -0.23168733248E+02  0.12091259955E+02  0.33618430647E+02  0.00000000000E+00 0. -1.
          1    1    1    2  502    0 -0.21147342895E+02  0.23168733248E+02 -0.35738551351E+03  0.35875953727E+03  0.00000000000E+00 0. -1.
</event>
<event>
 4    1  0.8322090E+003  0.2012825E+02  0.7546771E-02  0.1532084E+00
          2   -1    0    0  502    0  0.00000000000E+00  0.00000000000E+00  0.36149556661E+02  0.36149556661E+02  0.00000000000E+00 0. -1.
          1   -1    0    0  501    0 -0.00000000000E+00 -0.00000000000E+00 -0.34087672689E+02  0.34087672689E+02  0.00000000000E+00 0.  1.
          2    1    1    2  501    0  0.75480944675E+01 -0.18659388489E+02  0.29802823081E+02  0.35963241962E+02  0.00000000000E+00 0. -1.
          1    1    1    2  502    0 -0.75480944675E+01  0.18659388489E+02 -0.27740939108E+02  0.34273987388E+02  0.00000000000E+00 0.  1.
</event>
<event>
 4    1  0.8322090E+003  0.6090654E+02  0.7546771E-02  0.1256783E+00
          2   -1    0    0  502    0  0.00000000000E+00  0.00000000000E+00  0.56329218803E+02  0.56329218803E+02  0.00000000000E+00 0.  1.
          1   -1    0    0  501    0 -0.00000000000E+00 -0.00000000000E+00 -0.67576830396E+02  0.67576830396E+02  0.00000000000E+00 0. -1.
          2    1    1    2  501    0  0.42807509138E+02  0.43325791773E+02  0.42629761306E+01  0.61055548780E+02  0.00000000000E+00 0.  1.
          1    1    1    2  502    0 -0.42807509138E+02 -0.43325791773E+02 -0.15510587724E+02  0.62850500419E+02  0.00000000000E+00 0. -1.
</event>
<event>
 4    1  0.8322090E+003  0.2205626E+02  0.7546771E-02  0.1504701E+00
          2   -1    0    0  502    0  0.00000000000E+00  0.00000000000E+00  0.14558037981E+04  0.14558037981E+04  0.00000000000E+00 0. -1.
          1   -1    0    0  501    0 -0.00000000000E+00 -0.00000000000E+00 -0.64081837064E+00  0.64081837064E+00  0.00000000000E+00 0. -1.
          2    1    1    2  501    0 -0.14217607185E+02  0.16862334730E+02  0.12313376483E+04  0.12315351732E+04  0.00000000000E+00 0. -1.
          1    1    1    2  502    0  0.14217607185E+02 -0.16862334730E+02  0.22382533138E+03  0.22490944323E+03  0.00000000000E+00 0. -1.
</event>
<event>
 4    1  0.8322090E+003  0.2442650E+02  0.7546771E-02  0.1475322E+00
          2   -1    0    0  502    0  0.00000000000E+00  0.00000000000E+00  0.24771935796E+02  0.24771935796E+02  0.00000000000E+00 0. -1.
          1   -1    0    0  501    0 -0.00000000000E+00 -0.00000000000E+00 -0.28068994684E+02  0.28068994684E+02  0.00000000000E+00 0.  1.
          2    1    1    2  501    0  0.20697805194E+02  0.12971314405E+02  0.83041004766E+01  0.25799461661E+02  0.00000000000E+00 0. -1.
          1    1    1    2  502    0 -0.20697805194E+02 -0.12971314405E+02 -0.11601159365E+02  0.27041468819E+02  0.00000000000E+00 0.  1.
</event>
<event>
 4    1  0.8322090E+003  0.2596457E+02  0.7546771E-02  0.1458296E+00
          2   -1    0    0  502    0  0.00000000000E+00  0.00000000000E+00  0.62254242528E+02  0.62254242528E+02  0.00000000000E+00 0. -1.
          1   -1    0    0  501    0 -0.00000000000E+00 -0.00000000000E+00 -0.12830387047E+02  0.12830387047E+02  0.00000000000E+00 0. -1.
          2    1    1    2  501    0 -0.17336064566E+02 -0.19329241509E+02  0.39538938566E+02  0.47302075799E+02  0.00000000000E+00 0. -1.
          1    1    1    2  502    0  0.17336064566E+02  0.19329241509E+02  0.98849169139E+01  0.27782553776E+02  0.00000000000E+00 0. -1.
</event>
<event>
 4    1  0.8322090E+003  0.2407152E+02  0.7546771E-02  0.1479464E+00
          2   -1    0    0  502    0  0.00000000000E+00  0.00000000000E+00  0.45000805456E+02  0.45000805456E+02  0.00000000000E+00 0. -1.
          1   -1    0    0  501    0 -0.00000000000E+00 -0.00000000000E+00 -0.33468789547E+02  0.33468789547E+02  0.00000000000E+00 0.  1.
          2    1    1    2  501    0 -0.94791547588E+01  0.22126534046E+02  0.36541658557E+02  0.43757635836E+02  0.00000000000E+00 0. -1.
          1    1    1    2  502    0  0.94791547588E+01 -0.22126534046E+02 -0.25009642649E+02  0.34711959167E+02  0.00000000000E+00 0.  1.
</event>
<event>
 4    1  0.8322090E+003  0.3591563E+02  0.7546771E-02  0.1374238E+00
          2   -1    0    0  502    0  0.00000000000E+00  0.00000000000E+00  0.23260565629E+04  0.23260565629E+04  0.00000000000E+00 0.  1.
          1   -1    0    0  501    0 -0.00000000000E+00 -0.00000000000E+00 -0.98394324534E+02  0.98394324534E+02  0.00000000000E+00 0.  1.
          2    1    1    2  501    0 -0.16546635404E+02  0.31876972509E+02  0.23226356399E+04  0.23229133105E+04  0.00000000000E+00 0.  1.
          1    1    1    2  502    0  0.16546635404E+02 -0.31876972509E+02 -0.94973401545E+02  0.10153757689E+03  0.00000000000E+00 0.  1.
</event>
<event>
 4    1  0.8322090E+003  0.2544951E+02  0.7546771E-02  0.1463837E+00
          2   -1    0    0  502    0  0.00000000000E+00  0.00000000000E+00  0.61174623316E+01  0.61174623316E+01  0.00000000000E+00 0.  1.
          1   -1    0    0  501    0 -0.00000000000E+00 -0.00000000000E+00 -0.23923674596E+03  0.23923674596E+03  0.00000000000E+00 0.  1.
          2    1    1    2  501    0  0.98793353373E+01 -0.23453704776E+02 -0.24965531564E+02  0.35650460035E+02  0.00000000000E+00 0.  1.
          1    1    1    2  502    0 -0.98793353373E+01  0.23453704776E+02 -0.20815375206E+03  0.20970374825E+03  0.00000000000E+00 0.  1.
</event>
<event>
 4    1  0.8322090E+003  0.3193459E+02  0.7546771E-02  0.1403498E+00
          2   -1    0    0  502    0  0.00000000000E+00  0.00000000000E+00  0.71002334412E+03  0.71002334412E+03  0.00000000000E+00 0.  1.
          1   -1    0    0  501    0 -0.00000000000E+00 -0.00000000000E+00 -0.15262308130E+02  0.15262308130E+02  0.00000000000E+00 0. -1.
          2    1    1    2  501    0 -0.84959486619E+01 -0.30783711821E+02  0.69253787193E+03  0.69327377140E+03  0.00000000000E+00 0.  1.
          1    1    1    2  502    0  0.84959486619E+01  0.30783711821E+02  0.22231640631E+01  0.32011880851E+02  0.00000000000E+00 0. -1.
</event>
<event>
 4    1  0.8322090E+003  0.2460058E+02  0.7546771E-02  0.1473322E+00
          2   -1    0    0  502    0  0.00000000000E+00  0.00000000000E+00  0.45071079568E+03  0.45071079568E+03  0.00000000000E+00 0.  1.
          1   -1    0    0  501    0 -0.00000000000E+00 -0.00000000000E+00 -0.81086496488E+01  0.81086496488E+01  0.00000000000E+00 0.  1.
          2    1    1    2  501    0 -0.14975113588E+02 -0.19517539662E+02  0.43085730454E+03  0.43155904029E+03  0.00000000000E+00 0.  1.
          1    1    1    2  502    0  0.14975113588E+02  0.19517539662E+02  0.11744841499E+02  0.27260405046E+02  0.00000000000E+00 0.  1.
</event>
<event>
 4    1  0.8322090E+003  0.4002415E+02  0.7546771E-02  0.1348344E+00
          2   -1    0    0  502    0  0.00000000000E+00  0.00000000000E+00  0.29323445593E+04  0.29323445593E+04  0.00000000000E+00 0. -1.
          1   -1    0    0  501    0 -0.00000000000E+00 -0.00000000000E+00 -0.54983465612E+00  0.54983465612E+00  0.00000000000E+00 0. -1.
          2    1    1    2  501    0  0.19690834696E+02 -0.34845404243E+02  0.13482707968E+04  0.13488647347E+04  0.00000000000E+00 0. -1.
          1    1    1    2  502    0 -0.19690834696E+02  0.34845404243E+02  0.15835239279E+04  0.15840296593E+04  0.00000000000E+00 0. -1.
</event>
<event>
 4    1  0.8322090E+003  0.2176710E+02  0.7546771E-02  0.1508589E+00
          2   -1    0    0  502    0  0.00000000000E+00  0.00000000000E+00  0.10583280174E+04  0.10583280174E+04  0.00000000000E+00 0.  1.
          1   -1    0    0  501    0 -0.00000000000E+00 -0.00000000000E+00 -0.17581261167E+01  0.17581261167E+01  0.00000000000E+00 0.  1.
          2    1    1    2  501    0 -0.47607336791E+01 -0.21240100916E+02  0.98589284478E+03  0.98613310859E+03  0.00000000000E+00 0.  1.
          1    1    1    2  502    0  0.47607336791E+01  0.21240100916E+02  0.70677046483E+02  0.73953034905E+02  0.00000000000E+00 0.  1.
</event>
<event>
 4    1  0.8322090E+003  0.2236011E+02  0.7546771E-02  0.1500693E+00
          2   -1    0    0  502    0  0.00000000000E+00  0.00000000000E+00  0.18196247373E+02  0.18196247373E+02  0.00000000000E+00 0.  1.
          1   -1    0    0  501    0 -0.00000000000E+00 -0.00000000000E+00 -0.30011308943E+02  0.30011308943E+02  0.00000000000E+00 0.  1.
          2    1    1    2  501    0 -0.16195741824E+02 -0.15416631948E+02  0.10971738967E+01  0.22387013745E+02  0.00000000000E+00 0.  1.
          1    1    1    2  502    0  0.16195741824E+02  0.15416631948E+02 -0.12912235467E+02  0.25820542570E+02  0.00000000000E+00 0.  1.
</event>
<event>
 4    1  0.8322090E+003  0.3457394E+02  0.7546771E-02  0.1383583E+00
          2   -1    0    0  502    0  0.00000000000E+00  0.00000000000E+00  0.23280110917E+01  0.23280110917E+01  0.00000000000E+00 0. -1.
          1   -1    0    0  501    0 -0.00000000000E+00 -0.00000000000E+00 -0.70391439953E+03  0.70391439953E+03  0.00000000000E+00 0.  1.
          2    1    1    2  501    0  0.34418743290E+02  0.32722090419E+01 -0.16711770066E+03  0.17065662341E+03  0.00000000000E+00 0. -1.
          1    1    1    2  502    0 -0.34418743290E+02 -0.32722090419E+01 -0.53446868778E+03  0.53558578721E+03  0.00000000000E+00 0.  1.
</event>
<event>
 4    1  0.8322090E+003  0.4169974E+02  0.7546771E-02  0.1338803E+00
          2   -1    0    0  502    0  0.00000000000E+00  0.00000000000E+00  0.73552218072E+03  0.73552218072E+03  0.00000000000E+00 0. -1.
          1   -1    0    0  501    0 -0.00000000000E+00 -0.00000000000E+00 -0.10808002961E+03  0.10808002961E+03  0.00000000000E+00 0.  1.
          2    1    1    2  501    0  0.13059364772E+02 -0.39602031757E+02  0.73088346529E+03  0.73207206460E+03  0.00000000000E+00 0. -1.
          1    1    1    2  502    0 -0.13059364772E+02  0.39602031757E+02 -0.10344131418E+03  0.11153014573E+03  0.00000000000E+00 0.  1.
</event>
<event>
 4    1  0.8322090E+003  0.3231305E+02  0.7546771E-02  0.1400506E+00
          2   -1    0    0  502    0  0.00000000000E+00  0.00000000000E+00  0.15478587977E+04  0.15478587977E+04  0.00000000000E+00 0.  1.
          1   -1    0    0  501    0 -0.00000000000E+00 -0.00000000000E+00 -0.94991601607E+01  0.94991601607E+01  0.00000000000E+00 0. -1.
          2    1    1    2  501    0  0.98700004734E+01 -0.30768758994E+02  0.15197014402E+04  0.15200449338E+04  0.00000000000E+00 0.  1.
          1    1    1    2  502    0 -0.98700004734E+01  0.30768758994E+02  0.18658197423E+02  0.37313024140E+02  0.00000000000E+00 0. -1.
</event>
<event>
 4    1  0.8322090E+003  0.2072675E+02  0.7546771E-02  0.1523202E+00
          2   -1    0    0  502    0  0.00000000000E+00  0.00000000000E+00  0.12637761714E+03  0.12637761714E+03  0.00000000000E+00 0. -1.
          1   -1    0    0  501    0 -0.00000000000E+00 -0.00000000000E+00 -0.63146061418E+01  0.63146061418E+01  0.00000000000E+00 0. -1.
          2    1    1    2  501    0  0.20719891784E+02  0.53329774982E+00  0.10511138255E+03  0.10713543328E+03  0.00000000000E+00 0. -1.
          1    1    1    2  502    0 -0.20719891784E+02 -0.53329774982E+00  0.14951628445E+02  0.25556790002E+02  0.00000000000E+00 0. -1.
</event>
<event>
 4    1  0.8322090E+003  0.2655739E+02  0.7546771E-02  0.1452106E+00
          2   -1    0    0  502    0  0.00000000000E+00  0.00000000000E+00  0.37338897188E+01  0.37338897188E+01  0.00000000000E+00 0. -1.
          1   -1    0    0  501    0 -0.00000000000E+00 -0.00000000000E+00 -0.18232223711E+04  0.18232223711E+04  0.00000000000E+00 0.  1.
          2    1    1    2  501    0 -0.26136818534E+02 -0.47076185906E+01 -0.44878873472E+02  0.52147945693E+02  0.00000000000E+00 0. -1.
          1    1    1    2  502    0  0.26136818534E+02  0.47076185906E+01 -0.17746096079E+04  0.17748083151E+04  0.00000000000E+00 0.  1.
</event>
<event>
 4    1  0.8322090E+003  0.5848967E+02  0.7546771E-02  0.1265052E+00
          2   -1    0    0  502    0  0.00000000000E+00  0.00000000000E+00  0.16786215641E+04  0.16786215641E+04  0.00000000000E+00 0. -1.
          1   -1    0    0  501    0 -0.00000000000E+00 -0.00000000000E+00 -0.13072709127E+02  0.13072709127E+02  0.00000000000E+00 0. -1.
          2    1    1    2  501    0  0.50102756623E+02  0.30178729461E+02  0.16098967753E+04  0.16109589284E+04  0.00000000000E+00 0. -1.
          1    1    1    2  502    0 -0.50102756623E+02 -0.30178729461E+02  0.55652079749E+02  0.80735344884E+02  0.00000000000E+00 0. -1.
</event>
<event>
 4    1  0.8322090E+003  0.2007197E+02  0.7546771E-02  0.1532938E+00
          2   -1    0    0  502    0  0.00000000000E+00  0.00000000000E+00  0.31333983245E+01  0.31333983245E+01  0.00000000000E+00 0.  1.
          1   -1    0    0  501    0 -0.00000000000E+00 -0.00000000000E+00 -0.71759870162E+03  0.71759870162E+03  0.00000000000E+00 0. -1.
          2    1    1    2  501    0  0.15983993235E+02  0.12140670124E+02 -0.30743629614E+02  0.36715864046E+02  0.00000000000E+00 0.  1.
          1    1    1    2  502    0 -0.15983993235E+02 -0.12140670124E+02 -0.68372167368E+03  0.68401623590E+03  0.00000000000E+00 0. -1.
</event>
<event>
 4    1  0.8322090E+003  0.2097212E+02  0.7546771E-02  0.1519663E+00
          2   -1    0    0  502    0  0.00000000000E+00  0.00000000000E+00  0.36528039014E+03  0.36528039014E+03  0.00000000000E+00 0.  1.
          1   -1    0    0  501    0 -0.00000000000E+00 -0.00000000000E+00 -0.29333450159E+02  0.29333450159E+02  0.00000000000E+00 0. -1.
          2    1    1    2  501    0  0.11029880946E+02  0.17837367413E+02  0.36118839988E+03  0.36179675255E+03  0.00000000000E+00 0.  1.
          1    1    1    2  502    0 -0.11029880946E+02 -0.17837367413E+02 -0.25241459902E+02  0.32817087743E+02  0.00000000000E+00 0. -1.
</event>
<event>
 4    1  0.8322090E+003  0.2057714E+02  0.7546771E-02  0.1525389E+00
          2   -1    0    0  502    0  0.00000000000E+00  0.00000000000E+00  0.52244100543E+01  0.52244100543E+01  0.00000000000E+00 0. -1.
          1   -1    0    0  501    0 -0.00000000000E+00 -0.00000000000E+00 -0.41294267594E+03  0.41294267594E+03  0.00000000000E+00 0. -1.
          2    1    1    2  501    0 -0.13003302789E+02 -0.15947816235E+02 -0.16413093157E+02  0.26321252878E+02  0.00000000000E+00 0. -1.
          1    1    1    2  502    0  0.13003302789E+02  0.15947816235E+02 -0.39130517273E+03  0.39184583312E+03  0.00000000000E+00 0. -1.
</event>
<event>
 4    1  0.8322090E+003  0.2903662E+02  0.7546771E-02  0.1428157E+00
          2   -1    0    0  502    0  0.00000000000E+00  0.00000000000E+00  0.81492014471E+02  0.81492014471E+02  0.00000000000E+00 0. -1.
          1   -1    0    0  501    0 -0.00000000000E+00 -0.00000000000E+00 -0.11273260111E+02  0.11273260111E+02  0.00000000000E+00 0. -1.
          2    1    1    2  501    0  0.16354199620E+01  0.28990525569E+02  0.48411048243E+02  0.56451348640E+02  0.00000000000E+00 0. -1.
          1    1    1    2  502    0 -0.16354199620E+01 -0.28990525569E+02  0.21807706116E+02  0.36313925942E+02  0.00000000000E+00 0. -1.
</event>
<event>
 4    1  0.8322090E+003  0.1740383E+03  0.7546771E-02  0.1075244E+00
          2   -1    0    0  502    0  0.00000000000E+00  0.00000000000E+00  0.75349385289E+03  0.75349385289E+03  0.00000000000E+00 0. -1.
          1   -1    0    0  501    0 -0.00000000000E+00 -0.00000000000E+00 -0.98588249996E+02  0.98588249996E+02  0.00000000000E+00 0. -1.
          2    1    1    2  501    0  0.11054469922E+03 -0.13442176978E+03  0.65532687603E+03  0.67804325611E+03  0.00000000000E+00 0. -1.
          1    1    1    2  502    0 -0.11054469922E+03  0.13442176978E+03 -0.42127313490E+00  0.17403884677E+03  0.00000000000E+00 0. -1.
</event>
<event>
 4    1  0.8322090E+003  0.3243082E+02  0.7546771E-02  0.1399585E+00
          2   -1    0    0  502    0  0.00000000000E+00  0.00000000000E+00  0.75639722755E+03  0.75639722755E+03  0.00000000000E+00 0.  1.
          1   -1    0    0  501    0 -0.00000000000E+00 -0.00000000000E+00 -0.74921556200E+01  0.74921556200E+01  0.00000000000E+00 0. -1.
          2    1    1    2  501    0  0.32320108126E+02  0.26774007628E+01  0.71913684768E+03  0.71986774033E+03  0.00000000000E+00 0.  1.
          1    1    1    2  502    0 -0.32320108126E+02 -0.26774007628E+01  0.29768224251E+02  0.44021642850E+02  0.00000000000E+00 0. -1.
</event>
<event>
 4    1  0.8322090E+003  0.3453172E+02  0.7546771E-02  0.1383886E+00
          2   -1    0    0  502    0  0.00000000000E+00  0.00000000000E+00  0.78198654497E+02  0.78198654497E+02  0.00000000000E+00 0.  1.
          1   -1    0    0  501    0 -0.00000000000E+00 -0.00000000000E+00 -0.28215789967E+02  0.28215789967E+02  0.00000000000E+00 0.  1.
          2    1    1    2  501    0  0.28574119737E+01 -0.34413294968E+02  0.61061188202E+02  0.70149186584E+02  0.00000000000E+00 0.  1.
          1    1    1    2  502    0 -0.28574119737E+01  0.34413294968E+02 -0.11078323672E+02  0.36265257880E+02  0.00000000000E+00 0.  1.
</event>
<event>
 4    1  0.8322090E+003  0.2534645E+02  0.7546771E-02  0.1464965E+00
          2   -1    0    0  502    0  0.00000000000E+00  0.00000000000E+00  0.14618569184E+03  0.14618569184E+03  0.00000000000E+00 0.  1.
          1   -1    0    0  501    0 -0.00000000000E+00 -0.00000000000E+00 -0.90491479202E+01  0.90491479202E+01  0.00000000000E+00 0.  1.
          2    1    1    2  501    0 -0.19341283093E+02  0.16381611760E+02  0.12423419181E+03  0.12679344167E+03  0.00000000000E+00 0.  1.
          1    1    1    2  502    0  0.19341283093E+02 -0.16381611760E+02  0.12902352114E+02  0.28441398095E+02  0.00000000000E+00 0.  1.
</event>
<event>
 4    1  0.8322090E+003  0.2623569E+02  0.7546771E-02  0.1455441E+00
          2   -1    0    0  502    0  0.00000000000E+00  0.00000000000E+00  0.54186427751E+01  0.54186427751E+01  0.00000000000E+00 0.  1.
          1   -1    0    0  501    0 -0.00000000000E+00 -0.00000000000E+00 -0.17338474748E+03  0.17338474748E+03  0.00000000000E+00 0.  1.
          2    1    1    2  501    0  0.23883956670E+02  0.10856703856E+02 -0.37755206238E+02  0.45975721885E+02  0.00000000000E+00 0.  1.
          1    1    1    2  502    0 -0.23883956670E+02 -0.10856703856E+02 -0.13021089846E+03  0.13282766837E+03  0.00000000000E+00 0.  1.
</event>
<event>
 4    1  0.8322090E+003  0.2011097E+02  0.7546771E-02  0.1532346E+00
          2   -1    0    0  502    0  0.00000000000E+00  0.00000000000E+00  0.76316318405E+03  0.76316318405E+03  0.00000000000E+00 0. -1.
          1   -1    0    0  501    0 -0.00000000000E+00 -0.00000000000E+00 -0.53358743812E+00  0.53358743812E+00  0.00000000000E+00 0.  1.
          2    1    1    2  501    0  0.27913526959E+01 -0.19916308682E+02  0.41276999765E+03  0.41325963021E+03  0.00000000000E+00 0. -1.
          1    1    1    2  502    0 -0.27913526959E+01  0.19916308682E+02  0.34985959896E+03  0.35043714128E+03  0.00000000000E+00 0.  1.
</event>
<event>
 4    1  0.8322090E+003  0.2584264E+02  0.7546771E-02  0.1459594E+00
          2   -1    0    0  502    0  0.00000000000E+00  0.00000000000E+00  0.13703356636E+02  0.13703356636E+02  0.00000000000E+00 0. -1.
          1   -1    0    0  501    0 -0.00000000000E+00 -0.00000000000E+00 -0.16406356186E+04  0.16406356186E+04  0.00000000000E+00 0. -1.
          2    1    1    2  501    0 -0.23842680210E+02 -0.99683782206E+01  0.13250605369E+01  0.25876586896E+02  0.00000000000E+00 0. -1.
          1    1    1    2  502    0  0.23842680210E+02  0.99683782206E+01 -0.16282573225E+04  0.16284623884E+04  0.00000000000E+00 0. -1.
</event>
<event>
 4    1  0.8322090E+003  0.2044386E+02  0.7546771E-02  0.1527355E+00
          2   -1    0    0  502    0  0.00000000000E+00  0.00000000000E+00  0.14888048411E+01  0.14888048411E+01  0.00000000000E+00 0. -1.
          1   -1    0    0  501    0 -0.00000000000E+00 -0.00000000000E+00 -0.29511375786E+03  0.29511375786E+03  0.00000000000E+00 0. -1.
          2    1    1    2  501    0  0.15492659674E+02 -0.13339004999E+02 -0.11407141968E+03  0.11588891382E+03  0.00000000000E+00 0. -1.
          1    1    1    2  502    0 -0.15492659674E+02  0.13339004999E+02 -0.17955353334E+03  0.18071364889E+03  0.00000000000E+00 0. -1.
</event>
<event>
 4    1  0.8322090E+003  0.5645986E+02  0.7546771E-02  0.1272359E+00
          2   -1    0    0  502    0  0.00000000000E+00  0.00000000000E+00  0.87159732737E+03  0.87159732737E+03  0.00000000000E+00 0.  1.
          1   -1    0    0  501    0 -0.00000000000E+00 -0.00000000000E+00 -0.38450906002E+01  0.38450906002E+01  0.00000000000E+00 0.  1.
          2    1    1    2  501    0 -0.41511823708E+02 -0.38268574254E+02  0.53060396880E+03  0.53359936936E+03  0.00000000000E+00 0.  1.
          1    1    1    2  502    0  0.41511823708E+02  0.38268574254E+02  0.33714826797E+03  0.34184304861E+03  0.00000000000E+00 0.  1.
</event>
<event>
 4    1  0.8322090E+003  0.2110354E+02  0.7546771E-02  0.1517792E+00
          2   -1    0    0  502    0  0.00000000000E+00  0.00000000000E+00  0.13060281677E+03  0.13060281677E+03  0.00000000000E+00 0. -1.
          1   -1    0    0  501    0 -0.00000000000E+00 -0.00000000000E+00 -0.94847826906E+01  0.94847826906E+01  0.00000000000E+00 0. -1.
          2    1    1    2  501    0 -0.18105329778E+02  0.10842346589E+02  0.11661478765E+03  0.11850893698E+03  0.00000000000E+00 0. -1.
          1    1    1    2  502    0  0.18105329778E+02 -0.10842346589E+02  0.45032464286E+01  0.21578662478E+02  0.00000000000E+00 0. -1.
</event>
<event>
 4    1  0.8322090E+003  0.4337447E+02  0.7546771E-02  0.1329771E+00
          2   -1    0    0  502    0  0.00000000000E+00  0.00000000000E+00  0.17750239346E+03  0.17750239346E+03  0.00000000000E+00 0. -1.
          1   -1    0    0  501    0 -0.00000000000E+00 -0.00000000000E+00 -0.18255214589E+02  0.18255214589E+02  0.00000000000E+00 0. -1.
          2    1    1    2  501    0 -0.46002057956E+01 -0.43129835366E+02  0.14301096267E+03  0.14944390264E+03  0.00000000000E+00 0. -1.
          1    1    1    2  502    0  0.46002057956E+01  0.43129835366E+02  0.16236216199E+02  0.46313705407E+02  0.00000000000E+00 0. -1.
</event>
<event>
 4    1  0.8322090E+003  0.3724686E+02  0.7546771E-02  0.1365421E+00
          2   -1    0    0  502    0  0.00000000000E+00  0.00000000000E+00  0.54209875893E+02  0.54209875893E+02  0.00000000000E+00 0. -1.
          1   -1    0    0  501    0 -0.00000000000E+00 -0.00000000000E+00 -0.30408689961E+02  0.30408689961E+02  0.00000000000E+00 0.  1.
          2    1    1    2  501    0 -0.19502924169E+02 -0.31732700240E+02  0.28739742774E+02  0.47045734455E+02  0.00000000000E+00 0. -1.
          1    1    1    2  502    0  0.19502924169E+02  0.31732700240E+02 -0.49385568421E+01  0.37572831399E+02  0.00000000000E+00 0.  1.
</event>
<event>
 4    1  0.8322090E+003  0.4027196E+02  0.7546771E-02  0.1346899E+00
          2   -1    0    0  502    0  0.00000000000E+00  0.00000000000E+00  0.16280911181E+04  0.16280911181E+04  0.00000000000E+00 0. -1.
          1   -1    0    0  501    0 -0.00000000000E+00 -0.00000000000E+00 -0.20274683985E+01  0.20274683985E+01  0.00000000000E+00 0. -1.
          2    1    1    2  501    0 -0.40256789069E+02  0.11052886412E+01  0.13943414791E+04  0.13949229338E+04  0.00000000000E+00 0. -1.
          1    1    1    2  502    0  0.40256789069E+02 -0.11052886412E+01  0.23172217058E+03  0.23519565274E+03  0.00000000000E+00 0. -1.
</event>
<event>
 4    1  0.8322090E+003  0.7958936E+02  0.7546771E-02  0.1204804E+00
          2   -1    0    0  502    0  0.00000000000E+00  0.00000000000E+00  0.95745343449E+03  0.95745343449E+03  0.00000000000E+00 0.  1.
          1   -1    0    0  501    0 -0.00000000000E+00 -0.00000000000E+00 -0.70647577233E+01  0.70647577233E+01  0.00000000000E+00 0.  1.
          2    1    1    2  501    0 -0.35828615411E+02  0.71068766279E+02  0.35364169953E+03  0.36248711821E+03  0.00000000000E+00 0.  1.
          1    1    1    2  502    0  0.35828615411E+02 -0.71068766279E+02  0.59674697724E+03  0.60203107401E+03  0.00000000000E+00 0.  1.
</event>
<event>
 4    1  0.8322090E+003  0.2049743E+02  0.7546771E-02  0.1526563E+00
          2   -1    0    0  502    0  0.00000000000E+00  0.00000000000E+00  0.14301710810E+03  0.14301710810E+03  0.00000000000E+00 0. -1.
          1   -1    0    0  501    0 -0.00000000000E+00 -0.00000000000E+00 -0.48633663889E+01  0.48633663889E+01  0.00000000000E+00 0. -1.
          2    1    1    2  501    0  0.20379185749E+02  0.21985274915E+01  0.11560335206E+03  0.11740647232E+03  0.00000000000E+00 0. -1.
          1    1    1    2  502    0 -0.20379185749E+02 -0.21985274915E+01  0.22550389658E+02  0.30474002176E+02  0.00000000000E+00 0. -1.
</event>
<event>
 4    1  0.8322090E+003  0.2506854E+02  0.7546771E-02  0.1468038E+00
          2   -1    0    0  502    0  0.00000000000E+00  0.00000000000E+00  0.11418712891E+03  0.11418712891E+03  0.00000000000E+00 0.  1.
          1   -1    0    0  501    0 -0.00000000000E+00 -0.00000000000E+00 -0.76780105076E+02  0.76780105076E+02  0.00000000000E+00 0.  1.
          2    1    1    2  501    0 -0.11850048762E+02  0.22090907234E+02  0.11070141629E+03  0.11350434092E+03  0.00000000000E+00 0.  1.
          1    1    1    2  502    0  0.11850048762E+02 -0.22090907234E+02 -0.73294392454E+02  0.77462893073E+02  0.00000000000E+00 0.  1.
</event>
<event>
 4    1  0.8322090E+003  0.3577901E+02  0.7546771E-02  0.1375168E+00
          2   -1    0    0  502    0  0.00000000000E+00  0.00000000000E+00  0.14438177296E+04  0.14438177296E+04  0.00000000000E+00 0. -1.
          1   -1    0    0  501    0 -0.00000000000E+00 -0.00000000000E+00 -0.93244847695E+00  0.93244847695E+00  0.00000000000E+00 0. -1.
          2    1    1    2  501    0 -0.68721874862E+01  0.35112823249E+02  0.88156559013E+03  0.88229135042E+03  0.00000000000E+00 0. -1.
          1    1    1    2  502    0  0.68721874862E+01 -0.35112823249E+02  0.56131969100E+03  0.56245882767E+03  0.00000000000E+00 0. -1.
</event>
<event>
 4    1  0.8322090E+003  0.2373001E+02  0.7546771E-02  0.1483529E+00
          2   -1    0    0  502    0  0.00000000000E+00  0.00000000000E+00  0.15981395568E+01  0.15981395568E+01  0.00000000000E+00 0. -1.
          1   -1    0    0  501    0 -0.00000000000E+00 -0.00000000000E+00 -0.73400404277E+03  0.73400404277E+03  0.00000000000E+00 0. -1.
          2    1    1    2  501    0  0.62134351133E+01  0.22902104530E+02 -0.10098945257E+03  0.10373997638E+03  0.00000000000E+00 0. -1.
          1    1    1    2  502    0 -0.62134351133E+01 -0.22902104530E+02 -0.63141645064E+03  0.63186220595E+03  0.00000000000E+00 0. -1.
</event>
<event>
 4    1  0.8322090E+003  0.2339559E+02  0.7546771E-02  0.1487590E+00
          2   -1    0    0  502    0  0.00000000000E+00  0.00000000000E+00  0.53558431726E+03  0.53558431726E+03  0.00000000000E+00 0. -1.
          1   -1    0    0  501    0 -0.00000000000E+00 -0.00000000000E+00 -0.32405569312E+01  0.32405569312E+01  0.00000000000E+00 0. -1.
          2    1    1    2  501    0 -0.22713927680E+02 -0.56063592403E+01  0.48909009165E+03  0.48964933526E+03  0.00000000000E+00 0. -1.
          1    1    1    2  502    0  0.22713927680E+02  0.56063592403E+01  0.43253668679E+02  0.49175538927E+02  0.00000000000E+00 0. -1.
</event>
<event>
 4    1  0.8322090E+003  0.2196185E+02  0.7546771E-02  0.1505963E+00
          2   -1    0    0  502    0  0.00000000000E+00  0.00000000000E+00  0.11007322902E+02  0.11007322902E+02  0.00000000000E+00 0. -1.
          1   -1    0    0  501    0 -0.00000000000E+00 -0.00000000000E+00 -0.37198428456E+03  0.37198428456E+03  0.00000000000E+00 0. -1.
          2    1    1    2  501    0 -0.95395951470E+00  0.21941120682E+02 -0.62470399254E+00  0.21970732137E+02  0.00000000000E+00 0. -1.
          1    1    1    2  502    0  0.95395951470E+00 -0.21941120682E+02 -0.36035225767E+03  0.36102087533E+03  0.00000000000E+00 0. -1.
</event>
<event>
 4    1  0.8322090E+003  0.3066030E+02  0.7546771E-02  0.1413944E+00
          2   -1    0    0  502    0  0.00000000000E+00  0.00000000000E+00  0.96399200840E+02  0.96399200840E+02  0.00000000000E+00 0.  1.
          1   -1    0    0  501    0 -0.00000000000E+00 -0.00000000000E+00 -0.18986528564E+02  0.18986528564E+02  0.00000000000E+00 0.  1.
          2    1    1    2  501    0  0.23738453206E+02  0.19404631955E+02  0.78942287301E+02  0.84687299085E+02  0.00000000000E+00 0.  1.
          1    1    1    2  502    0 -0.23738453206E+02 -0.19404631955E+02 -0.15296150246E+01  0.30698430319E+02  0.00000000000E+00 0.  1.
</event>
<event>
 4    1  0.8322090E+003  0.2144479E+02  0.7546771E-02  0.1513008E+00
          2   -1    0    0  502    0  0.00000000000E+00  0.00000000000E+00  0.13474123235E+03  0.13474123235E+03  0.00000000000E+00 0.  1.
          1   -1    0    0  501    0 -0.00000000000E+00 -0.00000000000E+00 -0.73400413462E+03  0.73400413462E+03  0.00000000000E+00 0. -1.
          2    1    1    2  501    0  0.20593999931E+02 -0.59804827958E+01  0.13373015865E+03  0.13543867372E+03  0.00000000000E+00 0.  1.
          1    1    1    2  502    0 -0.20593999931E+02  0.59804827958E+01 -0.73299306092E+03  0.73330669325E+03  0.00000000000E+00 0. -1.
</event>
<event>
 4    1  0.8322090E+003  0.3058149E+02  0.7546771E-02  0.1414609E+00
          2   -1    0    0  502    0  0.00000000000E+00  0.00000000000E+00  0.50484431168E+03  0.50484431168E+03  0.00000000000E+00 0.  1.
          1   -1    0    0  501    0 -0.00000000000E+00 -0.00000000000E+00 -0.19325068723E+02  0.19325068723E+02  0.00000000000E+00 0.  1.
          2    1    1    2  501    0  0.95920327161E+01 -0.29038262684E+02  0.49196615040E+03  0.49291573411E+03  0.00000000000E+00 0.  1.
          1    1    1    2  502    0 -0.95920327161E+01  0.29038262684E+02 -0.64469074406E+01  0.31253646298E+02  0.00000000000E+00 0.  1.
</event>
<event>
 4    1  0.1234426E+004  0.2092979E+02  0.7546771E-02  0.1520270E+00
          2   -1    0    0  502    0  0.00000000000E+00  0.00000000000E+00  0.74262969807E+03  0.74262969807E+03  0.00000000000E+00 0. -1.
          1   -1    0    0  501    0 -0.00000000000E+00 -0.00000000000E+00 -0.65659963575E+03  0.65659963575E+03  0.00000000000E+00 0.  1.
          2    1    1    2  501    0 -0.24982713820E+01  0.20780156507E+02  0.74231536981E+03  0.74261037195E+03  0.00000000000E+00 0. -1.
          1    1    1    2  502    0  0.24982713820E+01 -0.20780156507E+02 -0.65628530749E+03  0.65661896188E+03  0.00000000000E+00 0.  1.
</event>
<event>
 4    1  0.8322090E+003  0.3501274E+02  0.7546771E-02  0.1380474E+00
          2   -1    0    0  502    0  0.00000000000E+00  0.00000000000E+00  0.15484098895E+01  0.15484098895E+01  0.00000000000E+00 0. -1.
          1   -1    0    0  501    0 -0.00000000000E+00 -0.00000000000E+00 -0.13904197756E+04  0.13904197756E+04  0.00000000000E+00 0. -1.
          2    1    1    2  501    0 -0.28230335744E+02 -0.20710871003E+02 -0.23773210168E+03  0.24029657552E+03  0.00000000000E+00 0. -1.
          1    1    1    2  502    0  0.28230335744E+02  0.20710871003E+02 -0.11511392640E+04  0.11516716099E+04  0.00000000000E+00 0. -1.
</event>
<event>
 4    1  0.8322090E+003  0.4337127E+02  0.7546771E-02  0.1329787E+00
          2   -1    0    0  502    0  0.00000000000E+00  0.00000000000E+00  0.96971698566E+03  0.96971698566E+03  0.00000000000E+00 0. -1.
          1   -1    0    0  501    0 -0.00000000000E+00 -0.00000000000E+00 -0.12815725540E+03  0.12815725540E+03  0.00000000000E+00 0. -1.
          2    1    1    2  501    0  0.43049345449E+02 -0.52745651322E+01  0.96554674128E+03  0.96652034473E+03  0.00000000000E+00 0. -1.
          1    1    1    2  502    0 -0.43049345449E+02  0.52745651322E+01 -0.12398701102E+03  0.13135389633E+03  0.00000000000E+00 0. -1.
</event>
<event>
 4    1  0.8322090E+003  0.2313753E+02  0.7546771E-02  0.1490778E+00
          2   -1    0    0  502    0  0.00000000000E+00  0.00000000000E+00  0.24492056776E+03  0.24492056776E+03  0.00000000000E+00 0. -1.
          1   -1    0    0  501    0 -0.00000000000E+00 -0.00000000000E+00 -0.69211447265E+02  0.69211447265E+02  0.00000000000E+00 0.  1.
          2    1    1    2  501    0  0.17260779992E+02  0.15408132541E+02  0.24242049258E+03  0.24352215566E+03  0.00000000000E+00 0. -1.
          1    1    1    2  502    0 -0.17260779992E+02 -0.15408132541E+02 -0.66711372084E+02  0.70609859366E+02  0.00000000000E+00 0.  1.
</event>
<event>
 4    1  0.8322090E+003  0.2527271E+02  0.7546771E-02  0.1465776E+00
          2   -1    0    0  502    0  0.00000000000E+00  0.00000000000E+00  0.14050540593E+04  0.14050540593E+04  0.00000000000E+00 0. -1.
          1   -1    0    0  501    0 -0.00000000000E+00 -0.00000000000E+00 -0.10294286017E+01  0.10294286017E+01  0.00000000000E+00 0.  1.
          2    1    1    2  501    0 -0.15361179613E+02 -0.20068481268E+02  0.12273755229E+04  0.12276356887E+04  0.00000000000E+00 0. -1.
          1    1    1    2  502    0  0.15361179613E+02  0.20068481268E+02  0.17664910776E+03  0.17844779924E+03  0.00000000000E+00 0.  1.
</event>
<event>
 4    1  0.8322090E+003  0.3807706E+02  0.7546771E-02  0.1360138E+00
          2   -1    0    0  502    0  0.00000000000E+00  0.00000000000E+00  0.13020848978E+02  0.13020848978E+02  0.00000000000E+00 0.  1.
          1   -1    0    0  501    0 -0.00000000000E+00 -0.00000000000E+00 -0.88931809127E+03  0.88931809127E+03  0.00000000000E+00 0.  1.
          2    1    1    2  501    0 -0.26719811436E+02  0.27127744218E+02 -0.16168279645E+02  0.41367573004E+02  0.00000000000E+00 0.  1.
          1    1    1    2  502    0  0.26719811436E+02 -0.27127744218E+02 -0.86012896265E+03  0.86097136725E+03  0.00000000000E+00 0.  1.
</event>
<event>
 4    1  0.8322090E+003  0.2043802E+02  0.7546771E-02  0.1527442E+00
          2   -1    0    0  502    0  0.00000000000E+00  0.00000000000E+00  0.87429787142E+02  0.87429787142E+02  0.00000000000E+00 0.  1.
          1   -1    0    0  501    0 -0.00000000000E+00 -0.00000000000E+00 -0.41144927513E+02  0.41144927513E+02  0.00000000000E+00 0.  1.
          2    1    1    2  501    0  0.11493515575E+02  0.16900050175E+02  0.83582166992E+02  0.86044704865E+02  0.00000000000E+00 0.  1.
          1    1    1    2  502    0 -0.11493515575E+02 -0.16900050175E+02 -0.37297307363E+02  0.42530009790E+02  0.00000000000E+00 0.  1.
</event>
<event>
 4    1  0.8322090E+003  0.5322851E+02  0.7546771E-02  0.1284750E+00
          2   -1    0    0  502    0  0.00000000000E+00  0.00000000000E+00  0.84279892285E+03  0.84279892285E+03  0.00000000000E+00 0.  1.
          1   -1    0    0  501    0 -0.00000000000E+00 -0.00000000000E+00 -0.16392480110E+02  0.16392480110E+02  0.00000000000E+00 0. -1.
          2    1    1    2  501    0 -0.36014087484E+02  0.39195145419E+02  0.79622377117E+03  0.79800098227E+03  0.00000000000E+00 0.  1.
          1    1    1    2  502    0  0.36014087484E+02 -0.39195145419E+02  0.30182671572E+02  0.61190420696E+02  0.00000000000E+00 0. -1.
</event>
<event>
 4    1  0.8322090E+003  0.2036506E+02  0.7546771E-02  0.1528526E+00
          2   -1    0    0  502    0  0.00000000000E+00  0.00000000000E+00  0.33536247043E+03  0.33536247043E+03  0.00000000000E+00 0. -1.
          1   -1    0    0  501    0 -0.00000000000E+00 -0.00000000000E+00 -0.16362120289E+01  0.16362120289E+01  0.00000000000E+00 0.  1.
          2    1    1    2  501    0  0.19625749847E+01  0.20270270228E+02  0.25012670047E+03  0.25095438200E+03  0.00000000000E+00 0. -1.
          1    1    1    2  502    0 -0.19625749847E+01 -0.20270270228E+02  0.83599557937E+02  0.86044300468E+02  0.00000000000E+00 0.  1.
</event>
<event>
 4    1  0.8322090E+003  0.2154545E+02  0.7546771E-02  0.1511618E+00
          2   -1    0    0  502    0  0.00000000000E+00  0.00000000000E+00  0.31063127305E+03  0.31063127305E+03  0.00000000000E+00 0.  1.
          1   -1    0    0  501    0 -0.00000000000E+00 -0.00000000000E+00 -0.24500895388E+01  0.24500895388E+01  0.00000000000E+00 0.  1.
          2    1    1    2  501    0 -0.21540612383E+02 -0.45678064229E+00  0.25185824751E+03  0.25277813092E+03  0.00000000000E+00 0.  1.
          1    1    1    2  502    0  0.21540612383E+02  0.45678064229E+00  0.56322935996E+02  0.60303231668E+02  0.00000000000E+00 0.  1.
</event>
<event>
 4    1  0.8322090E+003  0.4400200E+02  0.7546771E-02  0.1326506E+00
          2   -1    0    0  502    0  0.00000000000E+00  0.00000000000E+00  0.64443565485E+02  0.64443565485E+02  0.00000000000E+00 0.  1.
          1   -1    0    0  501    0 -0.00000000000E+00 -0.00000000000E+00 -0.10069068899E+04  0.10069068899E+04  0.00000000000E+00 0.  1.
          2    1    1    2  501    0 -0.24506700057E+01 -0.43933707520E+02  0.56391187459E+02  0.71527214841E+02  0.00000000000E+00 0.  1.
          1    1    1    2  502    0  0.24506700057E+01  0.43933707520E+02 -0.99885451190E+03  0.99982324057E+03  0.00000000000E+00 0.  1.
</event>
<event>
 4    1  0.1134323E+004  0.2669141E+02  0.7546771E-02  0.1450733E+00
          2   -1    0    0  502    0  0.00000000000E+00  0.00000000000E+00  0.63961459817E+03  0.63961459817E+03  0.00000000000E+00 0.  1.
          1   -1    0    0  501    0 -0.00000000000E+00 -0.00000000000E+00 -0.47309941493E+03  0.47309941493E+03  0.00000000000E+00 0.  1.
          2    1    1    2  501    0  0.24850207406E+02 -0.97415848459E+01  0.63895928090E+03  0.63951653140E+03  0.00000000000E+00 0.  1.
          1    1    1    2  502    0 -0.24850207406E+02  0.97415848459E+01 -0.47244409766E+03  0.47319748171E+03  0.00000000000E+00 0.  1.
</event>
<event>
 4    1  0.8322090E+003  0.2973076E+02  0.7546771E-02  0.1421951E+00
          2   -1    0    0  502    0  0.00000000000E+00  0.00000000000E+00  0.11817109203E+03  0.11817109203E+03  0.00000000000E+00 0.  1.
          1   -1    0    0  501    0 -0.00000000000E+00 -0.00000000000E+00 -0.31407220034E+02  0.31407220034E+02  0.00000000000E+00 0. -1.
          2    1    1    2  501    0 -0.12785028829E+02  0.26841411634E+02  0.10866042829E+03  0.11265436972E+03  0.00000000000E+00 0.  1.
          1    1    1    2  502    0  0.12785028829E+02 -0.26841411634E+02 -0.21896556295E+02  0.36923942344E+02  0.00000000000E+00 0. -1.
</event>
<event>
 4    1  0.8322090E+003  0.2076676E+02  0.7546771E-02  0.1522621E+00
          2   -1    0    0  502    0  0.00000000000E+00  0.00000000000E+00  0.90425120648E+03  0.90425120648E+03  0.00000000000E+00 0. -1.
          1   -1    0    0  501    0 -0.00000000000E+00 -0.00000000000E+00 -0.69047771701E+00  0.69047771701E+00  0.00000000000E+00 0. -1.
          2    1    1    2  501    0  0.20742281511E+02 -0.10080042189E+01  0.70341488349E+03  0.70372136292E+03  0.00000000000E+00 0. -1.
          1    1    1    2  502    0 -0.20742281511E+02  0.10080042189E+01  0.20014584527E+03  0.20122032128E+03  0.00000000000E+00 0. -1.
</event>
<event>
 4    1  0.8322090E+003  0.2463688E+02  0.7546771E-02  0.1472907E+00
          2   -1    0    0  502    0  0.00000000000E+00  0.00000000000E+00  0.23615932196E+03  0.23615932196E+03  0.00000000000E+00 0.  1.
          1   -1    0    0  501    0 -0.00000000000E+00 -0.00000000000E+00 -0.32451273840E+01  0.32451273840E+01  0.00000000000E+00 0. -1.
          2    1    1    2  501    0  0.19267258225E+02 -0.15354113604E+02  0.17104743121E+03  0.17281261461E+03  0.00000000000E+00 0.  1.
          1    1    1    2  502    0 -0.19267258225E+02  0.15354113604E+02  0.61866763359E+02  0.66591834729E+02  0.00000000000E+00 0. -1.
</event>
<event>
 4    1  0.8322090E+003  0.2209496E+02  0.7546771E-02  0.1504187E+00
          2   -1    0    0  502    0  0.00000000000E+00  0.00000000000E+00  0.56453301245E+01  0.56453301245E+01  0.00000000000E+00 0.  1.
          1   -1    0    0  501    0 -0.00000000000E+00 -0.00000000000E+00 -0.11676631538E+04  0.11676631538E+04  0.00000000000E+00 0. -1.
          2    1    1    2  501    0 -0.21937203131E+02 -0.26355961854E+01 -0.16496095952E+02  0.27573690905E+02  0.00000000000E+00 0.  1.
          1    1    1    2  502    0  0.21937203131E+02  0.26355961854E+01 -0.11455217277E+04  0.11457347930E+04  0.00000000000E+00 0. -1.
</event>
<event>
 4    1  0.8322090E+003  0.2057265E+02  0.7546771E-02  0.1525455E+00
          2   -1    0    0  502    0  0.00000000000E+00  0.00000000000E+00  0.68561956686E+02  0.68561956686E+02  0.00000000000E+00 0. -1.
          1   -1    0    0  501    0 -0.00000000000E+00 -0.00000000000E+00 -0.17496025299E+03  0.17496025299E+03  0.00000000000E+00 0.  1.
          2    1    1    2  501    0  0.90916044067E+01 -0.18454721129E+02  0.66394656979E+02  0.69508880569E+02  0.00000000000E+00 0. -1.
          1    1    1    2  502    0 -0.90916044067E+01  0.18454721129E+02 -0.17279295328E+03  0.17401332911E+03  0.00000000000E+00 0.  1.
</event>
<event>
 4    1  0.8322090E+003  0.2267962E+02  0.7546771E-02  0.1496561E+00
          2   -1    0    0  502    0  0.00000000000E+00  0.00000000000E+00  0.14386746840E+04  0.14386746840E+04  0.00000000000E+00 0. -1.
          1   -1    0    0  501    0 -0.00000000000E+00 -0.00000000000E+00 -0.46648107909E+00  0.46648107909E+00  0.00000000000E+00 0.  1.
          2    1    1    2  501    0  0.14937380560E+02 -0.17065745132E+02  0.10668629574E+04  0.10671039944E+04  0.00000000000E+00 0. -1.
          1    1    1    2  502    0 -0.14937380560E+02  0.17065745132E+02  0.37134524549E+03  0.37203717065E+03  0.00000000000E+00 0.  1.
</event>
<event>
 4    1  0.8322090E+003  0.4193095E+02  0.7546771E-02  0.1337527E+00
          2   -1    0    0  502    0  0.00000000000E+00  0.00000000000E+00  0.47459375498E+02  0.47459375498E+02  0.00000000000E+00 0. -1.
          1   -1    0    0  501    0 -0.00000000000E+00 -0.00000000000E+00 -0.98917410426E+02  0.98917410426E+02  0.00000000000E+00 0.  1.
          2    1    1    2  501    0  0.70196280695E+01  0.41339196645E+02  0.32153718485E+02  0.52840003500E+02  0.00000000000E+00 0. -1.
          1    1    1    2  502    0 -0.70196280695E+01 -0.41339196645E+02 -0.83611753412E+02  0.93536782424E+02  0.00000000000E+00 0.  1.
</event>
<event>
 4    1  0.8322090E+003  0.2326760E+02  0.7546771E-02  0.1489165E+00
          2   -1    0    0  502    0  0.00000000000E+00  0.00000000000E+00  0.35833202343E+01  0.35833202343E+01  0.00000000000E+00 0. -1.
          1   -1    0    0  501    0 -0.00000000000E+00 -0.00000000000E+00 -0.10443531452E+04  0.10443531452E+04  0.00000000000E+00 0.  1.
          2    1    1    2  501    0 -0.45810147839E+01 -0.22812178733E+02 -0.35797071394E+02  0.42694396768E+02  0.00000000000E+00 0. -1.
          1    1    1    2  502    0  0.45810147839E+01  0.22812178733E+02 -0.10049727536E+04  0.10052420687E+04  0.00000000000E+00 0.  1.
</event>
<event>
 4    1  0.8322090E+003  0.4725947E+02  0.7546771E-02  0.1310513E+00
          2   -1    0    0  502    0  0.00000000000E+00  0.00000000000E+00  0.19517787498E+03  0.19517787498E+03  0.00000000000E+00 0.  1.
          1   -1    0    0  501    0 -0.00000000000E+00 -0.00000000000E+00 -0.11900567600E+02  0.11900567600E+02  0.00000000000E+00 0.  1.
          2    1    1    2  501    0  0.21041367711E+02 -0.42316877234E+02  0.11193692805E+03  0.12150445718E+03  0.00000000000E+00 0.  1.
          1    1    1    2  502    0 -0.21041367711E+02  0.42316877234E+02  0.71340379333E+02  0.85573985401E+02  0.00000000000E+00 0.  1.
</event>
<event>
 4    1  0.8322090E+003  0.3151944E+02  0.7546771E-02  0.1406837E+00
          2   -1    0    0  502    0  0.00000000000E+00  0.00000000000E+00  0.23306831641E+03  0.23306831641E+03  0.00000000000E+00 0. -1.
          1   -1    0    0  501    0 -0.00000000000E+00 -0.00000000000E+00 -0.21645955974E+03  0.21645955974E+03  0.00000000000E+00 0.  1.
          2    1    1    2  501    0 -0.19471292380E+02  0.24785962989E+02  0.23084425035E+03  0.23298614359E+03  0.00000000000E+00 0. -1.
          1    1    1    2  502    0  0.19471292380E+02 -0.24785962989E+02 -0.21423549367E+03  0.21654173256E+03  0.00000000000E+00 0.  1.
</event>
<event>
 4    1  0.8322090E+003  0.2344484E+02  0.7546771E-02  0.1486987E+00
          2   -1    0    0  502    0  0.00000000000E+00  0.00000000000E+00  0.19577179453E+03  0.19577179453E+03  0.00000000000E+00 0. -1.
          1   -1    0    0  501    0 -0.00000000000E+00 -0.00000000000E+00 -0.96351107405E+02  0.96351107405E+02  0.00000000000E+00 0.  1.
          2    1    1    2  501    0  0.23439376237E+02 -0.50598862685E+00  0.19362795545E+03  0.19504216343E+03  0.00000000000E+00 0. -1.
          1    1    1    2  502    0 -0.23439376237E+02  0.50598862685E+00 -0.94207268328E+02  0.97080738505E+02  0.00000000000E+00 0.  1.
</event>
<event>
 4    1  0.8322090E+003  0.2194442E+02  0.7546771E-02  0.1506196E+00
          2   -1    0    0  502    0  0.00000000000E+00  0.00000000000E+00  0.43414887216E+03  0.43414887216E+03  0.00000000000E+00 0.  1.
          1   -1    0    0  501    0 -0.00000000000E+00 -0.00000000000E+00 -0.12059015615E+01  0.12059015615E+01  0.00000000000E+00 0.  1.
          2    1    1    2  501    0 -0.35636037222E+00  0.21941524015E+02  0.27811345532E+03  0.27897786919E+03  0.00000000000E+00 0.  1.
          1    1    1    2  502    0  0.35636037222E+00 -0.21941524015E+02  0.15482951527E+03  0.15637690452E+03  0.00000000000E+00 0.  1.
</event>
<event>
 4    1  0.8322090E+003  0.2879969E+02  0.7546771E-02  0.1430322E+00
          2   -1    0    0  502    0  0.00000000000E+00  0.00000000000E+00  0.21752872992E+01  0.21752872992E+01  0.00000000000E+00 0. -1.
          1   -1    0    0  501    0 -0.00000000000E+00 -0.00000000000E+00 -0.20662899034E+04  0.20662899034E+04  0.00000000000E+00 0.  1.
          2    1    1    2  501    0 -0.10831494498E+02 -0.26685220648E+02 -0.98110545637E+02  0.10225019041E+03  0.00000000000E+00 0. -1.
          1    1    1    2  502    0  0.10831494498E+02  0.26685220648E+02 -0.19660040705E+04  0.19662150003E+04  0.00000000000E+00 0.  1.
</event>
<event>
 4    1  0.8322090E+003  0.2152533E+02  0.7546771E-02  0.1511895E+00
          2   -1    0    0  502    0  0.00000000000E+00  0.00000000000E+00  0.18735126085E+01  0.18735126085E+01  0.00000000000E+00 0. -1.
          1   -1    0    0  501    0 -0.00000000000E+00 -0.00000000000E+00 -0.30268758487E+03  0.30268758487E+03  0.00000000000E+00 0. -1.
          2    1    1    2  501    0 -0.17837763645E+00 -0.21524589227E+02 -0.85272504428E+02  0.87947369326E+02  0.00000000000E+00 0. -1.
          1    1    1    2  502    0  0.17837763645E+00  0.21524589227E+02 -0.21554156783E+03  0.21661372815E+03  0.00000000000E+00 0. -1.
</event>
<event>
 4    1  0.8322090E+003  0.2160911E+02  0.7546771E-02  0.1510743E+00
          2   -1    0    0  502    0  0.00000000000E+00  0.00000000000E+00  0.10706035200E+04  0.10706035200E+04  0.00000000000E+00 0.  1.
          1   -1    0    0  501    0 -0.00000000000E+00 -0.00000000000E+00 -0.10278961117E+01  0.10278961117E+01  0.00000000000E+00 0. -1.
          2    1    1    2  501    0  0.16325319767E+02  0.14157600650E+02  0.94132952207E+03  0.94157751823E+03  0.00000000000E+00 0.  1.
          1    1    1    2  502    0 -0.16325319767E+02 -0.14157600650E+02  0.12824610179E+03  0.13005389785E+03  0.00000000000E+00 0. -1.
</event>
<event>
 4    1  0.8322090E+003  0.3059937E+02  0.7546771E-02  0.1414458E+00
          2   -1    0    0  502    0  0.00000000000E+00  0.00000000000E+00  0.13990577072E+03  0.13990577072E+03  0.00000000000E+00 0.  1.
          1   -1    0    0  501    0 -0.00000000000E+00 -0.00000000000E+00 -0.70616387179E+02  0.70616387179E+02  0.00000000000E+00 0. -1.
          2    1    1    2  501    0  0.12275670408E+02  0.28029076535E+02  0.13479369088E+03  0.13822322640E+03  0.00000000000E+00 0.  1.
          1    1    1    2  502    0 -0.12275670408E+02 -0.28029076535E+02 -0.65504307341E+02  0.72298931497E+02  0.00000000000E+00 0. -1.
</event>
<event>
 4    1  0.8322090E+003  0.2070517E+02  0.7546771E-02  0.1523516E+00
          2   -1    0    0  502    0  0.00000000000E+00  0.00000000000E+00  0.36810270684E+03  0.36810270684E+03  0.00000000000E+00 0. -1.
          1   -1    0    0  501    0 -0.00000000000E+00 -0.00000000000E+00 -0.54430525507E+01  0.54430525507E+01  0.00000000000E+00 0. -1.
          2    1    1    2  501    0 -0.20424359751E+02  0.33984920816E+01  0.34691989464E+03  0.34753721746E+03  0.00000000000E+00 0. -1.
          1    1    1    2  502    0  0.20424359751E+02 -0.33984920816E+01  0.15739759644E+02  0.26008541930E+02  0.00000000000E+00 0. -1.
</event>
<event>
 4    1  0.8322090E+003  0.3466237E+02  0.7546771E-02  0.1382952E+00
          2   -1    0    0  502    0  0.00000000000E+00  0.00000000000E+00  0.48170611764E+01  0.48170611764E+01  0.00000000000E+00 0. -1.
          1   -1    0    0  501    0 -0.00000000000E+00 -0.00000000000E+00 -0.38435187306E+03  0.38435187306E+03  0.00000000000E+00 0. -1.
          2    1    1    2  501    0 -0.32069970386E+02  0.13152837356E+02 -0.74475710569E+02  0.82146890360E+02  0.00000000000E+00 0. -1.
          1    1    1    2  502    0  0.32069970386E+02 -0.13152837356E+02 -0.30505910132E+03  0.30702204388E+03  0.00000000000E+00 0. -1.
</event>
<event>
 4    1  0.8322090E+003  0.4454051E+02  0.7546771E-02  0.1323753E+00
          2   -1    0    0  502    0  0.00000000000E+00  0.00000000000E+00  0.80212518145E+03  0.80212518145E+03  0.00000000000E+00 0.  1.
          1   -1    0    0  501    0 -0.00000000000E+00 -0.00000000000E+00 -0.15310704565E+02  0.15310704565E+02  0.00000000000E+00 0.  1.
          2    1    1    2  501    0  0.35614379626E+02  0.26748333693E+02  0.76766046083E+03  0.76895152026E+03  0.00000000000E+00 0.  1.
          1    1    1    2  502    0 -0.35614379626E+02 -0.26748333693E+02  0.19154016057E+02  0.48484365754E+02  0.00000000000E+00 0.  1.
</event>
<event>
 4    1  0.8322090E+003  0.2235389E+02  0.7546771E-02  0.1500775E+00
          2   -1    0    0  502    0  0.00000000000E+00  0.00000000000E+00  0.19796867520E+02  0.19796867520E+02  0.00000000000E+00 0. -1.
          1   -1    0    0  501    0 -0.00000000000E+00 -0.00000000000E+00 -0.31574314737E+03  0.31574314737E+03  0.00000000000E+00 0. -1.
          2    1    1    2  501    0 -0.79243674292E+01 -0.20902175012E+02  0.12951255966E+02  0.25834696640E+02  0.00000000000E+00 0. -1.
          1    1    1    2  502    0  0.79243674292E+01  0.20902175012E+02 -0.30889753582E+03  0.30970531825E+03  0.00000000000E+00 0. -1.
</event>
<event>
 4    1  0.8322090E+003  0.2174296E+02  0.7546771E-02  0.1508916E+00
          2   -1    0    0  502    0  0.00000000000E+00  0.00000000000E+00  0.33413635162E+03  0.33413635162E+03  0.00000000000E+00 0.  1.
          1   -1    0    0  501    0 -0.00000000000E+00 -0.00000000000E+00 -0.15201067597E+01  0.15201067597E+01  0.00000000000E+00 0.  1.
          2    1    1    2  501    0  0.21327155692E+02  0.42317938453E+01  0.12214747017E+03  0.12406756272E+03  0.00000000000E+00 0.  1.
          1    1    1    2  502    0 -0.21327155692E+02 -0.42317938453E+01  0.21046877469E+03  0.21158889566E+03  0.00000000000E+00 0.  1.
</event>
<event>
 4    1  0.8322090E+003  0.5889144E+02  0.7546771E-02  0.1263646E+00
          2   -1    0    0  502    0  0.00000000000E+00  0.00000000000E+00  0.80011561725E+03  0.80011561725E+03  0.00000000000E+00 0.  1.
          1   -1    0    0  501    0 -0.00000000000E+00 -0.00000000000E+00 -0.11562459153E+04  0.11562459153E+04  0.00000000000E+00 0. -1.
          2    1    1    2  501    0 -0.58763596241E+02 -0.38782685840E+01  0.79828035533E+03  0.80044970293E+03  0.00000000000E+00 0.  1.
          1    1    1    2  502    0  0.58763596241E+02  0.38782685840E+01 -0.11544106534E+04  0.11559118297E+04  0.00000000000E+00 0. -1.
</event>
<event>
 4    1  0.8322090E+003  0.2609957E+02  0.7546771E-02  0.1456869E+00
          2   -1    0    0  502    0  0.00000000000E+00  0.00000000000E+00  0.59081713865E+03  0.59081713865E+03  0.00000000000E+00 0. -1.
          1   -1    0    0  501    0 -0.00000000000E+00 -0.00000000000E+00 -0.23666575895E+02  0.23666575895E+02  0.00000000000E+00 0.  1.
          2    1    1    2  501    0 -0.12188004330E+02 -0.23078998104E+02  0.58323978961E+03  0.58382346628E+03  0.00000000000E+00 0. -1.
          1    1    1    2  502    0  0.12188004330E+02  0.23078998104E+02 -0.16089226849E+02  0.30660248264E+02  0.00000000000E+00 0.  1.
</event>
<event>
 4    1  0.8322090E+003  0.2368531E+02  0.7546771E-02  0.1484067E+00
          2   -1    0    0  502    0  0.00000000000E+00  0.00000000000E+00  0.21636780907E+01  0.21636780907E+01  0.00000000000E+00 0.  1.
          1   -1    0    0  501    0 -0.00000000000E+00 -0.00000000000E+00 -0.26868070976E+03  0.26868070976E+03  0.00000000000E+00 0.  1.
          2    1    1    2  501    0  0.15393168438E+02 -0.18001208446E+02 -0.15859280140E+03  0.16035170655E+03  0.00000000000E+00 0.  1.
          1    1    1    2  502    0 -0.15393168438E+02  0.18001208446E+02 -0.10792423027E+03  0.11049268130E+03  0.00000000000E+00 0.  1.
</event>
<event>
 4    1  0.8322090E+003  0.2676345E+02  0.7546771E-02  0.1449999E+00
          2   -1    0    0  502    0  0.00000000000E+00  0.00000000000E+00  0.19366778805E+02  0.19366778805E+02  0.00000000000E+00 0.  1.
          1   -1    0    0  501    0 -0.00000000000E+00 -0.00000000000E+00 -0.52115934466E+03  0.52115934466E+03  0.00000000000E+00 0. -1.
          2    1    1    2  501    0 -0.16835976186E+02  0.20804613501E+02  0.96004462367E+01  0.28433265817E+02  0.00000000000E+00 0.  1.
          1    1    1    2  502    0  0.16835976186E+02 -0.20804613501E+02 -0.51139301210E+03  0.51209285765E+03  0.00000000000E+00 0. -1.
</event>
<event>
 4    1  0.8322090E+003  0.4063568E+02  0.7546771E-02  0.1344800E+00
          2   -1    0    0  502    0  0.00000000000E+00  0.00000000000E+00  0.55522015882E+03  0.55522015882E+03  0.00000000000E+00 0.  1.
          1   -1    0    0  501    0 -0.00000000000E+00 -0.00000000000E+00 -0.68606005179E+01  0.68606005179E+01  0.00000000000E+00 0.  1.
          2    1    1    2  501    0  0.39482893358E+02  0.96103912459E+01  0.48570843756E+03  0.48740531881E+03  0.00000000000E+00 0.  1.
          1    1    1    2  502    0 -0.39482893358E+02 -0.96103912459E+01  0.62651120747E+02  0.74675440532E+02  0.00000000000E+00 0.  1.
</event>
<event>
 4    1  0.8322090E+003  0.2766675E+02  0.7546771E-02  0.1441023E+00
          2   -1    0    0  502    0  0.00000000000E+00  0.00000000000E+00  0.63166818302E+03  0.63166818302E+03  0.00000000000E+00 0. -1.
          1   -1    0    0  501    0 -0.00000000000E+00 -0.00000000000E+00 -0.31585256549E+01  0.31585256549E+01  0.00000000000E+00 0. -1.
          2    1    1    2  501    0 -0.24361484017E+02  0.13113618713E+02  0.56344822698E+03  0.56412707202E+03  0.00000000000E+00 0. -1.
          1    1    1    2  502    0  0.24361484017E+02 -0.13113618713E+02  0.65061430382E+02  0.70699636651E+02  0.00000000000E+00 0. -1.
</event>
<event>
 4    1  0.8322090E+003  0.3270412E+02  0.7546771E-02  0.1397465E+00
          2   -1    0    0  502    0  0.00000000000E+00  0.00000000000E+00  0.16623224914E+03  0.16623224914E+03  0.00000000000E+00 0. -1.
          1   -1    0    0  501    0 -0.00000000000E+00 -0.00000000000E+00 -0.32322032169E+02  0.32322032169E+02  0.00000000000E+00 0. -1.
          2    1    1    2  501    0 -0.23380786157E+02 -0.22866965841E+02  0.15580325893E+03  0.15919866451E+03  0.00000000000E+00 0. -1.
          1    1    1    2  502    0  0.23380786157E+02  0.22866965841E+02 -0.21893041955E+02  0.39355616805E+02  0.00000000000E+00 0. -1.
</event>
<event>
 4    1  0.8322090E+003  0.2505772E+02  0.7546771E-02  0.1468159E+00
          2   -1    0    0  502    0  0.00000000000E+00  0.00000000000E+00  0.10739197772E+02  0.10739197772E+02  0.00000000000E+00 0.  1.
          1   -1    0    0  501    0 -0.00000000000E+00 -0.00000000000E+00 -0.64047614003E+02  0.64047614003E+02  0.00000000000E+00 0.  1.
          2    1    1    2  501    0 -0.16134761137E+02  0.19171828933E+02 -0.15616436536E+02  0.29525626694E+02  0.00000000000E+00 0.  1.
          1    1    1    2  502    0  0.16134761137E+02 -0.19171828933E+02 -0.37691979695E+02  0.45261185081E+02  0.00000000000E+00 0.  1.
</event>
<event>
 4    1  0.8322090E+003  0.3405893E+02  0.7546771E-02  0.1387303E+00
          2   -1    0    0  502    0  0.00000000000E+00  0.00000000000E+00  0.17405374936E+04  0.17405374936E+04  0.00000000000E+00 0. -1.
          1   -1    0    0  501    0 -0.00000000000E+00 -0.00000000000E+00 -0.72094179034E+01  0.72094179034E+01  0.00000000000E+00 0. -1.
          2    1    1    2  501    0 -0.38364862485E+01  0.33842161871E+02  0.16991660329E+04  0.16995073456E+04  0.00000000000E+00 0. -1.
          1    1    1    2  502    0  0.38364862485E+01 -0.33842161871E+02  0.34162042828E+02  0.48239565888E+02  0.00000000000E+00 0. -1.
</event>
<event>
 4    1  0.8322090E+003  0.2368753E+02  0.7546771E-02  0.1484041E+00
          2   -1    0    0  502    0  0.00000000000E+00  0.00000000000E+00  0.36969101563E+03  0.36969101563E+03  0.00000000000E+00 0.  1.
          1   -1    0    0  501    0 -0.00000000000E+00 -0.00000000000E+00 -0.31731223333E+02  0.31731223333E+02  0.00000000000E+00 0. -1.
          2    1    1    2  501    0 -0.23470141029E+02 -0.32017936105E+01  0.36483204623E+03  0.36560022013E+03  0.00000000000E+00 0.  1.
          1    1    1    2  502    0  0.23470141029E+02  0.32017936105E+01 -0.26872253930E+02  0.35822018836E+02  0.00000000000E+00 0. -1.
</event>
<event>
 4    1  0.8322090E+003  0.2162718E+02  0.7546771E-02  0.1510496E+00
          2   -1    0    0  502    0  0.00000000000E+00  0.00000000000E+00  0.11919649278E+04  0.11919649278E+04  0.00000000000E+00 0.  1.
          1   -1    0    0  501    0 -0.00000000000E+00 -0.00000000000E+00 -0.16802108919E+01  0.16802108919E+01  0.00000000000E+00 0.  1.
          2    1    1    2  501    0 -0.12023521568E+02  0.17976930526E+02  0.11176447064E+04  0.11178539371E+04  0.00000000000E+00 0.  1.
          1    1    1    2  502    0  0.12023521568E+02 -0.17976930526E+02  0.72640010583E+02  0.75791201597E+02  0.00000000000E+00 0.  1.
</event>
<event>
 4    1  0.8322090E+003  0.2426589E+02  0.7546771E-02  0.1477186E+00
          2   -1    0    0  502    0  0.00000000000E+00  0.00000000000E+00  0.18630861627E+01  0.18630861627E+01  0.00000000000E+00 0.  1.
          1   -1    0    0  501    0 -0.00000000000E+00 -0.00000000000E+00 -0.77030856684E+03  0.77030856684E+03  0.00000000000E+00 0. -1.
          2    1    1    2  501    0  0.10708723555E+02 -0.21775141222E+02 -0.87738416520E+02  0.91032210062E+02  0.00000000000E+00 0.  1.
          1    1    1    2  502    0 -0.10708723555E+02  0.21775141222E+02 -0.68070706416E+03  0.68113944294E+03  0.00000000000E+00 0. -1.
</event>
<event>
 4    1  0.8322090E+003  0.3796004E+02  0.7546771E-02  0.1360873E+00
          2   -1    0    0  502    0  0.00000000000E+00  0.00000000000E+00  0.59060688492E+03  0.59060688492E+03  0.00000000000E+00 0. -1.
          1   -1    0    0  501    0 -0.00000000000E+00 -0.00000000000E+00 -0.81074254524E+02  0.81074254524E+02  0.00000000000E+00 0. -1.
          2    1    1    2  501    0 -0.37844461416E+02  0.29599276328E+01  0.58551498559E+03  0.58674420558E+03  0.00000000000E+00 0. -1.
          1    1    1    2  502    0  0.37844461416E+02 -0.29599276328E+01 -0.75982355200E+02  0.84936933858E+02  0.00000000000E+00 0. -1.
</event>
<event>
 4    1  0.8322090E+003  0.2160366E+02  0.7546771E-02  0.1510818E+00
          2   -1    0    0  502    0  0.00000000000E+00  0.00000000000E+00  0.10307485728E+03  0.10307485728E+03  0.00000000000E+00 0. -1.
          1   -1    0    0  501    0 -0.00000000000E+00 -0.00000000000E+00 -0.25124741978E+02  0.25124741978E+02  0.00000000000E+00 0. -1.
          2    1    1    2  501    0  0.98749144495E+01 -0.19214686456E+02  0.97012147339E+02  0.99388504578E+02  0.00000000000E+00 0. -1.
          1    1    1    2  502    0 -0.98749144495E+01  0.19214686456E+02 -0.19062032040E+02  0.28811094677E+02  0.00000000000E+00 0. -1.
</event>
<event>
 4    1  0.8322090E+003  0.2104237E+02  0.7546771E-02  0.1518661E+00
          2   -1    0    0  502    0  0.00000000000E+00  0.00000000000E+00  0.97236613227E+00  0.97236613227E+00  0.00000000000E+00 0.  1.
          1   -1    0    0  501    0 -0.00000000000E+00 -0.00000000000E+00 -0.68722941143E+03  0.68722941143E+03  0.00000000000E+00 0.  1.
          2    1    1    2  501    0 -0.12733720278E+02  0.16752122611E+02 -0.14325640086E+03  0.14479356902E+03  0.00000000000E+00 0.  1.
          1    1    1    2  502    0  0.12733720278E+02 -0.16752122611E+02 -0.54300064444E+03  0.54340820854E+03  0.00000000000E+00 0.  1.
</event>
<event>
 4    1  0.8322090E+003  0.3565837E+02  0.7546771E-02  0.1375993E+00
          2   -1    0    0  502    0  0.00000000000E+00  0.00000000000E+00  0.40679358655E+02  0.40679358655E+02  0.00000000000E+00 0. -1.
          1   -1    0    0  501    0 -0.00000000000E+00 -0.00000000000E+00 -0.44820534326E+02  0.44820534326E+02  0.00000000000E+00 0. -1.
          2    1    1    2  501    0 -0.25884376780E+02 -0.24525872739E+02  0.21446397786E+02  0.41610904495E+02  0.00000000000E+00 0. -1.
          1    1    1    2  502    0  0.25884376780E+02  0.24525872739E+02 -0.25587573457E+02  0.43888988486E+02  0.00000000000E+00 0. -1.
</event>
<event>
 4    1  0.8322090E+003  0.2457995E+02  0.7546771E-02  0.1473558E+00
          2   -1    0    0  502    0  0.00000000000E+00  0.00000000000E+00  0.20158420513E+04  0.20158420513E+04  0.00000000000E+00 0. -1.
          1   -1    0    0  501    0 -0.00000000000E+00 -0.00000000000E+00 -0.72604197638E+00  0.72604197638E+00  0.00000000000E+00 0.  1.
          2    1    1    2  501    0 -0.21193569006E+02  0.12450163717E+02  0.17801932008E+04  0.17803628860E+04  0.00000000000E+00 0. -1.
          1    1    1    2  502    0  0.21193569006E+02 -0.12450163717E+02  0.23492280854E+03  0.23620520721E+03  0.00000000000E+00 0.  1.
</event>
<event>
 4    1  0.8322090E+003  0.2046730E+02  0.7546771E-02  0.1527008E+00
          2   -1    0    0  502    0  0.00000000000E+00  0.00000000000E+00  0.69620426802E+03  0.69620426802E+03  0.00000000000E+00 0. -1.
          1   -1    0    0  501    0 -0.00000000000E+00 -0.00000000000E+00 -0.60735913852E+00  0.60735913852E+00  0.00000000000E+00 0.  1.
          2    1    1    2  501    0 -0.20394189351E+02  0.17284267932E+01  0.38141089705E+03  0.38195966123E+03  0.00000000000E+00 0. -1.
          1    1    1    2  502    0  0.20394189351E+02 -0.17284267932E+01  0.31418601183E+03  0.31485196592E+03  0.00000000000E+00 0.  1.
</event>
<event>
 4    1  0.8322090E+003  0.3094940E+02  0.7546771E-02  0.1411522E+00
          2   -1    0    0  502    0  0.00000000000E+00  0.00000000000E+00  0.12291580534E+04  0.12291580534E+04  0.00000000000E+00 0.  1.
          1   -1    0    0  501    0 -0.00000000000E+00 -0.00000000000E+00 -0.26622316339E+02  0.26622316339E+02  0.00000000000E+00 0. -1.
          2    1    1    2  501    0 -0.19223276190E+02 -0.24255535058E+02  0.12199000315E+04  0.12202925683E+04  0.00000000000E+00 0.  1.
          1    1    1    2  502    0  0.19223276190E+02  0.24255535058E+02 -0.17364294469E+02  0.35487801437E+02  0.00000000000E+00 0. -1.
</event>
<event>
 4    1  0.8322090E+003  0.2034432E+02  0.7546771E-02  0.1528836E+00
          2   -1    0    0  502    0  0.00000000000E+00  0.00000000000E+00  0.54842339284E+03  0.54842339284E+03  0.00000000000E+00 0. -1.
          1   -1    0    0  501    0 -0.00000000000E+00 -0.00000000000E+00 -0.20092577249E+03  0.20092577249E+03  0.00000000000E+00 0. -1.
          2    1    1    2  501    0  0.51706526426E+01  0.19676269753E+02  0.54771907735E+03  0.54809677880E+03  0.00000000000E+00 0. -1.
          1    1    1    2  502    0 -0.51706526426E+01 -0.19676269753E+02 -0.20022145700E+03  0.20125238653E+03  0.00000000000E+00 0. -1.
</event>
<event>
 4    1  0.8322090E+003  0.2677943E+02  0.7546771E-02  0.1449836E+00
          2   -1    0    0  502    0  0.00000000000E+00  0.00000000000E+00  0.17127230937E+03  0.17127230937E+03  0.00000000000E+00 0. -1.
          1   -1    0    0  501    0 -0.00000000000E+00 -0.00000000000E+00 -0.25367642827E+02  0.25367642827E+02  0.00000000000E+00 0. -1.
          2    1    1    2  501    0  0.26300899586E+02 -0.50399014142E+01  0.16279239310E+03  0.16498030542E+03  0.00000000000E+00 0. -1.
          1    1    1    2  502    0 -0.26300899586E+02  0.50399014142E+01 -0.16887726561E+02  0.31659646772E+02  0.00000000000E+00 0. -1.
</event>
<event>
 4    1  0.8322090E+003  0.4186733E+02  0.7546771E-02  0.1337878E+00
          2   -1    0    0  502    0  0.00000000000E+00  0.00000000000E+00  0.48309440515E+02  0.48309440515E+02  0.00000000000E+00 0.  1.
          1   -1    0    0  501    0 -0.00000000000E+00 -0.00000000000E+00 -0.70862876209E+03  0.70862876209E+03  0.00000000000E+00 0. -1.
          2    1    1    2  501    0 -0.31927501751E+02  0.27083354803E+02  0.38492651443E+02  0.56873171976E+02  0.00000000000E+00 0.  1.
          1    1    1    2  502    0  0.31927501751E+02 -0.27083354803E+02 -0.69881197302E+03  0.70006503063E+03  0.00000000000E+00 0. -1.
</event>
<event>
 4    1  0.8322090E+003  0.2403276E+02  0.7546771E-02  0.1479922E+00
          2   -1    0    0  502    0  0.00000000000E+00  0.00000000000E+00  0.78334135714E+03  0.78334135714E+03  0.00000000000E+00 0.  1.
          1   -1    0    0  501    0 -0.00000000000E+00 -0.00000000000E+00 -0.19251870301E+02  0.19251870301E+02  0.00000000000E+00 0. -1.
          2    1    1    2  501    0  0.10266698214E+02 -0.21729432642E+02  0.77558178286E+03  0.77595404196E+03  0.00000000000E+00 0.  1.
          1    1    1    2  502    0 -0.10266698214E+02  0.21729432642E+02 -0.11492296020E+02  0.26639185478E+02  0.00000000000E+00 0. -1.
</event>
<event>
 4    1  0.8322090E+003  0.2915427E+02  0.7546771E-02  0.1427091E+00
          2   -1    0    0  502    0  0.00000000000E+00  0.00000000000E+00  0.87521191657E+03  0.87521191657E+03  0.00000000000E+00 0. -1.
          1   -1    0    0  501    0 -0.00000000000E+00 -0.00000000000E+00 -0.15719438915E+01  0.15719438915E+01  0.00000000000E+00 0. -1.
          2    1    1    2  501    0  0.27063543444E+02 -0.10841411590E+02  0.70784092620E+03  0.70844106910E+03  0.00000000000E+00 0. -1.
          1    1    1    2  502    0 -0.27063543444E+02  0.10841411590E+02  0.16579904649E+03  0.16834279136E+03  0.00000000000E+00 0. -1.
</event>
<event>
 4    1  0.8322090E+003  0.2029930E+02  0.7546771E-02  0.1529509E+00
          2   -1    0    0  502    0  0.00000000000E+00  0.00000000000E+00  0.54016204086E+03  0.54016204086E+03  0.00000000000E+00 0.  1.
          1   -1    0    0  501    0 -0.00000000000E+00 -0.00000000000E+00 -0.93580419502E+02  0.93580419502E+02  0.00000000000E+00 0. -1.
          2    1    1    2  501    0  0.11235657979E+02 -0.16906256215E+02  0.53886786409E+03  0.53925006857E+03  0.00000000000E+00 0.  1.
          1    1    1    2  502    0 -0.11235657979E+02  0.16906256215E+02 -0.92286242729E+02  0.94492391791E+02  0.00000000000E+00 0. -1.
</event>
<event>
 4    1  0.8322090E+003  0.6413467E+02  0.7546771E-02  0.1246396E+00
          2   -1    0    0  502    0  0.00000000000E+00  0.00000000000E+00  0.64086530775E+03  0.64086530775E+03  0.00000000000E+00 0. -1.
          1   -1    0    0  501    0 -0.00000000000E+00 -0.00000000000E+00 -0.10011552707E+03  0.10011552707E+03  0.00000000000E+00 0. -1.
          2    1    1    2  501    0  0.24165408741E+02  0.59407816538E+02  0.62879277013E+03  0.63205506359E+03  0.00000000000E+00 0. -1.
          1    1    1    2  502    0 -0.24165408741E+02 -0.59407816538E+02 -0.88042989454E+02  0.10892577123E+03  0.00000000000E+00 0. -1.
</event>
<event>
 4    1  0.8322090E+003  0.4573610E+02  0.7546771E-02  0.1317799E+00
          2   -1    0    0  502    0  0.00000000000E+00  0.00000000000E+00  0.21265667618E+04  0.21265667618E+04  0.00000000000E+00 0. -1.
          1   -1    0    0  501    0 -0.00000000000E+00 -0.00000000000E+00 -0.25931680804E+04  0.25931680804E+04  0.00000000000E+00 0. -1.
          2    1    1    2  501    0 -0.45183975850E+02  0.70851222717E+01  0.21261191441E+04  0.21266110141E+04  0.00000000000E+00 0. -1.
          1    1    1    2  502    0  0.45183975850E+02 -0.70851222717E+01 -0.25927204626E+04  0.25931238281E+04  0.00000000000E+00 0. -1.
</event>
<event>
 4    1  0.8322090E+003  0.2208955E+02  0.7546771E-02  0.1504258E+00
          2   -1    0    0  502    0  0.00000000000E+00  0.00000000000E+00  0.46915238076E+02  0.46915238076E+02  0.00000000000E+00 0.  1.
          1   -1    0    0  501    0 -0.00000000000E+00 -0.00000000000E+00 -0.62483784389E+02  0.62483784389E+02  0.00000000000E+00 0. -1.
          2    1    1    2  501    0 -0.65425042322E+01 -0.21098432243E+02  0.42155711829E+02  0.47592565013E+02  0.00000000000E+00 0.  1.
          1    1    1    2  502    0  0.65425042322E+01  0.21098432243E+02 -0.57724258142E+02  0.61806457452E+02  0.00000000000E+00 0. -1.
</event>
<event>
 4    1  0.8322090E+003  0.2657986E+02  0.7546771E-02  0.1451875E+00
          2   -1    0    0  502    0  0.00000000000E+00  0.00000000000E+00  0.83457913122E+00  0.83457913122E+00  0.00000000000E+00 0. -1.
          1   -1    0    0  501    0 -0.00000000000E+00 -0.00000000000E+00 -0.18004116788E+04  0.18004116788E+04  0.00000000000E+00 0.  1.
          2    1    1    2  501    0  0.25700812806E+02  0.67791574941E+01 -0.24423754231E+03  0.24567959995E+03  0.00000000000E+00 0. -1.
          1    1    1    2  502    0 -0.25700812806E+02 -0.67791574941E+01 -0.15553395574E+04  0.15555666580E+04  0.00000000000E+00 0.  1.
</event>
<event>
 4    1  0.8322090E+003  0.2306752E+02  0.7546771E-02  0.1491652E+00
          2   -1    0    0  502    0  0.00000000000E+00  0.00000000000E+00  0.97760868266E+03  0.97760868266E+03  0.00000000000E+00 0.  1.
          1   -1    0    0  501    0 -0.00000000000E+00 -0.00000000000E+00 -0.61526751502E+00  0.61526751502E+00  0.00000000000E+00 0.  1.
          2    1    1    2  501    0  0.22618685392E+02  0.45283012390E+01  0.65461300876E+03  0.65501931397E+03  0.00000000000E+00 0.  1.
          1    1    1    2  502    0 -0.22618685392E+02 -0.45283012390E+01  0.32238040638E+03  0.32320463620E+03  0.00000000000E+00 0.  1.
</event>
<event>
 4    1  0.8322090E+003  0.2546385E+02  0.7546771E-02  0.1463681E+00
          2   -1    0    0  502    0  0.00000000000E+00  0.00000000000E+00  0.11350351680E+03  0.11350351680E+03  0.00000000000E+00 0. -1.
          1   -1    0    0  501    0 -0.00000000000E+00 -0.00000000000E+00 -0.39778490335E+02  0.39778490335E+02  0.00000000000E+00 0.  1.
          2    1    1    2  501    0  0.16907577874E+02  0.19040527535E+02  0.10778704458E+03  0.11075402863E+03  0.00000000000E+00 0. -1.
          1    1    1    2  502    0 -0.16907577874E+02 -0.19040527535E+02 -0.34062018111E+02  0.42527978510E+02  0.00000000000E+00 0.  1.
</event>
<event>
 4    1  0.8322090E+003  0.2410553E+02  0.7546771E-02  0.1479064E+00
          2   -1    0    0  502    0  0.00000000000E+00  0.00000000000E+00  0.96813859146E+03  0.96813859146E+03  0.00000000000E+00 0. -1.
          1   -1    0    0  501    0 -0.00000000000E+00 -0.00000000000E+00 -0.60915803492E+00  0.60915803492E+00  0.00000000000E+00 0. -1.
          2    1    1    2  501    0 -0.22211668932E+02  0.93658002925E+01  0.54250423475E+03  0.54303952082E+03  0.00000000000E+00 0. -1.
          1    1    1    2  502    0  0.22211668932E+02 -0.93658002925E+01  0.42502519868E+03  0.42570822868E+03  0.00000000000E+00 0. -1.
</event>
<event>
 4    1  0.8322090E+003  0.2759752E+02  0.7546771E-02  0.1441696E+00
          2   -1    0    0  502    0  0.00000000000E+00  0.00000000000E+00  0.12874651786E+02  0.12874651786E+02  0.00000000000E+00 0.  1.
          1   -1    0    0  501    0 -0.00000000000E+00 -0.00000000000E+00 -0.16490969008E+03  0.16490969008E+03  0.00000000000E+00 0. -1.
          2    1    1    2  501    0 -0.26241759313E+02  0.85436097348E+01 -0.48328374111E+01  0.28017485908E+02  0.00000000000E+00 0.  1.
          1    1    1    2  502    0  0.26241759313E+02 -0.85436097348E+01 -0.14720220088E+03  0.14976685596E+03  0.00000000000E+00 0. -1.
</event>
<event>
 4    1  0.8322090E+003  0.3210037E+02  0.7546771E-02  0.1402181E+00
          2   -1    0    0  502    0  0.00000000000E+00  0.00000000000E+00  0.86933387295E+03  0.86933387295E+03  0.00000000000E+00 0.  1.
          1   -1    0    0  501    0 -0.00000000000E+00 -0.00000000000E+00 -0.14994314040E+03  0.14994314040E+03  0.00000000000E+00 0.  1.
          2    1    1    2  501    0 -0.30716477929E+02 -0.93237019645E+01  0.86731550744E+03  0.86790934024E+03  0.00000000000E+00 0.  1.
          1    1    1    2  502    0  0.30716477929E+02  0.93237019645E+01 -0.14792477489E+03  0.15136767311E+03  0.00000000000E+00 0.  1.
</event>
<event>
 4    1  0.8322090E+003  0.2045251E+02  0.7546771E-02  0.1527227E+00
          2   -1    0    0  502    0  0.00000000000E+00  0.00000000000E+00  0.26850705782E+03  0.26850705782E+03  0.00000000000E+00 0.  1.
          1   -1    0    0  501    0 -0.00000000000E+00 -0.00000000000E+00 -0.58720259464E+02  0.58720259464E+02  0.00000000000E+00 0.  1.
          2    1    1    2  501    0 -0.21003257599E+01  0.20344380217E+02  0.26632207134E+03  0.26710625387E+03  0.00000000000E+00 0.  1.
          1    1    1    2  502    0  0.21003257599E+01 -0.20344380217E+02 -0.56535272982E+02  0.60121063413E+02  0.00000000000E+00 0.  1.
</event>
<event>
 4    1  0.8322090E+003  0.2281469E+02  0.7546771E-02  0.1494838E+00
          2   -1    0    0  502    0  0.00000000000E+00  0.00000000000E+00  0.76014454774E+03  0.76014454774E+03  0.00000000000E+00 0. -1.
          1   -1    0    0  501    0 -0.00000000000E+00 -0.00000000000E+00 -0.10595693170E+01  0.10595693170E+01  0.00000000000E+00 0. -1.
          2    1    1    2  501    0  0.14635536838E+02 -0.17501752855E+02  0.60591121607E+03  0.60634059080E+03  0.00000000000E+00 0. -1.
          1    1    1    2  502    0 -0.14635536838E+02  0.17501752855E+02  0.15317376234E+03  0.15486352625E+03  0.00000000000E+00 0. -1.
</event>
<event>
 4    1  0.8322090E+003  0.2947841E+02  0.7546771E-02  0.1424184E+00
          2   -1    0    0  502    0  0.00000000000E+00  0.00000000000E+00  0.42309334880E+03  0.42309334880E+03  0.00000000000E+00 0.  1.
          1   -1    0    0  501    0 -0.00000000000E+00 -0.00000000000E+00 -0.13281855465E+02  0.13281855465E+02  0.00000000000E+00 0. -1.
          2    1    1    2  501    0 -0.29425240019E+02  0.17697224006E+01  0.40551534574E+03  0.40658538131E+03  0.00000000000E+00 0.  1.
          1    1    1    2  502    0  0.29425240019E+02 -0.17697224006E+01  0.42961475993E+01  0.29789822955E+02  0.00000000000E+00 0. -1.
</event>
<event>
 4    1  0.8322090E+003  0.2555360E+02  0.7546771E-02  0.1462705E+00
          2   -1    0    0  502    0  0.00000000000E+00  0.00000000000E+00  0.24834661840E+03  0.24834661840E+03  0.00000000000E+00 0.  1.
          1   -1    0    0  501    0 -0.00000000000E+00 -0.00000000000E+00 -0.80476978600E+01  0.80476978600E+01  0.00000000000E+00 0. -1.
          2    1    1    2  501    0 -0.56699258764E+01  0.24916632403E+02  0.22533997522E+03  0.22678423901E+03  0.00000000000E+00 0.  1.
          1    1    1    2  502    0  0.56699258764E+01 -0.24916632403E+02  0.14958945317E+02  0.29610077251E+02  0.00000000000E+00 0. -1.
</event>
<event>
 4    1  0.8322090E+003  0.4809867E+02  0.7546771E-02  0.1306633E+00
          2   -1    0    0  502    0  0.00000000000E+00  0.00000000000E+00  0.21087894350E+01  0.21087894350E+01  0.00000000000E+00 0.  1.
          1   -1    0    0  501    0 -0.00000000000E+00 -0.00000000000E+00 -0.16069537380E+04  0.16069537380E+04  0.00000000000E+00 0.  1.
          2    1    1    2  501    0  0.26145212789E+02 -0.40372145171E+02 -0.34923457342E+03  0.35253123199E+03  0.00000000000E+00 0.  1.
          1    1    1    2  502    0 -0.26145212789E+02  0.40372145171E+02 -0.12556103751E+04  0.12565312954E+04  0.00000000000E+00 0.  1.
</event>
<event>
 4    1  0.8322090E+003  0.8413847E+02  0.7546771E-02  0.1194553E+00
          2   -1    0    0  502    0  0.00000000000E+00  0.00000000000E+00  0.10148689045E+03  0.10148689045E+03  0.00000000000E+00 0. -1.
          1   -1    0    0  501    0 -0.00000000000E+00 -0.00000000000E+00 -0.14081491214E+03  0.14081491214E+03  0.00000000000E+00 0.  1.
          2    1    1    2  501    0 -0.30581101068E+01  0.84082871992E+02  0.66398249945E+02  0.10718213002E+03  0.00000000000E+00 0. -1.
          1    1    1    2  502    0  0.30581101068E+01 -0.84082871992E+02 -0.10572627163E+03  0.13511967256E+03  0.00000000000E+00 0.  1.
</event>
<event>
 4    1  0.8322090E+003  0.2552892E+02  0.7546771E-02  0.1462973E+00
          2   -1    0    0  502    0  0.00000000000E+00  0.00000000000E+00  0.29439375112E+01  0.29439375112E+01  0.00000000000E+00 0.  1.
          1   -1    0    0  501    0 -0.00000000000E+00 -0.00000000000E+00 -0.22646692695E+03  0.22646692695E+03  0.00000000000E+00 0.  1.
          2    1    1    2  501    0 -0.21375581122E+02  0.13957414582E+02 -0.12895511292E+03  0.13145777283E+03  0.00000000000E+00 0.  1.
          1    1    1    2  502    0  0.21375581122E+02 -0.13957414582E+02 -0.94567876516E+02  0.97953091625E+02  0.00000000000E+00 0.  1.
</event>
<event>
 4    1  0.8322090E+003  0.2914476E+02  0.7546771E-02  0.1427177E+00
          2   -1    0    0  502    0  0.00000000000E+00  0.00000000000E+00  0.81703969524E+03  0.81703969524E+03  0.00000000000E+00 0.  1.
          1   -1    0    0  501    0 -0.00000000000E+00 -0.00000000000E+00 -0.24879443950E+02  0.24879443950E+02  0.00000000000E+00 0.  1.
          2    1    1    2  501    0 -0.19344406498E+01  0.29080491041E+02  0.80815060659E+03  0.80867596722E+03  0.00000000000E+00 0.  1.
          1    1    1    2  502    0  0.19344406498E+01 -0.29080491041E+02 -0.15990355305E+02  0.33243171970E+02  0.00000000000E+00 0.  1.
</event>
<event>
 4    1  0.8322090E+003  0.2378074E+02  0.7546771E-02  0.1482920E+00
          2   -1    0    0  502    0  0.00000000000E+00  0.00000000000E+00  0.57806290008E+01  0.57806290008E+01  0.00000000000E+00 0. -1.
          1   -1    0    0  501    0 -0.00000000000E+00 -0.00000000000E+00 -0.17382574035E+03  0.17382574035E+03  0.00000000000E+00 0.  1.
          2    1    1    2  501    0 -0.48347578780E+01 -0.23284085939E+02 -0.24644353726E+02  0.34247156266E+02  0.00000000000E+00 0. -1.
          1    1    1    2  502    0  0.48347578780E+01  0.23284085939E+02 -0.14340075762E+03  0.14535921308E+03  0.00000000000E+00 0.  1.
</event>
<event>
 4    1  0.8322090E+003  0.2165459E+02  0.7546771E-02  0.1510121E+00
          2   -1    0    0  502    0  0.00000000000E+00  0.00000000000E+00  0.24271426616E+01  0.24271426616E+01  0.00000000000E+00 0.  1.
          1   -1    0    0  501    0 -0.00000000000E+00 -0.00000000000E+00 -0.54098879506E+03  0.54098879506E+03  0.00000000000E+00 0. -1.
          2    1    1    2  501    0  0.14624155102E+02 -0.15970451193E+02 -0.51426224291E+02  0.55799442368E+02  0.00000000000E+00 0.  1.
          1    1    1    2  502    0 -0.14624155102E+02  0.15970451193E+02 -0.48713542811E+03  0.48761649535E+03  0.00000000000E+00 0. -1.
</event>
<event>
 4    1  0.8322090E+003  0.2773911E+02  0.7546771E-02  0.1440322E+00
          2   -1    0    0  502    0  0.00000000000E+00  0.00000000000E+00  0.51774236146E+03  0.51774236146E+03  0.00000000000E+00 0.  1.
          1   -1    0    0  501    0 -0.00000000000E+00 -0.00000000000E+00 -0.16021751205E+01  0.16021751205E+01  0.00000000000E+00 0.  1.
          2    1    1    2  501    0  0.18644207335E+02  0.20539025289E+02  0.32794022807E+03  0.32911130521E+03  0.00000000000E+00 0.  1.
          1    1    1    2  502    0 -0.18644207335E+02 -0.20539025289E+02  0.18819995827E+03  0.19023323138E+03  0.00000000000E+00 0.  1.
</event>
<event>
 4    1  0.8322090E+003  0.2160832E+02  0.7546771E-02  0.1510754E+00
          2   -1    0    0  502    0  0.00000000000E+00  0.00000000000E+00  0.12415766021E+04  0.12415766021E+04  0.00000000000E+00 0. -1.
          1   -1    0    0  501    0 -0.00000000000E+00 -0.00000000000E+00 -0.29479475676E+01  0.29479475676E+01  0.00000000000E+00 0.  1.
          2    1    1    2  501    0  0.19131049422E+02 -0.10046010377E+02  0.12005319355E+04  0.12007263833E+04  0.00000000000E+00 0. -1.
          1    1    1    2  502    0 -0.19131049422E+02  0.10046010377E+02  0.38096718995E+02  0.43798166339E+02  0.00000000000E+00 0.  1.
</event>
<event>
 4    1  0.8322090E+003  0.4437871E+02  0.7546771E-02  0.1324575E+00
          2   -1    0    0  502    0  0.00000000000E+00  0.00000000000E+00  0.18945990347E+03  0.18945990347E+03  0.00000000000E+00 0. -1.
          1   -1    0    0  501    0 -0.00000000000E+00 -0.00000000000E+00 -0.31353734231E+02  0.31353734231E+02  0.00000000000E+00 0. -1.
          2    1    1    2  501    0  0.36954682288E+02 -0.24572779102E+02  0.16932068735E+03  0.17503989597E+03  0.00000000000E+00 0. -1.
          1    1    1    2  502    0 -0.36954682288E+02  0.24572779102E+02 -0.11214518110E+02  0.45773741733E+02  0.00000000000E+00 0. -1.
</event>
<event>
 4    1  0.8322090E+003  0.2867249E+02  0.7546771E-02  0.1431494E+00
          2   -1    0    0  502    0  0.00000000000E+00  0.00000000000E+00  0.26681584245E+02  0.26681584245E+02  0.00000000000E+00 0. -1.
          1   -1    0    0  501    0 -0.00000000000E+00 -0.00000000000E+00 -0.10341953985E+03  0.10341953985E+03  0.00000000000E+00 0. -1.
          2    1    1    2  501    0  0.28486469048E+02 -0.32607653469E+01  0.16136578655E+02  0.32901378089E+02  0.00000000000E+00 0. -1.
          1    1    1    2  502    0 -0.28486469048E+02  0.32607653469E+01 -0.92874534256E+02  0.97199746001E+02  0.00000000000E+00 0. -1.
</event>
<event>
 4    1  0.8322090E+003  0.2062731E+02  0.7546771E-02  0.1524653E+00
          2   -1    0    0  502    0  0.00000000000E+00  0.00000000000E+00  0.62432429019E+03  0.62432429019E+03  0.00000000000E+00 0.  1.
          1   -1    0    0  501    0 -0.00000000000E+00 -0.00000000000E+00 -0.65222050587E+01  0.65222050587E+01  0.00000000000E+00 0.  1.
          2    1    1    2  501    0  0.20624469683E+02 -0.34245281694E+00  0.60739021049E+03  0.60774036712E+03  0.00000000000E+00 0.  1.
          1    1    1    2  502    0 -0.20624469683E+02  0.34245281694E+00  0.10411874638E+02  0.23106128129E+02  0.00000000000E+00 0.  1.
</event>
<event>
 4    1  0.8322090E+003  0.3008191E+02  0.7546771E-02  0.1418886E+00
          2   -1    0    0  502    0  0.00000000000E+00  0.00000000000E+00  0.23228481941E+03  0.23228481941E+03  0.00000000000E+00 0. -1.
          1   -1    0    0  501    0 -0.00000000000E+00 -0.00000000000E+00 -0.25002832368E+02  0.25002832368E+02  0.00000000000E+00 0.  1.
          2    1    1    2  501    0  0.57618692822E+00  0.30076394241E+02  0.22183856095E+03  0.22386886476E+03  0.00000000000E+00 0. -1.
          1    1    1    2  502    0 -0.57618692822E+00 -0.30076394241E+02 -0.14556573911E+02  0.33418787021E+02  0.00000000000E+00 0.  1.
</event>
<event>
 4    1  0.8322090E+003  0.2389996E+02  0.7546771E-02  0.1481496E+00
          2   -1    0    0  502    0  0.00000000000E+00  0.00000000000E+00  0.27195437246E+03  0.27195437246E+03  0.00000000000E+00 0.  1.
          1   -1    0    0  501    0 -0.00000000000E+00 -0.00000000000E+00 -0.42527184029E+01  0.42527184029E+01  0.00000000000E+00 0.  1.
          2    1    1    2  501    0 -0.12536733696E+02 -0.20347936458E+02  0.23209946490E+03  0.23332674475E+03  0.00000000000E+00 0.  1.
          1    1    1    2  502    0  0.12536733696E+02  0.20347936458E+02  0.35602189164E+02  0.42880346117E+02  0.00000000000E+00 0.  1.
</event>
<event>
 4    1  0.8322090E+003  0.2867751E+02  0.7546771E-02  0.1431448E+00
          2   -1    0    0  502    0  0.00000000000E+00  0.00000000000E+00  0.15870313256E+01  0.15870313256E+01  0.00000000000E+00 0. -1.
          1   -1    0    0  501    0 -0.00000000000E+00 -0.00000000000E+00 -0.55261516685E+03  0.55261516685E+03  0.00000000000E+00 0. -1.
          2    1    1    2  501    0 -0.28098980345E+02  0.57311732509E+01 -0.34466597019E+03  0.34585695027E+03  0.00000000000E+00 0. -1.
          1    1    1    2  502    0  0.28098980345E+02 -0.57311732509E+01 -0.20636216533E+03  0.20834524790E+03  0.00000000000E+00 0. -1.
</event>
<event>
 4    1  0.8322090E+003  0.2334552E+02  0.7546771E-02  0.1488204E+00
          2   -1    0    0  502    0  0.00000000000E+00  0.00000000000E+00  0.11399785685E+04  0.11399785685E+04  0.00000000000E+00 0.  1.
          1   -1    0    0  501    0 -0.00000000000E+00 -0.00000000000E+00 -0.18521232795E+01  0.18521232795E+01  0.00000000000E+00 0.  1.
          2    1    1    2  501    0  0.49021750989E+01 -0.22825031425E+02  0.10608029034E+04  0.10610597595E+04  0.00000000000E+00 0.  1.
          1    1    1    2  502    0 -0.49021750989E+01  0.22825031425E+02  0.77323541753E+02  0.80770932207E+02  0.00000000000E+00 0.  1.
</event>
<event>
 4    1  0.8322090E+003  0.2395367E+02  0.7546771E-02  0.1480858E+00
          2   -1    0    0  502    0  0.00000000000E+00  0.00000000000E+00  0.87846269290E+01  0.87846269290E+01  0.00000000000E+00 0. -1.
          1   -1    0    0  501    0 -0.00000000000E+00 -0.00000000000E+00 -0.63425357969E+03  0.63425357969E+03  0.00000000000E+00 0. -1.
          2    1    1    2  501    0 -0.10798956582E+02  0.21381322481E+02 -0.82202730213E+01  0.25324914667E+02  0.00000000000E+00 0. -1.
          1    1    1    2  502    0  0.10798956582E+02 -0.21381322481E+02 -0.61724867974E+03  0.61771329196E+03  0.00000000000E+00 0. -1.
</event>
<event>
 4    1  0.8322090E+003  0.3101567E+02  0.7546771E-02  0.1410971E+00
          2   -1    0    0  502    0  0.00000000000E+00  0.00000000000E+00  0.33838237185E+02  0.33838237185E+02  0.00000000000E+00 0.  1.
          1   -1    0    0  501    0 -0.00000000000E+00 -0.00000000000E+00 -0.10159104886E+03  0.10159104886E+03  0.00000000000E+00 0.  1.
          2    1    1    2  501    0  0.24450549575E+02  0.19082519911E+02  0.23588029447E+02  0.38966229916E+02  0.00000000000E+00 0.  1.
          1    1    1    2  502    0 -0.24450549575E+02 -0.19082519911E+02 -0.91340841118E+02  0.96463056124E+02  0.00000000000E+00 0.  1.
</event>
<event>
 4    1  0.8322090E+003  0.2592819E+02  0.7546771E-02  0.1458682E+00
          2   -1    0    0  502    0  0.00000000000E+00  0.00000000000E+00  0.12086919231E+04  0.12086919231E+04  0.00000000000E+00 0.  1.
          1   -1    0    0  501    0 -0.00000000000E+00 -0.00000000000E+00 -0.81158163750E+02  0.81158163750E+02  0.00000000000E+00 0. -1.
          2    1    1    2  501    0  0.22346000723E+02 -0.13150190452E+02  0.12064782068E+04  0.12067567836E+04  0.00000000000E+00 0.  1.
          1    1    1    2  502    0 -0.22346000723E+02  0.13150190452E+02 -0.78944447469E+02  0.83093303241E+02  0.00000000000E+00 0. -1.
</event>
<event>
 4    1  0.8322090E+003  0.3037559E+02  0.7546771E-02  0.1416360E+00
          2   -1    0    0  502    0  0.00000000000E+00  0.00000000000E+00  0.10904931782E+04  0.10904931782E+04  0.00000000000E+00 0.  1.
          1   -1    0    0  501    0 -0.00000000000E+00 -0.00000000000E+00 -0.33452123630E+02  0.33452123630E+02  0.00000000000E+00 0. -1.
          2    1    1    2  501    0 -0.27267537968E+02 -0.13384984621E+02  0.10833406339E+04  0.10837663981E+04  0.00000000000E+00 0.  1.
          1    1    1    2  502    0  0.27267537968E+02  0.13384984621E+02 -0.26299579311E+02  0.40178903819E+02  0.00000000000E+00 0. -1.
</event>
<event>
 4    1  0.8322090E+003  0.3489144E+02  0.7546771E-02  0.1381328E+00
          2   -1    0    0  502    0  0.00000000000E+00  0.00000000000E+00  0.27741313152E+01  0.27741313152E+01  0.00000000000E+00 0. -1.
          1   -1    0    0  501    0 -0.00000000000E+00 -0.00000000000E+00 -0.46971451432E+03  0.46971451432E+03  0.00000000000E+00 0. -1.
          2    1    1    2  501    0  0.44590211141E+01  0.34605344548E+02 -0.17290660123E+03  0.17639190880E+03  0.00000000000E+00 0. -1.
          1    1    1    2  502    0 -0.44590211141E+01 -0.34605344548E+02 -0.29403378178E+03  0.29609673684E+03  0.00000000000E+00 0. -1.
</event>
<event>
 4    1  0.8322090E+003  0.2513500E+02  0.7546771E-02  0.1467299E+00
          2   -1    0    0  502    0  0.00000000000E+00  0.00000000000E+00  0.15575530902E+04  0.15575530902E+04  0.00000000000E+00 0.  1.
          1   -1    0    0  501    0 -0.00000000000E+00 -0.00000000000E+00 -0.11916357779E+01  0.11916357779E+01  0.00000000000E+00 0.  1.
          2    1    1    2  501    0 -0.17078565842E+02  0.18441547111E+02  0.14111608019E+04  0.14113846311E+04  0.00000000000E+00 0.  1.
          1    1    1    2  502    0  0.17078565842E+02 -0.18441547111E+02  0.14520065250E+03  0.14736009486E+03  0.00000000000E+00 0.  1.
</event>
<event>
 4    1  0.8322090E+003  0.2065663E+02  0.7546771E-02  0.1524224E+00
          2   -1    0    0  502    0  0.00000000000E+00  0.00000000000E+00  0.64038133578E+00  0.64038133578E+00  0.00000000000E+00 0. -1.
          1   -1    0    0  501    0 -0.00000000000E+00 -0.00000000000E+00 -0.14910960415E+04  0.14910960415E+04  0.00000000000E+00 0.  1.
          2    1    1    2  501    0  0.18871493719E+02 -0.84001803843E+01 -0.19050202252E+03  0.19161867573E+03  0.00000000000E+00 0. -1.
          1    1    1    2  502    0 -0.18871493719E+02  0.84001803843E+01 -0.12999536376E+04  0.13001177471E+04  0.00000000000E+00 0.  1.
</event>
<event>
 4    1  0.8322090E+003  0.5224839E+02  0.7546771E-02  0.1288708E+00
          2   -1    0    0  502    0  0.00000000000E+00  0.00000000000E+00  0.42921562772E+04  0.42921562772E+04  0.00000000000E+00 0. -1.
          1   -1    0    0  501    0 -0.00000000000E+00 -0.00000000000E+00 -0.81826402041E+00  0.81826402041E+00  0.00000000000E+00 0. -1.
          2    1    1    2  501    0  0.51263072054E+02  0.10099079777E+02  0.31586682949E+04  0.31591003927E+04  0.00000000000E+00 0. -1.
          1    1    1    2  502    0 -0.51263072054E+02 -0.10099079777E+02  0.11326697183E+04  0.11338741485E+04  0.00000000000E+00 0. -1.
</event>
<event>
 4    1  0.8322090E+003  0.2056264E+02  0.7546771E-02  0.1525602E+00
          2   -1    0    0  502    0  0.00000000000E+00  0.00000000000E+00  0.11569989020E+03  0.11569989020E+03  0.00000000000E+00 0.  1.
          1   -1    0    0  501    0 -0.00000000000E+00 -0.00000000000E+00 -0.94756228700E+01  0.94756228700E+01  0.00000000000E+00 0.  1.
          2    1    1    2  501    0  0.17475672250E+02  0.10836193105E+02  0.10216787762E+03  0.10421658898E+03  0.00000000000E+00 0.  1.
          1    1    1    2  502    0 -0.17475672250E+02 -0.10836193105E+02  0.40563897135E+01  0.20958924092E+02  0.00000000000E+00 0.  1.
</event>
<event>
 4    1  0.8322090E+003  0.2055514E+02  0.7546771E-02  0.1525712E+00
          2   -1    0    0  502    0  0.00000000000E+00  0.00000000000E+00  0.37950385137E+03  0.37950385137E+03  0.00000000000E+00 0.  1.
          1   -1    0    0  501    0 -0.00000000000E+00 -0.00000000000E+00 -0.49935595118E+01  0.49935595118E+01  0.00000000000E+00 0.  1.
          2    1    1    2  501    0 -0.12843618243E+02 -0.16048527434E+02  0.35672283497E+03  0.35731455995E+03  0.00000000000E+00 0.  1.
          1    1    1    2  502    0  0.12843618243E+02  0.16048527434E+02  0.17787456892E+02  0.27182850937E+02  0.00000000000E+00 0.  1.
</event>
<event>
 4    1  0.8322090E+003  0.2112350E+02  0.7546771E-02  0.1517509E+00
          2   -1    0    0  502    0  0.00000000000E+00  0.00000000000E+00  0.21031121355E+02  0.21031121355E+02  0.00000000000E+00 0. -1.
          1   -1    0    0  501    0 -0.00000000000E+00 -0.00000000000E+00 -0.15766507577E+03  0.15766507577E+03  0.00000000000E+00 0.  1.
          2    1    1    2  501    0  0.22990371539E+01 -0.20998014451E+02  0.14802425646E+02  0.25793681159E+02  0.00000000000E+00 0. -1.
          1    1    1    2  502    0 -0.22990371539E+01  0.20998014451E+02 -0.15143638006E+03  0.15290251597E+03  0.00000000000E+00 0.  1.
</event>
<event>
 4    1  0.8322090E+003  0.2682873E+02  0.7546771E-02  0.1449336E+00
          2   -1    0    0  502    0  0.00000000000E+00  0.00000000000E+00  0.12981753027E+04  0.12981753027E+04  0.00000000000E+00 0.  1.
          1   -1    0    0  501    0 -0.00000000000E+00 -0.00000000000E+00 -0.36701966983E+01  0.36701966983E+01  0.00000000000E+00 0.  1.
          2    1    1    2  501    0  0.14071390483E+02  0.22842432310E+02  0.12469959182E+04  0.12472844907E+04  0.00000000000E+00 0.  1.
          1    1    1    2  502    0 -0.14071390483E+02 -0.22842432310E+02  0.47509187790E+02  0.54561008683E+02  0.00000000000E+00 0.  1.
</event>
<event>
 4    1  0.8322090E+003  0.2200184E+02  0.7546771E-02  0.1505427E+00
          2   -1    0    0  502    0  0.00000000000E+00  0.00000000000E+00  0.46706035426E+01  0.46706035426E+01  0.00000000000E+00 0. -1.
          1   -1    0    0  501    0 -0.00000000000E+00 -0.00000000000E+00 -0.90772867196E+03  0.90772867196E+03  0.00000000000E+00 0.  1.
          2    1    1    2  501    0 -0.21885779011E+01 -0.21892722697E+02 -0.22162951636E+02  0.31229434922E+02  0.00000000000E+00 0. -1.
          1    1    1    2  502    0  0.21885779011E+01  0.21892722697E+02 -0.88089511678E+03  0.88116984058E+03  0.00000000000E+00 0.  1.
</event>
<event>
 4    1  0.8322090E+003  0.2391338E+02  0.7546771E-02  0.1481337E+00
          2   -1    0    0  502    0  0.00000000000E+00  0.00000000000E+00  0.24048231263E+01  0.24048231263E+01  0.00000000000E+00 0.  1.
          1   -1    0    0  501    0 -0.00000000000E+00 -0.00000000000E+00 -0.61383253974E+03  0.61383253974E+03  0.00000000000E+00 0.  1.
          2    1    1    2  501    0  0.19748890113E+02  0.13484472558E+02 -0.64551267851E+02  0.68838331198E+02  0.00000000000E+00 0.  1.
          1    1    1    2  502    0 -0.19748890113E+02 -0.13484472558E+02 -0.54687644876E+03  0.54739903167E+03  0.00000000000E+00 0.  1.
</event>
<event>
 4    1  0.8322090E+003  0.6420616E+02  0.7546771E-02  0.1246174E+00
          2   -1    0    0  502    0  0.00000000000E+00  0.00000000000E+00  0.48530387579E+03  0.48530387579E+03  0.00000000000E+00 0.  1.
          1   -1    0    0  501    0 -0.00000000000E+00 -0.00000000000E+00 -0.17208371023E+02  0.17208371023E+02  0.00000000000E+00 0.  1.
          2    1    1    2  501    0 -0.47845102645E+02  0.42816788924E+02  0.41284113463E+03  0.41780406137E+03  0.00000000000E+00 0.  1.
          1    1    1    2  502    0  0.47845102645E+02 -0.42816788924E+02  0.55254370145E+02  0.84708185443E+02  0.00000000000E+00 0.  1.
</event>
<event>
 4    1  0.8322090E+003  0.2020824E+02  0.7546771E-02  0.1530876E+00
          2   -1    0    0  502    0  0.00000000000E+00  0.00000000000E+00  0.31398601166E+03  0.31398601166E+03  0.00000000000E+00 0.  1.
          1   -1    0    0  501    0 -0.00000000000E+00 -0.00000000000E+00 -0.19625337082E+02  0.19625337082E+02  0.00000000000E+00 0.  1.
          2    1    1    2  501    0 -0.16674791457E+02  0.11415968434E+02  0.30836400296E+03  0.30902545418E+03  0.00000000000E+00 0.  1.
          1    1    1    2  502    0  0.16674791457E+02 -0.11415968434E+02 -0.14003328389E+02  0.24585894562E+02  0.00000000000E+00 0.  1.
</event>
<event>
 4    1  0.8322090E+003  0.3174078E+02  0.7546771E-02  0.1405049E+00
          2   -1    0    0  502    0  0.00000000000E+00  0.00000000000E+00  0.13832261853E+04  0.13832261853E+04  0.00000000000E+00 0. -1.
          1   -1    0    0  501    0 -0.00000000000E+00 -0.00000000000E+00 -0.14967796336E+01  0.14967796336E+01  0.00000000000E+00 0. -1.
          2    1    1    2  501    0  0.31738462956E+02 -0.38323825752E+00  0.11869486560E+04  0.11873729780E+04  0.00000000000E+00 0. -1.
          1    1    1    2  502    0 -0.31738462956E+02  0.38323825752E+00  0.19478074967E+03  0.19734998694E+03  0.00000000000E+00 0. -1.
</event>
<event>
 4    1  0.8322090E+003  0.2093100E+02  0.7546771E-02  0.1520252E+00
          2   -1    0    0  502    0  0.00000000000E+00  0.00000000000E+00  0.11961629139E+04  0.11961629139E+04  0.00000000000E+00 0.  1.
          1   -1    0    0  501    0 -0.00000000000E+00 -0.00000000000E+00 -0.47639806659E+00  0.47639806659E+00  0.00000000000E+00 0.  1.
          2    1    1    2  501    0  0.24527370052E+00  0.20929560547E+02  0.88552807491E+03  0.88577541066E+03  0.00000000000E+00 0.  1.
          1    1    1    2  502    0 -0.24527370052E+00 -0.20929560547E+02  0.31015844097E+03  0.31086390136E+03  0.00000000000E+00 0.  1.
</event>
<event>
 4    1  0.8322090E+003  0.2791397E+02  0.7546771E-02  0.1438637E+00
          2   -1    0    0  502    0  0.00000000000E+00  0.00000000000E+00  0.88674752041E+03  0.88674752041E+03  0.00000000000E+00 0. -1.
          1   -1    0    0  501    0 -0.00000000000E+00 -0.00000000000E+00 -0.15209310780E+02  0.15209310780E+02  0.00000000000E+00 0. -1.
          2    1    1    2  501    0  0.27581980411E+02  0.42922991141E+01  0.87352627076E+03  0.87397215928E+03  0.00000000000E+00 0. -1.
          1    1    1    2  502    0 -0.27581980411E+02 -0.42922991141E+01 -0.19880611343E+01  0.27984671914E+02  0.00000000000E+00 0. -1.
</event>
<event>
 4    1  0.8322090E+003  0.2342923E+02  0.7546771E-02  0.1487177E+00
          2   -1    0    0  502    0  0.00000000000E+00  0.00000000000E+00  0.58314434993E+02  0.58314434993E+02  0.00000000000E+00 0.  1.
          1   -1    0    0  501    0 -0.00000000000E+00 -0.00000000000E+00 -0.13047478506E+02  0.13047478506E+02  0.00000000000E+00 0.  1.
          2    1    1    2  501    0  0.12023172126E+02 -0.20109011435E+02  0.41464706237E+02  0.47626157436E+02  0.00000000000E+00 0.  1.
          1    1    1    2  502    0 -0.12023172126E+02  0.20109011435E+02  0.38022502504E+01  0.23735756062E+02  0.00000000000E+00 0.  1.
</event>
<event>
 4    1  0.8322090E+003  0.2074989E+02  0.7546771E-02  0.1522866E+00
          2   -1    0    0  502    0  0.00000000000E+00  0.00000000000E+00  0.13646842574E+04  0.13646842574E+04  0.00000000000E+00 0.  1.
          1   -1    0    0  501    0 -0.00000000000E+00 -0.00000000000E+00 -0.22040600706E+01  0.22040600706E+01  0.00000000000E+00 0.  1.
          2    1    1    2  501    0 -0.20748967624E+02 -0.19585648912E+00  0.13138801938E+04  0.13140440334E+04  0.00000000000E+00 0.  1.
          1    1    1    2  502    0  0.20748967624E+02  0.19585648912E+00  0.48600003511E+02  0.52844284066E+02  0.00000000000E+00 0.  1.
</event>
<event>
 4    1  0.8322090E+003  0.2095831E+02  0.7546771E-02  0.1519861E+00
          2   -1    0    0  502    0  0.00000000000E+00  0.00000000000E+00  0.17158650865E+01  0.17158650865E+01  0.00000000000E+00 0. -1.
          1   -1    0    0  501    0 -0.00000000000E+00 -0.00000000000E+00 -0.32085242091E+03  0.32085242091E+03  0.00000000000E+00 0. -1.
          2    1    1    2  501    0 -0.17165767367E+02  0.12024441993E+02 -0.87054094322E+02  0.89541421213E+02  0.00000000000E+00 0. -1.
          1    1    1    2  502    0  0.17165767367E+02 -0.12024441993E+02 -0.23208246150E+03  0.23302686478E+03  0.00000000000E+00 0. -1.
</event>
<event>
 4    1  0.8322090E+003  0.2800135E+02  0.7546771E-02  0.1437801E+00
          2   -1    0    0  502    0  0.00000000000E+00  0.00000000000E+00  0.27877756405E+03  0.27877756405E+03  0.00000000000E+00 0.  1.
          1   -1    0    0  501    0 -0.00000000000E+00 -0.00000000000E+00 -0.10747377210E+03  0.10747377210E+03  0.00000000000E+00 0. -1.
          2    1    1    2  501    0  0.25231544192E+02  0.12142687795E+02  0.27623379717E+03  0.27764939472E+03  0.00000000000E+00 0.  1.
          1    1    1    2  502    0 -0.25231544192E+02 -0.12142687795E+02 -0.10493000521E+03  0.10860194143E+03  0.00000000000E+00 0. -1.
</event>
<event>
 4    1  0.8322090E+003  0.4898294E+02  0.7546771E-02  0.1302643E+00
          2   -1    0    0  502    0  0.00000000000E+00  0.00000000000E+00  0.12231088368E+04  0.12231088368E+04  0.00000000000E+00 0. -1.
          1   -1    0    0  501    0 -0.00000000000E+00 -0.00000000000E+00 -0.10374538132E+02  0.10374538132E+02  0.00000000000E+00 0. -1.
          2    1    1    2  501    0  0.48244331438E+02  0.84742598873E+01  0.11617482722E+04  0.11627804507E+04  0.00000000000E+00 0. -1.
          1    1    1    2  502    0 -0.48244331438E+02 -0.84742598873E+01  0.50986026423E+02  0.70702924175E+02  0.00000000000E+00 0. -1.
</event>
<event>
 4    1  0.8322090E+003  0.2052893E+02  0.7546771E-02  0.1526098E+00
          2   -1    0    0  502    0  0.00000000000E+00  0.00000000000E+00  0.20227223527E+01  0.20227223527E+01  0.00000000000E+00 0. -1.
          1   -1    0    0  501    0 -0.00000000000E+00 -0.00000000000E+00 -0.40669645835E+03  0.40669645835E+03  0.00000000000E+00 0. -1.
          2    1    1    2  501    0 -0.46403715696E+00  0.20523686480E+02 -0.59621573232E+02  0.63056871409E+02  0.00000000000E+00 0. -1.
          1    1    1    2  502    0  0.46403715696E+00 -0.20523686480E+02 -0.34505216276E+03  0.34566230929E+03  0.00000000000E+00 0. -1.
</event>
<event>
 4    1  0.1463470E+004  0.3030513E+02  0.7546771E-02  0.1416963E+00
          2   -1    0    0  502    0  0.00000000000E+00  0.00000000000E+00  0.66249302751E+03  0.66249302751E+03  0.00000000000E+00 0. -1.
          1   -1    0    0  501    0 -0.00000000000E+00 -0.00000000000E+00 -0.45662478797E+03  0.45662478797E+03  0.00000000000E+00 0.  1.
          2    1    1    2  501    0  0.20920762275E+02 -0.21925381364E+02  0.66164299175E+03  0.66233665848E+03  0.00000000000E+00 0. -1.
          1    1    1    2  502    0 -0.20920762275E+02  0.21925381364E+02 -0.45577475220E+03  0.45678115700E+03  0.00000000000E+00 0.  1.
</event>
<event>
 4    1  0.8322090E+003  0.2730972E+02  0.7546771E-02  0.1444521E+00
          2   -1    0    0  502    0  0.00000000000E+00  0.00000000000E+00  0.20593267891E+04  0.20593267891E+04  0.00000000000E+00 0.  1.
          1   -1    0    0  501    0 -0.00000000000E+00 -0.00000000000E+00 -0.36218068840E+00  0.36218068840E+00  0.00000000000E+00 0.  1.
          2    1    1    2  501    0  0.15475124799E+02  0.22502013247E+02  0.10231379279E+04  0.10235023398E+04  0.00000000000E+00 0.  1.
          1    1    1    2  502    0 -0.15475124799E+02 -0.22502013247E+02  0.10358266805E+04  0.10361866300E+04  0.00000000000E+00 0.  1.
</event>
<event>
 4    1  0.8322090E+003  0.4194942E+02  0.7546771E-02  0.1337426E+00
          2   -1    0    0  502    0  0.00000000000E+00  0.00000000000E+00  0.68232623189E+01  0.68232623189E+01  0.00000000000E+00 0. -1.
          1   -1    0    0  501    0 -0.00000000000E+00 -0.00000000000E+00 -0.12972011490E+04  0.12972011490E+04  0.00000000000E+00 0.  1.
          2    1    1    2  501    0  0.12828226211E+02  0.39939830174E+02 -0.61580288364E+02  0.74510974608E+02  0.00000000000E+00 0. -1.
          1    1    1    2  502    0 -0.12828226211E+02 -0.39939830174E+02 -0.12287975984E+04  0.12295134368E+04  0.00000000000E+00 0.  1.
</event>
<event>
 4    1  0.8322090E+003  0.2286995E+02  0.7546771E-02  0.1494138E+00
          2   -1    0    0  502    0  0.00000000000E+00  0.00000000000E+00  0.19511666623E+03  0.19511666623E+03  0.00000000000E+00 0.  1.
          1   -1    0    0  501    0 -0.00000000000E+00 -0.00000000000E+00 -0.73918128899E+02  0.73918128899E+02  0.00000000000E+00 0. -1.
          2    1    1    2  501    0 -0.22653529775E+02 -0.31388406993E+01  0.19265501961E+03  0.19400770942E+03  0.00000000000E+00 0.  1.
          1    1    1    2  502    0  0.22653529775E+02  0.31388406993E+01 -0.71456482274E+02  0.75027085717E+02  0.00000000000E+00 0. -1.
</event>
<event>
 4    1  0.8322090E+003  0.3837740E+02  0.7546771E-02  0.1358266E+00
          2   -1    0    0  502    0  0.00000000000E+00  0.00000000000E+00  0.15187502380E+02  0.15187502380E+02  0.00000000000E+00 0. -1.
          1   -1    0    0  501    0 -0.00000000000E+00 -0.00000000000E+00 -0.10985295157E+03  0.10985295157E+03  0.00000000000E+00 0. -1.
          2    1    1    2  501    0 -0.19102174742E+02 -0.33285606877E+02 -0.25927510541E+02  0.46314797937E+02  0.00000000000E+00 0. -1.
          1    1    1    2  502    0  0.19102174742E+02  0.33285606877E+02 -0.68737938650E+02  0.78725656014E+02  0.00000000000E+00 0. -1.
</event>
<event>
 4    1  0.8322090E+003  0.3049078E+02  0.7546771E-02  0.1415379E+00
          2   -1    0    0  502    0  0.00000000000E+00  0.00000000000E+00  0.11631458753E+04  0.11631458753E+04  0.00000000000E+00 0. -1.
          1   -1    0    0  501    0 -0.00000000000E+00 -0.00000000000E+00 -0.12293295119E+01  0.12293295119E+01  0.00000000000E+00 0. -1.
          2    1    1    2  501    0 -0.90774360944E+01 -0.29108205666E+02  0.92529587292E+03  0.92579810970E+03  0.00000000000E+00 0. -1.
          1    1    1    2  502    0  0.90774360944E+01  0.29108205666E+02  0.23662067291E+03  0.23857709515E+03  0.00000000000E+00 0. -1.
</event>
<event>
 4    1  0.8322090E+003  0.2012123E+02  0.7546771E-02  0.1532191E+00
          2   -1    0    0  502    0  0.00000000000E+00  0.00000000000E+00  0.13274891780E+03  0.13274891780E+03  0.00000000000E+00 0. -1.
          1   -1    0    0  501    0 -0.00000000000E+00 -0.00000000000E+00 -0.42937329455E+01  0.42937329455E+01  0.00000000000E+00 0. -1.
          2    1    1    2  501    0  0.18792080502E+02  0.71917656508E+01  0.10110825033E+03  0.10309094076E+03  0.00000000000E+00 0. -1.
          1    1    1    2  502    0 -0.18792080502E+02 -0.71917656508E+01  0.27346934524E+02  0.33951709981E+02  0.00000000000E+00 0. -1.
</event>
<event>
 4    1  0.8322090E+003  0.2664709E+02  0.7546771E-02  0.1451186E+00
          2   -1    0    0  502    0  0.00000000000E+00  0.00000000000E+00  0.35183193145E+03  0.35183193145E+03  0.00000000000E+00 0.  1.
          1   -1    0    0  501    0 -0.00000000000E+00 -0.00000000000E+00 -0.16076934267E+03  0.16076934267E+03  0.00000000000E+00 0.  1.
          2    1    1    2  501    0  0.16246303569E+01  0.26597513725E+02  0.35021813016E+03  0.35123041704E+03  0.00000000000E+00 0.  1.
          1    1    1    2  502    0 -0.16246303569E+01 -0.26597513725E+02 -0.15915554138E+03  0.16137085707E+03  0.00000000000E+00 0.  1.
</event>
<event>
 4    1  0.8322090E+003  0.2684805E+02  0.7546771E-02  0.1449140E+00
          2   -1    0    0  502    0  0.00000000000E+00  0.00000000000E+00  0.47157091555E+01  0.47157091555E+01  0.00000000000E+00 0. -1.
          1   -1    0    0  501    0 -0.00000000000E+00 -0.00000000000E+00 -0.53403648739E+03  0.53403648739E+03  0.00000000000E+00 0.  1.
          2    1    1    2  501    0 -0.10551761330E+02 -0.24687613010E+02 -0.37077444229E+02  0.45777229863E+02  0.00000000000E+00 0. -1.
          1    1    1    2  502    0  0.10551761330E+02  0.24687613010E+02 -0.49224333401E+03  0.49297496668E+03  0.00000000000E+00 0.  1.
</event>
<event>
 4    1  0.8322090E+003  0.2692625E+02  0.7546771E-02  0.1448350E+00
          2   -1    0    0  502    0  0.00000000000E+00  0.00000000000E+00  0.13692555981E+04  0.13692555981E+04  0.00000000000E+00 0.  1.
          1   -1    0    0  501    0 -0.00000000000E+00 -0.00000000000E+00 -0.10408240015E+02  0.10408240015E+02  0.00000000000E+00 0.  1.
          2    1    1    2  501    0 -0.25287424206E+02  0.92503603467E+01  0.13514795507E+04  0.13517477571E+04  0.00000000000E+00 0.  1.
          1    1    1    2  502    0  0.25287424206E+02 -0.92503603467E+01  0.73678073491E+01  0.27916080933E+02  0.00000000000E+00 0.  1.
</event>
<event>
 4    1  0.8322090E+003  0.2068080E+02  0.7546771E-02  0.1523871E+00
          2   -1    0    0  502    0  0.00000000000E+00  0.00000000000E+00  0.28279553758E+01  0.28279553758E+01  0.00000000000E+00 0. -1.
          1   -1    0    0  501    0 -0.00000000000E+00 -0.00000000000E+00 -0.28417217994E+03  0.28417217994E+03  0.00000000000E+00 0. -1.
          2    1    1    2  501    0 -0.20475993413E+02 -0.29033175329E+01 -0.42524680860E+02  0.47286827354E+02  0.00000000000E+00 0. -1.
          1    1    1    2  502    0  0.20475993413E+02  0.29033175329E+01 -0.23881954370E+03  0.23971330796E+03  0.00000000000E+00 0. -1.
</event>
<event>
 4    1  0.8322090E+003  0.2029728E+02  0.7546771E-02  0.1529539E+00
          2   -1    0    0  502    0  0.00000000000E+00  0.00000000000E+00  0.11534226699E+04  0.11534226699E+04  0.00000000000E+00 0.  1.
          1   -1    0    0  501    0 -0.00000000000E+00 -0.00000000000E+00 -0.95811988349E+00  0.95811988349E+00  0.00000000000E+00 0.  1.
          2    1    1    2  501    0 -0.57291118360E+01 -0.19471945988E+02  0.10333464789E+04  0.10335458020E+04  0.00000000000E+00 0.  1.
          1    1    1    2  502    0  0.57291118360E+01  0.19471945988E+02  0.11911807110E+03  0.12083498776E+03  0.00000000000E+00 0.  1.
</event>
<event>
 4    1  0.8322090E+003  0.2331392E+02  0.7546771E-02  0.1488593E+00
          2   -1    0    0  502    0  0.00000000000E+00  0.00000000000E+00  0.63174854023E+03  0.63174854023E+03  0.00000000000E+00 0.  1.
          1   -1    0    0  501    0 -0.00000000000E+00 -0.00000000000E+00 -0.16108944702E+01  0.16108944702E+01  0.00000000000E+00 0. -1.
          2    1    1    2  501    0 -0.10921211000E+02  0.20597717382E+02  0.53122543618E+03  0.53173677967E+03  0.00000000000E+00 0.  1.
          1    1    1    2  502    0  0.10921211000E+02 -0.20597717382E+02  0.98912209580E+02  0.10162265503E+03  0.00000000000E+00 0. -1.
</event>
<event>
 4    1  0.8322090E+003  0.3442548E+02  0.7546771E-02  0.1384648E+00
          2   -1    0    0  502    0  0.00000000000E+00  0.00000000000E+00  0.57801753129E+03  0.57801753129E+03  0.00000000000E+00 0.  1.
          1   -1    0    0  501    0 -0.00000000000E+00 -0.00000000000E+00 -0.23559314399E+01  0.23559314399E+01  0.00000000000E+00 0.  1.
          2    1    1    2  501    0 -0.49292809289E+01 -0.34070747700E+02  0.39234852217E+03  0.39385590831E+03  0.00000000000E+00 0.  1.
          1    1    1    2  502    0  0.49292809289E+01  0.34070747700E+02  0.18331307767E+03  0.18651755442E+03  0.00000000000E+00 0.  1.
</event>
<event>
 4    1  0.8322090E+003  0.2375930E+02  0.7546771E-02  0.1483177E+00
          2   -1    0    0  502    0  0.00000000000E+00  0.00000000000E+00  0.44844562447E+01  0.44844562447E+01  0.00000000000E+00 0. -1.
          1   -1    0    0  501    0 -0.00000000000E+00 -0.00000000000E+00 -0.91760024659E+03  0.91760024659E+03  0.00000000000E+00 0.  1.
          2    1    1    2  501    0  0.80754685399E+01 -0.22344825245E+02 -0.28305429742E+02  0.36955402315E+02  0.00000000000E+00 0. -1.
          1    1    1    2  502    0 -0.80754685399E+01  0.22344825245E+02 -0.88481036060E+03  0.88512930052E+03  0.00000000000E+00 0.  1.
</event>
<event>
 4    1  0.8322090E+003  0.2647441E+02  0.7546771E-02  0.1452960E+00
          2   -1    0    0  502    0  0.00000000000E+00  0.00000000000E+00  0.12934787464E+03  0.12934787464E+03  0.00000000000E+00 0. -1.
          1   -1    0    0  501    0 -0.00000000000E+00 -0.00000000000E+00 -0.13546235733E+03  0.13546235733E+03  0.00000000000E+00 0.  1.
          2    1    1    2  501    0  0.30447113020E+01 -0.26298751903E+02  0.12667265590E+03  0.12940964558E+03  0.00000000000E+00 0. -1.
          1    1    1    2  502    0 -0.30447113020E+01  0.26298751903E+02 -0.13278713859E+03  0.13540058639E+03  0.00000000000E+00 0.  1.
</event>
<event>
 4    1  0.8322090E+003  0.2428179E+02  0.7546771E-02  0.1477001E+00
          2   -1    0    0  502    0  0.00000000000E+00  0.00000000000E+00  0.73186275727E+01  0.73186275727E+01  0.00000000000E+00 0.  1.
          1   -1    0    0  501    0 -0.00000000000E+00 -0.00000000000E+00 -0.10835822219E+03  0.10835822219E+03  0.00000000000E+00 0.  1.
          2    1    1    2  501    0  0.96375433719E+01  0.22287289746E+02 -0.21225977541E+02  0.32251320113E+02  0.00000000000E+00 0.  1.
          1    1    1    2  502    0 -0.96375433719E+01 -0.22287289746E+02 -0.79813617078E+02  0.83425529651E+02  0.00000000000E+00 0.  1.
</event>
<event>
 4    1  0.8322090E+003  0.2363652E+02  0.7546771E-02  0.1484656E+00
          2   -1    0    0  502    0  0.00000000000E+00  0.00000000000E+00  0.11034165175E+02  0.11034165175E+02  0.00000000000E+00 0. -1.
          1   -1    0    0  501    0 -0.00000000000E+00 -0.00000000000E+00 -0.81891912195E+02  0.81891912195E+02  0.00000000000E+00 0. -1.
          2    1    1    2  501    0  0.23268796410E+02  0.41531017115E+01 -0.67224617834E+01  0.24573901453E+02  0.00000000000E+00 0. -1.
          1    1    1    2  502    0 -0.23268796410E+02 -0.41531017115E+01 -0.64135285236E+02  0.68352175917E+02  0.00000000000E+00 0. -1.
</event>
<event>
 4    1  0.8322090E+003  0.2137298E+02  0.7546771E-02  0.1514006E+00
          2   -1    0    0  502    0  0.00000000000E+00  0.00000000000E+00  0.96839826529E+03  0.96839826529E+03  0.00000000000E+00 0. -1.
          1   -1    0    0  501    0 -0.00000000000E+00 -0.00000000000E+00 -0.84265281839E+01  0.84265281839E+01  0.00000000000E+00 0. -1.
          2    1    1    2  501    0 -0.13363992671E+02 -0.16679563317E+02  0.95453091110E+03  0.95477016312E+03  0.00000000000E+00 0. -1.
          1    1    1    2  502    0  0.13363992671E+02  0.16679563317E+02  0.54408260065E+01  0.22054630357E+02  0.00000000000E+00 0. -1.
</event>
<event>
 4    1  0.8322090E+003  0.2534458E+02  0.7546771E-02  0.1464985E+00
          2   -1    0    0  502    0  0.00000000000E+00  0.00000000000E+00  0.58729910305E+03  0.58729910305E+03  0.00000000000E+00 0. -1.
          1   -1    0    0  501    0 -0.00000000000E+00 -0.00000000000E+00 -0.17142797173E+01  0.17142797173E+01  0.00000000000E+00 0. -1.
          2    1    1    2  501    0 -0.20329124527E+02  0.15135212462E+02  0.46998348237E+03  0.47066635917E+03  0.00000000000E+00 0. -1.
          1    1    1    2  502    0  0.20329124527E+02 -0.15135212462E+02  0.11560134096E+03  0.11834702359E+03  0.00000000000E+00 0. -1.
</event>
<event>
 4    1  0.8322090E+003  0.2297963E+02  0.7546771E-02  0.1492754E+00
          2   -1    0    0  502    0  0.00000000000E+00  0.00000000000E+00  0.11918235525E+02  0.11918235525E+02  0.00000000000E+00 0.  1.
          1   -1    0    0  501    0 -0.00000000000E+00 -0.00000000000E+00 -0.29903657168E+03  0.29903657168E+03  0.00000000000E+00 0.  1.
          2    1    1    2  501    0 -0.20702746064E+02  0.99729494017E+01 -0.61562093503E-01  0.22979712884E+02  0.00000000000E+00 0.  1.
          1    1    1    2  502    0  0.20702746064E+02 -0.99729494017E+01 -0.28705677406E+03  0.28797509432E+03  0.00000000000E+00 0.  1.
</event>
<event>
 4    1  0.8322090E+003  0.2810908E+02  0.7546771E-02  0.1436774E+00
          2   -1    0    0  502    0  0.00000000000E+00  0.00000000000E+00  0.10309858007E+03  0.10309858007E+03  0.00000000000E+00 0. -1.
          1   -1    0    0  501    0 -0.00000000000E+00 -0.00000000000E+00 -0.80074801080E+01  0.80074801080E+01  0.00000000000E+00 0. -1.
          2    1    1    2  501    0 -0.24811052770E+02 -0.13211066017E+02  0.59055556755E+02  0.65403970740E+02  0.00000000000E+00 0. -1.
          1    1    1    2  502    0  0.24811052770E+02  0.13211066017E+02  0.36035543207E+02  0.45702089439E+02  0.00000000000E+00 0. -1.
</event>
<event>
 4    1  0.8322090E+003  0.2308513E+02  0.7546771E-02  0.1491432E+00
          2   -1    0    0  502    0  0.00000000000E+00  0.00000000000E+00  0.73174895664E+03  0.73174895664E+03  0.00000000000E+00 0. -1.
          1   -1    0    0  501    0 -0.00000000000E+00 -0.00000000000E+00 -0.10025922162E+01  0.10025922162E+01  0.00000000000E+00 0. -1.
          2    1    1    2  501    0 -0.56501496945E+01  0.22383011146E+02  0.55701111645E+03  0.55748928890E+03  0.00000000000E+00 0. -1.
          1    1    1    2  502    0  0.56501496945E+01 -0.22383011146E+02  0.17373524797E+03  0.17526225996E+03  0.00000000000E+00 0. -1.
</event>
<event>
 4    1  0.8322090E+003  0.5296274E+02  0.7546771E-02  0.1285814E+00
          2   -1    0    0  502    0  0.00000000000E+00  0.00000000000E+00  0.22080698211E+02  0.22080698211E+02  0.00000000000E+00 0.  1.
          1   -1    0    0  501    0 -0.00000000000E+00 -0.00000000000E+00 -0.12956124582E+04  0.12956124582E+04  0.00000000000E+00 0.  1.
          2    1    1    2  501    0 -0.49786697474E+02  0.18064797573E+02 -0.11052803388E+02  0.54103757905E+02  0.00000000000E+00 0.  1.
          1    1    1    2  502    0  0.49786697474E+02 -0.18064797573E+02 -0.12624789566E+04  0.12635893985E+04  0.00000000000E+00 0.  1.
</event>
<event>
 4    1  0.8322090E+003  0.2553318E+02  0.7546771E-02  0.1462926E+00
          2   -1    0    0  502    0  0.00000000000E+00  0.00000000000E+00  0.39855768929E+02  0.39855768929E+02  0.00000000000E+00 0. -1.
          1   -1    0    0  501    0 -0.00000000000E+00 -0.00000000000E+00 -0.25013660707E+02  0.25013660707E+02  0.00000000000E+00 0. -1.
          2    1    1    2  501    0  0.45433277396E+01 -0.25125715290E+02  0.26501232920E+02  0.36800254647E+02  0.00000000000E+00 0. -1.
          1    1    1    2  502    0 -0.45433277396E+01  0.25125715290E+02 -0.11659124698E+02  0.28069174988E+02  0.00000000000E+00 0. -1.
</event>
<event>
 4    1  0.8322090E+003  0.2159971E+02  0.7546771E-02  0.1510872E+00
          2   -1    0    0  502    0  0.00000000000E+00  0.00000000000E+00  0.26973037399E+00  0.26973037399E+00  0.00000000000E+00 0. -1.
          1   -1    0    0  501    0 -0.00000000000E+00 -0.00000000000E+00 -0.18274001586E+04  0.18274001586E+04  0.00000000000E+00 0. -1.
          2    1    1    2  501    0  0.45877499906E+01 -0.21106867920E+02 -0.70224440178E+03  0.70257650627E+03  0.00000000000E+00 0. -1.
          1    1    1    2  502    0 -0.45877499906E+01  0.21106867920E+02 -0.11248860264E+04  0.11250933827E+04  0.00000000000E+00 0. -1.
</event>
<event>
 4    1  0.8322090E+003  0.3501787E+02  0.7546771E-02  0.1380438E+00
          2   -1    0    0  502    0  0.00000000000E+00  0.00000000000E+00  0.24252542698E+01  0.24252542698E+01  0.00000000000E+00 0. -1.
          1   -1    0    0  501    0 -0.00000000000E+00 -0.00000000000E+00 -0.62995645356E+03  0.62995645356E+03  0.00000000000E+00 0.  1.
          2    1    1    2  501    0 -0.97730853970E+01 -0.33626450742E+02 -0.17329114197E+03  0.17679386661E+03  0.00000000000E+00 0. -1.
          1    1    1    2  502    0  0.97730853970E+01  0.33626450742E+02 -0.45424005733E+03  0.45558784122E+03  0.00000000000E+00 0.  1.
</event>
<event>
 4    1  0.8322090E+003  0.5389099E+02  0.7546771E-02  0.1282130E+00
          2   -1    0    0  502    0  0.00000000000E+00  0.00000000000E+00  0.65748393274E+01  0.65748393274E+01  0.00000000000E+00 0.  1.
          1   -1    0    0  501    0 -0.00000000000E+00 -0.00000000000E+00 -0.10791273443E+04  0.10791273443E+04  0.00000000000E+00 0. -1.
          2    1    1    2  501    0 -0.46041899860E+02  0.28006824036E+02 -0.11906802731E+03  0.13069595962E+03  0.00000000000E+00 0.  1.
          1    1    1    2  502    0  0.46041899860E+02 -0.28006824036E+02 -0.95348447763E+03  0.95500622396E+03  0.00000000000E+00 0. -1.
</event>
<event>
 4    1  0.8322090E+003  0.2046192E+02  0.7546771E-02  0.1527088E+00
          2   -1    0    0  502    0  0.00000000000E+00  0.00000000000E+00  0.69703648357E+01  0.69703648357E+01  0.00000000000E+00 0. -1.
          1   -1    0    0  501    0 -0.00000000000E+00 -0.00000000000E+00 -0.67916936634E+02  0.67916936634E+02  0.00000000000E+00 0. -1.
          2    1    1    2  501    0 -0.19867075173E+02  0.48979224634E+01 -0.17743631944E+02  0.27083699802E+02  0.00000000000E+00 0. -1.
          1    1    1    2  502    0  0.19867075173E+02 -0.48979224634E+01 -0.43202939854E+02  0.47803601668E+02  0.00000000000E+00 0. -1.
</event>
<event>
 4    1  0.8322090E+003  0.2756798E+02  0.7546771E-02  0.1441985E+00
          2   -1    0    0  502    0  0.00000000000E+00  0.00000000000E+00  0.64799130771E+01  0.64799130771E+01  0.00000000000E+00 0. -1.
          1   -1    0    0  501    0 -0.00000000000E+00 -0.00000000000E+00 -0.25153734650E+03  0.25153734650E+03  0.00000000000E+00 0. -1.
          2    1    1    2  501    0  0.11478195742E+02  0.25064806512E+02 -0.28279176128E+02  0.39493104531E+02  0.00000000000E+00 0. -1.
          1    1    1    2  502    0 -0.11478195742E+02 -0.25064806512E+02 -0.21677825730E+03  0.21852415505E+03  0.00000000000E+00 0. -1.
</event>
<event>
 4    1  0.8322090E+003  0.2012500E+02  0.7546771E-02  0.1532133E+00
          2   -1    0    0  502    0  0.00000000000E+00  0.00000000000E+00  0.22954089450E+03  0.22954089450E+03  0.00000000000E+00 0. -1.
          1   -1    0    0  501    0 -0.00000000000E+00 -0.00000000000E+00 -0.11682598980E+03  0.11682598980E+03  0.00000000000E+00 0.  1.
          2    1    1    2  501    0  0.18714311411E+02  0.74020375067E+01  0.22822809688E+03  0.22911368317E+03  0.00000000000E+00 0. -1.
          1    1    1    2  502    0 -0.18714311411E+02 -0.74020375067E+01 -0.11551319218E+03  0.11725320114E+03  0.00000000000E+00 0.  1.
</event>
<event>
 4    1  0.8322090E+003  0.2314487E+02  0.7546771E-02  0.1490687E+00
          2   -1    0    0  502    0  0.00000000000E+00  0.00000000000E+00  0.90300393016E+02  0.90300393016E+02  0.00000000000E+00 0. -1.
          1   -1    0    0  501    0 -0.00000000000E+00 -0.00000000000E+00 -0.29887974822E+03  0.29887974822E+03  0.00000000000E+00 0.  1.
          2    1    1    2  501    0  0.80632157271E+01  0.21694924475E+02  0.88359572309E+02  0.91340567189E+02  0.00000000000E+00 0. -1.
          1    1    1    2  502    0 -0.80632157271E+01 -0.21694924475E+02 -0.29693892752E+03  0.29783957405E+03  0.00000000000E+00 0.  1.
</event>
<event>
 4    1  0.8322090E+003  0.2324935E+02  0.7546771E-02  0.1489391E+00
          2   -1    0    0  502    0  0.00000000000E+00  0.00000000000E+00  0.39302949929E+01  0.39302949929E+01  0.00000000000E+00 0. -1.
          1   -1    0    0  501    0 -0.00000000000E+00 -0.00000000000E+00 -0.20667806290E+03  0.20667806290E+03  0.00000000000E+00 0. -1.
          2    1    1    2  501    0 -0.17715975133E+02  0.15055777300E+02 -0.40463766737E+02  0.46667425722E+02  0.00000000000E+00 0. -1.
          1    1    1    2  502    0  0.17715975133E+02 -0.15055777300E+02 -0.16228400117E+03  0.16394093217E+03  0.00000000000E+00 0. -1.
</event>
<event>
 4    1  0.8322090E+003  0.2704836E+02  0.7546771E-02  0.1447123E+00
          2   -1    0    0  502    0  0.00000000000E+00  0.00000000000E+00  0.10753397499E+04  0.10753397499E+04  0.00000000000E+00 0. -1.
          1   -1    0    0  501    0 -0.00000000000E+00 -0.00000000000E+00 -0.81077654620E+01  0.81077654620E+01  0.00000000000E+00 0.  1.
          2    1    1    2  501    0 -0.20740233078E+00  0.27047566405E+02  0.10521126684E+04  0.10524602989E+04  0.00000000000E+00 0. -1.
          1    1    1    2  502    0  0.20740233078E+00 -0.27047566405E+02  0.15119316064E+02  0.30987216435E+02  0.00000000000E+00 0.  1.
</event>
<event>
 4    1  0.8322090E+003  0.3362952E+02  0.7546771E-02  0.1390463E+00
          2   -1    0    0  502    0  0.00000000000E+00  0.00000000000E+00  0.18368029069E+03  0.18368029069E+03  0.00000000000E+00 0. -1.
          1   -1    0    0  501    0 -0.00000000000E+00 -0.00000000000E+00 -0.24932933021E+02  0.24932933021E+02  0.00000000000E+00 0.  1.
          2    1    1    2  501    0  0.19849486980E+02  0.27146679947E+02  0.16988947060E+03  0.17318595955E+03  0.00000000000E+00 0. -1.
          1    1    1    2  502    0 -0.19849486980E+02 -0.27146679947E+02 -0.11142112927E+02  0.35427264162E+02  0.00000000000E+00 0.  1.
</event>
<event>
 4    1  0.8322090E+003  0.6629031E+02  0.7546771E-02  0.1239838E+00
          2   -1    0    0  502    0  0.00000000000E+00  0.00000000000E+00  0.19439348448E+04  0.19439348448E+04  0.00000000000E+00 0. -1.
          1   -1    0    0  501    0 -0.00000000000E+00 -0.00000000000E+00 -0.35892434390E+01  0.35892434390E+01  0.00000000000E+00 0. -1.
          2    1    1    2  501    0  0.44699429335E+02 -0.48952698626E+02  0.15626342545E+04  0.15640397115E+04  0.00000000000E+00 0. -1.
          1    1    1    2  502    0 -0.44699429335E+02  0.48952698626E+02  0.37771134679E+03  0.38348437671E+03  0.00000000000E+00 0. -1.
</event>
<event>
 4    1  0.8322090E+003  0.2161461E+02  0.7546771E-02  0.1510668E+00
          2   -1    0    0  502    0  0.00000000000E+00  0.00000000000E+00  0.51410792601E+02  0.51410792601E+02  0.00000000000E+00 0. -1.
          1   -1    0    0  501    0 -0.00000000000E+00 -0.00000000000E+00 -0.80581179651E+03  0.80581179651E+03  0.00000000000E+00 0.  1.
          2    1    1    2  501    0  0.19731735395E+02  0.88232669745E+01  0.48987141011E+02  0.53543733585E+02  0.00000000000E+00 0. -1.
          1    1    1    2  502    0 -0.19731735395E+02 -0.88232669745E+01 -0.80338814492E+03  0.80367885553E+03  0.00000000000E+00 0.  1.
</event>
<event>
 4    1  0.8322090E+003  0.2556131E+02  0.7546771E-02  0.1462621E+00
          2   -1    0    0  502    0  0.00000000000E+00  0.00000000000E+00  0.19210514352E+02  0.19210514352E+02  0.00000000000E+00 0.  1.
          1   -1    0    0  501    0 -0.00000000000E+00 -0.00000000000E+00 -0.44549430751E+03  0.44549430751E+03  0.00000000000E+00 0. -1.
          2    1    1    2  501    0 -0.61555216772E+01  0.24809076999E+02  0.10164871743E+02  0.27508278140E+02  0.00000000000E+00 0.  1.
          1    1    1    2  502    0  0.61555216772E+01 -0.24809076999E+02 -0.43644866490E+03  0.43719654372E+03  0.00000000000E+00 0. -1.
</event>
<event>
 4    1  0.1355777E+004  0.2977575E+02  0.7546771E-02  0.1421555E+00
          2   -1    0    0  502    0  0.00000000000E+00  0.00000000000E+00  0.19065775886E+04  0.19065775886E+04  0.00000000000E+00 0. -1.
          1   -1    0    0  501    0 -0.00000000000E+00 -0.00000000000E+00 -0.35240829091E+03  0.35240829091E+03  0.00000000000E+00 0.  1.
          2    1    1    2  501    0 -0.19911066801E+02 -0.22139216478E+02  0.19058321330E+04  0.19060647194E+04  0.00000000000E+00 0. -1.
          1    1    1    2  502    0  0.19911066801E+02  0.22139216478E+02 -0.35166283532E+03  0.35292116008E+03  0.00000000000E+00 0.  1.
</event>
