<event>
 4    1  0.5696713E+002  0.2290289E+02  0.7546771E-02  0.1493721E+00
          2   -1    0    0  503    0  0.00000000000E+00  0.00000000000E+00  0.16596610461E+04  0.16596610461E+04  0.00000000000E+00 0. -1.
         -2   -1    0    0    0  501 -0.00000000000E+00 -0.00000000000E+00 -0.34641820727E+00  0.34641820727E+00  0.00000000000E+00 0.  1.
         21    1    1    2  502  501  0.62614299727E+01 -0.22030359986E+02  0.58392530951E+03  0.58437428875E+03  0.00000000000E+00 0.  1.
         21    1    1    2  503  502 -0.62614299727E+01  0.22030359986E+02  0.10753893184E+04  0.10756331755E+04  0.00000000000E+00 0. -1.
</event>
<event>
 4    1  0.5696713E+002  0.2430401E+02  0.7546771E-02  0.1476742E+00
          2   -1    0    0  502    0  0.00000000000E+00  0.00000000000E+00  0.14260733381E+04  0.14260733381E+04  0.00000000000E+00 0.  1.
         -2   -1    0    0    0  501 -0.00000000000E+00 -0.00000000000E+00 -0.76985828252E+00  0.76985828252E+00  0.00000000000E+00 0. -1.
         21    1    1    2  502  503 -0.18958633247E+02  0.15207072334E+02  0.11975549698E+04  0.11978015656E+04  0.00000000000E+00 0.  1.
         21    1    1    2  503  501  0.18958633247E+02 -0.15207072334E+02  0.22774851005E+03  0.22904163083E+03  0.00000000000E+00 0. -1.
</event>
<event>
 4    1  0.5696713E+002  0.2233748E+02  0.7546771E-02  0.1500989E+00
          2   -1    0    0  502    0  0.00000000000E+00  0.00000000000E+00  0.11276941854E+03  0.11276941854E+03  0.00000000000E+00 0. -1.
         -2   -1    0    0    0  501 -0.00000000000E+00 -0.00000000000E+00 -0.13355148648E+02  0.13355148648E+02  0.00000000000E+00 0.  1.
         21    1    1    2  502  503 -0.10809830470E+02  0.19547653444E+02  0.10127553053E+03  0.10370967300E+03  0.00000000000E+00 0. -1.
         21    1    1    2  503  501  0.10809830470E+02 -0.19547653444E+02 -0.18612606430E+01  0.22414894181E+02  0.00000000000E+00 0.  1.
</event>
<event>
 4    1  0.5696713E+002  0.2145614E+02  0.7546771E-02  0.1512851E+00
          2   -1    0    0  503    0  0.00000000000E+00  0.00000000000E+00  0.41559957356E+03  0.41559957356E+03  0.00000000000E+00 0. -1.
         -2   -1    0    0    0  501 -0.00000000000E+00 -0.00000000000E+00 -0.22440728328E+01  0.22440728328E+01  0.00000000000E+00 0.  1.
         21    1    1    2  502  501 -0.14994077377E+02  0.15347426965E+02  0.58007903883E+02  0.61848870513E+02  0.00000000000E+00 0.  1.
         21    1    1    2  503  502  0.14994077377E+02 -0.15347426965E+02  0.35534759684E+03  0.35599477588E+03  0.00000000000E+00 0. -1.
</event>
<event>
 4    1  0.5696713E+002  0.2940579E+02  0.7546771E-02  0.1424831E+00
          2   -1    0    0  503    0  0.00000000000E+00  0.00000000000E+00  0.14168181108E+03  0.14168181108E+03  0.00000000000E+00 0. -1.
         -2   -1    0    0    0  501 -0.00000000000E+00 -0.00000000000E+00 -0.19096361095E+02  0.19096361095E+02  0.00000000000E+00 0.  1.
         21    1    1    2  502  501 -0.27296975608E+02  0.10935075782E+02 -0.50175105092E+01  0.29830792336E+02  0.00000000000E+00 0.  1.
         21    1    1    2  503  502  0.27296975608E+02 -0.10935075782E+02  0.12760296049E+03  0.13094737984E+03  0.00000000000E+00 0. -1.
</event>
<event>
 4    1  0.5696713E+002  0.2523646E+02  0.7546771E-02  0.1466175E+00
          2   -1    0    0  502    0  0.00000000000E+00  0.00000000000E+00  0.35578226725E+03  0.35578226725E+03  0.00000000000E+00 0.  1.
         -2   -1    0    0    0  501 -0.00000000000E+00 -0.00000000000E+00 -0.22552506571E+01  0.22552506571E+01  0.00000000000E+00 0. -1.
         21    1    1    2  502  503  0.22046928843E+02  0.12280538806E+02  0.25806664667E+03  0.25929765296E+03  0.00000000000E+00 0.  1.
         21    1    1    2  503  501 -0.22046928843E+02 -0.12280538806E+02  0.95460369922E+02  0.98739864951E+02  0.00000000000E+00 0. -1.
</event>
<event>
 4    1  0.5696713E+002  0.2124073E+02  0.7546771E-02  0.1515855E+00
          2   -1    0    0  502    0  0.00000000000E+00  0.00000000000E+00  0.24086814738E+02  0.24086814738E+02  0.00000000000E+00 0.  1.
         -2   -1    0    0    0  501 -0.00000000000E+00 -0.00000000000E+00 -0.10640041641E+03  0.10640041641E+03  0.00000000000E+00 0. -1.
         21    1    1    2  502  503 -0.11018938621E+02 -0.18159065443E+02  0.18066221131E+02  0.27884709287E+02  0.00000000000E+00 0.  1.
         21    1    1    2  503  501  0.11018938621E+02  0.18159065443E+02 -0.10037982280E+03  0.10260252186E+03  0.00000000000E+00 0. -1.
</event>
<event>
 4    1  0.5696713E+002  0.3127606E+02  0.7546771E-02  0.1408822E+00
          2   -1    0    0  502    0  0.00000000000E+00  0.00000000000E+00  0.71523945430E+03  0.71523945430E+03  0.00000000000E+00 0.  1.
         -2   -1    0    0    0  501 -0.00000000000E+00 -0.00000000000E+00 -0.14354505374E+01  0.14354505374E+01  0.00000000000E+00 0. -1.
         21    1    1    2  502  503  0.30499951832E+02 -0.69242436773E+01  0.43478401424E+03  0.43590748015E+03  0.00000000000E+00 0.  1.
         21    1    1    2  503  501 -0.30499951832E+02  0.69242436773E+01  0.27901998952E+03  0.28076742468E+03  0.00000000000E+00 0. -1.
</event>
<event>
 4    1  0.5696713E+002  0.2276714E+02  0.7546771E-02  0.1495443E+00
          2   -1    0    0  503    0  0.00000000000E+00  0.00000000000E+00  0.10159447109E+04  0.10159447109E+04  0.00000000000E+00 0.  1.
         -2   -1    0    0    0  501 -0.00000000000E+00 -0.00000000000E+00 -0.66349907899E+00  0.66349907899E+00  0.00000000000E+00 0. -1.
         21    1    1    2  502  501  0.21739246543E+02  0.67637140612E+01  0.26331863444E+03  0.26430105166E+03  0.00000000000E+00 0.  1.
         21    1    1    2  503  502 -0.21739246543E+02 -0.67637140612E+01  0.75196257741E+03  0.75230715834E+03  0.00000000000E+00 0. -1.
</event>
<event>
 4    1  0.5696713E+002  0.2277636E+02  0.7546771E-02  0.1495326E+00
          2   -1    0    0  502    0  0.00000000000E+00  0.00000000000E+00  0.25378495134E+03  0.25378495134E+03  0.00000000000E+00 0. -1.
         -2   -1    0    0    0  501 -0.00000000000E+00 -0.00000000000E+00 -0.23091033323E+01  0.23091033323E+01  0.00000000000E+00 0.  1.
         21    1    1    2  502  503  0.50887970336E+01  0.22200605844E+02  0.82359830379E+02  0.85451181473E+02  0.00000000000E+00 0.  1.
         21    1    1    2  503  501 -0.50887970336E+01 -0.22200605844E+02  0.16911601763E+03  0.17064287320E+03  0.00000000000E+00 0. -1.
</event>
<event>
 4    1  0.5696713E+002  0.2900740E+02  0.7546771E-02  0.1428423E+00
          2   -1    0    0  503    0  0.00000000000E+00  0.00000000000E+00  0.22379713282E+03  0.22379713282E+03  0.00000000000E+00 0. -1.
         -2   -1    0    0    0  501 -0.00000000000E+00 -0.00000000000E+00 -0.75760586576E+01  0.75760586576E+01  0.00000000000E+00 0.  1.
         21    1    1    2  502  501 -0.27051123549E+02 -0.10472149027E+02  0.26003362122E+02  0.38956437622E+02  0.00000000000E+00 0.  1.
         21    1    1    2  503  502  0.27051123549E+02  0.10472149027E+02  0.19021771204E+03  0.19241675385E+03  0.00000000000E+00 0. -1.
</event>
<event>
 4    1  0.5696713E+002  0.9400357E+02  0.7546771E-02  0.1174625E+00
          2   -1    0    0  502    0  0.00000000000E+00  0.00000000000E+00  0.23528260277E+04  0.23528260277E+04  0.00000000000E+00 0. -1.
         -2   -1    0    0    0  501 -0.00000000000E+00 -0.00000000000E+00 -0.47670455911E+01  0.47670455911E+01  0.00000000000E+00 0.  1.
         21    1    1    2  502  503  0.59851844048E+01  0.93812837439E+02  0.17169661798E+04  0.17195375930E+04  0.00000000000E+00 0. -1.
         21    1    1    2  503  501 -0.59851844048E+01 -0.93812837439E+02  0.63109280228E+03  0.63805548034E+03  0.00000000000E+00 0.  1.
</event>
<event>
 4    1  0.5696713E+002  0.2162427E+02  0.7546771E-02  0.1510536E+00
          2   -1    0    0  503    0  0.00000000000E+00  0.00000000000E+00  0.58407348867E+02  0.58407348867E+02  0.00000000000E+00 0. -1.
         -2   -1    0    0    0  501 -0.00000000000E+00 -0.00000000000E+00 -0.11293603326E+03  0.11293603326E+03  0.00000000000E+00 0.  1.
         21    1    1    2  502  501 -0.19991514369E+02 -0.82430838943E+01 -0.10984360194E+03  0.11195189130E+03  0.00000000000E+00 0.  1.
         21    1    1    2  503  502  0.19991514369E+02  0.82430838943E+01  0.55314917548E+02  0.59391490823E+02  0.00000000000E+00 0. -1.
</event>
<event>
 4    1  0.5696713E+002  0.5685781E+02  0.7546771E-02  0.1270899E+00
          2   -1    0    0  503    0  0.00000000000E+00  0.00000000000E+00  0.42428899610E+02  0.42428899610E+02  0.00000000000E+00 0. -1.
         -2   -1    0    0    0  501 -0.00000000000E+00 -0.00000000000E+00 -0.15075914447E+03  0.15075914447E+03  0.00000000000E+00 0.  1.
         21    1    1    2  502  501 -0.34236783325E+02 -0.45394417357E+02 -0.12209761101E+03  0.13468718229E+03  0.00000000000E+00 0.  1.
         21    1    1    2  503  502  0.34236783325E+02  0.45394417357E+02  0.13767366146E+02  0.58500861790E+02  0.00000000000E+00 0. -1.
</event>
<event>
 4    1  0.5696713E+002  0.2395886E+02  0.7546771E-02  0.1480796E+00
          2   -1    0    0  503    0  0.00000000000E+00  0.00000000000E+00  0.10191665780E+04  0.10191665780E+04  0.00000000000E+00 0. -1.
         -2   -1    0    0    0  501 -0.00000000000E+00 -0.00000000000E+00 -0.37528465356E+01  0.37528465356E+01  0.00000000000E+00 0.  1.
         21    1    1    2  502  501  0.11979651137E+02  0.20748848778E+02  0.36186821566E+02  0.43399456471E+02  0.00000000000E+00 0.  1.
         21    1    1    2  503  502 -0.11979651137E+02 -0.20748848778E+02  0.97922690986E+03  0.97951996803E+03  0.00000000000E+00 0. -1.
</event>
<event>
 4    1  0.5696713E+002  0.2395569E+02  0.7546771E-02  0.1480834E+00
          2   -1    0    0  502    0  0.00000000000E+00  0.00000000000E+00  0.11829256967E+03  0.11829256967E+03  0.00000000000E+00 0.  1.
         -2   -1    0    0    0  501 -0.00000000000E+00 -0.00000000000E+00 -0.59268692643E+01  0.59268692643E+01  0.00000000000E+00 0. -1.
         21    1    1    2  502  503 -0.12737120941E+02 -0.20288931332E+02  0.82641169932E+02  0.86043233041E+02  0.00000000000E+00 0.  1.
         21    1    1    2  503  501  0.12737120941E+02  0.20288931332E+02  0.29724530469E+02  0.38176205889E+02  0.00000000000E+00 0. -1.
</event>
<event>
 4    1  0.5696713E+002  0.2626142E+02  0.7546771E-02  0.1455172E+00
          2   -1    0    0  503    0  0.00000000000E+00  0.00000000000E+00  0.46187748937E+01  0.46187748937E+01  0.00000000000E+00 0. -1.
         -2   -1    0    0    0  501 -0.00000000000E+00 -0.00000000000E+00 -0.23033279884E+03  0.23033279884E+03  0.00000000000E+00 0.  1.
         21    1    1    2  502  501  0.21099583055E+02  0.15635529545E+02 -0.18252848519E+03  0.18440799900E+03  0.00000000000E+00 0.  1.
         21    1    1    2  503  502 -0.21099583055E+02 -0.15635529545E+02 -0.43185538758E+02  0.50543574736E+02  0.00000000000E+00 0. -1.
</event>
<event>
 4    1  0.5696713E+002  0.2904651E+02  0.7546771E-02  0.1428067E+00
          2   -1    0    0  503    0  0.00000000000E+00  0.00000000000E+00  0.16586787545E+03  0.16586787545E+03  0.00000000000E+00 0. -1.
         -2   -1    0    0    0  501 -0.00000000000E+00 -0.00000000000E+00 -0.71191186739E+01  0.71191186739E+01  0.00000000000E+00 0.  1.
         21    1    1    2  502  501 -0.20393176536E+02 -0.20683769519E+02  0.33158638690E+02  0.44081688835E+02  0.00000000000E+00 0.  1.
         21    1    1    2  503  502  0.20393176536E+02  0.20683769519E+02  0.12559011808E+03  0.12890530528E+03  0.00000000000E+00 0. -1.
</event>
<event>
 4    1  0.5696713E+002  0.2969140E+02  0.7546771E-02  0.1422297E+00
          2   -1    0    0  502    0  0.00000000000E+00  0.00000000000E+00  0.91461409073E+00  0.91461409073E+00  0.00000000000E+00 0. -1.
         -2   -1    0    0    0  501 -0.00000000000E+00 -0.00000000000E+00 -0.96476957950E+03  0.96476957950E+03  0.00000000000E+00 0.  1.
         21    1    1    2  502  503  0.29515644512E+02  0.32258508814E+01 -0.46727614713E+03  0.46821851423E+03  0.00000000000E+00 0. -1.
         21    1    1    2  503  501 -0.29515644512E+02 -0.32258508814E+01 -0.49657881828E+03  0.49746567937E+03  0.00000000000E+00 0.  1.
</event>
<event>
 4    1  0.5696713E+002  0.2312025E+02  0.7546771E-02  0.1490994E+00
          2   -1    0    0  502    0  0.00000000000E+00  0.00000000000E+00  0.29215440875E+03  0.29215440875E+03  0.00000000000E+00 0.  1.
         -2   -1    0    0    0  501 -0.00000000000E+00 -0.00000000000E+00 -0.20925124640E+01  0.20925124640E+01  0.00000000000E+00 0. -1.
         21    1    1    2  502  503  0.15046405724E+02 -0.17554247278E+02  0.19717398634E+03  0.19852487706E+03  0.00000000000E+00 0.  1.
         21    1    1    2  503  501 -0.15046405724E+02  0.17554247278E+02  0.92887909939E+02  0.95722044146E+02  0.00000000000E+00 0. -1.
</event>
<event>
 4    1  0.5696713E+002  0.2975721E+02  0.7546771E-02  0.1421718E+00
          2   -1    0    0  502    0  0.00000000000E+00  0.00000000000E+00  0.68750142151E+01  0.68750142151E+01  0.00000000000E+00 0. -1.
         -2   -1    0    0    0  501 -0.00000000000E+00 -0.00000000000E+00 -0.19991938490E+03  0.19991938490E+03  0.00000000000E+00 0.  1.
         21    1    1    2  502  503  0.10567244039E+02  0.27817708818E+02 -0.34851343681E+02  0.45826932330E+02  0.00000000000E+00 0. -1.
         21    1    1    2  503  501 -0.10567244039E+02 -0.27817708818E+02 -0.15819302700E+03  0.16096746678E+03  0.00000000000E+00 0.  1.
</event>
<event>
 4    1  0.5696713E+002  0.4613963E+02  0.7546771E-02  0.1315837E+00
          2   -1    0    0  503    0  0.00000000000E+00  0.00000000000E+00  0.15747980308E+04  0.15747980308E+04  0.00000000000E+00 0.  1.
         -2   -1    0    0    0  501 -0.00000000000E+00 -0.00000000000E+00 -0.29139123340E+01  0.29139123340E+01  0.00000000000E+00 0. -1.
         21    1    1    2  502  501 -0.37218575820E+02  0.27269814260E+02  0.20836369928E+03  0.21341109702E+03  0.00000000000E+00 0. -1.
         21    1    1    2  503  502  0.37218575820E+02 -0.27269814260E+02  0.13635204192E+04  0.13643008461E+04  0.00000000000E+00 0.  1.
</event>
<event>
 4    1  0.5696713E+002  0.6181972E+02  0.7546771E-02  0.1253772E+00
          2   -1    0    0  502    0  0.00000000000E+00  0.00000000000E+00  0.13861288472E+03  0.13861288472E+03  0.00000000000E+00 0.  1.
         -2   -1    0    0    0  501 -0.00000000000E+00 -0.00000000000E+00 -0.28892733183E+02  0.28892733183E+02  0.00000000000E+00 0. -1.
         21    1    1    2  502  503 -0.40490523039E+02  0.46713979790E+02  0.36945864870E+02  0.72018576040E+02  0.00000000000E+00 0. -1.
         21    1    1    2  503  501  0.40490523039E+02 -0.46713979790E+02  0.72774286671E+02  0.95487041866E+02  0.00000000000E+00 0.  1.
</event>
<event>
 4    1  0.5696713E+002  0.2272418E+02  0.7546771E-02  0.1495991E+00
          2   -1    0    0  503    0  0.00000000000E+00  0.00000000000E+00  0.21895695151E+02  0.21895695151E+02  0.00000000000E+00 0. -1.
         -2   -1    0    0    0  501 -0.00000000000E+00 -0.00000000000E+00 -0.11113300644E+03  0.11113300644E+03  0.00000000000E+00 0.  1.
         21    1    1    2  502  501 -0.19895618828E+02  0.10979659913E+02 -0.10365498929E+03  0.10611665932E+03  0.00000000000E+00 0.  1.
         21    1    1    2  503  502  0.19895618828E+02 -0.10979659913E+02  0.14417678001E+02  0.26912042273E+02  0.00000000000E+00 0. -1.
</event>
<event>
 4    1  0.5696713E+002  0.2497021E+02  0.7546771E-02  0.1469137E+00
          2   -1    0    0  502    0  0.00000000000E+00  0.00000000000E+00  0.13270891791E+04  0.13270891791E+04  0.00000000000E+00 0.  1.
         -2   -1    0    0    0  501 -0.00000000000E+00 -0.00000000000E+00 -0.28063142187E+01  0.28063142187E+01  0.00000000000E+00 0. -1.
         21    1    1    2  502  503  0.21425633639E+02  0.12823954563E+02  0.12688783581E+04  0.12691240283E+04  0.00000000000E+00 0.  1.
         21    1    1    2  503  501 -0.21425633639E+02 -0.12823954563E+02  0.55404506802E+02  0.60771465027E+02  0.00000000000E+00 0. -1.
</event>
<event>
 4    1  0.5696713E+002  0.2476545E+02  0.7546771E-02  0.1471444E+00
          2   -1    0    0  503    0  0.00000000000E+00  0.00000000000E+00  0.13581960854E+03  0.13581960854E+03  0.00000000000E+00 0.  1.
         -2   -1    0    0    0  501 -0.00000000000E+00 -0.00000000000E+00 -0.45799267646E+01  0.45799267646E+01  0.00000000000E+00 0. -1.
         21    1    1    2  502  501  0.16438778122E+02 -0.18522794698E+02  0.73929754442E+02  0.77967531329E+02  0.00000000000E+00 0. -1.
         21    1    1    2  503  502 -0.16438778122E+02  0.18522794698E+02  0.57309927334E+02  0.62432003977E+02  0.00000000000E+00 0.  1.
</event>
<event>
 4    1  0.5696713E+002  0.3682047E+02  0.7546771E-02  0.1368197E+00
          2   -1    0    0  503    0  0.00000000000E+00  0.00000000000E+00  0.18275746695E+02  0.18275746695E+02  0.00000000000E+00 0. -1.
         -2   -1    0    0    0  501 -0.00000000000E+00 -0.00000000000E+00 -0.89236261502E+02  0.89236261502E+02  0.00000000000E+00 0.  1.
         21    1    1    2  502  501 -0.35646637617E+02 -0.92230241760E+01 -0.57558971874E+02  0.68328487408E+02  0.00000000000E+00 0.  1.
         21    1    1    2  503  502  0.35646637617E+02  0.92230241760E+01 -0.13401542934E+02  0.39183520788E+02  0.00000000000E+00 0. -1.
</event>
<event>
 4    1  0.5696713E+002  0.2292053E+02  0.7546771E-02  0.1493498E+00
          2   -1    0    0  502    0  0.00000000000E+00  0.00000000000E+00  0.23971804267E+03  0.23971804267E+03  0.00000000000E+00 0.  1.
         -2   -1    0    0    0  501 -0.00000000000E+00 -0.00000000000E+00 -0.26262317403E+01  0.26262317403E+01  0.00000000000E+00 0. -1.
         21    1    1    2  502  503  0.20433873271E+02  0.10383043181E+02  0.16784385424E+03  0.16940162387E+03  0.00000000000E+00 0. -1.
         21    1    1    2  503  501 -0.20433873271E+02 -0.10383043181E+02  0.69247956682E+02  0.72942650536E+02  0.00000000000E+00 0.  1.
</event>
<event>
 4    1  0.5696713E+002  0.2048092E+02  0.7546771E-02  0.1526807E+00
          2   -1    0    0  502    0  0.00000000000E+00  0.00000000000E+00  0.79030538719E+03  0.79030538719E+03  0.00000000000E+00 0.  1.
         -2   -1    0    0    0  501 -0.00000000000E+00 -0.00000000000E+00 -0.13487712281E+01  0.13487712281E+01  0.00000000000E+00 0. -1.
         21    1    1    2  502  503  0.10642012696E+02 -0.17499020782E+02  0.70273611279E+03  0.70303450298E+03  0.00000000000E+00 0.  1.
         21    1    1    2  503  501 -0.10642012696E+02  0.17499020782E+02  0.86220503170E+02  0.88619655436E+02  0.00000000000E+00 0. -1.
</event>
<event>
 4    1  0.5696713E+002  0.2304503E+02  0.7546771E-02  0.1491933E+00
          2   -1    0    0  502    0  0.00000000000E+00  0.00000000000E+00  0.59253846068E+03  0.59253846068E+03  0.00000000000E+00 0. -1.
         -2   -1    0    0    0  501 -0.00000000000E+00 -0.00000000000E+00 -0.18231348292E+01  0.18231348292E+01  0.00000000000E+00 0.  1.
         21    1    1    2  502  503  0.10661225859E+02 -0.20430656424E+02  0.50725228873E+03  0.50777549948E+03  0.00000000000E+00 0. -1.
         21    1    1    2  503  501 -0.10661225859E+02  0.20430656424E+02  0.83463037122E+02  0.86586096022E+02  0.00000000000E+00 0.  1.
</event>
<event>
 4    1  0.5696713E+002  0.3001572E+02  0.7546771E-02  0.1419460E+00
          2   -1    0    0  502    0  0.00000000000E+00  0.00000000000E+00  0.12406147149E+03  0.12406147149E+03  0.00000000000E+00 0.  1.
         -2   -1    0    0    0  501 -0.00000000000E+00 -0.00000000000E+00 -0.82285827058E+01  0.82285827058E+01  0.00000000000E+00 0. -1.
         21    1    1    2  502  503 -0.17098421575E+02  0.24669559990E+02  0.80585751476E+02  0.85994223943E+02  0.00000000000E+00 0.  1.
         21    1    1    2  503  501  0.17098421575E+02 -0.24669559990E+02  0.35247137309E+02  0.46295830254E+02  0.00000000000E+00 0. -1.
</event>
<event>
 4    1  0.5696713E+002  0.3143675E+02  0.7546771E-02  0.1407509E+00
          2   -1    0    0  502    0  0.00000000000E+00  0.00000000000E+00  0.13784533702E+03  0.13784533702E+03  0.00000000000E+00 0. -1.
         -2   -1    0    0    0  501 -0.00000000000E+00 -0.00000000000E+00 -0.10825326898E+02  0.10825326898E+02  0.00000000000E+00 0.  1.
         21    1    1    2  502  503  0.18188552304E+02  0.25640707769E+02  0.10670894688E+03  0.11124328597E+03  0.00000000000E+00 0.  1.
         21    1    1    2  503  501 -0.18188552304E+02 -0.25640707769E+02  0.20311063241E+02  0.37427377945E+02  0.00000000000E+00 0. -1.
</event>
<event>
 4    1  0.5696713E+002  0.4415711E+02  0.7546771E-02  0.1325708E+00
          2   -1    0    0  503    0  0.00000000000E+00  0.00000000000E+00  0.10669408633E+04  0.10669408633E+04  0.00000000000E+00 0.  1.
         -2   -1    0    0    0  501 -0.00000000000E+00 -0.00000000000E+00 -0.39805696269E+01  0.39805696269E+01  0.00000000000E+00 0. -1.
         21    1    1    2  502  501 -0.77649915596E+01 -0.43469012331E+02  0.13767394117E+03  0.14458203279E+03  0.00000000000E+00 0. -1.
         21    1    1    2  503  502  0.77649915596E+01  0.43469012331E+02  0.92528635253E+03  0.92633940017E+03  0.00000000000E+00 0.  1.
</event>
<event>
 4    1  0.5696713E+002  0.2408695E+02  0.7546771E-02  0.1479282E+00
          2   -1    0    0  502    0  0.00000000000E+00  0.00000000000E+00  0.10050321731E+04  0.10050321731E+04  0.00000000000E+00 0.  1.
         -2   -1    0    0    0  501 -0.00000000000E+00 -0.00000000000E+00 -0.75698966691E+00  0.75698966691E+00  0.00000000000E+00 0. -1.
         21    1    1    2  502  503  0.24055865137E+02 -0.12233746315E+01  0.74716920773E+03  0.74755735985E+03  0.00000000000E+00 0.  1.
         21    1    1    2  503  501 -0.24055865137E+02  0.12233746315E+01  0.25710597567E+03  0.25823180288E+03  0.00000000000E+00 0. -1.
</event>
<event>
 4    1  0.5696713E+002  0.2463356E+02  0.7546771E-02  0.1472945E+00
          2   -1    0    0  502    0  0.00000000000E+00  0.00000000000E+00  0.80942628316E+03  0.80942628316E+03  0.00000000000E+00 0.  1.
         -2   -1    0    0    0  501 -0.00000000000E+00 -0.00000000000E+00 -0.17568390458E+02  0.17568390458E+02  0.00000000000E+00 0. -1.
         21    1    1    2  502  503 -0.17887846926E+01 -0.24568529119E+02  0.80050767886E+03  0.80088660638E+03  0.00000000000E+00 0.  1.
         21    1    1    2  503  501  0.17887846926E+01  0.24568529119E+02 -0.86497861619E+01  0.26108067228E+02  0.00000000000E+00 0. -1.
</event>
<event>
 4    1  0.5696713E+002  0.2843330E+02  0.7546771E-02  0.1433718E+00
          2   -1    0    0  502    0  0.00000000000E+00  0.00000000000E+00  0.15469027681E+03  0.15469027681E+03  0.00000000000E+00 0.  1.
         -2   -1    0    0    0  501 -0.00000000000E+00 -0.00000000000E+00 -0.61677662703E+01  0.61677662703E+01  0.00000000000E+00 0. -1.
         21    1    1    2  502  503 -0.13723854735E+02 -0.24901970710E+02  0.10568510249E+03  0.10944310496E+03  0.00000000000E+00 0.  1.
         21    1    1    2  503  501  0.13723854735E+02  0.24901970710E+02  0.42837408054E+02  0.51414938129E+02  0.00000000000E+00 0. -1.
</event>
<event>
 4    1  0.5696713E+002  0.2778510E+02  0.7546771E-02  0.1439877E+00
          2   -1    0    0  503    0  0.00000000000E+00  0.00000000000E+00  0.16247129666E+04  0.16247129666E+04  0.00000000000E+00 0. -1.
         -2   -1    0    0    0  501 -0.00000000000E+00 -0.00000000000E+00 -0.52680557053E+00  0.52680557053E+00  0.00000000000E+00 0.  1.
         21    1    1    2  502  501  0.13834501833E+02 -0.24096018232E+02  0.55767652871E+03  0.55836826755E+03  0.00000000000E+00 0. -1.
         21    1    1    2  503  502 -0.13834501833E+02  0.24096018232E+02  0.10665096323E+04  0.10668715046E+04  0.00000000000E+00 0.  1.
</event>
<event>
 4    1  0.5696713E+002  0.2809831E+02  0.7546771E-02  0.1436877E+00
          2   -1    0    0  503    0  0.00000000000E+00  0.00000000000E+00  0.11002794592E+03  0.11002794592E+03  0.00000000000E+00 0.  1.
         -2   -1    0    0    0  501 -0.00000000000E+00 -0.00000000000E+00 -0.23904705911E+02  0.23904705911E+02  0.00000000000E+00 0. -1.
         21    1    1    2  502  501 -0.69987410975E+01 -0.27212728826E+02 -0.12959439320E+02  0.30942883747E+02  0.00000000000E+00 0. -1.
         21    1    1    2  503  502  0.69987410975E+01  0.27212728826E+02  0.99082679327E+02  0.10298976808E+03  0.00000000000E+00 0.  1.
</event>
<event>
 4    1  0.5696713E+002  0.2355967E+02  0.7546771E-02  0.1485587E+00
          2   -1    0    0  503    0  0.00000000000E+00  0.00000000000E+00  0.16615353445E+01  0.16615353445E+01  0.00000000000E+00 0. -1.
         -2   -1    0    0    0  501 -0.00000000000E+00 -0.00000000000E+00 -0.48959381567E+03  0.48959381567E+03  0.00000000000E+00 0.  1.
         21    1    1    2  502  501 -0.16579533634E+02 -0.16738487097E+02 -0.38240793527E+03  0.38313298846E+03  0.00000000000E+00 0.  1.
         21    1    1    2  503  502  0.16579533634E+02  0.16738487097E+02 -0.10552434506E+03  0.10812236256E+03  0.00000000000E+00 0. -1.
</event>
<event>
 4    1  0.5696713E+002  0.2126554E+02  0.7546771E-02  0.1515507E+00
          2   -1    0    0  502    0  0.00000000000E+00  0.00000000000E+00  0.21204065368E+03  0.21204065368E+03  0.00000000000E+00 0.  1.
         -2   -1    0    0    0  501 -0.00000000000E+00 -0.00000000000E+00 -0.40351290436E+02  0.40351290436E+02  0.00000000000E+00 0. -1.
         21    1    1    2  502  503 -0.20104411970E+02  0.69307892246E+01  0.20866041380E+03  0.20974124894E+03  0.00000000000E+00 0.  1.
         21    1    1    2  503  501  0.20104411970E+02 -0.69307892246E+01 -0.36971050554E+02  0.42650695176E+02  0.00000000000E+00 0. -1.
</event>
<event>
 4    1  0.5696713E+002  0.2376823E+02  0.7546771E-02  0.1483070E+00
          2   -1    0    0  502    0  0.00000000000E+00  0.00000000000E+00  0.17477751364E+04  0.17477751364E+04  0.00000000000E+00 0.  1.
         -2   -1    0    0    0  501 -0.00000000000E+00 -0.00000000000E+00 -0.34240613025E+00  0.34240613025E+00  0.00000000000E+00 0. -1.
         21    1    1    2  502  503  0.73586350015E+01  0.22600424012E+02  0.10805783523E+04  0.10808397218E+04  0.00000000000E+00 0. -1.
         21    1    1    2  503  501 -0.73586350015E+01 -0.22600424012E+02  0.66685437795E+03  0.66727782075E+03  0.00000000000E+00 0.  1.
</event>
<event>
 4    1  0.5696713E+002  0.2508038E+02  0.7546771E-02  0.1467906E+00
          2   -1    0    0  503    0  0.00000000000E+00  0.00000000000E+00  0.61121723703E+01  0.61121723703E+01  0.00000000000E+00 0. -1.
         -2   -1    0    0    0  501 -0.00000000000E+00 -0.00000000000E+00 -0.53015970140E+03  0.53015970140E+03  0.00000000000E+00 0.  1.
         21    1    1    2  502  501  0.18135432907E+02  0.17324301615E+02 -0.50273188823E+03  0.50335710663E+03  0.00000000000E+00 0.  1.
         21    1    1    2  503  502 -0.18135432907E+02 -0.17324301615E+02 -0.21315640803E+02  0.32914767142E+02  0.00000000000E+00 0. -1.
</event>
<event>
 4    1  0.5696713E+002  0.2927019E+02  0.7546771E-02  0.1426046E+00
          2   -1    0    0  502    0  0.00000000000E+00  0.00000000000E+00  0.32081496738E+02  0.32081496738E+02  0.00000000000E+00 0. -1.
         -2   -1    0    0    0  501 -0.00000000000E+00 -0.00000000000E+00 -0.42773518581E+02  0.42773518581E+02  0.00000000000E+00 0.  1.
         21    1    1    2  502  503  0.52814553327E+00 -0.29265420810E+02  0.17593714347E+02  0.34150879599E+02  0.00000000000E+00 0. -1.
         21    1    1    2  503  501 -0.52814553327E+00  0.29265420810E+02 -0.28285736189E+02  0.40704135719E+02  0.00000000000E+00 0.  1.
</event>
<event>
 4    1  0.5696713E+002  0.2553103E+02  0.7546771E-02  0.1462950E+00
          2   -1    0    0  503    0  0.00000000000E+00  0.00000000000E+00  0.26785672997E+03  0.26785672997E+03  0.00000000000E+00 0.  1.
         -2   -1    0    0    0  501 -0.00000000000E+00 -0.00000000000E+00 -0.24347689613E+01  0.24347689613E+01  0.00000000000E+00 0. -1.
         21    1    1    2  502  501  0.21476112977E+02  0.13806159095E+02  0.13577759461E+03  0.13815711583E+03  0.00000000000E+00 0.  1.
         21    1    1    2  503  502 -0.21476112977E+02 -0.13806159095E+02  0.12964436641E+03  0.13213438310E+03  0.00000000000E+00 0. -1.
</event>
<event>
 4    1  0.5696713E+002  0.2066142E+02  0.7546771E-02  0.1524154E+00
          2   -1    0    0  503    0  0.00000000000E+00  0.00000000000E+00  0.91322187901E+03  0.91322187901E+03  0.00000000000E+00 0. -1.
         -2   -1    0    0    0  501 -0.00000000000E+00 -0.00000000000E+00 -0.14651518646E+01  0.14651518646E+01  0.00000000000E+00 0.  1.
         21    1    1    2  502  501  0.20483637447E+02  0.27045963514E+01  0.78480420717E+02  0.81154609730E+02  0.00000000000E+00 0.  1.
         21    1    1    2  503  502 -0.20483637447E+02 -0.27045963514E+01  0.83327630643E+03  0.83353242114E+03  0.00000000000E+00 0. -1.
</event>
<event>
 4    1  0.5696713E+002  0.8591510E+02  0.7546771E-02  0.1190743E+00
          2   -1    0    0  502    0  0.00000000000E+00  0.00000000000E+00  0.17333524384E+04  0.17333524384E+04  0.00000000000E+00 0. -1.
         -2   -1    0    0    0  501 -0.00000000000E+00 -0.00000000000E+00 -0.52145010734E+01  0.52145010734E+01  0.00000000000E+00 0.  1.
         21    1    1    2  502  503 -0.81100978212E+02  0.28355537901E+02  0.12362842599E+04  0.12392659830E+04  0.00000000000E+00 0. -1.
         21    1    1    2  503  501  0.81100978212E+02 -0.28355537901E+02  0.49185367741E+03  0.49930095652E+03  0.00000000000E+00 0.  1.
</event>
<event>
 4    1  0.5696713E+002  0.2967859E+02  0.7546771E-02  0.1422410E+00
          2   -1    0    0  503    0  0.00000000000E+00  0.00000000000E+00  0.35007063060E+02  0.35007063060E+02  0.00000000000E+00 0. -1.
         -2   -1    0    0    0  501 -0.00000000000E+00 -0.00000000000E+00 -0.56188470094E+02  0.56188470094E+02  0.00000000000E+00 0.  1.
         21    1    1    2  502  501  0.47547940483E-02  0.29678594607E+02 -0.44474486645E+02  0.53467737588E+02  0.00000000000E+00 0.  1.
         21    1    1    2  503  502 -0.47547940483E-02 -0.29678594607E+02  0.23293079612E+02  0.37727795566E+02  0.00000000000E+00 0. -1.
</event>
<event>
 4    1  0.5696713E+002  0.2080244E+02  0.7546771E-02  0.1522104E+00
          2   -1    0    0  503    0  0.00000000000E+00  0.00000000000E+00  0.13290871539E+04  0.13290871539E+04  0.00000000000E+00 0.  1.
         -2   -1    0    0    0  501 -0.00000000000E+00 -0.00000000000E+00 -0.22596821813E+01  0.22596821813E+01  0.00000000000E+00 0. -1.
         21    1    1    2  502  501  0.18536971376E+02  0.94404604988E+01  0.47562565173E+02  0.51912803893E+02  0.00000000000E+00 0. -1.
         21    1    1    2  503  502 -0.18536971376E+02 -0.94404604988E+01  0.12792649066E+04  0.12794340322E+04  0.00000000000E+00 0.  1.
</event>
<event>
 4    1  0.5696713E+002  0.2936700E+02  0.7546771E-02  0.1425178E+00
          2   -1    0    0  502    0  0.00000000000E+00  0.00000000000E+00  0.24681045524E+01  0.24681045524E+01  0.00000000000E+00 0.  1.
         -2   -1    0    0    0  501 -0.00000000000E+00 -0.00000000000E+00 -0.45403403160E+03  0.45403403160E+03  0.00000000000E+00 0. -1.
         21    1    1    2  502  503 -0.73238126028E+01 -0.28439095896E+02 -0.33534263104E+03  0.33662605455E+03  0.00000000000E+00 0.  1.
         21    1    1    2  503  501  0.73238126028E+01  0.28439095896E+02 -0.11622329601E+03  0.11987608161E+03  0.00000000000E+00 0. -1.
</event>
<event>
 4    1  0.5696713E+002  0.5257963E+02  0.7546771E-02  0.1287359E+00
          2   -1    0    0  503    0  0.00000000000E+00  0.00000000000E+00  0.12405103864E+04  0.12405103864E+04  0.00000000000E+00 0.  1.
         -2   -1    0    0    0  501 -0.00000000000E+00 -0.00000000000E+00 -0.10126476581E+02  0.10126476581E+02  0.00000000000E+00 0. -1.
         21    1    1    2  502  501  0.39347479477E+02 -0.34876832014E+02  0.62953223201E+02  0.82022715536E+02  0.00000000000E+00 0. -1.
         21    1    1    2  503  502 -0.39347479477E+02  0.34876832014E+02  0.11674306866E+04  0.11686141474E+04  0.00000000000E+00 0.  1.
</event>
<event>
 4    1  0.5696713E+002  0.2205526E+02  0.7546771E-02  0.1504715E+00
          2   -1    0    0  502    0  0.00000000000E+00  0.00000000000E+00  0.48454159103E+02  0.48454159103E+02  0.00000000000E+00 0.  1.
         -2   -1    0    0    0  501 -0.00000000000E+00 -0.00000000000E+00 -0.10057018457E+02  0.10057018457E+02  0.00000000000E+00 0. -1.
         21    1    1    2  502  503 -0.65418630132E+01 -0.21062723406E+02  0.17962369141E+02  0.28444349071E+02  0.00000000000E+00 0. -1.
         21    1    1    2  503  501  0.65418630132E+01  0.21062723406E+02  0.20434771505E+02  0.30066828489E+02  0.00000000000E+00 0.  1.
</event>
<event>
 4    1  0.5696713E+002  0.2644435E+02  0.7546771E-02  0.1453271E+00
          2   -1    0    0  502    0  0.00000000000E+00  0.00000000000E+00  0.53453025234E+03  0.53453025234E+03  0.00000000000E+00 0. -1.
         -2   -1    0    0    0  501 -0.00000000000E+00 -0.00000000000E+00 -0.38945758661E+01  0.38945758661E+01  0.00000000000E+00 0.  1.
         21    1    1    2  502  503  0.23668170050E+02 -0.11794964491E+02  0.48470234362E+03  0.48542318174E+03  0.00000000000E+00 0. -1.
         21    1    1    2  503  501 -0.23668170050E+02  0.11794964491E+02  0.45933332848E+02  0.53001646459E+02  0.00000000000E+00 0.  1.
</event>
<event>
 4    1  0.5696713E+002  0.2082946E+02  0.7546771E-02  0.1521714E+00
          2   -1    0    0  502    0  0.00000000000E+00  0.00000000000E+00  0.14133650204E+03  0.14133650204E+03  0.00000000000E+00 0. -1.
         -2   -1    0    0    0  501 -0.00000000000E+00 -0.00000000000E+00 -0.39701840090E+01  0.39701840090E+01  0.00000000000E+00 0.  1.
         21    1    1    2  502  503  0.20521546254E+02 -0.35682978161E+01  0.10328332128E+03  0.10536275939E+03  0.00000000000E+00 0. -1.
         21    1    1    2  503  501 -0.20521546254E+02  0.35682978161E+01  0.34082996745E+02  0.39943926661E+02  0.00000000000E+00 0.  1.
</event>
<event>
 4    1  0.5696713E+002  0.2081520E+02  0.7546771E-02  0.1521920E+00
          2   -1    0    0  502    0  0.00000000000E+00  0.00000000000E+00  0.16703419159E+04  0.16703419159E+04  0.00000000000E+00 0.  1.
         -2   -1    0    0    0  501 -0.00000000000E+00 -0.00000000000E+00 -0.26015627255E+00  0.26015627255E+00  0.00000000000E+00 0. -1.
         21    1    1    2  502  503 -0.16014931930E+02 -0.13296411431E+02  0.88032791577E+03  0.88057396730E+03  0.00000000000E+00 0.  1.
         21    1    1    2  503  501  0.16014931930E+02  0.13296411431E+02  0.78975384385E+03  0.79002810487E+03  0.00000000000E+00 0. -1.
</event>
<event>
 4    1  0.5696713E+002  0.7950696E+02  0.7546771E-02  0.1204997E+00
          2   -1    0    0  503    0  0.00000000000E+00  0.00000000000E+00  0.60304572319E+03  0.60304572319E+03  0.00000000000E+00 0.  1.
         -2   -1    0    0    0  501 -0.00000000000E+00 -0.00000000000E+00 -0.13852534171E+02  0.13852534171E+02  0.00000000000E+00 0. -1.
         21    1    1    2  502  501 -0.46770014755E+02 -0.64295583469E+02  0.14245652395E+03  0.16314171003E+03  0.00000000000E+00 0. -1.
         21    1    1    2  503  502  0.46770014755E+02  0.64295583469E+02  0.44673666506E+03  0.45375654733E+03  0.00000000000E+00 0.  1.
</event>
<event>
 4    1  0.5696713E+002  0.3613813E+02  0.7546771E-02  0.1372734E+00
          2   -1    0    0  503    0  0.00000000000E+00  0.00000000000E+00  0.11333580096E+03  0.11333580096E+03  0.00000000000E+00 0.  1.
         -2   -1    0    0    0  501 -0.00000000000E+00 -0.00000000000E+00 -0.14221776472E+02  0.14221776472E+02  0.00000000000E+00 0. -1.
         21    1    1    2  502  501  0.34473103237E+02  0.10842950350E+02  0.21773595650E+02  0.42190684833E+02  0.00000000000E+00 0. -1.
         21    1    1    2  503  502 -0.34473103237E+02 -0.10842950350E+02  0.77340428839E+02  0.85366892599E+02  0.00000000000E+00 0.  1.
</event>
<event>
 4    1  0.5696713E+002  0.2903019E+02  0.7546771E-02  0.1428215E+00
          2   -1    0    0  503    0  0.00000000000E+00  0.00000000000E+00  0.47968711158E+01  0.47968711158E+01  0.00000000000E+00 0. -1.
         -2   -1    0    0    0  501 -0.00000000000E+00 -0.00000000000E+00 -0.18851975307E+03  0.18851975307E+03  0.00000000000E+00 0.  1.
         21    1    1    2  502  501  0.41542586856E+01  0.28731415585E+02 -0.11707916220E+03  0.12062455110E+03  0.00000000000E+00 0. -1.
         21    1    1    2  503  502 -0.41542586856E+01 -0.28731415585E+02 -0.66643719756E+02  0.72692073087E+02  0.00000000000E+00 0.  1.
</event>
<event>
 4    1  0.5696713E+002  0.6429966E+02  0.7546771E-02  0.1245884E+00
          2   -1    0    0  502    0  0.00000000000E+00  0.00000000000E+00  0.42412279608E+03  0.42412279608E+03  0.00000000000E+00 0.  1.
         -2   -1    0    0    0  501 -0.00000000000E+00 -0.00000000000E+00 -0.16353450503E+02  0.16353450503E+02  0.00000000000E+00 0. -1.
         21    1    1    2  502  503  0.44382278944E+02  0.46525896308E+02  0.34385356440E+03  0.34981383543E+03  0.00000000000E+00 0.  1.
         21    1    1    2  503  501 -0.44382278944E+02 -0.46525896308E+02  0.63915781175E+02  0.90662411146E+02  0.00000000000E+00 0. -1.
</event>
<event>
 4    1  0.5696713E+002  0.2268078E+02  0.7546771E-02  0.1496546E+00
          2   -1    0    0  502    0  0.00000000000E+00  0.00000000000E+00  0.15281268195E+04  0.15281268195E+04  0.00000000000E+00 0.  1.
         -2   -1    0    0    0  501 -0.00000000000E+00 -0.00000000000E+00 -0.35290675716E+00  0.35290675716E+00  0.00000000000E+00 0. -1.
         21    1    1    2  502  503 -0.22602090138E+02 -0.18876155875E+01  0.92800133115E+03  0.92827845402E+03  0.00000000000E+00 0. -1.
         21    1    1    2  503  501  0.22602090138E+02  0.18876155875E+01  0.59977258157E+03  0.60020127222E+03  0.00000000000E+00 0.  1.
</event>
<event>
 4    1  0.5696713E+002  0.2442282E+02  0.7546771E-02  0.1475365E+00
          2   -1    0    0  502    0  0.00000000000E+00  0.00000000000E+00  0.38867126075E+02  0.38867126075E+02  0.00000000000E+00 0. -1.
         -2   -1    0    0    0  501 -0.00000000000E+00 -0.00000000000E+00 -0.11156390452E+03  0.11156390452E+03  0.00000000000E+00 0.  1.
         21    1    1    2  502  503  0.13816489212E+02 -0.20138983414E+02  0.33502577344E+02  0.41459579301E+02  0.00000000000E+00 0. -1.
         21    1    1    2  503  501 -0.13816489212E+02  0.20138983414E+02 -0.10619935579E+03  0.10897145129E+03  0.00000000000E+00 0.  1.
</event>
<event>
 4    1  0.5696713E+002  0.2404941E+02  0.7546771E-02  0.1479725E+00
          2   -1    0    0  502    0  0.00000000000E+00  0.00000000000E+00  0.53124270319E+03  0.53124270319E+03  0.00000000000E+00 0.  1.
         -2   -1    0    0    0  501 -0.00000000000E+00 -0.00000000000E+00 -0.10963907052E+01  0.10963907052E+01  0.00000000000E+00 0. -1.
         21    1    1    2  502  503  0.18503790889E+02 -0.15361772510E+02  0.28733726260E+03  0.28834194424E+03  0.00000000000E+00 0.  1.
         21    1    1    2  503  501 -0.18503790889E+02  0.15361772510E+02  0.24280904988E+03  0.24399714965E+03  0.00000000000E+00 0. -1.
</event>
<event>
 4    1  0.5696713E+002  0.2383033E+02  0.7546771E-02  0.1482327E+00
          2   -1    0    0  502    0  0.00000000000E+00  0.00000000000E+00  0.29893355980E+02  0.29893355980E+02  0.00000000000E+00 0. -1.
         -2   -1    0    0    0  501 -0.00000000000E+00 -0.00000000000E+00 -0.26607661223E+02  0.26607661223E+02  0.00000000000E+00 0.  1.
         21    1    1    2  502  503 -0.19979463204E+02  0.12988668861E+02  0.16751778710E+02  0.29129135906E+02  0.00000000000E+00 0. -1.
         21    1    1    2  503  501  0.19979463204E+02 -0.12988668861E+02 -0.13466083953E+02  0.27371881297E+02  0.00000000000E+00 0.  1.
</event>
<event>
 4    1  0.5696713E+002  0.2468717E+02  0.7546771E-02  0.1472334E+00
          2   -1    0    0  502    0  0.00000000000E+00  0.00000000000E+00  0.80126436234E+03  0.80126436234E+03  0.00000000000E+00 0. -1.
         -2   -1    0    0    0  501 -0.00000000000E+00 -0.00000000000E+00 -0.11407744541E+02  0.11407744541E+02  0.00000000000E+00 0.  1.
         21    1    1    2  502  503 -0.17177112811E+01 -0.24627335913E+02  0.78748435401E+03  0.78787122299E+03  0.00000000000E+00 0. -1.
         21    1    1    2  503  501  0.17177112811E+01  0.24627335913E+02  0.23722637886E+01  0.24800883889E+02  0.00000000000E+00 0.  1.
</event>
<event>
 4    1  0.5696713E+002  0.2373965E+02  0.7546771E-02  0.1483413E+00
          2   -1    0    0  503    0  0.00000000000E+00  0.00000000000E+00  0.18901549961E+01  0.18901549961E+01  0.00000000000E+00 0.  1.
         -2   -1    0    0    0  501 -0.00000000000E+00 -0.00000000000E+00 -0.94302494554E+03  0.94302494554E+03  0.00000000000E+00 0. -1.
         21    1    1    2  502  501  0.23636538163E+02  0.22102309318E+01 -0.86125996580E+03  0.86158708193E+03  0.00000000000E+00 0. -1.
         21    1    1    2  503  502 -0.23636538163E+02 -0.22102309318E+01 -0.79874824740E+02  0.83328018603E+02  0.00000000000E+00 0.  1.
</event>
<event>
 4    1  0.5696713E+002  0.2102343E+02  0.7546771E-02  0.1518931E+00
          2   -1    0    0  503    0  0.00000000000E+00  0.00000000000E+00  0.23893006031E+02  0.23893006031E+02  0.00000000000E+00 0.  1.
         -2   -1    0    0    0  501 -0.00000000000E+00 -0.00000000000E+00 -0.22003545468E+02  0.22003545468E+02  0.00000000000E+00 0. -1.
         21    1    1    2  502  501  0.59805357962E+01 -0.20154841835E+02 -0.82143395494E+01  0.22571216893E+02  0.00000000000E+00 0. -1.
         21    1    1    2  503  502 -0.59805357962E+01  0.20154841835E+02  0.10103800112E+02  0.23325334606E+02  0.00000000000E+00 0.  1.
</event>
<event>
 4    1  0.5696713E+002  0.3221984E+02  0.7546771E-02  0.1401238E+00
          2   -1    0    0  503    0  0.00000000000E+00  0.00000000000E+00  0.52300309689E+03  0.52300309689E+03  0.00000000000E+00 0.  1.
         -2   -1    0    0    0  501 -0.00000000000E+00 -0.00000000000E+00 -0.41791392922E+01  0.41791392922E+01  0.00000000000E+00 0. -1.
         21    1    1    2  502  501  0.16528050015E+02 -0.27657575155E+02  0.68414502126E+02  0.75621835484E+02  0.00000000000E+00 0. -1.
         21    1    1    2  503  502 -0.16528050015E+02  0.27657575155E+02  0.45040945548E+03  0.45156040070E+03  0.00000000000E+00 0.  1.
</event>
<event>
 4    1  0.5696713E+002  0.2208864E+02  0.7546771E-02  0.1504270E+00
          2   -1    0    0  503    0  0.00000000000E+00  0.00000000000E+00  0.11728085432E+01  0.11728085432E+01  0.00000000000E+00 0. -1.
         -2   -1    0    0    0  501 -0.00000000000E+00 -0.00000000000E+00 -0.57883655985E+03  0.57883655985E+03  0.00000000000E+00 0.  1.
         21    1    1    2  502  501 -0.13134967714E+01 -0.22049555113E+02 -0.44264042643E+03  0.44319121750E+03  0.00000000000E+00 0.  1.
         21    1    1    2  503  502  0.13134967714E+01  0.22049555113E+02 -0.13502332487E+03  0.13681815089E+03  0.00000000000E+00 0. -1.
</event>
<event>
 4    1  0.5696713E+002  0.5858197E+02  0.7546771E-02  0.1264728E+00
          2   -1    0    0  503    0  0.00000000000E+00  0.00000000000E+00  0.24134612591E+03  0.24134612591E+03  0.00000000000E+00 0. -1.
         -2   -1    0    0    0  501 -0.00000000000E+00 -0.00000000000E+00 -0.47092832913E+02  0.47092832913E+02  0.00000000000E+00 0.  1.
         21    1    1    2  502  501 -0.45889941512E+02  0.36413744866E+02 -0.23367975643E+02  0.63070673318E+02  0.00000000000E+00 0.  1.
         21    1    1    2  503  502  0.45889941512E+02 -0.36413744866E+02  0.21762126864E+03  0.22536828550E+03  0.00000000000E+00 0. -1.
</event>
<event>
 4    1  0.5696713E+002  0.2548689E+02  0.7546771E-02  0.1463430E+00
          2   -1    0    0  502    0  0.00000000000E+00  0.00000000000E+00  0.39023638602E+03  0.39023638602E+03  0.00000000000E+00 0. -1.
         -2   -1    0    0    0  501 -0.00000000000E+00 -0.00000000000E+00 -0.18394241391E+01  0.18394241391E+01  0.00000000000E+00 0.  1.
         21    1    1    2  502  503 -0.17454196604E+02  0.18572361059E+02  0.25463767067E+03  0.25590999374E+03  0.00000000000E+00 0. -1.
         21    1    1    2  503  501  0.17454196604E+02 -0.18572361059E+02  0.13375929121E+03  0.13616581641E+03  0.00000000000E+00 0.  1.
</event>
<event>
 4    1  0.5696713E+002  0.2026828E+02  0.7546771E-02  0.1529973E+00
          2   -1    0    0  502    0  0.00000000000E+00  0.00000000000E+00  0.26446744580E+01  0.26446744580E+01  0.00000000000E+00 0.  1.
         -2   -1    0    0    0  501 -0.00000000000E+00 -0.00000000000E+00 -0.15650712649E+03  0.15650712649E+03  0.00000000000E+00 0. -1.
         21    1    1    2  502  503  0.17766494309E+02 -0.97547317675E+01 -0.70036466097E+02  0.72910285250E+02  0.00000000000E+00 0.  1.
         21    1    1    2  503  501 -0.17766494309E+02  0.97547317675E+01 -0.83825985937E+02  0.86241515700E+02  0.00000000000E+00 0. -1.
</event>
<event>
 4    1  0.5696713E+002  0.2904475E+02  0.7546771E-02  0.1428083E+00
          2   -1    0    0  502    0  0.00000000000E+00  0.00000000000E+00  0.18629428298E+01  0.18629428298E+01  0.00000000000E+00 0. -1.
         -2   -1    0    0    0  501 -0.00000000000E+00 -0.00000000000E+00 -0.69043649493E+03  0.69043649493E+03  0.00000000000E+00 0.  1.
         21    1    1    2  502  503  0.72384286374E+01  0.28128323749E+02 -0.14122379607E+03  0.14417960335E+03  0.00000000000E+00 0. -1.
         21    1    1    2  503  501 -0.72384286374E+01 -0.28128323749E+02 -0.54734975603E+03  0.54811983441E+03  0.00000000000E+00 0.  1.
</event>
<event>
 4    1  0.5696713E+002  0.2849035E+02  0.7546771E-02  0.1433185E+00
          2   -1    0    0  502    0  0.00000000000E+00  0.00000000000E+00  0.16072288852E+04  0.16072288852E+04  0.00000000000E+00 0. -1.
         -2   -1    0    0    0  501 -0.00000000000E+00 -0.00000000000E+00 -0.10291053854E+01  0.10291053854E+01  0.00000000000E+00 0.  1.
         21    1    1    2  502  503  0.31561623755E+00  0.28488604465E+02  0.13769418728E+04  0.13772365887E+04  0.00000000000E+00 0. -1.
         21    1    1    2  503  501 -0.31561623755E+00 -0.28488604465E+02  0.22925790701E+03  0.23102140187E+03  0.00000000000E+00 0.  1.
</event>
<event>
 4    1  0.5696713E+002  0.4901924E+02  0.7546771E-02  0.1302482E+00
          2   -1    0    0  503    0  0.00000000000E+00  0.00000000000E+00  0.45211511066E+03  0.45211511066E+03  0.00000000000E+00 0.  1.
         -2   -1    0    0    0  501 -0.00000000000E+00 -0.00000000000E+00 -0.80199120869E+01  0.80199120869E+01  0.00000000000E+00 0. -1.
         21    1    1    2  502  501 -0.42989905746E+02 -0.23553219850E+02  0.88429334595E+02  0.10110703921E+03  0.00000000000E+00 0. -1.
         21    1    1    2  503  502  0.42989905746E+02  0.23553219850E+02  0.35566586397E+03  0.35902798353E+03  0.00000000000E+00 0.  1.
</event>
<event>
 4    1  0.5696713E+002  0.2802470E+02  0.7546771E-02  0.1437578E+00
          2   -1    0    0  502    0  0.00000000000E+00  0.00000000000E+00  0.22836544606E+01  0.22836544606E+01  0.00000000000E+00 0.  1.
         -2   -1    0    0    0  501 -0.00000000000E+00 -0.00000000000E+00 -0.36720194782E+03  0.36720194782E+03  0.00000000000E+00 0. -1.
         21    1    1    2  502  503 -0.27489771113E+02  0.54494375865E+01 -0.13593613713E+03  0.13879487477E+03  0.00000000000E+00 0.  1.
         21    1    1    2  503  501  0.27489771113E+02 -0.54494375865E+01 -0.22898215623E+03  0.23069072751E+03  0.00000000000E+00 0. -1.
</event>
<event>
 4    1  0.5696713E+002  0.2649338E+02  0.7546771E-02  0.1452765E+00
          2   -1    0    0  503    0  0.00000000000E+00  0.00000000000E+00  0.24313258361E+04  0.24313258361E+04  0.00000000000E+00 0.  1.
         -2   -1    0    0    0  501 -0.00000000000E+00 -0.00000000000E+00 -0.35944352363E+00  0.35944352363E+00  0.00000000000E+00 0. -1.
         21    1    1    2  502  501 -0.14090597167E+01 -0.26455884285E+02  0.67605167707E+03  0.67657059449E+03  0.00000000000E+00 0. -1.
         21    1    1    2  503  502  0.14090597167E+01  0.26455884285E+02  0.17549147155E+04  0.17551146851E+04  0.00000000000E+00 0.  1.
</event>
<event>
 4    1  0.5696713E+002  0.2815432E+02  0.7546771E-02  0.1436345E+00
          2   -1    0    0  502    0  0.00000000000E+00  0.00000000000E+00  0.18452675463E+03  0.18452675463E+03  0.00000000000E+00 0.  1.
         -2   -1    0    0    0  501 -0.00000000000E+00 -0.00000000000E+00 -0.43948803351E+01  0.43948803351E+01  0.00000000000E+00 0. -1.
         21    1    1    2  502  503  0.24539684440E+02 -0.13801074138E+02  0.10425847307E+03  0.10799303203E+03  0.00000000000E+00 0.  1.
         21    1    1    2  503  501 -0.24539684440E+02  0.13801074138E+02  0.75873401217E+02  0.80928602929E+02  0.00000000000E+00 0. -1.
</event>
<event>
 4    1  0.5696713E+002  0.2260176E+02  0.7546771E-02  0.1497560E+00
          2   -1    0    0  503    0  0.00000000000E+00  0.00000000000E+00  0.91139765131E+03  0.91139765131E+03  0.00000000000E+00 0. -1.
         -2   -1    0    0    0  501 -0.00000000000E+00 -0.00000000000E+00 -0.56642236581E+00  0.56642236581E+00  0.00000000000E+00 0.  1.
         21    1    1    2  502  501 -0.18406375477E+02 -0.13116584386E+02  0.40879451834E+03  0.40941885358E+03  0.00000000000E+00 0. -1.
         21    1    1    2  503  502  0.18406375477E+02  0.13116584386E+02  0.50203671060E+03  0.50254522009E+03  0.00000000000E+00 0.  1.
</event>
<event>
 4    1  0.5696713E+002  0.2248988E+02  0.7546771E-02  0.1499005E+00
          2   -1    0    0  503    0  0.00000000000E+00  0.00000000000E+00  0.70290286410E+03  0.70290286410E+03  0.00000000000E+00 0.  1.
         -2   -1    0    0    0  501 -0.00000000000E+00 -0.00000000000E+00 -0.13053134884E+01  0.13053134884E+01  0.00000000000E+00 0. -1.
         21    1    1    2  502  501  0.10296525281E+02 -0.19994406064E+02  0.11493363737E+03  0.11711334554E+03  0.00000000000E+00 0. -1.
         21    1    1    2  503  502 -0.10296525281E+02  0.19994406064E+02  0.58666391325E+03  0.58709483204E+03  0.00000000000E+00 0.  1.
</event>
<event>
 4    1  0.5696713E+002  0.2783155E+02  0.7546771E-02  0.1439429E+00
          2   -1    0    0  503    0  0.00000000000E+00  0.00000000000E+00  0.80040307208E+02  0.80040307208E+02  0.00000000000E+00 0.  1.
         -2   -1    0    0    0  501 -0.00000000000E+00 -0.00000000000E+00 -0.70363752531E+02  0.70363752531E+02  0.00000000000E+00 0. -1.
         21    1    1    2  502  501  0.19311076807E+02 -0.20041896782E+02 -0.65001041148E+02  0.70708773603E+02  0.00000000000E+00 0. -1.
         21    1    1    2  503  502 -0.19311076807E+02  0.20041896782E+02  0.74677595825E+02  0.79695286136E+02  0.00000000000E+00 0.  1.
</event>
<event>
 4    1  0.5696713E+002  0.2077974E+02  0.7546771E-02  0.1522433E+00
          2   -1    0    0  503    0  0.00000000000E+00  0.00000000000E+00  0.13707861777E+04  0.13707861777E+04  0.00000000000E+00 0. -1.
         -2   -1    0    0    0  501 -0.00000000000E+00 -0.00000000000E+00 -0.70312385375E+00  0.70312385375E+00  0.00000000000E+00 0.  1.
         21    1    1    2  502  501 -0.80581524900E+01 -0.19153684406E+02  0.17555610613E+03  0.17678162757E+03  0.00000000000E+00 0.  1.
         21    1    1    2  503  502  0.80581524900E+01  0.19153684406E+02  0.11945269477E+04  0.11947076739E+04  0.00000000000E+00 0. -1.
</event>
<event>
 4    1  0.5696713E+002  0.2032422E+02  0.7546771E-02  0.1529136E+00
          2   -1    0    0  502    0  0.00000000000E+00  0.00000000000E+00  0.21290208779E+04  0.21290208779E+04  0.00000000000E+00 0. -1.
         -2   -1    0    0    0  501 -0.00000000000E+00 -0.00000000000E+00 -0.19666710032E+00  0.19666710032E+00  0.00000000000E+00 0.  1.
         21    1    1    2  502  503 -0.10583570970E+02 -0.17351133200E+02  0.94091282937E+03  0.94113231071E+03  0.00000000000E+00 0. -1.
         21    1    1    2  503  501  0.10583570970E+02  0.17351133200E+02  0.11879113814E+04  0.11880852343E+04  0.00000000000E+00 0.  1.
</event>
<event>
 4    1  0.5696713E+002  0.3097062E+02  0.7546771E-02  0.1411345E+00
          2   -1    0    0  502    0  0.00000000000E+00  0.00000000000E+00  0.33436248241E+01  0.33436248241E+01  0.00000000000E+00 0.  1.
         -2   -1    0    0    0  501 -0.00000000000E+00 -0.00000000000E+00 -0.29827766015E+03  0.29827766015E+03  0.00000000000E+00 0. -1.
         21    1    1    2  502  503  0.30727675468E+02  0.38715669643E+01 -0.17696262795E+03  0.17965230519E+03  0.00000000000E+00 0. -1.
         21    1    1    2  503  501 -0.30727675468E+02 -0.38715669643E+01 -0.11797140738E+03  0.12196897978E+03  0.00000000000E+00 0.  1.
</event>
<event>
 4    1  0.5696713E+002  0.2974593E+02  0.7546771E-02  0.1421817E+00
          2   -1    0    0  503    0  0.00000000000E+00  0.00000000000E+00  0.49033537434E+01  0.49033537434E+01  0.00000000000E+00 0. -1.
         -2   -1    0    0    0  501 -0.00000000000E+00 -0.00000000000E+00 -0.18583154607E+03  0.18583154607E+03  0.00000000000E+00 0.  1.
         21    1    1    2  502  501 -0.28642233230E+02 -0.80276468066E+01 -0.10668996389E+03  0.11075905846E+03  0.00000000000E+00 0.  1.
         21    1    1    2  503  502  0.28642233230E+02  0.80276468066E+01 -0.74238228437E+02  0.79975841347E+02  0.00000000000E+00 0. -1.
</event>
<event>
 4    1  0.5696713E+002  0.3550136E+02  0.7546771E-02  0.1377072E+00
          2   -1    0    0  503    0  0.00000000000E+00  0.00000000000E+00  0.54408978718E+03  0.54408978718E+03  0.00000000000E+00 0.  1.
         -2   -1    0    0    0  501 -0.00000000000E+00 -0.00000000000E+00 -0.36355763711E+01  0.36355763711E+01  0.00000000000E+00 0. -1.
         21    1    1    2  502  501  0.34924548220E+02 -0.63735893899E+01  0.10526185495E+03  0.11108737470E+03  0.00000000000E+00 0. -1.
         21    1    1    2  503  502 -0.34924548220E+02  0.63735893899E+01  0.43519235586E+03  0.43663798886E+03  0.00000000000E+00 0.  1.
</event>
<event>
 4    1  0.5696713E+002  0.2049804E+02  0.7546771E-02  0.1526554E+00
          2   -1    0    0  503    0  0.00000000000E+00  0.00000000000E+00  0.28078911741E+03  0.28078911741E+03  0.00000000000E+00 0. -1.
         -2   -1    0    0    0  501 -0.00000000000E+00 -0.00000000000E+00 -0.58828240243E+01  0.58828240243E+01  0.00000000000E+00 0.  1.
         21    1    1    2  502  501  0.19073979157E+02 -0.75068695866E+01  0.13682372028E+02  0.24645021327E+02  0.00000000000E+00 0.  1.
         21    1    1    2  503  502 -0.19073979157E+02  0.75068695866E+01  0.26122392136E+03  0.26202692011E+03  0.00000000000E+00 0. -1.
</event>
<event>
 4    1  0.5696713E+002  0.2699902E+02  0.7546771E-02  0.1447618E+00
          2   -1    0    0  503    0  0.00000000000E+00  0.00000000000E+00  0.15953049242E+01  0.15953049242E+01  0.00000000000E+00 0.  1.
         -2   -1    0    0    0  501 -0.00000000000E+00 -0.00000000000E+00 -0.61738544638E+03  0.61738544638E+03  0.00000000000E+00 0. -1.
         21    1    1    2  502  501 -0.82316427506E+01 -0.25713564207E+02 -0.46567154364E+03  0.46645357098E+03  0.00000000000E+00 0. -1.
         21    1    1    2  503  502  0.82316427506E+01  0.25713564207E+02 -0.15011859782E+03  0.15252718032E+03  0.00000000000E+00 0.  1.
</event>
<event>
 4    1  0.5696713E+002  0.2653716E+02  0.7546771E-02  0.1452314E+00
          2   -1    0    0  503    0  0.00000000000E+00  0.00000000000E+00  0.86149719166E+03  0.86149719166E+03  0.00000000000E+00 0. -1.
         -2   -1    0    0    0  501 -0.00000000000E+00 -0.00000000000E+00 -0.82852620600E+00  0.82852620600E+00  0.00000000000E+00 0.  1.
         21    1    1    2  502  501  0.14265593749E+02 -0.22376629710E+02  0.38045567583E+03  0.38138004928E+03  0.00000000000E+00 0. -1.
         21    1    1    2  503  502 -0.14265593749E+02  0.22376629710E+02  0.48021298963E+03  0.48094566859E+03  0.00000000000E+00 0.  1.
</event>
<event>
 4    1  0.5696713E+002  0.4598189E+02  0.7546771E-02  0.1316601E+00
          2   -1    0    0  503    0  0.00000000000E+00  0.00000000000E+00  0.36392904374E+03  0.36392904374E+03  0.00000000000E+00 0. -1.
         -2   -1    0    0    0  501 -0.00000000000E+00 -0.00000000000E+00 -0.10401794685E+02  0.10401794685E+02  0.00000000000E+00 0.  1.
         21    1    1    2  502  501 -0.39269653680E+02 -0.23921295027E+02  0.52405295741E+02  0.69718355385E+02  0.00000000000E+00 0. -1.
         21    1    1    2  503  502  0.39269653680E+02  0.23921295027E+02  0.30112195331E+03  0.30461248304E+03  0.00000000000E+00 0.  1.
</event>
<event>
 4    1  0.5696713E+002  0.2183713E+02  0.7546771E-02  0.1507640E+00
          2   -1    0    0  502    0  0.00000000000E+00  0.00000000000E+00  0.24178375983E+03  0.24178375983E+03  0.00000000000E+00 0. -1.
         -2   -1    0    0    0  501 -0.00000000000E+00 -0.00000000000E+00 -0.47655602971E+01  0.47655602971E+01  0.00000000000E+00 0.  1.
         21    1    1    2  502  503 -0.20568513114E+02 -0.73346048601E+01  0.21288817819E+03  0.21400522558E+03  0.00000000000E+00 0. -1.
         21    1    1    2  503  501  0.20568513114E+02  0.73346048601E+01  0.24130021340E+02  0.32544094550E+02  0.00000000000E+00 0.  1.
</event>
<event>
 4    1  0.5696713E+002  0.7656070E+02  0.7546771E-02  0.1212065E+00
          2   -1    0    0  503    0  0.00000000000E+00  0.00000000000E+00  0.36343689961E+03  0.36343689961E+03  0.00000000000E+00 0.  1.
         -2   -1    0    0    0  501 -0.00000000000E+00 -0.00000000000E+00 -0.29019062348E+02  0.29019062348E+02  0.00000000000E+00 0. -1.
         21    1    1    2  502  501  0.76368141131E+02  0.54265385681E+01  0.36422631062E+02  0.84782948487E+02  0.00000000000E+00 0. -1.
         21    1    1    2  503  502 -0.76368141131E+02 -0.54265385681E+01  0.29799520620E+03  0.30767301347E+03  0.00000000000E+00 0.  1.
</event>
<event>
 4    1  0.5696713E+002  0.3411944E+02  0.7546771E-02  0.1386862E+00
          2   -1    0    0  502    0  0.00000000000E+00  0.00000000000E+00  0.29110248641E+04  0.29110248641E+04  0.00000000000E+00 0. -1.
         -2   -1    0    0    0  501 -0.00000000000E+00 -0.00000000000E+00 -0.72179168873E+00  0.72179168873E+00  0.00000000000E+00 0.  1.
         21    1    1    2  502  503 -0.20171283814E+02  0.27518278417E+02  0.24273803290E+04  0.24276201099E+04  0.00000000000E+00 0. -1.
         21    1    1    2  503  501  0.20171283814E+02 -0.27518278417E+02  0.48292274344E+03  0.48412654593E+03  0.00000000000E+00 0.  1.
</event>
<event>
 4    1  0.5696713E+002  0.2237697E+02  0.7546771E-02  0.1500473E+00
          2   -1    0    0  502    0  0.00000000000E+00  0.00000000000E+00  0.37663596224E+01  0.37663596224E+01  0.00000000000E+00 0. -1.
         -2   -1    0    0    0  501 -0.00000000000E+00 -0.00000000000E+00 -0.98846562039E+03  0.98846562039E+03  0.00000000000E+00 0.  1.
         21    1    1    2  502  503  0.20423602378E+02  0.91435808312E+01 -0.30801482715E+02  0.38071773560E+02  0.00000000000E+00 0. -1.
         21    1    1    2  503  501 -0.20423602378E+02 -0.91435808312E+01 -0.95389777805E+03  0.95416020645E+03  0.00000000000E+00 0.  1.
</event>
<event>
 4    1  0.5696713E+002  0.2437257E+02  0.7546771E-02  0.1475946E+00
          2   -1    0    0  502    0  0.00000000000E+00  0.00000000000E+00  0.52249824122E+03  0.52249824122E+03  0.00000000000E+00 0. -1.
         -2   -1    0    0    0  501 -0.00000000000E+00 -0.00000000000E+00 -0.24195168467E+01  0.24195168467E+01  0.00000000000E+00 0.  1.
         21    1    1    2  502  503 -0.11565439420E+02 -0.21453741408E+02  0.45113347473E+03  0.45179136162E+03  0.00000000000E+00 0. -1.
         21    1    1    2  503  501  0.11565439420E+02  0.21453741408E+02  0.68945249640E+02  0.73126396447E+02  0.00000000000E+00 0.  1.
</event>
<event>
 4    1  0.5696713E+002  0.3327805E+02  0.7546771E-02  0.1393091E+00
          2   -1    0    0  503    0  0.00000000000E+00  0.00000000000E+00  0.66791942470E+03  0.66791942470E+03  0.00000000000E+00 0. -1.
         -2   -1    0    0    0  501 -0.00000000000E+00 -0.00000000000E+00 -0.67305500174E+01  0.67305500174E+01  0.00000000000E+00 0.  1.
         21    1    1    2  502  501 -0.15794121181E+02  0.29291204080E+02  0.37751187076E+02  0.50324755598E+02  0.00000000000E+00 0.  1.
         21    1    1    2  503  502  0.15794121181E+02 -0.29291204080E+02  0.62343768760E+03  0.62432521912E+03  0.00000000000E+00 0. -1.
</event>
<event>
 4    1  0.5696713E+002  0.2115083E+02  0.7546771E-02  0.1517122E+00
          2   -1    0    0  503    0  0.00000000000E+00  0.00000000000E+00  0.11933193923E+04  0.11933193923E+04  0.00000000000E+00 0.  1.
         -2   -1    0    0    0  501 -0.00000000000E+00 -0.00000000000E+00 -0.38968195669E+00  0.38968195669E+00  0.00000000000E+00 0. -1.
         21    1    1    2  502  501 -0.16161438788E+02 -0.13644248176E+02  0.71276993168E+03  0.71308367891E+03  0.00000000000E+00 0. -1.
         21    1    1    2  503  502  0.16161438788E+02  0.13644248176E+02  0.48015977862E+03  0.48062539531E+03  0.00000000000E+00 0.  1.
</event>
<event>
 4    1  0.5696713E+002  0.2071779E+02  0.7546771E-02  0.1523332E+00
          2   -1    0    0  503    0  0.00000000000E+00  0.00000000000E+00  0.12917134215E+04  0.12917134215E+04  0.00000000000E+00 0.  1.
         -2   -1    0    0    0  501 -0.00000000000E+00 -0.00000000000E+00 -0.63618886704E+00  0.63618886704E+00  0.00000000000E+00 0. -1.
         21    1    1    2  502  501  0.30430939684E+01  0.20493084308E+02  0.19893770218E+03  0.20001359022E+03  0.00000000000E+00 0. -1.
         21    1    1    2  503  502 -0.30430939684E+01 -0.20493084308E+02  0.10921395304E+04  0.10923360201E+04  0.00000000000E+00 0.  1.
</event>
<event>
 4    1  0.5696713E+002  0.4713459E+02  0.7546771E-02  0.1311098E+00
          2   -1    0    0  502    0  0.00000000000E+00  0.00000000000E+00  0.56941526542E+03  0.56941526542E+03  0.00000000000E+00 0. -1.
         -2   -1    0    0    0  501 -0.00000000000E+00 -0.00000000000E+00 -0.17751935862E+02  0.17751935862E+02  0.00000000000E+00 0.  1.
         21    1    1    2  502  503  0.50665340204E+01 -0.46861500431E+02  0.53515285151E+03  0.53722457546E+03  0.00000000000E+00 0. -1.
         21    1    1    2  503  501 -0.50665340204E+01  0.46861500431E+02  0.16510478048E+02  0.49942625832E+02  0.00000000000E+00 0.  1.
</event>
<event>
 4    1  0.5696713E+002  0.2256349E+02  0.7546771E-02  0.1498053E+00
          2   -1    0    0  502    0  0.00000000000E+00  0.00000000000E+00  0.61456595547E+01  0.61456595547E+01  0.00000000000E+00 0.  1.
         -2   -1    0    0    0  501 -0.00000000000E+00 -0.00000000000E+00 -0.86256805062E+02  0.86256805062E+02  0.00000000000E+00 0. -1.
         21    1    1    2  502  503 -0.19433259477E+01 -0.22479652217E+02 -0.30861310255E+02  0.38229984962E+02  0.00000000000E+00 0. -1.
         21    1    1    2  503  501  0.19433259477E+01  0.22479652217E+02 -0.49249835253E+02  0.54172479655E+02  0.00000000000E+00 0.  1.
</event>
<event>
 4    1  0.5696713E+002  0.2305033E+02  0.7546771E-02  0.1491867E+00
          2   -1    0    0  502    0  0.00000000000E+00  0.00000000000E+00  0.67883829377E+01  0.67883829377E+01  0.00000000000E+00 0.  1.
         -2   -1    0    0    0  501 -0.00000000000E+00 -0.00000000000E+00 -0.13241885996E+03  0.13241885996E+03  0.00000000000E+00 0. -1.
         21    1    1    2  502  503  0.47504863693E+01  0.22555497319E+02 -0.18305301517E+02  0.29434701352E+02  0.00000000000E+00 0.  1.
         21    1    1    2  503  501 -0.47504863693E+01 -0.22555497319E+02 -0.10732517550E+03  0.10977254154E+03  0.00000000000E+00 0. -1.
</event>
<event>
 4    1  0.5696713E+002  0.2045580E+02  0.7546771E-02  0.1527178E+00
          2   -1    0    0  503    0  0.00000000000E+00  0.00000000000E+00  0.11246381032E+04  0.11246381032E+04  0.00000000000E+00 0. -1.
         -2   -1    0    0    0  501 -0.00000000000E+00 -0.00000000000E+00 -0.40675094482E+00  0.40675094482E+00  0.00000000000E+00 0.  1.
         21    1    1    2  502  501 -0.18582695508E+02  0.85512113675E+01  0.39785068453E+03  0.39837621285E+03  0.00000000000E+00 0.  1.
         21    1    1    2  503  502  0.18582695508E+02 -0.85512113675E+01  0.72638066773E+03  0.72666864130E+03  0.00000000000E+00 0. -1.
</event>
<event>
 4    1  0.5696713E+002  0.3851349E+02  0.7546771E-02  0.1357424E+00
          2   -1    0    0  503    0  0.00000000000E+00  0.00000000000E+00  0.18271441398E+04  0.18271441398E+04  0.00000000000E+00 0.  1.
         -2   -1    0    0    0  501 -0.00000000000E+00 -0.00000000000E+00 -0.10634284126E+01  0.10634284126E+01  0.00000000000E+00 0. -1.
         21    1    1    2  502  501 -0.18702044016E+02 -0.33667823212E+02  0.46839372943E+03  0.46997444030E+03  0.00000000000E+00 0. -1.
         21    1    1    2  503  502  0.18702044016E+02  0.33667823212E+02  0.13576869819E+04  0.13582331279E+04  0.00000000000E+00 0.  1.
</event>
<event>
 4    1  0.5696713E+002  0.2335355E+02  0.7546771E-02  0.1488106E+00
          2   -1    0    0  502    0  0.00000000000E+00  0.00000000000E+00  0.29314851977E+03  0.29314851977E+03  0.00000000000E+00 0.  1.
         -2   -1    0    0    0  501 -0.00000000000E+00 -0.00000000000E+00 -0.22194861348E+01  0.22194861348E+01  0.00000000000E+00 0. -1.
         21    1    1    2  502  503 -0.11553503145E+02  0.20295443146E+02  0.20486305152E+03  0.20618985990E+03  0.00000000000E+00 0.  1.
         21    1    1    2  503  501  0.11553503145E+02 -0.20295443146E+02  0.86065982114E+02  0.89178146004E+02  0.00000000000E+00 0. -1.
</event>
<event>
 4    1  0.5696713E+002  0.2118257E+02  0.7546771E-02  0.1516674E+00
          2   -1    0    0  502    0  0.00000000000E+00  0.00000000000E+00  0.20891600109E+02  0.20891600109E+02  0.00000000000E+00 0. -1.
         -2   -1    0    0    0  501 -0.00000000000E+00 -0.00000000000E+00 -0.28514275938E+02  0.28514275938E+02  0.00000000000E+00 0.  1.
         21    1    1    2  502  503  0.20430715382E+02 -0.55935034856E+01 -0.16082939224E+02  0.26596284446E+02  0.00000000000E+00 0. -1.
         21    1    1    2  503  501 -0.20430715382E+02  0.55935034856E+01  0.84602633948E+01  0.22809591600E+02  0.00000000000E+00 0.  1.
</event>
<event>
 4    1  0.5696713E+002  0.2415730E+02  0.7546771E-02  0.1478456E+00
          2   -1    0    0  502    0  0.00000000000E+00  0.00000000000E+00  0.45932636996E+02  0.45932636996E+02  0.00000000000E+00 0. -1.
         -2   -1    0    0    0  501 -0.00000000000E+00 -0.00000000000E+00 -0.15290799156E+02  0.15290799156E+02  0.00000000000E+00 0.  1.
         21    1    1    2  502  503 -0.23535165032E+02 -0.54471120176E+01  0.27909257583E+02  0.36912080424E+02  0.00000000000E+00 0. -1.
         21    1    1    2  503  501  0.23535165032E+02  0.54471120176E+01  0.27325802570E+01  0.24311355727E+02  0.00000000000E+00 0.  1.
</event>
<event>
 4    1  0.5696713E+002  0.2038782E+02  0.7546771E-02  0.1528187E+00
          2   -1    0    0  502    0  0.00000000000E+00  0.00000000000E+00  0.14791179864E+03  0.14791179864E+03  0.00000000000E+00 0. -1.
         -2   -1    0    0    0  501 -0.00000000000E+00 -0.00000000000E+00 -0.29080259646E+01  0.29080259646E+01  0.00000000000E+00 0.  1.
         21    1    1    2  502  503  0.26842352442E+01  0.20210341520E+02  0.86332360042E+02  0.88707042638E+02  0.00000000000E+00 0.  1.
         21    1    1    2  503  501 -0.26842352442E+01 -0.20210341520E+02  0.58671412631E+02  0.62112781964E+02  0.00000000000E+00 0. -1.
</event>
<event>
 4    1  0.5696713E+002  0.3475592E+02  0.7546771E-02  0.1382287E+00
          2   -1    0    0  502    0  0.00000000000E+00  0.00000000000E+00  0.16964919340E+02  0.16964919340E+02  0.00000000000E+00 0.  1.
         -2   -1    0    0    0  501 -0.00000000000E+00 -0.00000000000E+00 -0.56389192072E+03  0.56389192072E+03  0.00000000000E+00 0. -1.
         21    1    1    2  502  503  0.17186915825E+02  0.30209002893E+02 -0.19902555644E+01  0.34812857518E+02  0.00000000000E+00 0.  1.
         21    1    1    2  503  501 -0.17186915825E+02 -0.30209002893E+02 -0.54493674582E+03  0.54604398254E+03  0.00000000000E+00 0. -1.
</event>
<event>
 4    1  0.5696713E+002  0.2545366E+02  0.7546771E-02  0.1463792E+00
          2   -1    0    0  502    0  0.00000000000E+00  0.00000000000E+00  0.17120962632E+01  0.17120962632E+01  0.00000000000E+00 0. -1.
         -2   -1    0    0    0  501 -0.00000000000E+00 -0.00000000000E+00 -0.43434809681E+03  0.43434809681E+03  0.00000000000E+00 0.  1.
         21    1    1    2  502  503  0.12549581836E+02  0.22144907559E+02 -0.13807990841E+03  0.14040637465E+03  0.00000000000E+00 0. -1.
         21    1    1    2  503  501 -0.12549581836E+02 -0.22144907559E+02 -0.29455609213E+03  0.29565381842E+03  0.00000000000E+00 0.  1.
</event>
<event>
 4    1  0.5696713E+002  0.2039670E+02  0.7546771E-02  0.1528055E+00
          2   -1    0    0  502    0  0.00000000000E+00  0.00000000000E+00  0.20991151737E+03  0.20991151737E+03  0.00000000000E+00 0. -1.
         -2   -1    0    0    0  501 -0.00000000000E+00 -0.00000000000E+00 -0.70250053953E+01  0.70250053953E+01  0.00000000000E+00 0.  1.
         21    1    1    2  502  503  0.20336308446E+02  0.15684164214E+01  0.19334590173E+03  0.19441878275E+03  0.00000000000E+00 0. -1.
         21    1    1    2  503  501 -0.20336308446E+02 -0.15684164214E+01  0.95406102384E+01  0.22517740006E+02  0.00000000000E+00 0.  1.
</event>
<event>
 4    1  0.5696713E+002  0.4429693E+02  0.7546771E-02  0.1324993E+00
          2   -1    0    0  503    0  0.00000000000E+00  0.00000000000E+00  0.39886541015E+02  0.39886541015E+02  0.00000000000E+00 0. -1.
         -2   -1    0    0    0  501 -0.00000000000E+00 -0.00000000000E+00 -0.16312081735E+03  0.16312081735E+03  0.00000000000E+00 0.  1.
         21    1    1    2  502  501 -0.35128977629E+02  0.26984681288E+02 -0.14644493360E+03  0.15299783224E+03  0.00000000000E+00 0.  1.
         21    1    1    2  503  502  0.35128977629E+02 -0.26984681288E+02  0.23210657259E+02  0.50009526131E+02  0.00000000000E+00 0. -1.
</event>
<event>
 4    1  0.5696713E+002  0.2167501E+02  0.7546771E-02  0.1509842E+00
          2   -1    0    0  503    0  0.00000000000E+00  0.00000000000E+00  0.99528007946E+03  0.99528007946E+03  0.00000000000E+00 0. -1.
         -2   -1    0    0    0  501 -0.00000000000E+00 -0.00000000000E+00 -0.56559353902E+00  0.56559353902E+00  0.00000000000E+00 0.  1.
         21    1    1    2  502  501  0.18047116053E+02 -0.12004482186E+02  0.29484374712E+03  0.29563937695E+03  0.00000000000E+00 0.  1.
         21    1    1    2  503  502 -0.18047116053E+02  0.12004482186E+02  0.69987073880E+03  0.70020629605E+03  0.00000000000E+00 0. -1.
</event>
<event>
 4    1  0.5696713E+002  0.2491737E+02  0.7546771E-02  0.1469730E+00
          2   -1    0    0  503    0  0.00000000000E+00  0.00000000000E+00  0.13464641277E+04  0.13464641277E+04  0.00000000000E+00 0.  1.
         -2   -1    0    0    0  501 -0.00000000000E+00 -0.00000000000E+00 -0.70150017460E+00  0.70150017460E+00  0.00000000000E+00 0. -1.
         21    1    1    2  502  501  0.14456244965E+02  0.20295131855E+02  0.27857788768E+03  0.27969003361E+03  0.00000000000E+00 0. -1.
         21    1    1    2  503  502 -0.14456244965E+02 -0.20295131855E+02  0.10671847398E+04  0.10674755943E+04  0.00000000000E+00 0.  1.
</event>
<event>
 4    1  0.5696713E+002  0.3618066E+02  0.7546771E-02  0.1372448E+00
          2   -1    0    0  503    0  0.00000000000E+00  0.00000000000E+00  0.69935459391E+03  0.69935459391E+03  0.00000000000E+00 0. -1.
         -2   -1    0    0    0  501 -0.00000000000E+00 -0.00000000000E+00 -0.84659461946E+01  0.84659461946E+01  0.00000000000E+00 0.  1.
         21    1    1    2  502  501 -0.31534320469E+02 -0.17737715799E+02  0.33098816051E+02  0.49036430877E+02  0.00000000000E+00 0.  1.
         21    1    1    2  503  502  0.31534320469E+02  0.17737715799E+02  0.65778983167E+03  0.65878410923E+03  0.00000000000E+00 0. -1.
</event>
<event>
 4    1  0.5696713E+002  0.2288206E+02  0.7546771E-02  0.1493984E+00
          2   -1    0    0  503    0  0.00000000000E+00  0.00000000000E+00  0.12158871833E+03  0.12158871833E+03  0.00000000000E+00 0.  1.
         -2   -1    0    0    0  501 -0.00000000000E+00 -0.00000000000E+00 -0.52916373955E+01  0.52916373955E+01  0.00000000000E+00 0. -1.
         21    1    1    2  502  501 -0.17669170974E+02 -0.14539229548E+02  0.30772060748E+02  0.38347210087E+02  0.00000000000E+00 0. -1.
         21    1    1    2  503  502  0.17669170974E+02  0.14539229548E+02  0.85525020191E+02  0.88533145643E+02  0.00000000000E+00 0.  1.
</event>
<event>
 4    1  0.5696713E+002  0.3264890E+02  0.7546771E-02  0.1397891E+00
          2   -1    0    0  503    0  0.00000000000E+00  0.00000000000E+00  0.77232188980E+02  0.77232188980E+02  0.00000000000E+00 0.  1.
         -2   -1    0    0    0  501 -0.00000000000E+00 -0.00000000000E+00 -0.32387154083E+02  0.32387154083E+02  0.00000000000E+00 0. -1.
         21    1    1    2  502  501 -0.26239094476E+02  0.19428340092E+02 -0.19097270652E+02  0.37824016498E+02  0.00000000000E+00 0. -1.
         21    1    1    2  503  502  0.26239094476E+02 -0.19428340092E+02  0.63942305549E+02  0.71795326565E+02  0.00000000000E+00 0.  1.
</event>
<event>
 4    1  0.5696713E+002  0.2229917E+02  0.7546771E-02  0.1501491E+00
          2   -1    0    0  502    0  0.00000000000E+00  0.00000000000E+00  0.81311305623E+02  0.81311305623E+02  0.00000000000E+00 0.  1.
         -2   -1    0    0    0  501 -0.00000000000E+00 -0.00000000000E+00 -0.61482879102E+01  0.61482879102E+01  0.00000000000E+00 0. -1.
         21    1    1    2  502  503 -0.22296578038E+02 -0.34005522576E+00  0.40778684442E+02  0.46477458349E+02  0.00000000000E+00 0.  1.
         21    1    1    2  503  501  0.22296578038E+02  0.34005522576E+00  0.34384333271E+02  0.40982135184E+02  0.00000000000E+00 0. -1.
</event>
<event>
 4    1  0.5696713E+002  0.3065587E+02  0.7546771E-02  0.1413981E+00
          2   -1    0    0  503    0  0.00000000000E+00  0.00000000000E+00  0.11584734962E+03  0.11584734962E+03  0.00000000000E+00 0. -1.
         -2   -1    0    0    0  501 -0.00000000000E+00 -0.00000000000E+00 -0.98714340001E+01  0.98714340001E+01  0.00000000000E+00 0.  1.
         21    1    1    2  502  501 -0.30568378358E+02 -0.23144659249E+01  0.26451933954E+02  0.40490583076E+02  0.00000000000E+00 0.  1.
         21    1    1    2  503  502  0.30568378358E+02  0.23144659249E+01  0.79523981671E+02  0.85228200549E+02  0.00000000000E+00 0. -1.
</event>
<event>
 4    1  0.5696713E+002  0.2109184E+02  0.7546771E-02  0.1517958E+00
          2   -1    0    0  503    0  0.00000000000E+00  0.00000000000E+00  0.14567363895E+03  0.14567363895E+03  0.00000000000E+00 0.  1.
         -2   -1    0    0    0  501 -0.00000000000E+00 -0.00000000000E+00 -0.59179104855E+01  0.59179104855E+01  0.00000000000E+00 0. -1.
         21    1    1    2  502  501 -0.12874254084E+02 -0.16706863947E+02  0.17148595546E+02  0.27183451774E+02  0.00000000000E+00 0. -1.
         21    1    1    2  503  502  0.12874254084E+02  0.16706863947E+02  0.12260713292E+03  0.12440809766E+03  0.00000000000E+00 0.  1.
</event>
<event>
 4    1  0.5696713E+002  0.3926017E+02  0.7546771E-02  0.1352877E+00
          2   -1    0    0  502    0  0.00000000000E+00  0.00000000000E+00  0.87507453809E+03  0.87507453809E+03  0.00000000000E+00 0. -1.
         -2   -1    0    0    0  501 -0.00000000000E+00 -0.00000000000E+00 -0.54450328961E+01  0.54450328961E+01  0.00000000000E+00 0.  1.
         21    1    1    2  502  503  0.32205988091E+02 -0.22452960307E+02  0.79692983292E+03  0.79789630886E+03  0.00000000000E+00 0. -1.
         21    1    1    2  503  501 -0.32205988091E+02  0.22452960307E+02  0.72699672270E+02  0.82623262122E+02  0.00000000000E+00 0.  1.
</event>
<event>
 4    1  0.5696713E+002  0.2020727E+02  0.7546771E-02  0.1530891E+00
          2   -1    0    0  503    0  0.00000000000E+00  0.00000000000E+00  0.34641660715E+03  0.34641660715E+03  0.00000000000E+00 0. -1.
         -2   -1    0    0    0  501 -0.00000000000E+00 -0.00000000000E+00 -0.14857580046E+01  0.14857580046E+01  0.00000000000E+00 0.  1.
         21    1    1    2  502  501 -0.49082664558E+01 -0.19602105878E+02  0.93390591409E+02  0.95551746181E+02  0.00000000000E+00 0.  1.
         21    1    1    2  503  502  0.49082664558E+01  0.19602105878E+02  0.25154025774E+03  0.25235061898E+03  0.00000000000E+00 0. -1.
</event>
<event>
 4    1  0.5696713E+002  0.2262077E+02  0.7546771E-02  0.1497316E+00
          2   -1    0    0  503    0  0.00000000000E+00  0.00000000000E+00  0.67569576093E+03  0.67569576093E+03  0.00000000000E+00 0. -1.
         -2   -1    0    0    0  501 -0.00000000000E+00 -0.00000000000E+00 -0.51697260677E+01  0.51697260677E+01  0.00000000000E+00 0.  1.
         21    1    1    2  502  501 -0.17619874011E+02 -0.14185881060E+02  0.20751423281E+02  0.30697243358E+02  0.00000000000E+00 0.  1.
         21    1    1    2  503  502  0.17619874011E+02  0.14185881060E+02  0.64977461158E+03  0.65016824364E+03  0.00000000000E+00 0. -1.
</event>
<event>
 4    1  0.5696713E+002  0.3398631E+02  0.7546771E-02  0.1387833E+00
          2   -1    0    0  502    0  0.00000000000E+00  0.00000000000E+00  0.20186510546E+03  0.20186510546E+03  0.00000000000E+00 0. -1.
         -2   -1    0    0    0  501 -0.00000000000E+00 -0.00000000000E+00 -0.18605345079E+02  0.18605345079E+02  0.00000000000E+00 0.  1.
         21    1    1    2  502  503 -0.10609618011E+02 -0.32287847823E+02  0.18336087455E+03  0.18648399242E+03  0.00000000000E+00 0. -1.
         21    1    1    2  503  501  0.10609618011E+02  0.32287847823E+02 -0.10111417429E+00  0.33986458118E+02  0.00000000000E+00 0.  1.
</event>
<event>
 4    1  0.5696713E+002  0.4096818E+02  0.7546771E-02  0.1342904E+00
          2   -1    0    0  502    0  0.00000000000E+00  0.00000000000E+00  0.21543068008E+02  0.21543068008E+02  0.00000000000E+00 0. -1.
         -2   -1    0    0    0  501 -0.00000000000E+00 -0.00000000000E+00 -0.17946589320E+03  0.17946589320E+03  0.00000000000E+00 0.  1.
         21    1    1    2  502  503  0.89836412288E+01  0.39971060663E+02 -0.33565205821E+01  0.41105446484E+02  0.00000000000E+00 0. -1.
         21    1    1    2  503  501 -0.89836412288E+01 -0.39971060663E+02 -0.15456630461E+03  0.15990351472E+03  0.00000000000E+00 0.  1.
</event>
<event>
 4    1  0.5696713E+002  0.3266351E+02  0.7546771E-02  0.1397778E+00
          2   -1    0    0  502    0  0.00000000000E+00  0.00000000000E+00  0.99680976190E+03  0.99680976190E+03  0.00000000000E+00 0.  1.
         -2   -1    0    0    0  501 -0.00000000000E+00 -0.00000000000E+00 -0.10705510257E+01  0.10705510257E+01  0.00000000000E+00 0. -1.
         21    1    1    2  502  503  0.32578812465E+02 -0.23507181723E+01  0.50520749313E+03  0.50626229961E+03  0.00000000000E+00 0. -1.
         21    1    1    2  503  501 -0.32578812465E+02  0.23507181723E+01  0.49053171774E+03  0.49161801331E+03  0.00000000000E+00 0.  1.
</event>
<event>
 4    1  0.5696713E+002  0.2998335E+02  0.7546771E-02  0.1419741E+00
          2   -1    0    0  503    0  0.00000000000E+00  0.00000000000E+00  0.71094699286E+03  0.71094699286E+03  0.00000000000E+00 0. -1.
         -2   -1    0    0    0  501 -0.00000000000E+00 -0.00000000000E+00 -0.51614339150E+01  0.51614339150E+01  0.00000000000E+00 0.  1.
         21    1    1    2  502  501 -0.13157445101E+02 -0.26942216243E+02  0.41775290065E+02  0.51421554214E+02  0.00000000000E+00 0.  1.
         21    1    1    2  503  502  0.13157445101E+02  0.26942216243E+02  0.66401026888E+03  0.66468687256E+03  0.00000000000E+00 0. -1.
</event>
<event>
 4    1  0.5696713E+002  0.4841010E+02  0.7546771E-02  0.1305217E+00
          2   -1    0    0  502    0  0.00000000000E+00  0.00000000000E+00  0.87806142289E+03  0.87806142289E+03  0.00000000000E+00 0. -1.
         -2   -1    0    0    0  501 -0.00000000000E+00 -0.00000000000E+00 -0.30320645814E+01  0.30320645814E+01  0.00000000000E+00 0.  1.
         21    1    1    2  502  503 -0.45858013238E+02 -0.15510653601E+02  0.58996217275E+03  0.59194501689E+03  0.00000000000E+00 0. -1.
         21    1    1    2  503  501  0.45858013238E+02  0.15510653601E+02  0.28506718557E+03  0.28914847058E+03  0.00000000000E+00 0.  1.
</event>
<event>
 4    1  0.5696713E+002  0.4161674E+02  0.7546771E-02  0.1339264E+00
          2   -1    0    0  502    0  0.00000000000E+00  0.00000000000E+00  0.11005319368E+04  0.11005319368E+04  0.00000000000E+00 0. -1.
         -2   -1    0    0    0  501 -0.00000000000E+00 -0.00000000000E+00 -0.15777784414E+01  0.15777784414E+01  0.00000000000E+00 0.  1.
         21    1    1    2  502  503 -0.27635094280E+02  0.31116793492E+02  0.57734945556E+03  0.57884742991E+03  0.00000000000E+00 0.  1.
         21    1    1    2  503  501  0.27635094280E+02 -0.31116793492E+02  0.52160470281E+03  0.52326228535E+03  0.00000000000E+00 0. -1.
</event>
<event>
 4    1  0.5696713E+002  0.2061211E+02  0.7546771E-02  0.1524876E+00
          2   -1    0    0  503    0  0.00000000000E+00  0.00000000000E+00  0.11522111765E+03  0.11522111765E+03  0.00000000000E+00 0. -1.
         -2   -1    0    0    0  501 -0.00000000000E+00 -0.00000000000E+00 -0.82025293401E+01  0.82025293401E+01  0.00000000000E+00 0.  1.
         21    1    1    2  502  501 -0.16323019509E+02  0.12586427465E+02  0.77233053821E+01  0.22011555335E+02  0.00000000000E+00 0.  1.
         21    1    1    2  503  502  0.16323019509E+02 -0.12586427465E+02  0.99295282931E+02  0.10141209166E+03  0.00000000000E+00 0. -1.
</event>
<event>
 4    1  0.5696713E+002  0.2027335E+02  0.7546771E-02  0.1529897E+00
          2   -1    0    0  503    0  0.00000000000E+00  0.00000000000E+00  0.40750113244E+02  0.40750113244E+02  0.00000000000E+00 0. -1.
         -2   -1    0    0    0  501 -0.00000000000E+00 -0.00000000000E+00 -0.80517102452E+02  0.80517102452E+02  0.00000000000E+00 0.  1.
         21    1    1    2  502  501 -0.10393211914E+02 -0.17406608500E+02 -0.76592409918E+02  0.79230083493E+02  0.00000000000E+00 0.  1.
         21    1    1    2  503  502  0.10393211914E+02  0.17406608500E+02  0.36825420710E+02  0.42037132203E+02  0.00000000000E+00 0. -1.
</event>
<event>
 4    1  0.5696713E+002  0.2131287E+02  0.7546771E-02  0.1514844E+00
          2   -1    0    0  503    0  0.00000000000E+00  0.00000000000E+00  0.89395439230E+01  0.89395439230E+01  0.00000000000E+00 0. -1.
         -2   -1    0    0    0  501 -0.00000000000E+00 -0.00000000000E+00 -0.12519006946E+03  0.12519006946E+03  0.00000000000E+00 0.  1.
         21    1    1    2  502  501  0.11649826626E+02 -0.17847128601E+02 -0.64323006338E+01  0.22262366252E+02  0.00000000000E+00 0. -1.
         21    1    1    2  503  502 -0.11649826626E+02  0.17847128601E+02 -0.10981822491E+03  0.11186724713E+03  0.00000000000E+00 0.  1.
</event>
<event>
 4    1  0.5696713E+002  0.2232526E+02  0.7546771E-02  0.1501149E+00
          2   -1    0    0  503    0  0.00000000000E+00  0.00000000000E+00  0.55250495740E+01  0.55250495740E+01  0.00000000000E+00 0.  1.
         -2   -1    0    0    0  501 -0.00000000000E+00 -0.00000000000E+00 -0.18988746315E+03  0.18988746315E+03  0.00000000000E+00 0. -1.
         21    1    1    2  502  501 -0.86837911185E+01 -0.20567178741E+02 -0.16297118683E+03  0.16449323635E+03  0.00000000000E+00 0. -1.
         21    1    1    2  503  502  0.86837911185E+01  0.20567178741E+02 -0.21391226748E+02  0.30919276372E+02  0.00000000000E+00 0.  1.
</event>
<event>
 4    1  0.5696713E+002  0.4779289E+02  0.7546771E-02  0.1308036E+00
          2   -1    0    0  503    0  0.00000000000E+00  0.00000000000E+00  0.86765071334E+03  0.86765071334E+03  0.00000000000E+00 0. -1.
         -2   -1    0    0    0  501 -0.00000000000E+00 -0.00000000000E+00 -0.47059922230E+01  0.47059922230E+01  0.00000000000E+00 0.  1.
         21    1    1    2  502  501  0.16534810850E+02  0.44841497741E+02  0.14195051684E+03  0.14978020270E+03  0.00000000000E+00 0.  1.
         21    1    1    2  503  502 -0.16534810850E+02 -0.44841497741E+02  0.72099420427E+03  0.72257650286E+03  0.00000000000E+00 0. -1.
</event>
<event>
 4    1  0.5696713E+002  0.2795211E+02  0.7546771E-02  0.1438271E+00
          2   -1    0    0  503    0  0.00000000000E+00  0.00000000000E+00  0.11174740170E+04  0.11174740170E+04  0.00000000000E+00 0.  1.
         -2   -1    0    0    0  501 -0.00000000000E+00 -0.00000000000E+00 -0.16116213851E+01  0.16116213851E+01  0.00000000000E+00 0. -1.
         21    1    1    2  502  501 -0.21747156734E+02 -0.17560804605E+02  0.13691074329E+03  0.13973500747E+03  0.00000000000E+00 0. -1.
         21    1    1    2  503  502  0.21747156734E+02  0.17560804605E+02  0.97895165230E+03  0.97935063089E+03  0.00000000000E+00 0.  1.
</event>
<event>
 4    1  0.5696713E+002  0.3461315E+02  0.7546771E-02  0.1383303E+00
          2   -1    0    0  502    0  0.00000000000E+00  0.00000000000E+00  0.12895326025E+02  0.12895326025E+02  0.00000000000E+00 0.  1.
         -2   -1    0    0    0  501 -0.00000000000E+00 -0.00000000000E+00 -0.23153951116E+03  0.23153951116E+03  0.00000000000E+00 0. -1.
         21    1    1    2  502  503 -0.27065032167E+02 -0.21576707961E+02 -0.14752268562E+02  0.37625785312E+02  0.00000000000E+00 0.  1.
         21    1    1    2  503  501  0.27065032167E+02  0.21576707961E+02 -0.20389191658E+03  0.20680905188E+03  0.00000000000E+00 0. -1.
</event>
<event>
 4    1  0.5696713E+002  0.2955565E+02  0.7546771E-02  0.1423498E+00
          2   -1    0    0  503    0  0.00000000000E+00  0.00000000000E+00  0.71015943149E+03  0.71015943149E+03  0.00000000000E+00 0. -1.
         -2   -1    0    0    0  501 -0.00000000000E+00 -0.00000000000E+00 -0.18004603174E+01  0.18004603174E+01  0.00000000000E+00 0.  1.
         21    1    1    2  502  501  0.27383292658E+02  0.11121671721E+02  0.15381307055E+03  0.15662693565E+03  0.00000000000E+00 0.  1.
         21    1    1    2  503  502 -0.27383292658E+02 -0.11121671721E+02  0.55454590062E+03  0.55533295616E+03  0.00000000000E+00 0. -1.
</event>
<event>
 4    1  0.5696713E+002  0.2468407E+02  0.7546771E-02  0.1472369E+00
          2   -1    0    0  503    0  0.00000000000E+00  0.00000000000E+00  0.63262102293E+03  0.63262102293E+03  0.00000000000E+00 0.  1.
         -2   -1    0    0    0  501 -0.00000000000E+00 -0.00000000000E+00 -0.44701875849E+01  0.44701875849E+01  0.00000000000E+00 0. -1.
         21    1    1    2  502  501 -0.16094867277E+02  0.18715189940E+02  0.31925760719E+02  0.40355387307E+02  0.00000000000E+00 0. -1.
         21    1    1    2  503  502  0.16094867277E+02 -0.18715189940E+02  0.59622507462E+03  0.59673582321E+03  0.00000000000E+00 0.  1.
</event>
<event>
 4    1  0.5696713E+002  0.3635428E+02  0.7546771E-02  0.1371284E+00
          2   -1    0    0  502    0  0.00000000000E+00  0.00000000000E+00  0.14014007911E+04  0.14014007911E+04  0.00000000000E+00 0.  1.
         -2   -1    0    0    0  501 -0.00000000000E+00 -0.00000000000E+00 -0.12154492945E+01  0.12154492945E+01  0.00000000000E+00 0. -1.
         21    1    1    2  502  503 -0.28871279054E+02  0.22092597087E+02  0.36810709951E+03  0.36989791877E+03  0.00000000000E+00 0. -1.
         21    1    1    2  503  501  0.28871279054E+02 -0.22092597087E+02  0.10320782423E+04  0.10327183216E+04  0.00000000000E+00 0.  1.
</event>
<event>
 4    1  0.5696713E+002  0.2548984E+02  0.7546771E-02  0.1463398E+00
          2   -1    0    0  502    0  0.00000000000E+00  0.00000000000E+00  0.72678878226E+02  0.72678878226E+02  0.00000000000E+00 0. -1.
         -2   -1    0    0    0  501 -0.00000000000E+00 -0.00000000000E+00 -0.97006386783E+01  0.97006386783E+01  0.00000000000E+00 0.  1.
         21    1    1    2  502  503  0.83618554070E+01 -0.24079266804E+02  0.43024896399E+02  0.50008733495E+02  0.00000000000E+00 0. -1.
         21    1    1    2  503  501 -0.83618554070E+01  0.24079266804E+02  0.19953343148E+02  0.32370783408E+02  0.00000000000E+00 0.  1.
</event>
<event>
 4    1  0.5696713E+002  0.2371212E+02  0.7546771E-02  0.1483744E+00
          2   -1    0    0  502    0  0.00000000000E+00  0.00000000000E+00  0.99687825175E+03  0.99687825175E+03  0.00000000000E+00 0. -1.
         -2   -1    0    0    0  501 -0.00000000000E+00 -0.00000000000E+00 -0.82160505364E+00  0.82160505364E+00  0.00000000000E+00 0.  1.
         21    1    1    2  502  503 -0.14717161472E+02 -0.18592203314E+02  0.77734313232E+03  0.77770470632E+03  0.00000000000E+00 0. -1.
         21    1    1    2  503  501  0.14717161472E+02  0.18592203314E+02  0.21871351438E+03  0.21999515049E+03  0.00000000000E+00 0.  1.
</event>
<event>
 4    1  0.5696713E+002  0.3016350E+02  0.7546771E-02  0.1418181E+00
          2   -1    0    0  503    0  0.00000000000E+00  0.00000000000E+00  0.11020162168E+03  0.11020162168E+03  0.00000000000E+00 0. -1.
         -2   -1    0    0    0  501 -0.00000000000E+00 -0.00000000000E+00 -0.10700767478E+03  0.10700767478E+03  0.00000000000E+00 0.  1.
         21    1    1    2  502  501  0.25500184028E+02  0.16111402644E+02 -0.10273392403E+03  0.10707051801E+03  0.00000000000E+00 0.  1.
         21    1    1    2  503  502 -0.25500184028E+02 -0.16111402644E+02  0.10592787092E+03  0.11013877845E+03  0.00000000000E+00 0. -1.
</event>
<event>
 4    1  0.5696713E+002  0.2315491E+02  0.7546771E-02  0.1490562E+00
          2   -1    0    0  502    0  0.00000000000E+00  0.00000000000E+00  0.92653150313E+01  0.92653150313E+01  0.00000000000E+00 0.  1.
         -2   -1    0    0    0  501 -0.00000000000E+00 -0.00000000000E+00 -0.29085870719E+03  0.29085870719E+03  0.00000000000E+00 0. -1.
         21    1    1    2  502  503  0.15955660309E+02  0.16779956586E+02 -0.64891056342E+01  0.24047006693E+02  0.00000000000E+00 0.  1.
         21    1    1    2  503  501 -0.15955660309E+02 -0.16779956586E+02 -0.27510428653E+03  0.27607701553E+03  0.00000000000E+00 0. -1.
</event>
<event>
 4    1  0.5696713E+002  0.2120545E+02  0.7546771E-02  0.1516352E+00
          2   -1    0    0  502    0  0.00000000000E+00  0.00000000000E+00  0.13392764981E+02  0.13392764981E+02  0.00000000000E+00 0.  1.
         -2   -1    0    0    0  501 -0.00000000000E+00 -0.00000000000E+00 -0.48380893080E+02  0.48380893080E+02  0.00000000000E+00 0. -1.
         21    1    1    2  502  503  0.28147709597E+01  0.21017810070E+02 -0.40793735322E+00  0.21209377374E+02  0.00000000000E+00 0.  1.
         21    1    1    2  503  501 -0.28147709597E+01 -0.21017810070E+02 -0.34580190746E+02  0.40564280688E+02  0.00000000000E+00 0. -1.
</event>
<event>
 4    1  0.5696713E+002  0.4266603E+02  0.7546771E-02  0.1333533E+00
          2   -1    0    0  502    0  0.00000000000E+00  0.00000000000E+00  0.98394748993E+03  0.98394748993E+03  0.00000000000E+00 0. -1.
         -2   -1    0    0    0  501 -0.00000000000E+00 -0.00000000000E+00 -0.85824470030E+01  0.85824470030E+01  0.00000000000E+00 0.  1.
         21    1    1    2  502  503  0.29438283335E+02  0.30883290262E+02  0.92721570078E+03  0.92819682499E+03  0.00000000000E+00 0. -1.
         21    1    1    2  503  501 -0.29438283335E+02 -0.30883290262E+02  0.48149342138E+02  0.64333111937E+02  0.00000000000E+00 0.  1.
</event>
<event>
 4    1  0.5696713E+002  0.2809762E+02  0.7546771E-02  0.1436883E+00
          2   -1    0    0  503    0  0.00000000000E+00  0.00000000000E+00  0.60426025702E+03  0.60426025702E+03  0.00000000000E+00 0. -1.
         -2   -1    0    0    0  501 -0.00000000000E+00 -0.00000000000E+00 -0.20055290735E+01  0.20055290735E+01  0.00000000000E+00 0.  1.
         21    1    1    2  502  501 -0.25791348741E+02 -0.11148220766E+02  0.12216536585E+03  0.12535490860E+03  0.00000000000E+00 0.  1.
         21    1    1    2  503  502  0.25791348741E+02  0.11148220766E+02  0.48008936210E+03  0.48091087750E+03  0.00000000000E+00 0. -1.
</event>
<event>
 4    1  0.5696713E+002  0.4454397E+02  0.7546771E-02  0.1323736E+00
          2   -1    0    0  502    0  0.00000000000E+00  0.00000000000E+00  0.10346378763E+04  0.10346378763E+04  0.00000000000E+00 0. -1.
         -2   -1    0    0    0  501 -0.00000000000E+00 -0.00000000000E+00 -0.22723655812E+01  0.22723655812E+01  0.00000000000E+00 0.  1.
         21    1    1    2  502  503  0.38319136577E+02 -0.22711428672E+02  0.72099589726E+03  0.72237057601E+03  0.00000000000E+00 0. -1.
         21    1    1    2  503  501 -0.38319136577E+02  0.22711428672E+02  0.31136961345E+03  0.31453966586E+03  0.00000000000E+00 0.  1.
</event>
<event>
 4    1  0.5696713E+002  0.3668898E+02  0.7546771E-02  0.1369063E+00
          2   -1    0    0  503    0  0.00000000000E+00  0.00000000000E+00  0.58824585269E+03  0.58824585269E+03  0.00000000000E+00 0. -1.
         -2   -1    0    0    0  501 -0.00000000000E+00 -0.00000000000E+00 -0.22883457063E+01  0.22883457063E+01  0.00000000000E+00 0.  1.
         21    1    1    2  502  501  0.10926644703E+02 -0.35024132372E+02  0.29433637919E+03  0.29661420318E+03  0.00000000000E+00 0.  1.
         21    1    1    2  503  502 -0.10926644703E+02  0.35024132372E+02  0.29162112779E+03  0.29391999522E+03  0.00000000000E+00 0. -1.
</event>
<event>
 4    1  0.5696713E+002  0.6344062E+02  0.7546771E-02  0.1248570E+00
          2   -1    0    0  502    0  0.00000000000E+00  0.00000000000E+00  0.68640795847E+03  0.68640795847E+03  0.00000000000E+00 0.  1.
         -2   -1    0    0    0  501 -0.00000000000E+00 -0.00000000000E+00 -0.58650459926E+01  0.58650459926E+01  0.00000000000E+00 0. -1.
         21    1    1    2  502  503 -0.32824058731E+02  0.54288979198E+02  0.33454426995E+03  0.34050635919E+03  0.00000000000E+00 0. -1.
         21    1    1    2  503  501  0.32824058731E+02 -0.54288979198E+02  0.34599864252E+03  0.35176664527E+03  0.00000000000E+00 0.  1.
</event>
<event>
 4    1  0.5696713E+002  0.3400296E+02  0.7546771E-02  0.1387711E+00
          2   -1    0    0  503    0  0.00000000000E+00  0.00000000000E+00  0.23442317761E+02  0.23442317761E+02  0.00000000000E+00 0. -1.
         -2   -1    0    0    0  501 -0.00000000000E+00 -0.00000000000E+00 -0.54575063856E+02  0.54575063856E+02  0.00000000000E+00 0.  1.
         21    1    1    2  502  501 -0.89324709742E+01  0.32808719104E+02 -0.27669775015E+02  0.43838539395E+02  0.00000000000E+00 0.  1.
         21    1    1    2  503  502  0.89324709742E+01 -0.32808719104E+02 -0.34629710801E+01  0.34178842222E+02  0.00000000000E+00 0. -1.
</event>
<event>
 4    1  0.5696713E+002  0.2547658E+02  0.7546771E-02  0.1463542E+00
          2   -1    0    0  502    0  0.00000000000E+00  0.00000000000E+00  0.11018157002E+03  0.11018157002E+03  0.00000000000E+00 0. -1.
         -2   -1    0    0    0  501 -0.00000000000E+00 -0.00000000000E+00 -0.26888361662E+02  0.26888361662E+02  0.00000000000E+00 0.  1.
         21    1    1    2  502  503  0.24361161520E+02  0.74558758881E+01  0.10221060915E+03  0.10533786071E+03  0.00000000000E+00 0. -1.
         21    1    1    2  503  501 -0.24361161520E+02 -0.74558758881E+01 -0.18917400789E+02  0.31732070977E+02  0.00000000000E+00 0.  1.
</event>
<event>
 4    1  0.5696713E+002  0.3649523E+02  0.7546771E-02  0.1370345E+00
          2   -1    0    0  502    0  0.00000000000E+00  0.00000000000E+00  0.60114144078E+02  0.60114144078E+02  0.00000000000E+00 0.  1.
         -2   -1    0    0    0  501 -0.00000000000E+00 -0.00000000000E+00 -0.52301097581E+02  0.52301097581E+02  0.00000000000E+00 0. -1.
         21    1    1    2  502  503 -0.35083153581E+02  0.10053580793E+02  0.46578874131E+02  0.59173420277E+02  0.00000000000E+00 0.  1.
         21    1    1    2  503  501  0.35083153581E+02 -0.10053580793E+02 -0.38765827634E+02  0.53241821382E+02  0.00000000000E+00 0. -1.
</event>
<event>
 4    1  0.5696713E+002  0.3539742E+02  0.7546771E-02  0.1377791E+00
          2   -1    0    0  502    0  0.00000000000E+00  0.00000000000E+00  0.30174770606E+02  0.30174770606E+02  0.00000000000E+00 0. -1.
         -2   -1    0    0    0  501 -0.00000000000E+00 -0.00000000000E+00 -0.43029207163E+02  0.43029207163E+02  0.00000000000E+00 0.  1.
         21    1    1    2  502  503 -0.70182968597E+01 -0.34694682484E+02  0.41851027610E+00  0.35399895964E+02  0.00000000000E+00 0. -1.
         21    1    1    2  503  501  0.70182968597E+01  0.34694682484E+02 -0.13272946833E+02  0.37804081804E+02  0.00000000000E+00 0.  1.
</event>
<event>
 4    1  0.5696713E+002  0.2475798E+02  0.7546771E-02  0.1471529E+00
          2   -1    0    0  503    0  0.00000000000E+00  0.00000000000E+00  0.48381373879E+01  0.48381373879E+01  0.00000000000E+00 0. -1.
         -2   -1    0    0    0  501 -0.00000000000E+00 -0.00000000000E+00 -0.37425688877E+03  0.37425688877E+03  0.00000000000E+00 0.  1.
         21    1    1    2  502  501  0.12478442313E+02 -0.21383313724E+02 -0.33887123161E+03  0.33977443877E+03  0.00000000000E+00 0.  1.
         21    1    1    2  503  502 -0.12478442313E+02  0.21383313724E+02 -0.30547519775E+02  0.39320587391E+02  0.00000000000E+00 0. -1.
</event>
<event>
 4    1  0.5696713E+002  0.4237843E+02  0.7546771E-02  0.1335085E+00
          2   -1    0    0  503    0  0.00000000000E+00  0.00000000000E+00  0.12983087246E+04  0.12983087246E+04  0.00000000000E+00 0.  1.
         -2   -1    0    0    0  501 -0.00000000000E+00 -0.00000000000E+00 -0.14006468881E+01  0.14006468881E+01  0.00000000000E+00 0. -1.
         21    1    1    2  502  501 -0.36301619468E+00 -0.42376877589E+02  0.72080513150E+03  0.72204983839E+03  0.00000000000E+00 0.  1.
         21    1    1    2  503  502  0.36301619468E+00  0.42376877589E+02  0.57610294619E+03  0.57765953307E+03  0.00000000000E+00 0. -1.
</event>
<event>
 4    1  0.5696713E+002  0.2047807E+02  0.7546771E-02  0.1526849E+00
          2   -1    0    0  503    0  0.00000000000E+00  0.00000000000E+00  0.11365957872E+02  0.11365957872E+02  0.00000000000E+00 0. -1.
         -2   -1    0    0    0  501 -0.00000000000E+00 -0.00000000000E+00 -0.36908511473E+02  0.36908511473E+02  0.00000000000E+00 0.  1.
         21    1    1    2  502  501 -0.40648582186E+00 -0.20474031022E+02 -0.13226799797E+02  0.24378256909E+02  0.00000000000E+00 0.  1.
         21    1    1    2  503  502  0.40648582186E+00  0.20474031022E+02 -0.12315753804E+02  0.23896212436E+02  0.00000000000E+00 0. -1.
</event>
<event>
 4    1  0.5696713E+002  0.2140558E+02  0.7546771E-02  0.1513552E+00
          2   -1    0    0  502    0  0.00000000000E+00  0.00000000000E+00  0.21615723632E+02  0.21615723632E+02  0.00000000000E+00 0.  1.
         -2   -1    0    0    0  501 -0.00000000000E+00 -0.00000000000E+00 -0.20277786596E+03  0.20277786596E+03  0.00000000000E+00 0. -1.
         21    1    1    2  502  503  0.13620406974E+02  0.16513130843E+02  0.15589618319E+02  0.26480845449E+02  0.00000000000E+00 0.  1.
         21    1    1    2  503  501 -0.13620406974E+02 -0.16513130843E+02 -0.19675176065E+03  0.19791274415E+03  0.00000000000E+00 0. -1.
</event>
<event>
 4    1  0.5696713E+002  0.5937614E+02  0.7546771E-02  0.1261967E+00
          2   -1    0    0  503    0  0.00000000000E+00  0.00000000000E+00  0.18287468650E+04  0.18287468650E+04  0.00000000000E+00 0.  1.
         -2   -1    0    0    0  501 -0.00000000000E+00 -0.00000000000E+00 -0.38459943595E+01  0.38459943595E+01  0.00000000000E+00 0. -1.
         21    1    1    2  502  501  0.32850099873E+02 -0.49461069371E+02  0.26534692835E+03  0.27190902675E+03  0.00000000000E+00 0. -1.
         21    1    1    2  503  502 -0.32850099873E+02  0.49461069371E+02  0.15595539423E+04  0.15606838326E+04  0.00000000000E+00 0.  1.
</event>
<event>
 4    1  0.5696713E+002  0.3707029E+02  0.7546771E-02  0.1366565E+00
          2   -1    0    0  503    0  0.00000000000E+00  0.00000000000E+00  0.59533444567E+03  0.59533444567E+03  0.00000000000E+00 0.  1.
         -2   -1    0    0    0  501 -0.00000000000E+00 -0.00000000000E+00 -0.26879196537E+01  0.26879196537E+01  0.00000000000E+00 0. -1.
         21    1    1    2  502  501  0.34284570485E+01 -0.36911409175E+02  0.18395141304E+03  0.18764948389E+03  0.00000000000E+00 0. -1.
         21    1    1    2  503  502 -0.34284570485E+01  0.36911409175E+02  0.40869511298E+03  0.41037288144E+03  0.00000000000E+00 0.  1.
</event>
<event>
 4    1  0.5696713E+002  0.2358133E+02  0.7546771E-02  0.1485325E+00
          2   -1    0    0  502    0  0.00000000000E+00  0.00000000000E+00  0.58563425220E+03  0.58563425220E+03  0.00000000000E+00 0.  1.
         -2   -1    0    0    0  501 -0.00000000000E+00 -0.00000000000E+00 -0.13149886579E+01  0.13149886579E+01  0.00000000000E+00 0. -1.
         21    1    1    2  502  503 -0.10235377865E+01 -0.23559105597E+02  0.44687264792E+03  0.44749440504E+03  0.00000000000E+00 0.  1.
         21    1    1    2  503  501  0.10235377865E+01  0.23559105597E+02  0.13744661562E+03  0.13945483582E+03  0.00000000000E+00 0. -1.
</event>
<event>
 4    1  0.5696713E+002  0.2439096E+02  0.7546771E-02  0.1475733E+00
          2   -1    0    0  502    0  0.00000000000E+00  0.00000000000E+00  0.46829877712E+02  0.46829877712E+02  0.00000000000E+00 0. -1.
         -2   -1    0    0    0  501 -0.00000000000E+00 -0.00000000000E+00 -0.14525859863E+02  0.14525859863E+02  0.00000000000E+00 0.  1.
         21    1    1    2  502  503  0.22194691021E+02 -0.10115076863E+02  0.27017047761E+02  0.36398351050E+02  0.00000000000E+00 0. -1.
         21    1    1    2  503  501 -0.22194691021E+02  0.10115076863E+02  0.52869700883E+01  0.24957386525E+02  0.00000000000E+00 0.  1.
</event>
<event>
 4    1  0.5696713E+002  0.2645304E+02  0.7546771E-02  0.1453181E+00
          2   -1    0    0  502    0  0.00000000000E+00  0.00000000000E+00  0.23106657190E+03  0.23106657190E+03  0.00000000000E+00 0. -1.
         -2   -1    0    0    0  501 -0.00000000000E+00 -0.00000000000E+00 -0.47594980981E+01  0.47594980981E+01  0.00000000000E+00 0.  1.
         21    1    1    2  502  503 -0.24137549277E+02  0.10823209933E+02  0.18426530114E+03  0.18615441000E+03  0.00000000000E+00 0. -1.
         21    1    1    2  503  501  0.24137549277E+02 -0.10823209933E+02  0.42041772661E+02  0.49671659997E+02  0.00000000000E+00 0.  1.
</event>
<event>
 4    1  0.5696713E+002  0.3806853E+02  0.7546771E-02  0.1360192E+00
          2   -1    0    0  502    0  0.00000000000E+00  0.00000000000E+00  0.28390080845E+03  0.28390080845E+03  0.00000000000E+00 0. -1.
         -2   -1    0    0    0  501 -0.00000000000E+00 -0.00000000000E+00 -0.10250330842E+02  0.10250330842E+02  0.00000000000E+00 0.  1.
         21    1    1    2  502  503  0.37378979425E+02 -0.72128096381E+01  0.24103136436E+03  0.24401912083E+03  0.00000000000E+00 0. -1.
         21    1    1    2  503  501 -0.37378979425E+02  0.72128096381E+01  0.32619113246E+02  0.50132018458E+02  0.00000000000E+00 0.  1.
</event>
<event>
 4    1  0.5696713E+002  0.2759603E+02  0.7546771E-02  0.1441711E+00
          2   -1    0    0  502    0  0.00000000000E+00  0.00000000000E+00  0.11980049629E+03  0.11980049629E+03  0.00000000000E+00 0. -1.
         -2   -1    0    0    0  501 -0.00000000000E+00 -0.00000000000E+00 -0.70088055159E+01  0.70088055159E+01  0.00000000000E+00 0.  1.
         21    1    1    2  502  503 -0.32657946440E+01  0.27402106057E+02  0.75735294756E+02  0.80606300639E+02  0.00000000000E+00 0. -1.
         21    1    1    2  503  501  0.32657946440E+01 -0.27402106057E+02  0.37056396023E+02  0.46203001171E+02  0.00000000000E+00 0.  1.
</event>
<event>
 4    1  0.5696713E+002  0.2101849E+02  0.7546771E-02  0.1519001E+00
          2   -1    0    0  502    0  0.00000000000E+00  0.00000000000E+00  0.17428870624E+02  0.17428870624E+02  0.00000000000E+00 0. -1.
         -2   -1    0    0    0  501 -0.00000000000E+00 -0.00000000000E+00 -0.25625593291E+02  0.25625593291E+02  0.00000000000E+00 0.  1.
         21    1    1    2  502  503  0.19670488608E+01  0.20926239775E+02 -0.18554405543E+01  0.21100223979E+02  0.00000000000E+00 0.  1.
         21    1    1    2  503  501 -0.19670488608E+01 -0.20926239775E+02 -0.63412821132E+01  0.21954239936E+02  0.00000000000E+00 0. -1.
</event>
<event>
 4    1  0.5696713E+002  0.3867079E+02  0.7546771E-02  0.1356456E+00
          2   -1    0    0  503    0  0.00000000000E+00  0.00000000000E+00  0.21583655551E+02  0.21583655551E+02  0.00000000000E+00 0.  1.
         -2   -1    0    0    0  501 -0.00000000000E+00 -0.00000000000E+00 -0.91495330890E+02  0.91495330890E+02  0.00000000000E+00 0. -1.
         21    1    1    2  502  501 -0.29564230045E+02  0.24927619465E+02 -0.62812372362E+02  0.73761941624E+02  0.00000000000E+00 0. -1.
         21    1    1    2  503  502  0.29564230045E+02 -0.24927619465E+02 -0.70993029778E+01  0.39317044817E+02  0.00000000000E+00 0.  1.
</event>
<event>
 4    1  0.5696713E+002  0.2138811E+02  0.7546771E-02  0.1513795E+00
          2   -1    0    0  503    0  0.00000000000E+00  0.00000000000E+00  0.11979012318E+03  0.11979012318E+03  0.00000000000E+00 0.  1.
         -2   -1    0    0    0  501 -0.00000000000E+00 -0.00000000000E+00 -0.54271718446E+01  0.54271718446E+01  0.00000000000E+00 0. -1.
         21    1    1    2  502  501  0.17095230054E+02  0.12853184832E+02  0.23097954635E+02  0.31479624509E+02  0.00000000000E+00 0. -1.
         21    1    1    2  503  502 -0.17095230054E+02 -0.12853184832E+02  0.91264996697E+02  0.93737670512E+02  0.00000000000E+00 0.  1.
</event>
<event>
 4    1  0.5696713E+002  0.8086024E+02  0.7546771E-02  0.1201864E+00
          2   -1    0    0  502    0  0.00000000000E+00  0.00000000000E+00  0.72184780759E+03  0.72184780759E+03  0.00000000000E+00 0.  1.
         -2   -1    0    0    0  501 -0.00000000000E+00 -0.00000000000E+00 -0.42986930491E+02  0.42986930491E+02  0.00000000000E+00 0. -1.
         21    1    1    2  502  503 -0.62581841692E+02  0.51204414277E+02  0.67917735777E+03  0.68397387542E+03  0.00000000000E+00 0.  1.
         21    1    1    2  503  501  0.62581841692E+02 -0.51204414277E+02 -0.31648066522E+00  0.80860862666E+02  0.00000000000E+00 0. -1.
</event>
<event>
 4    1  0.5696713E+002  0.2560565E+02  0.7546771E-02  0.1462141E+00
          2   -1    0    0  502    0  0.00000000000E+00  0.00000000000E+00  0.74701458953E+03  0.74701458953E+03  0.00000000000E+00 0.  1.
         -2   -1    0    0    0  501 -0.00000000000E+00 -0.00000000000E+00 -0.12935487995E+01  0.12935487995E+01  0.00000000000E+00 0. -1.
         21    1    1    2  502  503 -0.89258362046E+01  0.23999558535E+02  0.58500440902E+03  0.58556452073E+03  0.00000000000E+00 0.  1.
         21    1    1    2  503  501  0.89258362046E+01 -0.23999558535E+02  0.16071663171E+03  0.16274361760E+03  0.00000000000E+00 0. -1.
</event>
<event>
 4    1  0.5696713E+002  0.2876210E+02  0.7546771E-02  0.1430668E+00
          2   -1    0    0  503    0  0.00000000000E+00  0.00000000000E+00  0.74607761098E+03  0.74607761098E+03  0.00000000000E+00 0. -1.
         -2   -1    0    0    0  501 -0.00000000000E+00 -0.00000000000E+00 -0.25635420799E+01  0.25635420799E+01  0.00000000000E+00 0.  1.
         21    1    1    2  502  501 -0.21517944245E+02  0.19084978612E+02  0.89779193884E+02  0.94273866939E+02  0.00000000000E+00 0.  1.
         21    1    1    2  503  502  0.21517944245E+02 -0.19084978612E+02  0.65373487502E+03  0.65436728613E+03  0.00000000000E+00 0. -1.
</event>
<event>
 4    1  0.5696713E+002  0.2186370E+02  0.7546771E-02  0.1507282E+00
          2   -1    0    0  503    0  0.00000000000E+00  0.00000000000E+00  0.17377917772E+04  0.17377917772E+04  0.00000000000E+00 0.  1.
         -2   -1    0    0    0  501 -0.00000000000E+00 -0.00000000000E+00 -0.54475751914E+00  0.54475751914E+00  0.00000000000E+00 0. -1.
         21    1    1    2  502  501 -0.18528040020E+02  0.11607452679E+02  0.25707698851E+03  0.25800503725E+03  0.00000000000E+00 0. -1.
         21    1    1    2  503  502  0.18528040020E+02 -0.11607452679E+02  0.14801700312E+04  0.14803314975E+04  0.00000000000E+00 0.  1.
</event>
<event>
 4    1  0.5696713E+002  0.2107654E+02  0.7546771E-02  0.1518175E+00
          2   -1    0    0  502    0  0.00000000000E+00  0.00000000000E+00  0.11668144643E+04  0.11668144643E+04  0.00000000000E+00 0.  1.
         -2   -1    0    0    0  501 -0.00000000000E+00 -0.00000000000E+00 -0.38903268607E+00  0.38903268607E+00  0.00000000000E+00 0. -1.
         21    1    1    2  502  503  0.20422094779E+02 -0.52113859000E+01  0.49786380822E+03  0.49830973503E+03  0.00000000000E+00 0. -1.
         21    1    1    2  503  501 -0.20422094779E+02  0.52113859000E+01  0.66856162342E+03  0.66889376198E+03  0.00000000000E+00 0.  1.
</event>
<event>
 4    1  0.5696713E+002  0.2590780E+02  0.7546771E-02  0.1458899E+00
          2   -1    0    0  503    0  0.00000000000E+00  0.00000000000E+00  0.20736848864E+04  0.20736848864E+04  0.00000000000E+00 0.  1.
         -2   -1    0    0    0  501 -0.00000000000E+00 -0.00000000000E+00 -0.39015925293E+00  0.39015925293E+00  0.00000000000E+00 0. -1.
         21    1    1    2  502  501  0.93156655360E+01 -0.24175042260E+02  0.60858176325E+03  0.60913297140E+03  0.00000000000E+00 0.  1.
         21    1    1    2  503  502 -0.93156655360E+01  0.24175042260E+02  0.14647129639E+04  0.14649420743E+04  0.00000000000E+00 0. -1.
</event>
<event>
 4    1  0.5696713E+002  0.2126719E+02  0.7546771E-02  0.1515484E+00
          2   -1    0    0  502    0  0.00000000000E+00  0.00000000000E+00  0.55913232807E+03  0.55913232807E+03  0.00000000000E+00 0. -1.
         -2   -1    0    0    0  501 -0.00000000000E+00 -0.00000000000E+00 -0.11525773356E+01  0.11525773356E+01  0.00000000000E+00 0.  1.
         21    1    1    2  502  503 -0.25084375325E+01 -0.21118735717E+02  0.43196005354E+03  0.43248327264E+03  0.00000000000E+00 0. -1.
         21    1    1    2  503  501  0.25084375325E+01  0.21118735717E+02  0.12601969719E+03  0.12780163277E+03  0.00000000000E+00 0.  1.
</event>
<event>
 4    1  0.5696713E+002  0.2077203E+02  0.7546771E-02  0.1522545E+00
          2   -1    0    0  502    0  0.00000000000E+00  0.00000000000E+00  0.38434970642E+03  0.38434970642E+03  0.00000000000E+00 0. -1.
         -2   -1    0    0    0  501 -0.00000000000E+00 -0.00000000000E+00 -0.72307212388E+01  0.72307212388E+01  0.00000000000E+00 0.  1.
         21    1    1    2  502  503  0.94210077172E+01 -0.18512744430E+02  0.36851014698E+03  0.36909511717E+03  0.00000000000E+00 0. -1.
         21    1    1    2  503  501 -0.94210077172E+01  0.18512744430E+02  0.86088382086E+01  0.22485310494E+02  0.00000000000E+00 0.  1.
</event>
<event>
 4    1  0.5696713E+002  0.2102997E+02  0.7546771E-02  0.1518837E+00
          2   -1    0    0  502    0  0.00000000000E+00  0.00000000000E+00  0.15287636011E+04  0.15287636011E+04  0.00000000000E+00 0. -1.
         -2   -1    0    0    0  501 -0.00000000000E+00 -0.00000000000E+00 -0.89961397610E+00  0.89961397610E+00  0.00000000000E+00 0.  1.
         21    1    1    2  502  503 -0.20153179757E+02  0.60090699358E+01  0.13938980055E+04  0.13940566378E+04  0.00000000000E+00 0. -1.
         21    1    1    2  503  501  0.20153179757E+02 -0.60090699358E+01  0.13396598157E+03  0.13560657725E+03  0.00000000000E+00 0.  1.
</event>
<event>
 4    1  0.5696713E+002  0.5083622E+02  0.7546771E-02  0.1294587E+00
          2   -1    0    0  502    0  0.00000000000E+00  0.00000000000E+00  0.20092601851E+03  0.20092601851E+03  0.00000000000E+00 0.  1.
         -2   -1    0    0    0  501 -0.00000000000E+00 -0.00000000000E+00 -0.17747257535E+02  0.17747257535E+02  0.00000000000E+00 0. -1.
         21    1    1    2  502  503 -0.43764080064E+02 -0.25865550131E+02  0.14895364134E+03  0.15738967138E+03  0.00000000000E+00 0.  1.
         21    1    1    2  503  501  0.43764080064E+02  0.25865550131E+02  0.34225119638E+02  0.61283604673E+02  0.00000000000E+00 0. -1.
</event>
<event>
 4    1  0.5696713E+002  0.3759539E+02  0.7546771E-02  0.1363184E+00
          2   -1    0    0  503    0  0.00000000000E+00  0.00000000000E+00  0.19062545088E+03  0.19062545088E+03  0.00000000000E+00 0. -1.
         -2   -1    0    0    0  501 -0.00000000000E+00 -0.00000000000E+00 -0.12002078667E+03  0.12002078667E+03  0.00000000000E+00 0.  1.
         21    1    1    2  502  501  0.36500302304E+02  0.90078284288E+01 -0.11514655436E+03  0.12112861768E+03  0.00000000000E+00 0.  1.
         21    1    1    2  503  502 -0.36500302304E+02 -0.90078284288E+01  0.18575121857E+03  0.18951761987E+03  0.00000000000E+00 0. -1.
</event>
<event>
 4    1  0.5696713E+002  0.2166145E+02  0.7546771E-02  0.1510027E+00
          2   -1    0    0  502    0  0.00000000000E+00  0.00000000000E+00  0.45227152396E+03  0.45227152396E+03  0.00000000000E+00 0. -1.
         -2   -1    0    0    0  501 -0.00000000000E+00 -0.00000000000E+00 -0.21366091172E+01  0.21366091172E+01  0.00000000000E+00 0.  1.
         21    1    1    2  502  503  0.12087824751E+02  0.17975067254E+02  0.38802696876E+03  0.38863111949E+03  0.00000000000E+00 0. -1.
         21    1    1    2  503  501 -0.12087824751E+02 -0.17975067254E+02  0.62107946085E+02  0.65777013590E+02  0.00000000000E+00 0.  1.
</event>
<event>
 4    1  0.5696713E+002  0.2089323E+02  0.7546771E-02  0.1520795E+00
          2   -1    0    0  503    0  0.00000000000E+00  0.00000000000E+00  0.14445063815E+03  0.14445063815E+03  0.00000000000E+00 0.  1.
         -2   -1    0    0    0  501 -0.00000000000E+00 -0.00000000000E+00 -0.32339078987E+01  0.32339078987E+01  0.00000000000E+00 0. -1.
         21    1    1    2  502  501  0.20661093624E+02 -0.31058242910E+01  0.51705164825E+02  0.55766934682E+02  0.00000000000E+00 0. -1.
         21    1    1    2  503  502 -0.20661093624E+02  0.31058242910E+01  0.89511565427E+02  0.91917611368E+02  0.00000000000E+00 0.  1.
</event>
<event>
 4    1  0.5696713E+002  0.2246761E+02  0.7546771E-02  0.1499294E+00
          2   -1    0    0  502    0  0.00000000000E+00  0.00000000000E+00  0.11472236965E+02  0.11472236965E+02  0.00000000000E+00 0. -1.
         -2   -1    0    0    0  501 -0.00000000000E+00 -0.00000000000E+00 -0.79652115567E+02  0.79652115567E+02  0.00000000000E+00 0.  1.
         21    1    1    2  502  503  0.59494267073E+01 -0.21665586446E+02 -0.36081433931E+01  0.22755483140E+02  0.00000000000E+00 0. -1.
         21    1    1    2  503  501 -0.59494267073E+01  0.21665586446E+02 -0.64571735208E+02  0.68368869392E+02  0.00000000000E+00 0.  1.
</event>
<event>
 4    1  0.5696713E+002  0.3873856E+02  0.7546771E-02  0.1356041E+00
          2   -1    0    0  502    0  0.00000000000E+00  0.00000000000E+00  0.40417018766E+03  0.40417018766E+03  0.00000000000E+00 0.  1.
         -2   -1    0    0    0  501 -0.00000000000E+00 -0.00000000000E+00 -0.44984288363E+01  0.44984288363E+01  0.00000000000E+00 0. -1.
         21    1    1    2  502  503  0.33601425034E+02  0.19277447870E+02  0.28521857425E+03  0.28783729928E+03  0.00000000000E+00 0.  1.
         21    1    1    2  503  501 -0.33601425034E+02 -0.19277447870E+02  0.11445318457E+03  0.12083131721E+03  0.00000000000E+00 0. -1.
</event>
<event>
 4    1  0.5696713E+002  0.2561429E+02  0.7546771E-02  0.1462047E+00
          2   -1    0    0  503    0  0.00000000000E+00  0.00000000000E+00  0.11611718137E+04  0.11611718137E+04  0.00000000000E+00 0. -1.
         -2   -1    0    0    0  501 -0.00000000000E+00 -0.00000000000E+00 -0.16748374859E+01  0.16748374859E+01  0.00000000000E+00 0.  1.
         21    1    1    2  502  501 -0.10997561918E+02  0.23133207712E+02  0.10645467991E+03  0.10949287896E+03  0.00000000000E+00 0.  1.
         21    1    1    2  503  502  0.10997561918E+02 -0.23133207712E+02  0.10530422963E+04  0.10533537722E+04  0.00000000000E+00 0. -1.
</event>
<event>
 4    1  0.5696713E+002  0.2219114E+02  0.7546771E-02  0.1502913E+00
          2   -1    0    0  502    0  0.00000000000E+00  0.00000000000E+00  0.11713704654E+03  0.11713704654E+03  0.00000000000E+00 0. -1.
         -2   -1    0    0    0  501 -0.00000000000E+00 -0.00000000000E+00 -0.79753886790E+01  0.79753886790E+01  0.00000000000E+00 0.  1.
         21    1    1    2  502  503  0.15089707137E+02  0.16271065934E+02  0.97598200441E+02  0.10008923807E+03  0.00000000000E+00 0. -1.
         21    1    1    2  503  501 -0.15089707137E+02 -0.16271065934E+02  0.11563457423E+02  0.25023197152E+02  0.00000000000E+00 0.  1.
</event>
<event>
 4    1  0.5696713E+002  0.2286430E+02  0.7546771E-02  0.1494209E+00
          2   -1    0    0  502    0  0.00000000000E+00  0.00000000000E+00  0.25842460794E+03  0.25842460794E+03  0.00000000000E+00 0.  1.
         -2   -1    0    0    0  501 -0.00000000000E+00 -0.00000000000E+00 -0.20520930588E+01  0.20520930588E+01  0.00000000000E+00 0. -1.
         21    1    1    2  502  503  0.19661444495E+02  0.11670634041E+02  0.14371091879E+03  0.14551839842E+03  0.00000000000E+00 0.  1.
         21    1    1    2  503  501 -0.19661444495E+02 -0.11670634041E+02  0.11266159610E+03  0.11495830259E+03  0.00000000000E+00 0. -1.
</event>
<event>
 4    1  0.5696713E+002  0.2407675E+02  0.7546771E-02  0.1479403E+00
          2   -1    0    0  502    0  0.00000000000E+00  0.00000000000E+00  0.35288452855E+02  0.35288452855E+02  0.00000000000E+00 0.  1.
         -2   -1    0    0    0  501 -0.00000000000E+00 -0.00000000000E+00 -0.12271487426E+03  0.12271487426E+03  0.00000000000E+00 0. -1.
         21    1    1    2  502  503 -0.55277970158E+01  0.23433596547E+02  0.29810787076E+02  0.38319355593E+02  0.00000000000E+00 0.  1.
         21    1    1    2  503  501  0.55277970158E+01 -0.23433596547E+02 -0.11723720848E+03  0.11968397152E+03  0.00000000000E+00 0. -1.
</event>
<event>
 4    1  0.5696713E+002  0.3075509E+02  0.7546771E-02  0.1413146E+00
          2   -1    0    0  502    0  0.00000000000E+00  0.00000000000E+00  0.55918462438E+03  0.55918462438E+03  0.00000000000E+00 0.  1.
         -2   -1    0    0    0  501 -0.00000000000E+00 -0.00000000000E+00 -0.31021415732E+01  0.31021415732E+01  0.00000000000E+00 0. -1.
         21    1    1    2  502  503 -0.18409512926E+02  0.24636671253E+02  0.88457414853E+02  0.93651428068E+02  0.00000000000E+00 0. -1.
         21    1    1    2  503  501  0.18409512926E+02 -0.24636671253E+02  0.46762506795E+03  0.46863533788E+03  0.00000000000E+00 0.  1.
</event>
<event>
 4    1  0.5696713E+002  0.3382689E+02  0.7546771E-02  0.1389003E+00
          2   -1    0    0  502    0  0.00000000000E+00  0.00000000000E+00  0.86694382144E+03  0.86694382144E+03  0.00000000000E+00 0. -1.
         -2   -1    0    0    0  501 -0.00000000000E+00 -0.00000000000E+00 -0.52792650113E+01  0.52792650113E+01  0.00000000000E+00 0.  1.
         21    1    1    2  502  503  0.16230537720E+02 -0.29678743603E+02  0.80851311312E+03  0.80922043490E+03  0.00000000000E+00 0. -1.
         21    1    1    2  503  501 -0.16230537720E+02  0.29678743603E+02  0.53151443314E+02  0.63002651555E+02  0.00000000000E+00 0.  1.
</event>
<event>
 4    1  0.5696713E+002  0.4180541E+02  0.7546771E-02  0.1338219E+00
          2   -1    0    0  502    0  0.00000000000E+00  0.00000000000E+00  0.18778784040E+04  0.18778784040E+04  0.00000000000E+00 0. -1.
         -2   -1    0    0    0  501 -0.00000000000E+00 -0.00000000000E+00 -0.15456867969E+01  0.15456867969E+01  0.00000000000E+00 0.  1.
         21    1    1    2  502  503  0.41232495186E+02  0.68973884517E+01  0.15309225752E+04  0.15314932661E+04  0.00000000000E+00 0. -1.
         21    1    1    2  503  501 -0.41232495186E+02 -0.68973884517E+01  0.34541014196E+03  0.34793082473E+03  0.00000000000E+00 0.  1.
</event>
<event>
 4    1  0.5696713E+002  0.2441998E+02  0.7546771E-02  0.1475398E+00
          2   -1    0    0  502    0  0.00000000000E+00  0.00000000000E+00  0.15355138532E+04  0.15355138532E+04  0.00000000000E+00 0. -1.
         -2   -1    0    0    0  501 -0.00000000000E+00 -0.00000000000E+00 -0.59723090461E+00  0.59723090461E+00  0.00000000000E+00 0.  1.
         21    1    1    2  502  503 -0.18757080937E+02  0.15636733331E+02  0.12216698819E+04  0.12219139233E+04  0.00000000000E+00 0. -1.
         21    1    1    2  503  501  0.18757080937E+02 -0.15636733331E+02  0.31324674036E+03  0.31419716081E+03  0.00000000000E+00 0.  1.
</event>
<event>
 4    1  0.5696713E+002  0.2032752E+02  0.7546771E-02  0.1529086E+00
          2   -1    0    0  503    0  0.00000000000E+00  0.00000000000E+00  0.34060151130E+01  0.34060151130E+01  0.00000000000E+00 0.  1.
         -2   -1    0    0    0  501 -0.00000000000E+00 -0.00000000000E+00 -0.13219508372E+03  0.13219508372E+03  0.00000000000E+00 0. -1.
         21    1    1    2  502  501 -0.18118069917E+02  0.92164876786E+01 -0.83843586203E+02  0.86272562556E+02  0.00000000000E+00 0.  1.
         21    1    1    2  503  502  0.18118069917E+02 -0.92164876786E+01 -0.44945482399E+02  0.49328536272E+02  0.00000000000E+00 0. -1.
</event>
<event>
 4    1  0.5696713E+002  0.2606769E+02  0.7546771E-02  0.1457205E+00
          2   -1    0    0  503    0  0.00000000000E+00  0.00000000000E+00  0.46209045584E+02  0.46209045584E+02  0.00000000000E+00 0.  1.
         -2   -1    0    0    0  501 -0.00000000000E+00 -0.00000000000E+00 -0.14739575718E+02  0.14739575718E+02  0.00000000000E+00 0. -1.
         21    1    1    2  502  501 -0.25515573985E+02  0.53366497898E+01  0.14268187913E+02  0.29717091599E+02  0.00000000000E+00 0.  1.
         21    1    1    2  503  502  0.25515573985E+02 -0.53366497898E+01  0.17201281953E+02  0.31231529703E+02  0.00000000000E+00 0. -1.
</event>
<event>
 4    1  0.5696713E+002  0.2313091E+02  0.7546771E-02  0.1490861E+00
          2   -1    0    0  503    0  0.00000000000E+00  0.00000000000E+00  0.13494071739E+03  0.13494071739E+03  0.00000000000E+00 0. -1.
         -2   -1    0    0    0  501 -0.00000000000E+00 -0.00000000000E+00 -0.85806645476E+01  0.85806645476E+01  0.00000000000E+00 0.  1.
         21    1    1    2  502  501 -0.11598430528E+02 -0.20012884540E+02  0.10548792758E+02  0.25422749005E+02  0.00000000000E+00 0.  1.
         21    1    1    2  503  502  0.11598430528E+02  0.20012884540E+02  0.11581126009E+03  0.11809863294E+03  0.00000000000E+00 0. -1.
</event>
<event>
 4    1  0.5696713E+002  0.4035346E+02  0.7546771E-02  0.1346427E+00
          2   -1    0    0  502    0  0.00000000000E+00  0.00000000000E+00  0.40081453664E+03  0.40081453664E+03  0.00000000000E+00 0.  1.
         -2   -1    0    0    0  501 -0.00000000000E+00 -0.00000000000E+00 -0.42713005456E+01  0.42713005456E+01  0.00000000000E+00 0. -1.
         21    1    1    2  502  503 -0.34860315372E+02 -0.20326345800E+02  0.24302869579E+03  0.24635614240E+03  0.00000000000E+00 0. -1.
         21    1    1    2  503  501  0.34860315372E+02  0.20326345800E+02  0.15351454030E+03  0.15872969478E+03  0.00000000000E+00 0.  1.
</event>
<event>
 4    1  0.5696713E+002  0.2125189E+02  0.7546771E-02  0.1515699E+00
          2   -1    0    0  502    0  0.00000000000E+00  0.00000000000E+00  0.81828388146E+02  0.81828388146E+02  0.00000000000E+00 0.  1.
         -2   -1    0    0    0  501 -0.00000000000E+00 -0.00000000000E+00 -0.63697187942E+01  0.63697187942E+01  0.00000000000E+00 0. -1.
         21    1    1    2  502  503  0.17493577771E+02 -0.12067214261E+02  0.21616863391E+02  0.30313886358E+02  0.00000000000E+00 0.  1.
         21    1    1    2  503  501 -0.17493577771E+02  0.12067214261E+02  0.53841805961E+02  0.57884220582E+02  0.00000000000E+00 0. -1.
</event>
<event>
 4    1  0.5696713E+002  0.2813043E+02  0.7546771E-02  0.1436572E+00
          2   -1    0    0  503    0  0.00000000000E+00  0.00000000000E+00  0.39832249909E+03  0.39832249909E+03  0.00000000000E+00 0. -1.
         -2   -1    0    0    0  501 -0.00000000000E+00 -0.00000000000E+00 -0.19923723421E+01  0.19923723421E+01  0.00000000000E+00 0.  1.
         21    1    1    2  502  501  0.85656639886E+01 -0.26794593424E+02  0.18742276752E+03  0.18952206895E+03  0.00000000000E+00 0. -1.
         21    1    1    2  503  502 -0.85656639886E+01  0.26794593424E+02  0.20890735923E+03  0.21079280248E+03  0.00000000000E+00 0.  1.
</event>
<event>
 4    1  0.5696713E+002  0.2334553E+02  0.7546771E-02  0.1488204E+00
          2   -1    0    0  503    0  0.00000000000E+00  0.00000000000E+00  0.57093132879E+02  0.57093132879E+02  0.00000000000E+00 0.  1.
         -2   -1    0    0    0  501 -0.00000000000E+00 -0.00000000000E+00 -0.20552096626E+02  0.20552096626E+02  0.00000000000E+00 0. -1.
         21    1    1    2  502  501 -0.22884540604E+02 -0.46164618084E+01 -0.10139557120E+02  0.25452397468E+02  0.00000000000E+00 0. -1.
         21    1    1    2  503  502  0.22884540604E+02  0.46164618084E+01  0.46680593374E+02  0.52192832037E+02  0.00000000000E+00 0.  1.
</event>
<event>
 4    1  0.5696713E+002  0.2873170E+02  0.7546771E-02  0.1430948E+00
          2   -1    0    0  503    0  0.00000000000E+00  0.00000000000E+00  0.63479103885E+03  0.63479103885E+03  0.00000000000E+00 0.  1.
         -2   -1    0    0    0  501 -0.00000000000E+00 -0.00000000000E+00 -0.19628579366E+01  0.19628579366E+01  0.00000000000E+00 0. -1.
         21    1    1    2  502  501 -0.11233470446E+02 -0.26444659090E+02  0.13146100793E+03  0.13456413883E+03  0.00000000000E+00 0. -1.
         21    1    1    2  503  502  0.11233470446E+02  0.26444659090E+02  0.50136717298E+03  0.50218975796E+03  0.00000000000E+00 0.  1.
</event>
<event>
 4    1  0.5696713E+002  0.2885341E+02  0.7546771E-02  0.1429829E+00
          2   -1    0    0  503    0  0.00000000000E+00  0.00000000000E+00  0.31191642659E+01  0.31191642659E+01  0.00000000000E+00 0.  1.
         -2   -1    0    0    0  501 -0.00000000000E+00 -0.00000000000E+00 -0.30213727953E+03  0.30213727953E+03  0.00000000000E+00 0. -1.
         21    1    1    2  502  501 -0.17835512160E+02 -0.22680689802E+02 -0.20162921705E+03  0.20368323532E+03  0.00000000000E+00 0. -1.
         21    1    1    2  503  502  0.17835512160E+02  0.22680689802E+02 -0.97388898215E+02  0.10157320847E+03  0.00000000000E+00 0.  1.
</event>
<event>
 4    1  0.5696713E+002  0.2460819E+02  0.7546771E-02  0.1473235E+00
          2   -1    0    0  502    0  0.00000000000E+00  0.00000000000E+00  0.12201850189E+03  0.12201850189E+03  0.00000000000E+00 0.  1.
         -2   -1    0    0    0  501 -0.00000000000E+00 -0.00000000000E+00 -0.57873476039E+01  0.57873476039E+01  0.00000000000E+00 0. -1.
         21    1    1    2  502  503 -0.24513982173E+02  0.21511609520E+01  0.82235090548E+02  0.85838062261E+02  0.00000000000E+00 0.  1.
         21    1    1    2  503  501  0.24513982173E+02 -0.21511609520E+01  0.33996063734E+02  0.41967787228E+02  0.00000000000E+00 0. -1.
</event>
<event>
 4    1  0.5696713E+002  0.2631276E+02  0.7546771E-02  0.1454636E+00
          2   -1    0    0  502    0  0.00000000000E+00  0.00000000000E+00  0.10856093321E+04  0.10856093321E+04  0.00000000000E+00 0.  1.
         -2   -1    0    0    0  501 -0.00000000000E+00 -0.00000000000E+00 -0.65798869659E+00  0.65798869659E+00  0.00000000000E+00 0. -1.
         21    1    1    2  502  503 -0.18894138865E+02 -0.18313187184E+02  0.44725071340E+03  0.44802406402E+03  0.00000000000E+00 0. -1.
         21    1    1    2  503  501  0.18894138865E+02  0.18313187184E+02  0.63770063001E+03  0.63824325678E+03  0.00000000000E+00 0.  1.
</event>
<event>
 4    1  0.5696713E+002  0.2493995E+02  0.7546771E-02  0.1469476E+00
          2   -1    0    0  502    0  0.00000000000E+00  0.00000000000E+00  0.28843033507E+03  0.28843033507E+03  0.00000000000E+00 0.  1.
         -2   -1    0    0    0  501 -0.00000000000E+00 -0.00000000000E+00 -0.10614033609E+02  0.10614033609E+02  0.00000000000E+00 0. -1.
         21    1    1    2  502  503  0.17204756478E+02 -0.18055406440E+02  0.27237922362E+03  0.27351863338E+03  0.00000000000E+00 0.  1.
         21    1    1    2  503  501 -0.17204756478E+02  0.18055406440E+02  0.54370778439E+01  0.25525735301E+02  0.00000000000E+00 0. -1.
</event>
<event>
 4    1  0.5696713E+002  0.2113747E+02  0.7546771E-02  0.1517311E+00
          2   -1    0    0  503    0  0.00000000000E+00  0.00000000000E+00  0.54934827244E+03  0.54934827244E+03  0.00000000000E+00 0.  1.
         -2   -1    0    0    0  501 -0.00000000000E+00 -0.00000000000E+00 -0.39263238348E+01  0.39263238348E+01  0.00000000000E+00 0. -1.
         21    1    1    2  502  501 -0.21079697089E+02 -0.15616877322E+01  0.26386286752E+02  0.33808706371E+02  0.00000000000E+00 0. -1.
         21    1    1    2  503  502  0.21079697089E+02  0.15616877322E+01  0.51903566185E+03  0.51946588990E+03  0.00000000000E+00 0.  1.
</event>
<event>
 4    1  0.5696713E+002  0.2278711E+02  0.7546771E-02  0.1495189E+00
          2   -1    0    0  503    0  0.00000000000E+00  0.00000000000E+00  0.92719863769E+02  0.92719863769E+02  0.00000000000E+00 0. -1.
         -2   -1    0    0    0  501 -0.00000000000E+00 -0.00000000000E+00 -0.58854887073E+01  0.58854887073E+01  0.00000000000E+00 0.  1.
         21    1    1    2  502  501  0.70704704217E+00 -0.22776140365E+02  0.32562950093E+02  0.39744159372E+02  0.00000000000E+00 0.  1.
         21    1    1    2  503  502 -0.70704704217E+00  0.22776140365E+02  0.54271424968E+02  0.58861193104E+02  0.00000000000E+00 0. -1.
</event>
<event>
 4    1  0.5696713E+002  0.2826264E+02  0.7546771E-02  0.1435321E+00
          2   -1    0    0  502    0  0.00000000000E+00  0.00000000000E+00  0.66022012788E+03  0.66022012788E+03  0.00000000000E+00 0.  1.
         -2   -1    0    0    0  501 -0.00000000000E+00 -0.00000000000E+00 -0.24037879862E+01  0.24037879862E+01  0.00000000000E+00 0. -1.
         21    1    1    2  502  503 -0.10009792875E+01  0.28244911871E+02  0.56240298867E+03  0.56311268736E+03  0.00000000000E+00 0.  1.
         21    1    1    2  503  501  0.10009792875E+01 -0.28244911871E+02  0.95413351227E+02  0.99511228505E+02  0.00000000000E+00 0. -1.
</event>
<event>
 4    1  0.5696713E+002  0.3058411E+02  0.7546771E-02  0.1414587E+00
          2   -1    0    0  503    0  0.00000000000E+00  0.00000000000E+00  0.11692084543E+01  0.11692084543E+01  0.00000000000E+00 0.  1.
         -2   -1    0    0    0  501 -0.00000000000E+00 -0.00000000000E+00 -0.11466172379E+04  0.11466172379E+04  0.00000000000E+00 0. -1.
         21    1    1    2  502  501 -0.29921874606E+02 -0.63300161888E+01 -0.88825043588E+03  0.88877681368E+03  0.00000000000E+00 0. -1.
         21    1    1    2  503  502  0.29921874606E+02  0.63300161888E+01 -0.25719759361E+03  0.25900963272E+03  0.00000000000E+00 0.  1.
</event>
<event>
 4    1  0.5696713E+002  0.2923932E+02  0.7546771E-02  0.1426324E+00
          2   -1    0    0  503    0  0.00000000000E+00  0.00000000000E+00  0.11953674852E+04  0.11953674852E+04  0.00000000000E+00 0.  1.
         -2   -1    0    0    0  501 -0.00000000000E+00 -0.00000000000E+00 -0.86676897729E+00  0.86676897729E+00  0.00000000000E+00 0. -1.
         21    1    1    2  502  501 -0.73186982114E+01 -0.28308561073E+02  0.34714306398E+03  0.34837227910E+03  0.00000000000E+00 0.  1.
         21    1    1    2  503  502  0.73186982114E+01  0.28308561073E+02  0.84735765224E+03  0.84786197508E+03  0.00000000000E+00 0. -1.
</event>
<event>
 4    1  0.5696713E+002  0.3741844E+02  0.7546771E-02  0.1364316E+00
          2   -1    0    0  502    0  0.00000000000E+00  0.00000000000E+00  0.15953264387E+04  0.15953264387E+04  0.00000000000E+00 0. -1.
         -2   -1    0    0    0  501 -0.00000000000E+00 -0.00000000000E+00 -0.11000434532E+01  0.11000434532E+01  0.00000000000E+00 0.  1.
         21    1    1    2  502  503 -0.59057663071E+01 -0.36949450225E+02  0.11560136179E+04  0.11566190491E+04  0.00000000000E+00 0. -1.
         21    1    1    2  503  501  0.59057663071E+01  0.36949450225E+02  0.43821277735E+03  0.43980743307E+03  0.00000000000E+00 0.  1.
</event>
<event>
 4    1  0.5696713E+002  0.3159155E+02  0.7546771E-02  0.1406252E+00
          2   -1    0    0  502    0  0.00000000000E+00  0.00000000000E+00  0.21276323334E+04  0.21276323334E+04  0.00000000000E+00 0. -1.
         -2   -1    0    0    0  501 -0.00000000000E+00 -0.00000000000E+00 -0.77416279820E+00  0.77416279820E+00  0.00000000000E+00 0.  1.
         21    1    1    2  502  503 -0.55868604747E+01 -0.31093614354E+02  0.17314939017E+04  0.17317820756E+04  0.00000000000E+00 0. -1.
         21    1    1    2  503  501  0.55868604747E+01  0.31093614354E+02  0.39536426894E+03  0.39662442060E+03  0.00000000000E+00 0.  1.
</event>
<event>
 4    1  0.5696713E+002  0.2851243E+02  0.7546771E-02  0.1432980E+00
          2   -1    0    0  503    0  0.00000000000E+00  0.00000000000E+00  0.12859287817E+03  0.12859287817E+03  0.00000000000E+00 0.  1.
         -2   -1    0    0    0  501 -0.00000000000E+00 -0.00000000000E+00 -0.95916227592E+02  0.95916227592E+02  0.00000000000E+00 0. -1.
         21    1    1    2  502  501 -0.57899445481E+01 -0.27918371222E+02 -0.92153754259E+02  0.96463844697E+02  0.00000000000E+00 0. -1.
         21    1    1    2  503  502  0.57899445481E+01  0.27918371222E+02  0.12483040483E+03  0.12804526106E+03  0.00000000000E+00 0.  1.
</event>
<event>
 4    1  0.5696713E+002  0.2423887E+02  0.7546771E-02  0.1477501E+00
          2   -1    0    0  502    0  0.00000000000E+00  0.00000000000E+00  0.11017176902E+03  0.11017176902E+03  0.00000000000E+00 0.  1.
         -2   -1    0    0    0  501 -0.00000000000E+00 -0.00000000000E+00 -0.65391580741E+01  0.65391580741E+01  0.00000000000E+00 0. -1.
         21    1    1    2  502  503  0.17621480547E+02 -0.16643498207E+02  0.76880918928E+02  0.80611403067E+02  0.00000000000E+00 0.  1.
         21    1    1    2  503  501 -0.17621480547E+02  0.16643498207E+02  0.26751692021E+02  0.36099524030E+02  0.00000000000E+00 0. -1.
</event>
<event>
 4    1  0.5696713E+002  0.2261356E+02  0.7546771E-02  0.1497408E+00
          2   -1    0    0  502    0  0.00000000000E+00  0.00000000000E+00  0.38290816834E+03  0.38290816834E+03  0.00000000000E+00 0. -1.
         -2   -1    0    0    0  501 -0.00000000000E+00 -0.00000000000E+00 -0.33868738515E+01  0.33868738515E+01  0.00000000000E+00 0.  1.
         21    1    1    2  502  503 -0.22591753446E+02 -0.99294020391E+00  0.34007906750E+03  0.34083008290E+03  0.00000000000E+00 0. -1.
         21    1    1    2  503  501  0.22591753446E+02  0.99294020391E+00  0.39442226980E+02  0.45464959289E+02  0.00000000000E+00 0.  1.
</event>
<event>
 4    1  0.5696713E+002  0.2354554E+02  0.7546771E-02  0.1485759E+00
          2   -1    0    0  503    0  0.00000000000E+00  0.00000000000E+00  0.48177713218E+03  0.48177713218E+03  0.00000000000E+00 0.  1.
         -2   -1    0    0    0  501 -0.00000000000E+00 -0.00000000000E+00 -0.24478426560E+01  0.24478426560E+01  0.00000000000E+00 0. -1.
         21    1    1    2  502  501  0.20627003725E+02 -0.11354255833E+02  0.63420244147E+02  0.67649979866E+02  0.00000000000E+00 0. -1.
         21    1    1    2  503  502 -0.20627003725E+02  0.11354255833E+02  0.41590904538E+03  0.41657499497E+03  0.00000000000E+00 0.  1.
</event>
<event>
 4    1  0.5696713E+002  0.3876473E+02  0.7546771E-02  0.1355880E+00
          2   -1    0    0  502    0  0.00000000000E+00  0.00000000000E+00  0.47267801303E+02  0.47267801303E+02  0.00000000000E+00 0.  1.
         -2   -1    0    0    0  501 -0.00000000000E+00 -0.00000000000E+00 -0.43561063933E+02  0.43561063933E+02  0.00000000000E+00 0. -1.
         21    1    1    2  502  503  0.40449664211E+01 -0.38553117564E+02  0.25459706472E+02  0.46377810221E+02  0.00000000000E+00 0.  1.
         21    1    1    2  503  501 -0.40449664211E+01  0.38553117564E+02 -0.21752969102E+02  0.44451055015E+02  0.00000000000E+00 0. -1.
</event>
<event>
 4    1  0.5696713E+002  0.2208578E+02  0.7546771E-02  0.1504309E+00
          2   -1    0    0  503    0  0.00000000000E+00  0.00000000000E+00  0.98617784451E+03  0.98617784451E+03  0.00000000000E+00 0. -1.
         -2   -1    0    0    0  501 -0.00000000000E+00 -0.00000000000E+00 -0.75861193304E+00  0.75861193304E+00  0.00000000000E+00 0.  1.
         21    1    1    2  502  501  0.20233715820E+02  0.88531676206E+01  0.20160713940E+03  0.20281326507E+03  0.00000000000E+00 0.  1.
         21    1    1    2  503  502 -0.20233715820E+02 -0.88531676206E+01  0.78381209318E+03  0.78412319137E+03  0.00000000000E+00 0. -1.
</event>
<event>
 4    1  0.5696713E+002  0.2489123E+02  0.7546771E-02  0.1470024E+00
          2   -1    0    0  502    0  0.00000000000E+00  0.00000000000E+00  0.15035541909E+04  0.15035541909E+04  0.00000000000E+00 0. -1.
         -2   -1    0    0    0  501 -0.00000000000E+00 -0.00000000000E+00 -0.44422825184E+00  0.44422825184E+00  0.00000000000E+00 0.  1.
         21    1    1    2  502  503 -0.37090981212E+01  0.24613331895E+02  0.95387684431E+03  0.95420155503E+03  0.00000000000E+00 0. -1.
         21    1    1    2  503  501  0.37090981212E+01 -0.24613331895E+02  0.54923311832E+03  0.54979686410E+03  0.00000000000E+00 0.  1.
</event>
<event>
 4    1  0.5696713E+002  0.2240899E+02  0.7546771E-02  0.1500056E+00
          2   -1    0    0  502    0  0.00000000000E+00  0.00000000000E+00  0.17191387930E+02  0.17191387930E+02  0.00000000000E+00 0.  1.
         -2   -1    0    0    0  501 -0.00000000000E+00 -0.00000000000E+00 -0.29259048405E+02  0.29259048405E+02  0.00000000000E+00 0. -1.
         21    1    1    2  502  503  0.10063610847E+02 -0.20022156524E+02 -0.69832938775E+01  0.23471885492E+02  0.00000000000E+00 0. -1.
         21    1    1    2  503  501 -0.10063610847E+02  0.20022156524E+02 -0.50843665977E+01  0.22978550843E+02  0.00000000000E+00 0.  1.
</event>
<event>
 4    1  0.5696713E+002  0.2129258E+02  0.7546771E-02  0.1515128E+00
          2   -1    0    0  502    0  0.00000000000E+00  0.00000000000E+00  0.10275658311E+04  0.10275658311E+04  0.00000000000E+00 0. -1.
         -2   -1    0    0    0  501 -0.00000000000E+00 -0.00000000000E+00 -0.65917202336E+00  0.65917202336E+00  0.00000000000E+00 0.  1.
         21    1    1    2  502  503  0.18820420319E+02 -0.99582010493E+01  0.80908270009E+03  0.80936282938E+03  0.00000000000E+00 0. -1.
         21    1    1    2  503  501 -0.18820420319E+02  0.99582010493E+01  0.21782395894E+03  0.21886217370E+03  0.00000000000E+00 0.  1.
</event>
<event>
 4    1  0.5696713E+002  0.3527393E+02  0.7546771E-02  0.1378648E+00
          2   -1    0    0  502    0  0.00000000000E+00  0.00000000000E+00  0.78645873854E+03  0.78645873854E+03  0.00000000000E+00 0.  1.
         -2   -1    0    0    0  501 -0.00000000000E+00 -0.00000000000E+00 -0.29112864339E+01  0.29112864339E+01  0.00000000000E+00 0. -1.
         21    1    1    2  502  503 -0.33928009357E+02 -0.96509267678E+01  0.65846106455E+03  0.65940520451E+03  0.00000000000E+00 0.  1.
         21    1    1    2  503  501  0.33928009357E+02  0.96509267678E+01  0.12508638756E+03  0.12996482046E+03  0.00000000000E+00 0. -1.
</event>
<event>
 4    1  0.5696713E+002  0.3962504E+02  0.7546771E-02  0.1350697E+00
          2   -1    0    0  503    0  0.00000000000E+00  0.00000000000E+00  0.10431714480E+04  0.10431714480E+04  0.00000000000E+00 0. -1.
         -2   -1    0    0    0  501 -0.00000000000E+00 -0.00000000000E+00 -0.16616715702E+01  0.16616715702E+01  0.00000000000E+00 0.  1.
         21    1    1    2  502  501 -0.28137894526E+02  0.27899870048E+02  0.36042578983E+03  0.36259742668E+03  0.00000000000E+00 0.  1.
         21    1    1    2  503  502  0.28137894526E+02 -0.27899870048E+02  0.68108398661E+03  0.68223569290E+03  0.00000000000E+00 0. -1.
</event>
<event>
 4    1  0.5696713E+002  0.2314940E+02  0.7546771E-02  0.1490631E+00
          2   -1    0    0  502    0  0.00000000000E+00  0.00000000000E+00  0.10553906305E+04  0.10553906305E+04  0.00000000000E+00 0. -1.
         -2   -1    0    0    0  501 -0.00000000000E+00 -0.00000000000E+00 -0.51840701104E+00  0.51840701104E+00  0.00000000000E+00 0.  1.
         21    1    1    2  502  503  0.21179225493E+02 -0.93453199424E+01  0.60306578431E+03  0.60350992933E+03  0.00000000000E+00 0. -1.
         21    1    1    2  503  501 -0.21179225493E+02  0.93453199424E+01  0.45180643919E+03  0.45239910819E+03  0.00000000000E+00 0.  1.
</event>
<event>
 4    1  0.5696713E+002  0.2403774E+02  0.7546771E-02  0.1479863E+00
          2   -1    0    0  502    0  0.00000000000E+00  0.00000000000E+00  0.14324659234E+01  0.14324659234E+01  0.00000000000E+00 0. -1.
         -2   -1    0    0    0  501 -0.00000000000E+00 -0.00000000000E+00 -0.48851421930E+03  0.48851421930E+03  0.00000000000E+00 0.  1.
         21    1    1    2  502  503 -0.19665586330E+02 -0.13823084307E+02 -0.14126827778E+03  0.14329877617E+03  0.00000000000E+00 0.  1.
         21    1    1    2  503  501  0.19665586330E+02  0.13823084307E+02 -0.34581347560E+03  0.34664790906E+03  0.00000000000E+00 0. -1.
</event>
<event>
 4    1  0.5696713E+002  0.2214517E+02  0.7546771E-02  0.1503521E+00
          2   -1    0    0  503    0  0.00000000000E+00  0.00000000000E+00  0.25686865716E+01  0.25686865716E+01  0.00000000000E+00 0. -1.
         -2   -1    0    0    0  501 -0.00000000000E+00 -0.00000000000E+00 -0.21670564129E+03  0.21670564129E+03  0.00000000000E+00 0.  1.
         21    1    1    2  502  501 -0.14215522739E+02  0.16980209928E+02 -0.69247902656E+02  0.72702686595E+02  0.00000000000E+00 0. -1.
         21    1    1    2  503  502  0.14215522739E+02 -0.16980209928E+02 -0.14488905206E+03  0.14657164126E+03  0.00000000000E+00 0.  1.
</event>
<event>
 4    1  0.5696713E+002  0.2100423E+02  0.7546771E-02  0.1519204E+00
          2   -1    0    0  502    0  0.00000000000E+00  0.00000000000E+00  0.18890381020E+03  0.18890381020E+03  0.00000000000E+00 0. -1.
         -2   -1    0    0    0  501 -0.00000000000E+00 -0.00000000000E+00 -0.25454969098E+01  0.25454969098E+01  0.00000000000E+00 0.  1.
         21    1    1    2  502  503 -0.20819274308E+02 -0.27813091363E+01  0.65682353597E+02  0.68959041736E+02  0.00000000000E+00 0. -1.
         21    1    1    2  503  501  0.20819274308E+02  0.27813091363E+01  0.12067595969E+03  0.12249026537E+03  0.00000000000E+00 0.  1.
</event>
<event>
 4    1  0.5696713E+002  0.4135740E+02  0.7546771E-02  0.1340710E+00
          2   -1    0    0  503    0  0.00000000000E+00  0.00000000000E+00  0.15071168341E+04  0.15071168341E+04  0.00000000000E+00 0. -1.
         -2   -1    0    0    0  501 -0.00000000000E+00 -0.00000000000E+00 -0.55507023452E+02  0.55507023452E+02  0.00000000000E+00 0.  1.
         21    1    1    2  502  501  0.41016194689E+02  0.53015296184E+01 -0.47478361686E+02  0.62965302123E+02  0.00000000000E+00 0.  1.
         21    1    1    2  503  502 -0.41016194689E+02 -0.53015296184E+01  0.14990881723E+04  0.14996585554E+04  0.00000000000E+00 0. -1.
</event>
<event>
 4    1  0.5696713E+002  0.6306558E+02  0.7546771E-02  0.1249758E+00
          2   -1    0    0  503    0  0.00000000000E+00  0.00000000000E+00  0.20226927874E+04  0.20226927874E+04  0.00000000000E+00 0.  1.
         -2   -1    0    0    0  501 -0.00000000000E+00 -0.00000000000E+00 -0.27917029667E+01  0.27917029667E+01  0.00000000000E+00 0. -1.
         21    1    1    2  502  501 -0.67691940548E+01 -0.62701240228E+02  0.45928073799E+03  0.46359040521E+03  0.00000000000E+00 0. -1.
         21    1    1    2  503  502  0.67691940548E+01  0.62701240228E+02  0.15606203464E+04  0.15618940851E+04  0.00000000000E+00 0.  1.
</event>
<event>
 4    1  0.5696713E+002  0.2338766E+02  0.7546771E-02  0.1487687E+00
          2   -1    0    0  502    0  0.00000000000E+00  0.00000000000E+00  0.31207100033E+02  0.31207100033E+02  0.00000000000E+00 0. -1.
         -2   -1    0    0    0  501 -0.00000000000E+00 -0.00000000000E+00 -0.25688467767E+02  0.25688467767E+02  0.00000000000E+00 0.  1.
         21    1    1    2  502  503 -0.17984933995E+02 -0.14950740446E+02  0.18793620856E+02  0.30003044438E+02  0.00000000000E+00 0. -1.
         21    1    1    2  503  501  0.17984933995E+02  0.14950740446E+02 -0.13274988590E+02  0.26892523361E+02  0.00000000000E+00 0.  1.
</event>
<event>
 4    1  0.5696713E+002  0.2325503E+02  0.7546771E-02  0.1489320E+00
          2   -1    0    0  503    0  0.00000000000E+00  0.00000000000E+00  0.15690692233E+04  0.15690692233E+04  0.00000000000E+00 0.  1.
         -2   -1    0    0    0  501 -0.00000000000E+00 -0.00000000000E+00 -0.93804110863E+00  0.93804110863E+00  0.00000000000E+00 0. -1.
         21    1    1    2  502  501 -0.11579559062E+02  0.20167059333E+02  0.15971670899E+03  0.16140081660E+03  0.00000000000E+00 0. -1.
         21    1    1    2  503  502  0.11579559062E+02 -0.20167059333E+02  0.14084144732E+04  0.14086064478E+04  0.00000000000E+00 0.  1.
</event>
<event>
 4    1  0.5696713E+002  0.2040130E+02  0.7546771E-02  0.1527987E+00
          2   -1    0    0  502    0  0.00000000000E+00  0.00000000000E+00  0.11062415109E+03  0.11062415109E+03  0.00000000000E+00 0. -1.
         -2   -1    0    0    0  501 -0.00000000000E+00 -0.00000000000E+00 -0.39930581686E+01  0.39930581686E+01  0.00000000000E+00 0.  1.
         21    1    1    2  502  503  0.26394298438E+01 -0.20229836833E+02  0.67089115219E+02  0.70122480483E+02  0.00000000000E+00 0. -1.
         21    1    1    2  503  501 -0.26394298438E+01  0.20229836833E+02  0.39541977703E+02  0.44494728776E+02  0.00000000000E+00 0.  1.
</event>
<event>
 4    1  0.5696713E+002  0.2043770E+02  0.7546771E-02  0.1527447E+00
          2   -1    0    0  503    0  0.00000000000E+00  0.00000000000E+00  0.43312263415E+01  0.43312263415E+01  0.00000000000E+00 0.  1.
         -2   -1    0    0    0  501 -0.00000000000E+00 -0.00000000000E+00 -0.10925455554E+03  0.10925455554E+03  0.00000000000E+00 0. -1.
         21    1    1    2  502  501 -0.36025897372E+01 -0.20117677991E+02 -0.71912623951E+02  0.74760451471E+02  0.00000000000E+00 0.  1.
         21    1    1    2  503  502  0.36025897372E+01  0.20117677991E+02 -0.33010705247E+02  0.38825330410E+02  0.00000000000E+00 0. -1.
</event>
<event>
 4    1  0.5696713E+002  0.2059363E+02  0.7546771E-02  0.1525147E+00
          2   -1    0    0  502    0  0.00000000000E+00  0.00000000000E+00  0.15029483134E+03  0.15029483134E+03  0.00000000000E+00 0. -1.
         -2   -1    0    0    0  501 -0.00000000000E+00 -0.00000000000E+00 -0.28834434008E+01  0.28834434008E+01  0.00000000000E+00 0.  1.
         21    1    1    2  502  503 -0.43386812168E+01 -0.20131409189E+02  0.84906579089E+02  0.87368329292E+02  0.00000000000E+00 0. -1.
         21    1    1    2  503  501  0.43386812168E+01  0.20131409189E+02  0.62504808854E+02  0.65809945453E+02  0.00000000000E+00 0.  1.
</event>
<event>
 4    1  0.5696713E+002  0.2129373E+02  0.7546771E-02  0.1515112E+00
          2   -1    0    0  502    0  0.00000000000E+00  0.00000000000E+00  0.25264422681E+02  0.25264422681E+02  0.00000000000E+00 0. -1.
         -2   -1    0    0    0  501 -0.00000000000E+00 -0.00000000000E+00 -0.30312147132E+02  0.30312147132E+02  0.00000000000E+00 0.  1.
         21    1    1    2  502  503 -0.20486432089E+02  0.58076735009E+01  0.15224218054E+02  0.26176321105E+02  0.00000000000E+00 0. -1.
         21    1    1    2  503  501  0.20486432089E+02 -0.58076735009E+01 -0.20271942505E+02  0.29400248709E+02  0.00000000000E+00 0.  1.
</event>
<event>
 4    1  0.5696713E+002  0.3234446E+02  0.7546771E-02  0.1400260E+00
          2   -1    0    0  502    0  0.00000000000E+00  0.00000000000E+00  0.10306862136E+04  0.10306862136E+04  0.00000000000E+00 0.  1.
         -2   -1    0    0    0  501 -0.00000000000E+00 -0.00000000000E+00 -0.10365882213E+01  0.10365882213E+01  0.00000000000E+00 0. -1.
         21    1    1    2  502  503  0.41481371271E+01  0.32077356825E+02  0.58924125194E+03  0.59012830541E+03  0.00000000000E+00 0.  1.
         21    1    1    2  503  501 -0.41481371271E+01 -0.32077356825E+02  0.44040837341E+03  0.44159449638E+03  0.00000000000E+00 0. -1.
</event>
<event>
 4    1  0.5696713E+002  0.2759072E+02  0.7546771E-02  0.1441763E+00
          2   -1    0    0  502    0  0.00000000000E+00  0.00000000000E+00  0.19471151417E+02  0.19471151417E+02  0.00000000000E+00 0.  1.
         -2   -1    0    0    0  501 -0.00000000000E+00 -0.00000000000E+00 -0.45946438131E+03  0.45946438131E+03  0.00000000000E+00 0. -1.
         21    1    1    2  502  503 -0.18041201829E+02 -0.20874931736E+02  0.90564271972E+01  0.29039053222E+02  0.00000000000E+00 0.  1.
         21    1    1    2  503  501  0.18041201829E+02  0.20874931736E+02 -0.44904965709E+03  0.44989647951E+03  0.00000000000E+00 0. -1.
</event>
<event>
 4    1  0.5696713E+002  0.2499658E+02  0.7546771E-02  0.1468842E+00
          2   -1    0    0  502    0  0.00000000000E+00  0.00000000000E+00  0.55799573666E+01  0.55799573666E+01  0.00000000000E+00 0.  1.
         -2   -1    0    0    0  501 -0.00000000000E+00 -0.00000000000E+00 -0.11520021068E+03  0.11520021068E+03  0.00000000000E+00 0. -1.
         21    1    1    2  502  503 -0.23217025246E+02 -0.92627712094E+01 -0.44709332880E+02  0.51222589141E+02  0.00000000000E+00 0.  1.
         21    1    1    2  503  501  0.23217025246E+02  0.92627712094E+01 -0.64910920437E+02  0.69557578909E+02  0.00000000000E+00 0. -1.
</event>
<event>
 4    1  0.5696713E+002  0.2461731E+02  0.7546771E-02  0.1473130E+00
          2   -1    0    0  502    0  0.00000000000E+00  0.00000000000E+00  0.34216471374E+01  0.34216471374E+01  0.00000000000E+00 0.  1.
         -2   -1    0    0    0  501 -0.00000000000E+00 -0.00000000000E+00 -0.91637744881E+03  0.91637744881E+03  0.00000000000E+00 0. -1.
         21    1    1    2  502  503  0.23119062337E+02  0.84569890979E+01 -0.43405429141E+02  0.49900330529E+02  0.00000000000E+00 0.  1.
         21    1    1    2  503  501 -0.23119062337E+02 -0.84569890979E+01 -0.86955037254E+03  0.86989876542E+03  0.00000000000E+00 0. -1.
</event>
<event>
 4    1  0.5696713E+002  0.2501153E+02  0.7546771E-02  0.1468674E+00
          2   -1    0    0  503    0  0.00000000000E+00  0.00000000000E+00  0.57864105576E+01  0.57864105576E+01  0.00000000000E+00 0.  1.
         -2   -1    0    0    0  501 -0.00000000000E+00 -0.00000000000E+00 -0.10852964644E+03  0.10852964644E+03  0.00000000000E+00 0. -1.
         21    1    1    2  502  501 -0.17800303042E+02 -0.17570593293E+02 -0.47823027377E+02  0.53968680589E+02  0.00000000000E+00 0. -1.
         21    1    1    2  503  502  0.17800303042E+02  0.17570593293E+02 -0.54920208504E+02  0.60347376406E+02  0.00000000000E+00 0.  1.
</event>
<event>
 4    1  0.5696713E+002  0.2124458E+02  0.7546771E-02  0.1515801E+00
          2   -1    0    0  503    0  0.00000000000E+00  0.00000000000E+00  0.43868608543E+01  0.43868608543E+01  0.00000000000E+00 0.  1.
         -2   -1    0    0    0  501 -0.00000000000E+00 -0.00000000000E+00 -0.13375396896E+03  0.13375396896E+03  0.00000000000E+00 0. -1.
         21    1    1    2  502  501  0.20804690678E+02 -0.43007948832E+01 -0.97866590523E+02  0.10014590122E+03  0.00000000000E+00 0. -1.
         21    1    1    2  503  502 -0.20804690678E+02  0.43007948832E+01 -0.31500517586E+02  0.37994928597E+02  0.00000000000E+00 0.  1.
</event>
<event>
 4    1  0.5696713E+002  0.2077439E+02  0.7546771E-02  0.1522511E+00
          2   -1    0    0  503    0  0.00000000000E+00  0.00000000000E+00  0.73286907079E+02  0.73286907079E+02  0.00000000000E+00 0. -1.
         -2   -1    0    0    0  501 -0.00000000000E+00 -0.00000000000E+00 -0.71185491636E+01  0.71185491636E+01  0.00000000000E+00 0.  1.
         21    1    1    2  502  501 -0.20752550770E+02  0.95222353741E+00  0.16374794667E+02  0.26452013033E+02  0.00000000000E+00 0.  1.
         21    1    1    2  503  502  0.20752550770E+02 -0.95222353741E+00  0.49793563249E+02  0.53953443209E+02  0.00000000000E+00 0. -1.
</event>
<event>
 4    1  0.5696713E+002  0.9443063E+02  0.7546771E-02  0.1173825E+00
          2   -1    0    0  502    0  0.00000000000E+00  0.00000000000E+00  0.12713531420E+03  0.12713531420E+03  0.00000000000E+00 0. -1.
         -2   -1    0    0    0  501 -0.00000000000E+00 -0.00000000000E+00 -0.76275512882E+02  0.76275512882E+02  0.00000000000E+00 0.  1.
         21    1    1    2  502  503 -0.86894642132E+02 -0.36965726394E+02  0.54277676788E+02  0.10891836373E+03  0.00000000000E+00 0. -1.
         21    1    1    2  503  501  0.86894642132E+02  0.36965726394E+02 -0.34178754674E+01  0.94492463360E+02  0.00000000000E+00 0.  1.
</event>
<event>
 4    1  0.5696713E+002  0.2214628E+02  0.7546771E-02  0.1503506E+00
          2   -1    0    0  503    0  0.00000000000E+00  0.00000000000E+00  0.38905081464E+02  0.38905081464E+02  0.00000000000E+00 0. -1.
         -2   -1    0    0    0  501 -0.00000000000E+00 -0.00000000000E+00 -0.41741681950E+02  0.41741681950E+02  0.00000000000E+00 0.  1.
         21    1    1    2  502  501 -0.12924799667E+02 -0.17983530116E+02 -0.35106722420E+02  0.41508309541E+02  0.00000000000E+00 0.  1.
         21    1    1    2  503  502  0.12924799667E+02  0.17983530116E+02  0.32270121934E+02  0.39138453872E+02  0.00000000000E+00 0. -1.
</event>
<event>
 4    1  0.5696713E+002  0.3414539E+02  0.7546771E-02  0.1386673E+00
          2   -1    0    0  503    0  0.00000000000E+00  0.00000000000E+00  0.49363905780E+02  0.49363905780E+02  0.00000000000E+00 0. -1.
         -2   -1    0    0    0  501 -0.00000000000E+00 -0.00000000000E+00 -0.84949658459E+02  0.84949658459E+02  0.00000000000E+00 0.  1.
         21    1    1    2  502  501  0.28435951020E+02 -0.18902499047E+02 -0.74855165045E+02  0.82275169489E+02  0.00000000000E+00 0.  1.
         21    1    1    2  503  502 -0.28435951020E+02  0.18902499047E+02  0.39269412366E+02  0.52038394750E+02  0.00000000000E+00 0. -1.
</event>
<event>
 4    1  0.5696713E+002  0.2017775E+02  0.7546771E-02  0.1531336E+00
          2   -1    0    0  503    0  0.00000000000E+00  0.00000000000E+00  0.14531512360E+04  0.14531512360E+04  0.00000000000E+00 0.  1.
         -2   -1    0    0    0  501 -0.00000000000E+00 -0.00000000000E+00 -0.28412444389E+00  0.28412444389E+00  0.00000000000E+00 0. -1.
         21    1    1    2  502  501 -0.76744189774E+01 -0.18661316536E+02  0.81207775240E+03  0.81232839258E+03  0.00000000000E+00 0.  1.
         21    1    1    2  503  502  0.76744189774E+01  0.18661316536E+02  0.64078935914E+03  0.64110696785E+03  0.00000000000E+00 0. -1.
</event>
<event>
 4    1  0.5696713E+002  0.2919604E+02  0.7546771E-02  0.1426714E+00
          2   -1    0    0  503    0  0.00000000000E+00  0.00000000000E+00  0.18305637000E+03  0.18305637000E+03  0.00000000000E+00 0. -1.
         -2   -1    0    0    0  501 -0.00000000000E+00 -0.00000000000E+00 -0.74305563716E+01  0.74305563716E+01  0.00000000000E+00 0.  1.
         21    1    1    2  502  501  0.24763566330E+02 -0.15465275704E+02  0.29618778554E+02  0.41589433910E+02  0.00000000000E+00 0.  1.
         21    1    1    2  503  502 -0.24763566330E+02  0.15465275704E+02  0.14600703507E+03  0.14889749246E+03  0.00000000000E+00 0. -1.
</event>
<event>
 4    1  0.5696713E+002  0.2458330E+02  0.7546771E-02  0.1473519E+00
          2   -1    0    0  503    0  0.00000000000E+00  0.00000000000E+00  0.10538701866E+04  0.10538701866E+04  0.00000000000E+00 0. -1.
         -2   -1    0    0    0  501 -0.00000000000E+00 -0.00000000000E+00 -0.62296744968E+00  0.62296744968E+00  0.00000000000E+00 0.  1.
         21    1    1    2  502  501 -0.18058635755E+02 -0.16680063477E+02  0.37797091925E+03  0.37876952707E+03  0.00000000000E+00 0.  1.
         21    1    1    2  503  502  0.18058635755E+02  0.16680063477E+02  0.67527629990E+03  0.67572362698E+03  0.00000000000E+00 0. -1.
</event>
<event>
 4    1  0.5696713E+002  0.2678002E+02  0.7546771E-02  0.1449830E+00
          2   -1    0    0  503    0  0.00000000000E+00  0.00000000000E+00  0.31933197660E+01  0.31933197660E+01  0.00000000000E+00 0.  1.
         -2   -1    0    0    0  501 -0.00000000000E+00 -0.00000000000E+00 -0.27001039481E+03  0.27001039481E+03  0.00000000000E+00 0. -1.
         21    1    1    2  502  501 -0.93693527171E+01 -0.25087543566E+02 -0.18943831167E+03  0.19132183237E+03  0.00000000000E+00 0. -1.
         21    1    1    2  503  502  0.93693527171E+01  0.25087543566E+02 -0.77378763370E+02  0.81881882203E+02  0.00000000000E+00 0.  1.
</event>
<event>
 4    1  0.5696713E+002  0.4606670E+02  0.7546771E-02  0.1316190E+00
          2   -1    0    0  503    0  0.00000000000E+00  0.00000000000E+00  0.36445129594E+02  0.36445129594E+02  0.00000000000E+00 0.  1.
         -2   -1    0    0    0  501 -0.00000000000E+00 -0.00000000000E+00 -0.54947420031E+03  0.54947420031E+03  0.00000000000E+00 0. -1.
         21    1    1    2  502  501 -0.35894811150E+02 -0.28873922926E+02 -0.53351698590E+03  0.53550211497E+03  0.00000000000E+00 0. -1.
         21    1    1    2  503  502  0.35894811150E+02  0.28873922926E+02  0.20487915189E+02  0.50417214931E+02  0.00000000000E+00 0.  1.
</event>
<event>
 4    1  0.5696713E+002  0.3342361E+02  0.7546771E-02  0.1391998E+00
          2   -1    0    0  502    0  0.00000000000E+00  0.00000000000E+00  0.85004667138E+02  0.85004667138E+02  0.00000000000E+00 0. -1.
         -2   -1    0    0    0  501 -0.00000000000E+00 -0.00000000000E+00 -0.14552656195E+02  0.14552656195E+02  0.00000000000E+00 0.  1.
         21    1    1    2  502  503  0.56408027868E+01 -0.32944179766E+02  0.19728162327E+02  0.38811570767E+02  0.00000000000E+00 0.  1.
         21    1    1    2  503  501 -0.56408027868E+01  0.32944179766E+02  0.50723848616E+02  0.60745752567E+02  0.00000000000E+00 0. -1.
</event>
<event>
 4    1  0.5696713E+002  0.3606631E+02  0.7546771E-02  0.1373218E+00
          2   -1    0    0  503    0  0.00000000000E+00  0.00000000000E+00  0.39360599792E+02  0.39360599792E+02  0.00000000000E+00 0. -1.
         -2   -1    0    0    0  501 -0.00000000000E+00 -0.00000000000E+00 -0.50597699411E+02  0.50597699411E+02  0.00000000000E+00 0.  1.
         21    1    1    2  502  501 -0.25759390745E+02  0.25243461768E+02 -0.32108674688E+02  0.48288151381E+02  0.00000000000E+00 0.  1.
         21    1    1    2  503  502  0.25759390745E+02 -0.25243461768E+02  0.20871575069E+02  0.41670147821E+02  0.00000000000E+00 0. -1.
</event>
<event>
 4    1  0.5696713E+002  0.4613606E+02  0.7546771E-02  0.1315854E+00
          2   -1    0    0  503    0  0.00000000000E+00  0.00000000000E+00  0.82778177105E+02  0.82778177105E+02  0.00000000000E+00 0. -1.
         -2   -1    0    0    0  501 -0.00000000000E+00 -0.00000000000E+00 -0.10286755672E+03  0.10286755672E+03  0.00000000000E+00 0.  1.
         21    1    1    2  502  501  0.10989148979E+02 -0.44808199288E+02 -0.90433293778E+02  0.10152200127E+03  0.00000000000E+00 0.  1.
         21    1    1    2  503  502 -0.10989148979E+02  0.44808199288E+02  0.70343914164E+02  0.84123732553E+02  0.00000000000E+00 0. -1.
</event>
<event>
 4    1  0.5696713E+002  0.2858291E+02  0.7546771E-02  0.1432324E+00
          2   -1    0    0  503    0  0.00000000000E+00  0.00000000000E+00  0.19984050703E+02  0.19984050703E+02  0.00000000000E+00 0. -1.
         -2   -1    0    0    0  501 -0.00000000000E+00 -0.00000000000E+00 -0.45196502991E+02  0.45196502991E+02  0.00000000000E+00 0.  1.
         21    1    1    2  502  501 -0.36629179618E+01  0.28347235747E+02 -0.25365810933E+01  0.28695243267E+02  0.00000000000E+00 0. -1.
         21    1    1    2  503  502  0.36629179618E+01 -0.28347235747E+02 -0.22675871195E+02  0.36485310427E+02  0.00000000000E+00 0.  1.
</event>
<event>
 4    1  0.5696713E+002  0.5189978E+02  0.7546771E-02  0.1290139E+00
          2   -1    0    0  502    0  0.00000000000E+00  0.00000000000E+00  0.32240853939E+02  0.32240853939E+02  0.00000000000E+00 0.  1.
         -2   -1    0    0    0  501 -0.00000000000E+00 -0.00000000000E+00 -0.15750790063E+03  0.15750790063E+03  0.00000000000E+00 0. -1.
         21    1    1    2  502  503 -0.19723485903E+02  0.48005945588E+02  0.23798195242E+01  0.51954309243E+02  0.00000000000E+00 0.  1.
         21    1    1    2  503  501  0.19723485903E+02 -0.48005945588E+02 -0.12764686622E+03  0.13779444533E+03  0.00000000000E+00 0. -1.
</event>
<event>
 4    1  0.5696713E+002  0.2596068E+02  0.7546771E-02  0.1458337E+00
          2   -1    0    0  503    0  0.00000000000E+00  0.00000000000E+00  0.12783719102E+04  0.12783719102E+04  0.00000000000E+00 0.  1.
         -2   -1    0    0    0  501 -0.00000000000E+00 -0.00000000000E+00 -0.54868209524E+00  0.54868209524E+00  0.00000000000E+00 0. -1.
         21    1    1    2  502  501 -0.25943999969E+02 -0.93054987710E+00  0.76544244525E+03  0.76588255891E+03  0.00000000000E+00 0.  1.
         21    1    1    2  503  502  0.25943999969E+02  0.93054987710E+00  0.51238078285E+03  0.51303803338E+03  0.00000000000E+00 0. -1.
</event>
<event>
 4    1  0.5696713E+002  0.2356420E+02  0.7546771E-02  0.1485532E+00
          2   -1    0    0  503    0  0.00000000000E+00  0.00000000000E+00  0.11953666141E+04  0.11953666141E+04  0.00000000000E+00 0. -1.
         -2   -1    0    0    0  501 -0.00000000000E+00 -0.00000000000E+00 -0.91501035287E+00  0.91501035287E+00  0.00000000000E+00 0.  1.
         21    1    1    2  502  501  0.12393298643E+02  0.20041898032E+02  0.17753132990E+03  0.17908837099E+03  0.00000000000E+00 0.  1.
         21    1    1    2  503  502 -0.12393298643E+02 -0.20041898032E+02  0.10169202738E+04  0.10171932535E+04  0.00000000000E+00 0. -1.
</event>
<event>
 4    1  0.5696713E+002  0.2040665E+02  0.7546771E-02  0.1527907E+00
          2   -1    0    0  502    0  0.00000000000E+00  0.00000000000E+00  0.54199648845E+03  0.54199648845E+03  0.00000000000E+00 0.  1.
         -2   -1    0    0    0  501 -0.00000000000E+00 -0.00000000000E+00 -0.93838987051E+00  0.93838987051E+00  0.00000000000E+00 0. -1.
         21    1    1    2  502  503 -0.19005973474E+02 -0.74299727748E+01  0.38609463312E+03  0.38663354387E+03  0.00000000000E+00 0. -1.
         21    1    1    2  503  501  0.19005973474E+02  0.74299727748E+01  0.15496346546E+03  0.15630133445E+03  0.00000000000E+00 0.  1.
</event>
<event>
 4    1  0.5696713E+002  0.2986126E+02  0.7546771E-02  0.1420806E+00
          2   -1    0    0  503    0  0.00000000000E+00  0.00000000000E+00  0.96117859796E+02  0.96117859796E+02  0.00000000000E+00 0.  1.
         -2   -1    0    0    0  501 -0.00000000000E+00 -0.00000000000E+00 -0.93040954561E+01  0.93040954561E+01  0.00000000000E+00 0. -1.
         21    1    1    2  502  501  0.14078988727E+02 -0.26333948095E+02  0.40567457483E+02  0.50372744143E+02  0.00000000000E+00 0. -1.
         21    1    1    2  503  502 -0.14078988727E+02  0.26333948095E+02  0.46246306857E+02  0.55049211110E+02  0.00000000000E+00 0.  1.
</event>
<event>
 4    1  0.5696713E+002  0.2033332E+02  0.7546771E-02  0.1529000E+00
          2   -1    0    0  503    0  0.00000000000E+00  0.00000000000E+00  0.83628455962E+02  0.83628455962E+02  0.00000000000E+00 0. -1.
         -2   -1    0    0    0  501 -0.00000000000E+00 -0.00000000000E+00 -0.32549903176E+03  0.32549903176E+03  0.00000000000E+00 0.  1.
         21    1    1    2  502  501 -0.11848737900E+02 -0.16524264269E+02 -0.32393958695E+03  0.32457710931E+03  0.00000000000E+00 0.  1.
         21    1    1    2  503  502  0.11848737900E+02  0.16524264269E+02  0.82069011145E+02  0.84550378413E+02  0.00000000000E+00 0. -1.
</event>
<event>
 4    1  0.5696713E+002  0.2457543E+02  0.7546771E-02  0.1473609E+00
          2   -1    0    0  503    0  0.00000000000E+00  0.00000000000E+00  0.43665735465E+02  0.43665735465E+02  0.00000000000E+00 0. -1.
         -2   -1    0    0    0  501 -0.00000000000E+00 -0.00000000000E+00 -0.33197351711E+02  0.33197351711E+02  0.00000000000E+00 0.  1.
         21    1    1    2  502  501 -0.28757588099E+01 -0.24406590409E+02 -0.24119128031E+02  0.34433762227E+02  0.00000000000E+00 0.  1.
         21    1    1    2  503  502  0.28757588099E+01  0.24406590409E+02  0.34587511785E+02  0.42429324949E+02  0.00000000000E+00 0. -1.
</event>
<event>
 4    1  0.5696713E+002  0.2919777E+02  0.7546771E-02  0.1426698E+00
          2   -1    0    0  502    0  0.00000000000E+00  0.00000000000E+00  0.86471375671E+01  0.86471375671E+01  0.00000000000E+00 0.  1.
         -2   -1    0    0    0  501 -0.00000000000E+00 -0.00000000000E+00 -0.14548224983E+03  0.14548224983E+03  0.00000000000E+00 0. -1.
         21    1    1    2  502  503  0.63734891615E+01 -0.28493659844E+02 -0.11217047453E+03  0.11590826274E+03  0.00000000000E+00 0. -1.
         21    1    1    2  503  501 -0.63734891615E+01  0.28493659844E+02 -0.24664637730E+02  0.38221124653E+02  0.00000000000E+00 0.  1.
</event>
<event>
 4    1  0.5696713E+002  0.3080661E+02  0.7546771E-02  0.1412714E+00
          2   -1    0    0  503    0  0.00000000000E+00  0.00000000000E+00  0.55434272673E+03  0.55434272673E+03  0.00000000000E+00 0.  1.
         -2   -1    0    0    0  501 -0.00000000000E+00 -0.00000000000E+00 -0.41520916593E+01  0.41520916593E+01  0.00000000000E+00 0. -1.
         21    1    1    2  502  501 -0.21475170032E+02 -0.22087645667E+02  0.61024835638E+02  0.68359912109E+02  0.00000000000E+00 0. -1.
         21    1    1    2  503  502  0.21475170032E+02  0.22087645667E+02  0.48916579943E+03  0.49013490628E+03  0.00000000000E+00 0.  1.
</event>
<event>
 4    1  0.5696713E+002  0.2292207E+02  0.7546771E-02  0.1493479E+00
          2   -1    0    0  502    0  0.00000000000E+00  0.00000000000E+00  0.41312315816E+01  0.41312315816E+01  0.00000000000E+00 0. -1.
         -2   -1    0    0    0  501 -0.00000000000E+00 -0.00000000000E+00 -0.29954835889E+03  0.29954835889E+03  0.00000000000E+00 0.  1.
         21    1    1    2  502  503 -0.11842594540E+02 -0.19625854001E+02 -0.32528448636E+02  0.39793481393E+02  0.00000000000E+00 0. -1.
         21    1    1    2  503  501  0.11842594540E+02  0.19625854001E+02 -0.26288867867E+03  0.26388610908E+03  0.00000000000E+00 0.  1.
</event>
<event>
 4    1  0.5696713E+002  0.2282621E+02  0.7546771E-02  0.1494692E+00
          2   -1    0    0  502    0  0.00000000000E+00  0.00000000000E+00  0.10893955213E+04  0.10893955213E+04  0.00000000000E+00 0. -1.
         -2   -1    0    0    0  501 -0.00000000000E+00 -0.00000000000E+00 -0.48254102811E+00  0.48254102811E+00  0.00000000000E+00 0.  1.
         21    1    1    2  502  503  0.22315101471E+02  0.48033527878E+01  0.59566527393E+03  0.59610246982E+03  0.00000000000E+00 0. -1.
         21    1    1    2  503  501 -0.22315101471E+02 -0.48033527878E+01  0.49324770638E+03  0.49377559255E+03  0.00000000000E+00 0.  1.
</event>
<event>
 4    1  0.5696713E+002  0.2993432E+02  0.7546771E-02  0.1420168E+00
          2   -1    0    0  503    0  0.00000000000E+00  0.00000000000E+00  0.83313334490E+02  0.83313334490E+02  0.00000000000E+00 0.  1.
         -2   -1    0    0    0  501 -0.00000000000E+00 -0.00000000000E+00 -0.10776596271E+02  0.10776596271E+02  0.00000000000E+00 0. -1.
         21    1    1    2  502  501  0.29933242896E+02 -0.25443446591E+00  0.38357430028E+02  0.48655484845E+02  0.00000000000E+00 0. -1.
         21    1    1    2  503  502 -0.29933242896E+02  0.25443446591E+00  0.34179308192E+02  0.45434445916E+02  0.00000000000E+00 0.  1.
</event>
<event>
 4    1  0.5696713E+002  0.3153702E+02  0.7546771E-02  0.1406694E+00
          2   -1    0    0  503    0  0.00000000000E+00  0.00000000000E+00  0.40956666548E+03  0.40956666548E+03  0.00000000000E+00 0.  1.
         -2   -1    0    0    0  501 -0.00000000000E+00 -0.00000000000E+00 -0.88278871212E+01  0.88278871212E+01  0.00000000000E+00 0. -1.
         21    1    1    2  502  501  0.76470882016E+01 -0.30595848819E+02  0.22254236146E+02  0.38598380139E+02  0.00000000000E+00 0. -1.
         21    1    1    2  503  502 -0.76470882016E+01  0.30595848819E+02  0.37848454221E+03  0.37979617246E+03  0.00000000000E+00 0.  1.
</event>
<event>
 4    1  0.5696713E+002  0.5888516E+02  0.7546771E-02  0.1263668E+00
          2   -1    0    0  503    0  0.00000000000E+00  0.00000000000E+00  0.36422648320E+03  0.36422648320E+03  0.00000000000E+00 0. -1.
         -2   -1    0    0    0  501 -0.00000000000E+00 -0.00000000000E+00 -0.97357729940E+01  0.97357729940E+01  0.00000000000E+00 0.  1.
         21    1    1    2  502  501  0.88086465941E+00  0.58878568307E+02  0.20507709339E+03  0.21336371754E+03  0.00000000000E+00 0. -1.
         21    1    1    2  503  502 -0.88086465941E+00 -0.58878568307E+02  0.14941361682E+03  0.16059853866E+03  0.00000000000E+00 0.  1.
</event>
<event>
 4    1  0.5696713E+002  0.2373661E+02  0.7546771E-02  0.1483450E+00
          2   -1    0    0  502    0  0.00000000000E+00  0.00000000000E+00  0.13491716294E+04  0.13491716294E+04  0.00000000000E+00 0.  1.
         -2   -1    0    0    0  501 -0.00000000000E+00 -0.00000000000E+00 -0.52511318239E+00  0.52511318239E+00  0.00000000000E+00 0. -1.
         21    1    1    2  502  503  0.17493257972E+02 -0.16044088493E+02  0.97966872236E+03  0.97995624005E+03  0.00000000000E+00 0.  1.
         21    1    1    2  503  501 -0.17493257972E+02  0.16044088493E+02  0.36897779388E+03  0.36974050255E+03  0.00000000000E+00 0. -1.
</event>
<event>
 4    1  0.5696713E+002  0.2666700E+02  0.7546771E-02  0.1450982E+00
          2   -1    0    0  502    0  0.00000000000E+00  0.00000000000E+00  0.62277549080E+03  0.62277549080E+03  0.00000000000E+00 0.  1.
         -2   -1    0    0    0  501 -0.00000000000E+00 -0.00000000000E+00 -0.11847813585E+01  0.11847813585E+01  0.00000000000E+00 0. -1.
         21    1    1    2  502  503 -0.22632548201E+02  0.14103068629E+02  0.25142182244E+03  0.25283208179E+03  0.00000000000E+00 0.  1.
         21    1    1    2  503  501  0.22632548201E+02 -0.14103068629E+02  0.37016888700E+03  0.37112819037E+03  0.00000000000E+00 0. -1.
</event>
<event>
 4    1  0.5696713E+002  0.3880244E+02  0.7546771E-02  0.1355650E+00
          2   -1    0    0  503    0  0.00000000000E+00  0.00000000000E+00  0.77237619550E+01  0.77237619550E+01  0.00000000000E+00 0.  1.
         -2   -1    0    0    0  501 -0.00000000000E+00 -0.00000000000E+00 -0.20688436964E+03  0.20688436964E+03  0.00000000000E+00 0. -1.
         21    1    1    2  502  501  0.35659948616E+02 -0.15296980770E+02 -0.12536900656E+03  0.13123649402E+03  0.00000000000E+00 0. -1.
         21    1    1    2  503  502 -0.35659948616E+02  0.15296980770E+02 -0.73791601129E+02  0.83371637582E+02  0.00000000000E+00 0.  1.
</event>
<event>
 4    1  0.5696713E+002  0.5929771E+02  0.7546771E-02  0.1262238E+00
          2   -1    0    0  502    0  0.00000000000E+00  0.00000000000E+00  0.24537604085E+04  0.24537604085E+04  0.00000000000E+00 0. -1.
         -2   -1    0    0    0  501 -0.00000000000E+00 -0.00000000000E+00 -0.14334100868E+01  0.14334100868E+01  0.00000000000E+00 0.  1.
         21    1    1    2  502  503  0.53347787214E+02 -0.25888840995E+02  0.12471345131E+04  0.12485434363E+04  0.00000000000E+00 0. -1.
         21    1    1    2  503  501 -0.53347787214E+02  0.25888840995E+02  0.12051924853E+04  0.12066503823E+04  0.00000000000E+00 0.  1.
</event>
<event>
 4    1  0.5696713E+002  0.2247374E+02  0.7546771E-02  0.1499214E+00
          2   -1    0    0  503    0  0.00000000000E+00  0.00000000000E+00  0.12022126130E+04  0.12022126130E+04  0.00000000000E+00 0.  1.
         -2   -1    0    0    0  501 -0.00000000000E+00 -0.00000000000E+00 -0.11742015053E+01  0.11742015053E+01  0.00000000000E+00 0. -1.
         21    1    1    2  502  501 -0.69818180058E+01 -0.21361720640E+02  0.11833364599E+03  0.12044883006E+03  0.00000000000E+00 0. -1.
         21    1    1    2  503  502  0.69818180058E+01  0.21361720640E+02  0.10827047655E+04  0.10829379844E+04  0.00000000000E+00 0.  1.
</event>
<event>
 4    1  0.5696713E+002  0.2166223E+02  0.7546771E-02  0.1510016E+00
          2   -1    0    0  502    0  0.00000000000E+00  0.00000000000E+00  0.11591594064E+04  0.11591594064E+04  0.00000000000E+00 0. -1.
         -2   -1    0    0    0  501 -0.00000000000E+00 -0.00000000000E+00 -0.63721123919E+00  0.63721123919E+00  0.00000000000E+00 0.  1.
         21    1    1    2  502  503 -0.56753536709E+01 -0.20905567521E+02  0.92946324918E+03  0.92971564683E+03  0.00000000000E+00 0. -1.
         21    1    1    2  503  501  0.56753536709E+01  0.20905567521E+02  0.22905894602E+03  0.23008097085E+03  0.00000000000E+00 0.  1.
</event>
<event>
 4    1  0.5696713E+002  0.2792265E+02  0.7546771E-02  0.1438554E+00
          2   -1    0    0  503    0  0.00000000000E+00  0.00000000000E+00  0.46518921711E+02  0.46518921711E+02  0.00000000000E+00 0. -1.
         -2   -1    0    0    0  501 -0.00000000000E+00 -0.00000000000E+00 -0.20582893765E+02  0.20582893765E+02  0.00000000000E+00 0.  1.
         21    1    1    2  502  501  0.12762255673E+02 -0.24835444512E+02 -0.14905776624E+01  0.27962408618E+02  0.00000000000E+00 0.  1.
         21    1    1    2  503  502 -0.12762255673E+02  0.24835444512E+02  0.27426605608E+02  0.39139406858E+02  0.00000000000E+00 0. -1.
</event>
<event>
 4    1  0.5696713E+002  0.2647629E+02  0.7546771E-02  0.1452941E+00
          2   -1    0    0  502    0  0.00000000000E+00  0.00000000000E+00  0.89018319881E+03  0.89018319881E+03  0.00000000000E+00 0. -1.
         -2   -1    0    0    0  501 -0.00000000000E+00 -0.00000000000E+00 -0.15240835571E+01  0.15240835571E+01  0.00000000000E+00 0.  1.
         21    1    1    2  502  503  0.98264012761E+01  0.24585270753E+02  0.75429080961E+03  0.75475533729E+03  0.00000000000E+00 0. -1.
         21    1    1    2  503  501 -0.98264012761E+01 -0.24585270753E+02  0.13436830564E+03  0.13695194508E+03  0.00000000000E+00 0.  1.
</event>
<event>
 4    1  0.5696713E+002  0.3673347E+02  0.7546771E-02  0.1368769E+00
          2   -1    0    0  502    0  0.00000000000E+00  0.00000000000E+00  0.10056145630E+03  0.10056145630E+03  0.00000000000E+00 0. -1.
         -2   -1    0    0    0  501 -0.00000000000E+00 -0.00000000000E+00 -0.14433496499E+02  0.14433496499E+02  0.00000000000E+00 0.  1.
         21    1    1    2  502  503 -0.15573411784E+02 -0.33268854694E+02  0.58314054555E+02  0.68919350011E+02  0.00000000000E+00 0. -1.
         21    1    1    2  503  501  0.15573411784E+02  0.33268854694E+02  0.27813905246E+02  0.46075602789E+02  0.00000000000E+00 0.  1.
</event>
<event>
 4    1  0.5696713E+002  0.2271911E+02  0.7546771E-02  0.1496056E+00
          2   -1    0    0  503    0  0.00000000000E+00  0.00000000000E+00  0.14361102079E+04  0.14361102079E+04  0.00000000000E+00 0.  1.
         -2   -1    0    0    0  501 -0.00000000000E+00 -0.00000000000E+00 -0.61238705317E+00  0.61238705317E+00  0.00000000000E+00 0. -1.
         21    1    1    2  502  501 -0.12457763603E+02  0.18999007040E+02  0.25604129247E+03  0.25704727501E+03  0.00000000000E+00 0. -1.
         21    1    1    2  503  502  0.12457763603E+02 -0.18999007040E+02  0.11794565284E+04  0.11796753200E+04  0.00000000000E+00 0.  1.
</event>
<event>
 4    1  0.5696713E+002  0.2650484E+02  0.7546771E-02  0.1452646E+00
          2   -1    0    0  502    0  0.00000000000E+00  0.00000000000E+00  0.23061823494E+02  0.23061823494E+02  0.00000000000E+00 0.  1.
         -2   -1    0    0    0  501 -0.00000000000E+00 -0.00000000000E+00 -0.35597211053E+02  0.35597211053E+02  0.00000000000E+00 0. -1.
         21    1    1    2  502  503  0.89404695038E+01  0.24951446398E+02  0.48721944953E+01  0.26948932288E+02  0.00000000000E+00 0.  1.
         21    1    1    2  503  501 -0.89404695038E+01 -0.24951446398E+02 -0.17407582055E+02  0.31710102259E+02  0.00000000000E+00 0. -1.
</event>
<event>
 4    1  0.5696713E+002  0.3384675E+02  0.7546771E-02  0.1388857E+00
          2   -1    0    0  502    0  0.00000000000E+00  0.00000000000E+00  0.77244287259E+03  0.77244287259E+03  0.00000000000E+00 0.  1.
         -2   -1    0    0    0  501 -0.00000000000E+00 -0.00000000000E+00 -0.15294395942E+01  0.15294395942E+01  0.00000000000E+00 0. -1.
         21    1    1    2  502  503  0.10578973097E+02 -0.32151015848E+02  0.45282431535E+03  0.45408750595E+03  0.00000000000E+00 0. -1.
         21    1    1    2  503  501 -0.10578973097E+02  0.32151015848E+02  0.31808911765E+03  0.31988480623E+03  0.00000000000E+00 0.  1.
</event>
<event>
 4    1  0.5696713E+002  0.2459019E+02  0.7546771E-02  0.1473440E+00
          2   -1    0    0  503    0  0.00000000000E+00  0.00000000000E+00  0.20078007493E+01  0.20078007493E+01  0.00000000000E+00 0.  1.
         -2   -1    0    0    0  501 -0.00000000000E+00 -0.00000000000E+00 -0.56917381948E+03  0.56917381948E+03  0.00000000000E+00 0. -1.
         21    1    1    2  502  501  0.52228641467E+01  0.24029132506E+02 -0.47955636876E+03  0.48018640999E+03  0.00000000000E+00 0. -1.
         21    1    1    2  503  502 -0.52228641467E+01 -0.24029132506E+02 -0.87609649970E+02  0.90995210241E+02  0.00000000000E+00 0.  1.
</event>
<event>
 4    1  0.5696713E+002  0.2335095E+02  0.7546771E-02  0.1488138E+00
          2   -1    0    0  502    0  0.00000000000E+00  0.00000000000E+00  0.49712726626E+03  0.49712726626E+03  0.00000000000E+00 0.  1.
         -2   -1    0    0    0  501 -0.00000000000E+00 -0.00000000000E+00 -0.10990708838E+01  0.10990708838E+01  0.00000000000E+00 0. -1.
         21    1    1    2  502  503 -0.49741685830E+01 -0.22815005018E+02  0.23677930475E+03  0.23792794280E+03  0.00000000000E+00 0.  1.
         21    1    1    2  503  501  0.49741685830E+01  0.22815005018E+02  0.25924889062E+03  0.26029839434E+03  0.00000000000E+00 0. -1.
</event>
<event>
 4    1  0.5696713E+002  0.2163534E+02  0.7546771E-02  0.1510384E+00
          2   -1    0    0  502    0  0.00000000000E+00  0.00000000000E+00  0.19628363842E+02  0.19628363842E+02  0.00000000000E+00 0. -1.
         -2   -1    0    0    0  501 -0.00000000000E+00 -0.00000000000E+00 -0.41612991599E+02  0.41612991599E+02  0.00000000000E+00 0.  1.
         21    1    1    2  502  503 -0.13856352138E+02 -0.16615938245E+02 -0.30999620957E+02  0.37802968109E+02  0.00000000000E+00 0.  1.
         21    1    1    2  503  501  0.13856352138E+02  0.16615938245E+02  0.90149932000E+01  0.23438387332E+02  0.00000000000E+00 0. -1.
</event>
<event>
 4    1  0.5696713E+002  0.2071755E+02  0.7546771E-02  0.1523336E+00
          2   -1    0    0  503    0  0.00000000000E+00  0.00000000000E+00  0.12876210892E+04  0.12876210892E+04  0.00000000000E+00 0. -1.
         -2   -1    0    0    0  501 -0.00000000000E+00 -0.00000000000E+00 -0.32623897655E+01  0.32623897655E+01  0.00000000000E+00 0.  1.
         21    1    1    2  502  501 -0.16336510389E+02  0.12741093029E+02  0.30600555854E+02  0.36954174891E+02  0.00000000000E+00 0.  1.
         21    1    1    2  503  502  0.16336510389E+02 -0.12741093029E+02  0.12537581436E+04  0.12539293041E+04  0.00000000000E+00 0. -1.
</event>
<event>
 4    1  0.5696713E+002  0.4118262E+02  0.7546771E-02  0.1341692E+00
          2   -1    0    0  503    0  0.00000000000E+00  0.00000000000E+00  0.59956938410E+03  0.59956938410E+03  0.00000000000E+00 0.  1.
         -2   -1    0    0    0  501 -0.00000000000E+00 -0.00000000000E+00 -0.32601119089E+01  0.32601119089E+01  0.00000000000E+00 0. -1.
         21    1    1    2  502  501  0.11556605084E+02  0.39527872215E+02  0.18850950091E+03  0.19295553824E+03  0.00000000000E+00 0. -1.
         21    1    1    2  503  502 -0.11556605084E+02 -0.39527872215E+02  0.40779977128E+03  0.40987395777E+03  0.00000000000E+00 0.  1.
</event>
<event>
 4    1  0.5696713E+002  0.2240300E+02  0.7546771E-02  0.1500134E+00
          2   -1    0    0  502    0  0.00000000000E+00  0.00000000000E+00  0.79583348975E+03  0.79583348975E+03  0.00000000000E+00 0.  1.
         -2   -1    0    0    0  501 -0.00000000000E+00 -0.00000000000E+00 -0.24286484626E+01  0.24286484626E+01  0.00000000000E+00 0. -1.
         21    1    1    2  502  503 -0.83128651211E+01  0.20803616778E+02  0.74012400754E+03  0.74046299080E+03  0.00000000000E+00 0.  1.
         21    1    1    2  503  501  0.83128651211E+01 -0.20803616778E+02  0.53280833746E+02  0.57799147418E+02  0.00000000000E+00 0. -1.
</event>
<event>
 4    1  0.5696713E+002  0.2625431E+02  0.7546771E-02  0.1455246E+00
          2   -1    0    0  502    0  0.00000000000E+00  0.00000000000E+00  0.17223177485E+03  0.17223177485E+03  0.00000000000E+00 0.  1.
         -2   -1    0    0    0  501 -0.00000000000E+00 -0.00000000000E+00 -0.17300761931E+02  0.17300761931E+02  0.00000000000E+00 0. -1.
         21    1    1    2  502  503 -0.57787564968E+00 -0.26247947374E+02  0.16055098921E+03  0.16268346203E+03  0.00000000000E+00 0.  1.
         21    1    1    2  503  501  0.57787564968E+00  0.26247947374E+02 -0.56199762894E+01  0.26849074753E+02  0.00000000000E+00 0. -1.
</event>
<event>
 4    1  0.5696713E+002  0.3001875E+02  0.7546771E-02  0.1419434E+00
          2   -1    0    0  502    0  0.00000000000E+00  0.00000000000E+00  0.73616636336E+03  0.73616636336E+03  0.00000000000E+00 0.  1.
         -2   -1    0    0    0  501 -0.00000000000E+00 -0.00000000000E+00 -0.14077620186E+01  0.14077620186E+01  0.00000000000E+00 0. -1.
         21    1    1    2  502  503 -0.24768943136E+02  0.16959511782E+02  0.50059207820E+03  0.50149133028E+03  0.00000000000E+00 0.  1.
         21    1    1    2  503  501  0.24768943136E+02 -0.16959511782E+02  0.23416652313E+03  0.23608279510E+03  0.00000000000E+00 0. -1.
</event>
<event>
 4    1  0.5696713E+002  0.2031335E+02  0.7546771E-02  0.1529298E+00
          2   -1    0    0  503    0  0.00000000000E+00  0.00000000000E+00  0.63248333793E+03  0.63248333793E+03  0.00000000000E+00 0.  1.
         -2   -1    0    0    0  501 -0.00000000000E+00 -0.00000000000E+00 -0.10294673677E+01  0.10294673677E+01  0.00000000000E+00 0. -1.
         21    1    1    2  502  501 -0.84631104440E+01 -0.18466395713E+02  0.12402403025E+03  0.12567653754E+03  0.00000000000E+00 0. -1.
         21    1    1    2  503  502  0.84631104440E+01  0.18466395713E+02  0.50742984031E+03  0.50783626775E+03  0.00000000000E+00 0.  1.
</event>
<event>
 4    1  0.5696713E+002  0.4304906E+02  0.7546771E-02  0.1331489E+00
          2   -1    0    0  502    0  0.00000000000E+00  0.00000000000E+00  0.49589484049E+03  0.49589484049E+03  0.00000000000E+00 0. -1.
         -2   -1    0    0    0  501 -0.00000000000E+00 -0.00000000000E+00 -0.53804743889E+01  0.53804743889E+01  0.00000000000E+00 0.  1.
         21    1    1    2  502  503  0.43038357253E+02  0.95967255868E+00  0.10674086160E+03  0.11509488564E+03  0.00000000000E+00 0.  1.
         21    1    1    2  503  501 -0.43038357253E+02 -0.95967255868E+00  0.38377350450E+03  0.38618042923E+03  0.00000000000E+00 0. -1.
</event>
<event>
 4    1  0.5696713E+002  0.2345539E+02  0.7546771E-02  0.1486858E+00
          2   -1    0    0  503    0  0.00000000000E+00  0.00000000000E+00  0.25937099988E+02  0.25937099988E+02  0.00000000000E+00 0.  1.
         -2   -1    0    0    0  501 -0.00000000000E+00 -0.00000000000E+00 -0.42440251992E+02  0.42440251992E+02  0.00000000000E+00 0. -1.
         21    1    1    2  502  501 -0.15625741158E+02 -0.17492615556E+02 -0.32431740354E+02  0.40024657002E+02  0.00000000000E+00 0. -1.
         21    1    1    2  503  502  0.15625741158E+02  0.17492615556E+02  0.15928588350E+02  0.28352694979E+02  0.00000000000E+00 0.  1.
</event>
<event>
 4    1  0.5696713E+002  0.2063860E+02  0.7546771E-02  0.1524488E+00
          2   -1    0    0  502    0  0.00000000000E+00  0.00000000000E+00  0.63842781211E+03  0.63842781211E+03  0.00000000000E+00 0. -1.
         -2   -1    0    0    0  501 -0.00000000000E+00 -0.00000000000E+00 -0.12367838218E+01  0.12367838218E+01  0.00000000000E+00 0.  1.
         21    1    1    2  502  503  0.81443614619E+01  0.18963685035E+02  0.53564484967E+03  0.53604230892E+03  0.00000000000E+00 0. -1.
         21    1    1    2  503  501 -0.81443614619E+01 -0.18963685035E+02  0.10154617862E+03  0.10362228701E+03  0.00000000000E+00 0.  1.
</event>
<event>
 4    1  0.5696713E+002  0.3748514E+02  0.7546771E-02  0.1363888E+00
          2   -1    0    0  503    0  0.00000000000E+00  0.00000000000E+00  0.13053491768E+03  0.13053491768E+03  0.00000000000E+00 0.  1.
         -2   -1    0    0    0  501 -0.00000000000E+00 -0.00000000000E+00 -0.15458013397E+02  0.15458013397E+02  0.00000000000E+00 0. -1.
         21    1    1    2  502  501 -0.37482867597E+02  0.41280888154E+00  0.17315251301E+02  0.41291085019E+02  0.00000000000E+00 0. -1.
         21    1    1    2  503  502  0.37482867597E+02 -0.41280888154E+00  0.97761652986E+02  0.10470184606E+03  0.00000000000E+00 0.  1.
</event>
<event>
 4    1  0.5696713E+002  0.3031684E+02  0.7546771E-02  0.1416863E+00
          2   -1    0    0  502    0  0.00000000000E+00  0.00000000000E+00  0.89423318451E+03  0.89423318451E+03  0.00000000000E+00 0.  1.
         -2   -1    0    0    0  501 -0.00000000000E+00 -0.00000000000E+00 -0.23005228738E+01  0.23005228738E+01  0.00000000000E+00 0. -1.
         21    1    1    2  502  503  0.25809850960E+02  0.15904782455E+02  0.77938269186E+03  0.77997210904E+03  0.00000000000E+00 0.  1.
         21    1    1    2  503  501 -0.25809850960E+02 -0.15904782455E+02  0.11254996978E+03  0.11656159835E+03  0.00000000000E+00 0. -1.
</event>
<event>
 4    1  0.5696713E+002  0.3571477E+02  0.7546771E-02  0.1375607E+00
          2   -1    0    0  503    0  0.00000000000E+00  0.00000000000E+00  0.35468931028E+03  0.35468931028E+03  0.00000000000E+00 0.  1.
         -2   -1    0    0    0  501 -0.00000000000E+00 -0.00000000000E+00 -0.47726792947E+01  0.47726792947E+01  0.00000000000E+00 0. -1.
         21    1    1    2  502  501 -0.34598218561E+02 -0.88604956796E+01  0.85724789020E+02  0.92867026246E+02  0.00000000000E+00 0. -1.
         21    1    1    2  503  502  0.34598218561E+02  0.88604956796E+01  0.26419184197E+03  0.26659496333E+03  0.00000000000E+00 0.  1.
</event>
<event>
 4    1  0.5696713E+002  0.2729077E+02  0.7546771E-02  0.1444709E+00
          2   -1    0    0  502    0  0.00000000000E+00  0.00000000000E+00  0.15281130925E+03  0.15281130925E+03  0.00000000000E+00 0. -1.
         -2   -1    0    0    0  501 -0.00000000000E+00 -0.00000000000E+00 -0.50418046933E+01  0.50418046933E+01  0.00000000000E+00 0.  1.
         21    1    1    2  502  503  0.26947085746E+02 -0.43174913445E+01  0.88288284260E+02  0.92409995667E+02  0.00000000000E+00 0. -1.
         21    1    1    2  503  501 -0.26947085746E+02  0.43174913445E+01  0.59481220299E+02  0.65443118278E+02  0.00000000000E+00 0.  1.
</event>
<event>
 4    1  0.5696713E+002  0.2964972E+02  0.7546771E-02  0.1422665E+00
          2   -1    0    0  502    0  0.00000000000E+00  0.00000000000E+00  0.13220109570E+04  0.13220109570E+04  0.00000000000E+00 0.  1.
         -2   -1    0    0    0  501 -0.00000000000E+00 -0.00000000000E+00 -0.78169674839E+00  0.78169674839E+00  0.00000000000E+00 0. -1.
         21    1    1    2  502  503  0.21337681847E+02 -0.20586621654E+02  0.91618854031E+03  0.91666817718E+03  0.00000000000E+00 0. -1.
         21    1    1    2  503  501 -0.21337681847E+02  0.20586621654E+02  0.40504071994E+03  0.40612447657E+03  0.00000000000E+00 0.  1.
</event>
<event>
 4    1  0.5696713E+002  0.2540889E+02  0.7546771E-02  0.1464281E+00
          2   -1    0    0  503    0  0.00000000000E+00  0.00000000000E+00  0.41202598483E+02  0.41202598483E+02  0.00000000000E+00 0. -1.
         -2   -1    0    0    0  501 -0.00000000000E+00 -0.00000000000E+00 -0.16312175359E+02  0.16312175359E+02  0.00000000000E+00 0.  1.
         21    1    1    2  502  501 -0.25043530154E+02 -0.42934221996E+01  0.67358222688E+01  0.26286558892E+02  0.00000000000E+00 0.  1.
         21    1    1    2  503  502  0.25043530154E+02  0.42934221996E+01  0.18154600855E+02  0.31228214950E+02  0.00000000000E+00 0. -1.
</event>
<event>
 4    1  0.5696713E+002  0.3885167E+02  0.7546771E-02  0.1355350E+00
          2   -1    0    0  502    0  0.00000000000E+00  0.00000000000E+00  0.12915692229E+03  0.12915692229E+03  0.00000000000E+00 0.  1.
         -2   -1    0    0    0  501 -0.00000000000E+00 -0.00000000000E+00 -0.34619949097E+02  0.34619949097E+02  0.00000000000E+00 0. -1.
         21    1    1    2  502  503 -0.29904529196E+02  0.24802646694E+02  0.11391687739E+03  0.12035990654E+03  0.00000000000E+00 0.  1.
         21    1    1    2  503  501  0.29904529196E+02 -0.24802646694E+02 -0.19379904196E+02  0.43416964842E+02  0.00000000000E+00 0. -1.
</event>
<event>
 4    1  0.5696713E+002  0.8116971E+02  0.7546771E-02  0.1201158E+00
          2   -1    0    0  502    0  0.00000000000E+00  0.00000000000E+00  0.62391166649E+03  0.62391166649E+03  0.00000000000E+00 0.  1.
         -2   -1    0    0    0  501 -0.00000000000E+00 -0.00000000000E+00 -0.35258326807E+02  0.35258326807E+02  0.00000000000E+00 0. -1.
         21    1    1    2  502  503 -0.68362852826E+02 -0.43761198817E+02  0.57017486044E+03  0.57592351371E+03  0.00000000000E+00 0.  1.
         21    1    1    2  503  501  0.68362852826E+02  0.43761198817E+02  0.18478479246E+02  0.83246479587E+02  0.00000000000E+00 0. -1.
</event>
<event>
 4    1  0.5696713E+002  0.3230891E+02  0.7546771E-02  0.1400538E+00
          2   -1    0    0  502    0  0.00000000000E+00  0.00000000000E+00  0.74661664139E+01  0.74661664139E+01  0.00000000000E+00 0. -1.
         -2   -1    0    0    0  501 -0.00000000000E+00 -0.00000000000E+00 -0.14207901962E+03  0.14207901962E+03  0.00000000000E+00 0.  1.
         21    1    1    2  502  503 -0.15209204016E+02  0.28505190857E+02 -0.76749783377E+02  0.83273015083E+02  0.00000000000E+00 0. -1.
         21    1    1    2  503  501  0.15209204016E+02 -0.28505190857E+02 -0.57863069833E+02  0.66272170955E+02  0.00000000000E+00 0.  1.
</event>
<event>
 4    1  0.5696713E+002  0.2879275E+02  0.7546771E-02  0.1430386E+00
          2   -1    0    0  502    0  0.00000000000E+00  0.00000000000E+00  0.15520586074E+02  0.15520586074E+02  0.00000000000E+00 0.  1.
         -2   -1    0    0    0  501 -0.00000000000E+00 -0.00000000000E+00 -0.10423412909E+03  0.10423412909E+03  0.00000000000E+00 0. -1.
         21    1    1    2  502  503  0.26489678438E+02 -0.11283587265E+02 -0.25473715296E+01  0.28905215914E+02  0.00000000000E+00 0.  1.
         21    1    1    2  503  501 -0.26489678438E+02  0.11283587265E+02 -0.86166171482E+02  0.90849499245E+02  0.00000000000E+00 0. -1.
</event>
<event>
 4    1  0.5696713E+002  0.2405435E+02  0.7546771E-02  0.1479667E+00
          2   -1    0    0  503    0  0.00000000000E+00  0.00000000000E+00  0.41564704827E+03  0.41564704827E+03  0.00000000000E+00 0. -1.
         -2   -1    0    0    0  501 -0.00000000000E+00 -0.00000000000E+00 -0.19263810220E+01  0.19263810220E+01  0.00000000000E+00 0.  1.
         21    1    1    2  502  501 -0.51679710254E+01  0.23492634902E+02  0.96902330567E+02  0.99843244581E+02  0.00000000000E+00 0.  1.
         21    1    1    2  503  502  0.51679710254E+01 -0.23492634902E+02  0.31681833668E+03  0.31773018471E+03  0.00000000000E+00 0. -1.
</event>
<event>
 4    1  0.5696713E+002  0.4663922E+02  0.7546771E-02  0.1313440E+00
          2   -1    0    0  502    0  0.00000000000E+00  0.00000000000E+00  0.92983792733E+03  0.92983792733E+03  0.00000000000E+00 0.  1.
         -2   -1    0    0    0  501 -0.00000000000E+00 -0.00000000000E+00 -0.48366759767E+01  0.48366759767E+01  0.00000000000E+00 0. -1.
         21    1    1    2  502  503  0.34544347155E+02  0.31335359458E+02  0.79831133142E+03  0.79967255708E+03  0.00000000000E+00 0.  1.
         21    1    1    2  503  501 -0.34544347155E+02 -0.31335359458E+02  0.12668991993E+03  0.13500204623E+03  0.00000000000E+00 0. -1.
</event>
<event>
 4    1  0.5696713E+002  0.2348769E+02  0.7546771E-02  0.1486463E+00
          2   -1    0    0  503    0  0.00000000000E+00  0.00000000000E+00  0.16973507818E+04  0.16973507818E+04  0.00000000000E+00 0.  1.
         -2   -1    0    0    0  501 -0.00000000000E+00 -0.00000000000E+00 -0.48469844302E+00  0.48469844302E+00  0.00000000000E+00 0. -1.
         21    1    1    2  502  501 -0.16987090062E+02 -0.16220674523E+02  0.36118051980E+03  0.36194342016E+03  0.00000000000E+00 0. -1.
         21    1    1    2  503  502  0.16987090062E+02  0.16220674523E+02  0.13356855636E+04  0.13358920601E+04  0.00000000000E+00 0.  1.
</event>
<event>
 4    1  0.5696713E+002  0.2171585E+02  0.7546771E-02  0.1509285E+00
          2   -1    0    0  503    0  0.00000000000E+00  0.00000000000E+00  0.31665645422E+03  0.31665645422E+03  0.00000000000E+00 0. -1.
         -2   -1    0    0    0  501 -0.00000000000E+00 -0.00000000000E+00 -0.32563618892E+02  0.32563618892E+02  0.00000000000E+00 0.  1.
         21    1    1    2  502  501  0.17801692443E+02  0.12436957113E+02 -0.28524145990E+02  0.35849756771E+02  0.00000000000E+00 0.  1.
         21    1    1    2  503  502 -0.17801692443E+02 -0.12436957113E+02  0.31261698132E+03  0.31337031634E+03  0.00000000000E+00 0. -1.
</event>
<event>
 4    1  0.5696713E+002  0.2246184E+02  0.7546771E-02  0.1499369E+00
          2   -1    0    0  502    0  0.00000000000E+00  0.00000000000E+00  0.17551576078E+04  0.17551576078E+04  0.00000000000E+00 0. -1.
         -2   -1    0    0    0  501 -0.00000000000E+00 -0.00000000000E+00 -0.79648354769E+00  0.79648354769E+00  0.00000000000E+00 0.  1.
         21    1    1    2  502  503 -0.22421598626E+02  0.13438888073E+01  0.15790632659E+04  0.15792230153E+04  0.00000000000E+00 0. -1.
         21    1    1    2  503  501  0.22421598626E+02 -0.13438888073E+01  0.17529785829E+03  0.17673107605E+03  0.00000000000E+00 0.  1.
</event>
<event>
 4    1  0.5696713E+002  0.2236640E+02  0.7546771E-02  0.1500611E+00
          2   -1    0    0  503    0  0.00000000000E+00  0.00000000000E+00  0.36255530545E+03  0.36255530545E+03  0.00000000000E+00 0.  1.
         -2   -1    0    0    0  501 -0.00000000000E+00 -0.00000000000E+00 -0.14450396792E+01  0.14450396792E+01  0.00000000000E+00 0. -1.
         21    1    1    2  502  501 -0.48407616308E+01  0.21836278857E+02  0.14188574624E+03  0.14363781199E+03  0.00000000000E+00 0. -1.
         21    1    1    2  503  502  0.48407616308E+01 -0.21836278857E+02  0.21922451953E+03  0.22036253314E+03  0.00000000000E+00 0.  1.
</event>
<event>
 4    1  0.5696713E+002  0.2335999E+02  0.7546771E-02  0.1488027E+00
          2   -1    0    0  502    0  0.00000000000E+00  0.00000000000E+00  0.11437979013E+03  0.11437979013E+03  0.00000000000E+00 0.  1.
         -2   -1    0    0    0  501 -0.00000000000E+00 -0.00000000000E+00 -0.60026969093E+01  0.60026969093E+01  0.00000000000E+00 0. -1.
         21    1    1    2  502  503  0.99444177920E+01  0.21137589210E+02  0.26921505485E+02  0.35643464764E+02  0.00000000000E+00 0. -1.
         21    1    1    2  503  501 -0.99444177920E+01 -0.21137589210E+02  0.81455587738E+02  0.84739022278E+02  0.00000000000E+00 0.  1.
</event>
<event>
 4    1  0.5696713E+002  0.4612415E+02  0.7546771E-02  0.1315912E+00
          2   -1    0    0  502    0  0.00000000000E+00  0.00000000000E+00  0.21523663232E+04  0.21523663232E+04  0.00000000000E+00 0.  1.
         -2   -1    0    0    0  501 -0.00000000000E+00 -0.00000000000E+00 -0.55084583739E+01  0.55084583739E+01  0.00000000000E+00 0. -1.
         21    1    1    2  502  503  0.41718401890E+02 -0.19672629902E+02  0.20507840003E+04  0.20513026236E+04  0.00000000000E+00 0.  1.
         21    1    1    2  503  501 -0.41718401890E+02  0.19672629902E+02  0.96073864468E+02  0.10657215798E+03  0.00000000000E+00 0. -1.
</event>
<event>
 4    1  0.5696713E+002  0.2088249E+02  0.7546771E-02  0.1520949E+00
          2   -1    0    0  502    0  0.00000000000E+00  0.00000000000E+00  0.48027137694E+01  0.48027137694E+01  0.00000000000E+00 0. -1.
         -2   -1    0    0    0  501 -0.00000000000E+00 -0.00000000000E+00 -0.94858025182E+02  0.94858025182E+02  0.00000000000E+00 0.  1.
         21    1    1    2  502  503  0.97637280438E+01 -0.18459359984E+02 -0.34718949727E+02  0.40515229563E+02  0.00000000000E+00 0. -1.
         21    1    1    2  503  501 -0.97637280438E+01  0.18459359984E+02 -0.55336361686E+02  0.59145509389E+02  0.00000000000E+00 0.  1.
</event>
<event>
 4    1  0.5696713E+002  0.2485107E+02  0.7546771E-02  0.1470476E+00
          2   -1    0    0  503    0  0.00000000000E+00  0.00000000000E+00  0.18879731044E+04  0.18879731044E+04  0.00000000000E+00 0. -1.
         -2   -1    0    0    0  501 -0.00000000000E+00 -0.00000000000E+00 -0.55942070834E+00  0.55942070834E+00  0.00000000000E+00 0.  1.
         21    1    1    2  502  501  0.18436320648E+02  0.16663667534E+02  0.33520850411E+03  0.33612842332E+03  0.00000000000E+00 0.  1.
         21    1    1    2  503  502 -0.18436320648E+02 -0.16663667534E+02  0.15522051796E+04  0.15524041018E+04  0.00000000000E+00 0. -1.
</event>
<event>
 4    1  0.5696713E+002  0.2272413E+02  0.7546771E-02  0.1495992E+00
          2   -1    0    0  502    0  0.00000000000E+00  0.00000000000E+00  0.19065488909E+01  0.19065488909E+01  0.00000000000E+00 0.  1.
         -2   -1    0    0    0  501 -0.00000000000E+00 -0.00000000000E+00 -0.30178752177E+03  0.30178752177E+03  0.00000000000E+00 0. -1.
         21    1    1    2  502  503  0.61103686409E+01 -0.21887199751E+02 -0.10132124355E+03  0.10383824205E+03  0.00000000000E+00 0.  1.
         21    1    1    2  503  501 -0.61103686409E+01  0.21887199751E+02 -0.19855972932E+03  0.19985582860E+03  0.00000000000E+00 0. -1.
</event>
<event>
 4    1  0.5696713E+002  0.2647955E+02  0.7546771E-02  0.1452907E+00
          2   -1    0    0  502    0  0.00000000000E+00  0.00000000000E+00  0.13400223918E+03  0.13400223918E+03  0.00000000000E+00 0. -1.
         -2   -1    0    0    0  501 -0.00000000000E+00 -0.00000000000E+00 -0.53175544432E+01  0.53175544432E+01  0.00000000000E+00 0.  1.
         21    1    1    2  502  503  0.17469690496E+02 -0.19899156146E+02  0.73152414340E+02  0.77797443564E+02  0.00000000000E+00 0.  1.
         21    1    1    2  503  501 -0.17469690496E+02  0.19899156146E+02  0.55532270394E+02  0.61522350056E+02  0.00000000000E+00 0. -1.
</event>
<event>
 4    1  0.5696713E+002  0.5506573E+02  0.7546771E-02  0.1277586E+00
          2   -1    0    0  502    0  0.00000000000E+00  0.00000000000E+00  0.65797027828E+03  0.65797027828E+03  0.00000000000E+00 0. -1.
         -2   -1    0    0    0  501 -0.00000000000E+00 -0.00000000000E+00 -0.48580405300E+01  0.48580405300E+01  0.00000000000E+00 0.  1.
         21    1    1    2  502  503 -0.37508254529E+02  0.40315827378E+02  0.40167320298E+03  0.40543013836E+03  0.00000000000E+00 0.  1.
         21    1    1    2  503  501  0.37508254529E+02 -0.40315827378E+02  0.25143903477E+03  0.25739818045E+03  0.00000000000E+00 0. -1.
</event>
<event>
 4    1  0.5696713E+002  0.3139666E+02  0.7546771E-02  0.1407836E+00
          2   -1    0    0  503    0  0.00000000000E+00  0.00000000000E+00  0.17919207134E+03  0.17919207134E+03  0.00000000000E+00 0.  1.
         -2   -1    0    0    0  501 -0.00000000000E+00 -0.00000000000E+00 -0.88551095245E+01  0.88551095245E+01  0.00000000000E+00 0. -1.
         21    1    1    2  502  501 -0.14767880199E+02  0.27706681842E+02  0.27302530267E+02  0.41607435192E+02  0.00000000000E+00 0. -1.
         21    1    1    2  503  502  0.14767880199E+02 -0.27706681842E+02  0.14303443155E+03  0.14643974567E+03  0.00000000000E+00 0.  1.
</event>
<event>
 4    1  0.5696713E+002  0.2086961E+02  0.7546771E-02  0.1521135E+00
          2   -1    0    0  502    0  0.00000000000E+00  0.00000000000E+00  0.13910730996E+03  0.13910730996E+03  0.00000000000E+00 0.  1.
         -2   -1    0    0    0  501 -0.00000000000E+00 -0.00000000000E+00 -0.48878611531E+01  0.48878611531E+01  0.00000000000E+00 0. -1.
         21    1    1    2  502  503 -0.36065114063E+01 -0.20555619719E+02  0.11027467764E+03  0.11223210305E+03  0.00000000000E+00 0.  1.
         21    1    1    2  503  501  0.36065114063E+01  0.20555619719E+02  0.23944771170E+02  0.31763068066E+02  0.00000000000E+00 0. -1.
</event>
<event>
 4    1  0.5696713E+002  0.3539215E+02  0.7546771E-02  0.1377827E+00
          2   -1    0    0  503    0  0.00000000000E+00  0.00000000000E+00  0.45054883051E+02  0.45054883051E+02  0.00000000000E+00 0. -1.
         -2   -1    0    0    0  501 -0.00000000000E+00 -0.00000000000E+00 -0.40156861400E+02  0.40156861400E+02  0.00000000000E+00 0.  1.
         21    1    1    2  502  501 -0.18331656482E+02 -0.30274650643E+02 -0.21183676293E+02  0.41247451342E+02  0.00000000000E+00 0.  1.
         21    1    1    2  503  502  0.18331656482E+02  0.30274650643E+02  0.26081697944E+02  0.43964293109E+02  0.00000000000E+00 0. -1.
</event>
<event>
 4    1  0.5696713E+002  0.2699554E+02  0.7546771E-02  0.1447653E+00
          2   -1    0    0  502    0  0.00000000000E+00  0.00000000000E+00  0.17895043656E+02  0.17895043656E+02  0.00000000000E+00 0.  1.
         -2   -1    0    0    0  501 -0.00000000000E+00 -0.00000000000E+00 -0.40968199767E+02  0.40968199767E+02  0.00000000000E+00 0. -1.
         21    1    1    2  502  503 -0.16393681145E+02 -0.21447755863E+02 -0.13808539695E+02  0.30322182994E+02  0.00000000000E+00 0.  1.
         21    1    1    2  503  501  0.16393681145E+02  0.21447755863E+02 -0.92646164159E+01  0.28541060428E+02  0.00000000000E+00 0. -1.
</event>
<event>
 4    1  0.5696713E+002  0.2145470E+02  0.7546771E-02  0.1512871E+00
          2   -1    0    0  503    0  0.00000000000E+00  0.00000000000E+00  0.68151437040E+03  0.68151437040E+03  0.00000000000E+00 0. -1.
         -2   -1    0    0    0  501 -0.00000000000E+00 -0.00000000000E+00 -0.14642955900E+01  0.14642955900E+01  0.00000000000E+00 0.  1.
         21    1    1    2  502  501  0.19549916324E+02 -0.88376909639E+01  0.89374400899E+02  0.91913478586E+02  0.00000000000E+00 0.  1.
         21    1    1    2  503  502 -0.19549916324E+02  0.88376909639E+01  0.59067567391E+03  0.59106518740E+03  0.00000000000E+00 0. -1.
</event>
<event>
 4    1  0.5696713E+002  0.7341247E+02  0.7546771E-02  0.1220026E+00
          2   -1    0    0  503    0  0.00000000000E+00  0.00000000000E+00  0.32660389801E+04  0.32660389801E+04  0.00000000000E+00 0. -1.
         -2   -1    0    0    0  501 -0.00000000000E+00 -0.00000000000E+00 -0.47318740047E+01  0.47318740047E+01  0.00000000000E+00 0.  1.
         21    1    1    2  502  501 -0.53750208954E+01  0.73215436615E+02  0.31087285706E+03  0.31942342473E+03  0.00000000000E+00 0.  1.
         21    1    1    2  503  502  0.53750208954E+01 -0.73215436615E+02  0.29504342490E+04  0.29513474294E+04  0.00000000000E+00 0. -1.
</event>
<event>
 4    1  0.5696713E+002  0.2913515E+02  0.7546771E-02  0.1427264E+00
          2   -1    0    0  502    0  0.00000000000E+00  0.00000000000E+00  0.38714227372E+01  0.38714227372E+01  0.00000000000E+00 0.  1.
         -2   -1    0    0    0  501 -0.00000000000E+00 -0.00000000000E+00 -0.31536338282E+03  0.31536338282E+03  0.00000000000E+00 0. -1.
         21    1    1    2  502  503 -0.28495520295E+02 -0.60714203162E+01 -0.67633204203E+02  0.73641748569E+02  0.00000000000E+00 0.  1.
         21    1    1    2  503  501  0.28495520295E+02  0.60714203162E+01 -0.24385875588E+03  0.24559305699E+03  0.00000000000E+00 0. -1.
</event>
<event>
 4    1  0.5696713E+002  0.2226077E+02  0.7546771E-02  0.1501995E+00
          2   -1    0    0  502    0  0.00000000000E+00  0.00000000000E+00  0.76659146473E+03  0.76659146473E+03  0.00000000000E+00 0. -1.
         -2   -1    0    0    0  501 -0.00000000000E+00 -0.00000000000E+00 -0.82783663638E+00  0.82783663638E+00  0.00000000000E+00 0.  1.
         21    1    1    2  502  503 -0.21179849372E+02  0.68524441540E+01  0.56250645073E+03  0.56294675514E+03  0.00000000000E+00 0. -1.
         21    1    1    2  503  501  0.21179849372E+02 -0.68524441540E+01  0.20325717737E+03  0.20447254623E+03  0.00000000000E+00 0.  1.
</event>
<event>
 4    1  0.5696713E+002  0.2327177E+02  0.7546771E-02  0.1489113E+00
          2   -1    0    0  502    0  0.00000000000E+00  0.00000000000E+00  0.17938334743E+03  0.17938334743E+03  0.00000000000E+00 0. -1.
         -2   -1    0    0    0  501 -0.00000000000E+00 -0.00000000000E+00 -0.34960185296E+01  0.34960185296E+01  0.00000000000E+00 0.  1.
         21    1    1    2  502  503  0.19844085449E+02 -0.12156790172E+02  0.54170445247E+02  0.58957717161E+02  0.00000000000E+00 0.  1.
         21    1    1    2  503  501 -0.19844085449E+02  0.12156790172E+02  0.12171688366E+03  0.12392164880E+03  0.00000000000E+00 0. -1.
</event>
<event>
 4    1  0.5696713E+002  0.3462691E+02  0.7546771E-02  0.1383205E+00
          2   -1    0    0  502    0  0.00000000000E+00  0.00000000000E+00  0.35899780415E+02  0.35899780415E+02  0.00000000000E+00 0.  1.
         -2   -1    0    0    0  501 -0.00000000000E+00 -0.00000000000E+00 -0.81369857360E+02  0.81369857360E+02  0.00000000000E+00 0. -1.
         21    1    1    2  502  503 -0.27698151212E+02  0.20780639958E+02  0.22285617454E+02  0.41178529878E+02  0.00000000000E+00 0.  1.
         21    1    1    2  503  501  0.27698151212E+02 -0.20780639958E+02 -0.67755694399E+02  0.76091107898E+02  0.00000000000E+00 0. -1.
</event>
<event>
 4    1  0.5696713E+002  0.2946545E+02  0.7546771E-02  0.1424299E+00
          2   -1    0    0  503    0  0.00000000000E+00  0.00000000000E+00  0.21083376790E+03  0.21083376790E+03  0.00000000000E+00 0. -1.
         -2   -1    0    0    0  501 -0.00000000000E+00 -0.00000000000E+00 -0.70574206890E+01  0.70574206890E+01  0.00000000000E+00 0.  1.
         21    1    1    2  502  501 -0.25851748730E+02 -0.14138587259E+02  0.31578050918E+02  0.43190113010E+02  0.00000000000E+00 0.  1.
         21    1    1    2  503  502  0.25851748730E+02  0.14138587259E+02  0.17219829629E+03  0.17470107558E+03  0.00000000000E+00 0. -1.
</event>
<event>
 4    1  0.5696713E+002  0.2366342E+02  0.7546771E-02  0.1484331E+00
          2   -1    0    0  502    0  0.00000000000E+00  0.00000000000E+00  0.71436500161E+03  0.71436500161E+03  0.00000000000E+00 0.  1.
         -2   -1    0    0    0  501 -0.00000000000E+00 -0.00000000000E+00 -0.78593297910E+00  0.78593297910E+00  0.00000000000E+00 0. -1.
         21    1    1    2  502  503  0.19215488182E+02 -0.13810233151E+02  0.37518240268E+03  0.37592790906E+03  0.00000000000E+00 0. -1.
         21    1    1    2  503  501 -0.19215488182E+02  0.13810233151E+02  0.33839666595E+03  0.33922302553E+03  0.00000000000E+00 0.  1.
</event>
<event>
 4    1  0.5696713E+002  0.4128777E+02  0.7546771E-02  0.1341100E+00
          2   -1    0    0  502    0  0.00000000000E+00  0.00000000000E+00  0.75259313708E+03  0.75259313708E+03  0.00000000000E+00 0. -1.
         -2   -1    0    0    0  501 -0.00000000000E+00 -0.00000000000E+00 -0.17094002421E+02  0.17094002421E+02  0.00000000000E+00 0.  1.
         21    1    1    2  502  503  0.29402403348E+02 -0.28985832328E+02  0.72619019210E+03  0.72736295954E+03  0.00000000000E+00 0. -1.
         21    1    1    2  503  501 -0.29402403348E+02  0.28985832328E+02  0.93089425572E+01  0.42324179967E+02  0.00000000000E+00 0.  1.
</event>
<event>
 4    1  0.5696713E+002  0.2950919E+02  0.7546771E-02  0.1423910E+00
          2   -1    0    0  503    0  0.00000000000E+00  0.00000000000E+00  0.22421387506E+03  0.22421387506E+03  0.00000000000E+00 0. -1.
         -2   -1    0    0    0  501 -0.00000000000E+00 -0.00000000000E+00 -0.67981700554E+01  0.67981700554E+01  0.00000000000E+00 0.  1.
         21    1    1    2  502  501  0.27408687504E+02 -0.10934186586E+02  0.33079603992E+02  0.44328915927E+02  0.00000000000E+00 0.  1.
         21    1    1    2  503  502 -0.27408687504E+02  0.10934186586E+02  0.18433610101E+03  0.18668312919E+03  0.00000000000E+00 0. -1.
</event>
<event>
 4    1  0.5696713E+002  0.2400939E+02  0.7546771E-02  0.1480198E+00
          2   -1    0    0  503    0  0.00000000000E+00  0.00000000000E+00  0.37441498268E+02  0.37441498268E+02  0.00000000000E+00 0.  1.
         -2   -1    0    0    0  501 -0.00000000000E+00 -0.00000000000E+00 -0.16305298020E+02  0.16305298020E+02  0.00000000000E+00 0. -1.
         21    1    1    2  502  501  0.26339592952E+01 -0.23864471692E+02  0.16914130293E+02  0.29369006696E+02  0.00000000000E+00 0.  1.
         21    1    1    2  503  502 -0.26339592952E+01  0.23864471692E+02  0.42220699549E+01  0.24377789593E+02  0.00000000000E+00 0. -1.
</event>
<event>
 4    1  0.5696713E+002  0.7784575E+02  0.7546771E-02  0.1208939E+00
          2   -1    0    0  503    0  0.00000000000E+00  0.00000000000E+00  0.52858806868E+02  0.52858806868E+02  0.00000000000E+00 0.  1.
         -2   -1    0    0    0  501 -0.00000000000E+00 -0.00000000000E+00 -0.13318397122E+03  0.13318397122E+03  0.00000000000E+00 0. -1.
         21    1    1    2  502  501 -0.69416184594E+02  0.35232851946E+02 -0.74868851831E+02  0.10800604388E+03  0.00000000000E+00 0. -1.
         21    1    1    2  503  502  0.69416184594E+02 -0.35232851946E+02 -0.54563125217E+01  0.78036734210E+02  0.00000000000E+00 0.  1.
</event>
<event>
 4    1  0.5696713E+002  0.2019037E+02  0.7546771E-02  0.1531145E+00
          2   -1    0    0  502    0  0.00000000000E+00  0.00000000000E+00  0.35654079699E+03  0.35654079699E+03  0.00000000000E+00 0. -1.
         -2   -1    0    0    0  501 -0.00000000000E+00 -0.00000000000E+00 -0.11794887605E+01  0.11794887605E+01  0.00000000000E+00 0.  1.
         21    1    1    2  502  503  0.11607941149E+02 -0.16519891313E+02  0.20898828129E+03  0.20996131268E+03  0.00000000000E+00 0. -1.
         21    1    1    2  503  501 -0.11607941149E+02  0.16519891313E+02  0.14637302694E+03  0.14775897307E+03  0.00000000000E+00 0.  1.
</event>
<event>
 4    1  0.5696713E+002  0.2571322E+02  0.7546771E-02  0.1460980E+00
          2   -1    0    0  502    0  0.00000000000E+00  0.00000000000E+00  0.73975436939E+03  0.73975436939E+03  0.00000000000E+00 0. -1.
         -2   -1    0    0    0  501 -0.00000000000E+00 -0.00000000000E+00 -0.20630194744E+01  0.20630194744E+01  0.00000000000E+00 0.  1.
         21    1    1    2  502  503  0.68668733167E+01  0.24779345536E+02  0.64808014525E+03  0.64859004354E+03  0.00000000000E+00 0. -1.
         21    1    1    2  503  501 -0.68668733167E+01 -0.24779345536E+02  0.89611204673E+02  0.93227345330E+02  0.00000000000E+00 0.  1.
</event>
<event>
 4    1  0.5696713E+002  0.2141399E+02  0.7546771E-02  0.1513435E+00
          2   -1    0    0  502    0  0.00000000000E+00  0.00000000000E+00  0.14649043717E+04  0.14649043717E+04  0.00000000000E+00 0.  1.
         -2   -1    0    0    0  501 -0.00000000000E+00 -0.00000000000E+00 -0.31366066656E+00  0.31366066656E+00  0.00000000000E+00 0. -1.
         21    1    1    2  502  503 -0.13833854164E+02 -0.16345747729E+02  0.69944438872E+03  0.69977211426E+03  0.00000000000E+00 0. -1.
         21    1    1    2  503  501  0.13833854164E+02  0.16345747729E+02  0.76514632228E+03  0.76544591807E+03  0.00000000000E+00 0.  1.
</event>
<event>
 4    1  0.5696713E+002  0.2156000E+02  0.7546771E-02  0.1511418E+00
          2   -1    0    0  502    0  0.00000000000E+00  0.00000000000E+00  0.62606306411E+03  0.62606306411E+03  0.00000000000E+00 0.  1.
         -2   -1    0    0    0  501 -0.00000000000E+00 -0.00000000000E+00 -0.26399194045E+01  0.26399194045E+01  0.00000000000E+00 0. -1.
         21    1    1    2  502  503  0.12166171409E+02  0.17799374751E+02  0.57821648309E+03  0.57861829800E+03  0.00000000000E+00 0.  1.
         21    1    1    2  503  501 -0.12166171409E+02 -0.17799374751E+02  0.45206661617E+02  0.50084685512E+02  0.00000000000E+00 0. -1.
</event>
<event>
 4    1  0.5696713E+002  0.3608604E+02  0.7546771E-02  0.1373085E+00
          2   -1    0    0  502    0  0.00000000000E+00  0.00000000000E+00  0.24454050323E+02  0.24454050323E+02  0.00000000000E+00 0. -1.
         -2   -1    0    0    0  501 -0.00000000000E+00 -0.00000000000E+00 -0.53529952188E+02  0.53529952188E+02  0.00000000000E+00 0.  1.
         21    1    1    2  502  503  0.36056222380E+02 -0.14666163413E+01 -0.11723084220E+02  0.37942493848E+02  0.00000000000E+00 0.  1.
         21    1    1    2  503  501 -0.36056222380E+02  0.14666163413E+01 -0.17352817645E+02  0.40041508663E+02  0.00000000000E+00 0. -1.
</event>
<event>
 4    1  0.5696713E+002  0.2341125E+02  0.7546771E-02  0.1487398E+00
          2   -1    0    0  502    0  0.00000000000E+00  0.00000000000E+00  0.33541991802E+03  0.33541991802E+03  0.00000000000E+00 0. -1.
         -2   -1    0    0    0  501 -0.00000000000E+00 -0.00000000000E+00 -0.35572397080E+01  0.35572397080E+01  0.00000000000E+00 0.  1.
         21    1    1    2  502  503  0.10734624577E+02 -0.20805158617E+02  0.29055399379E+03  0.29149564335E+03  0.00000000000E+00 0. -1.
         21    1    1    2  503  501 -0.10734624577E+02  0.20805158617E+02  0.41308684526E+02  0.47481514373E+02  0.00000000000E+00 0.  1.
</event>
<event>
 4    1  0.5696713E+002  0.2353171E+02  0.7546771E-02  0.1485927E+00
          2   -1    0    0  503    0  0.00000000000E+00  0.00000000000E+00  0.63381742450E+03  0.63381742450E+03  0.00000000000E+00 0.  1.
         -2   -1    0    0    0  501 -0.00000000000E+00 -0.00000000000E+00 -0.13109674981E+01  0.13109674981E+01  0.00000000000E+00 0. -1.
         21    1    1    2  502  501  0.16997362139E+02  0.16273624641E+02  0.13284076787E+03  0.13490889810E+03  0.00000000000E+00 0. -1.
         21    1    1    2  503  502 -0.16997362139E+02 -0.16273624641E+02  0.49966568913E+03  0.50021949390E+03  0.00000000000E+00 0.  1.
</event>
<event>
 4    1  0.5696713E+002  0.5495191E+02  0.7546771E-02  0.1278021E+00
          2   -1    0    0  502    0  0.00000000000E+00  0.00000000000E+00  0.52622367027E+03  0.52622367027E+03  0.00000000000E+00 0.  1.
         -2   -1    0    0    0  501 -0.00000000000E+00 -0.00000000000E+00 -0.66616965306E+01  0.66616965306E+01  0.00000000000E+00 0. -1.
         21    1    1    2  502  503 -0.10323020851E+02  0.53973579683E+02  0.35897112638E+03  0.36315283510E+03  0.00000000000E+00 0.  1.
         21    1    1    2  503  501  0.10323020851E+02 -0.53973579683E+02  0.16059084735E+03  0.16973253170E+03  0.00000000000E+00 0. -1.
</event>
<event>
 4    1  0.5696713E+002  0.2305212E+02  0.7546771E-02  0.1491845E+00
          2   -1    0    0  503    0  0.00000000000E+00  0.00000000000E+00  0.27636757371E+03  0.27636757371E+03  0.00000000000E+00 0.  1.
         -2   -1    0    0    0  501 -0.00000000000E+00 -0.00000000000E+00 -0.45181903432E+01  0.45181903432E+01  0.00000000000E+00 0. -1.
         21    1    1    2  502  501  0.22384126552E+02 -0.55091768648E+01  0.29481316263E+02  0.37423898245E+02  0.00000000000E+00 0. -1.
         21    1    1    2  503  502 -0.22384126552E+02  0.55091768648E+01  0.24236806710E+03  0.24346186581E+03  0.00000000000E+00 0.  1.
</event>
<event>
 4    1  0.5696713E+002  0.4232232E+02  0.7546771E-02  0.1335389E+00
          2   -1    0    0  502    0  0.00000000000E+00  0.00000000000E+00  0.12779370437E+03  0.12779370437E+03  0.00000000000E+00 0. -1.
         -2   -1    0    0    0  501 -0.00000000000E+00 -0.00000000000E+00 -0.91267667738E+02  0.91267667738E+02  0.00000000000E+00 0.  1.
         21    1    1    2  502  503  0.44314044387E+01  0.42089686182E+02  0.11903290480E+03  0.12633293891E+03  0.00000000000E+00 0. -1.
         21    1    1    2  503  501 -0.44314044387E+01 -0.42089686182E+02 -0.82506868170E+02  0.92728433198E+02  0.00000000000E+00 0.  1.
</event>
<event>
 4    1  0.5696713E+002  0.3091285E+02  0.7546771E-02  0.1411826E+00
          2   -1    0    0  503    0  0.00000000000E+00  0.00000000000E+00  0.18465958781E+03  0.18465958781E+03  0.00000000000E+00 0.  1.
         -2   -1    0    0    0  501 -0.00000000000E+00 -0.00000000000E+00 -0.15173641914E+02  0.15173641914E+02  0.00000000000E+00 0. -1.
         21    1    1    2  502  501 -0.21866982548E+02  0.21850388144E+02  0.36348482832E+01  0.31125817417E+02  0.00000000000E+00 0. -1.
         21    1    1    2  503  502  0.21866982548E+02 -0.21850388144E+02  0.16585109762E+03  0.16870741231E+03  0.00000000000E+00 0.  1.
</event>
<event>
 4    1  0.5696713E+002  0.2490998E+02  0.7546771E-02  0.1469813E+00
          2   -1    0    0  502    0  0.00000000000E+00  0.00000000000E+00  0.75216148054E+03  0.75216148054E+03  0.00000000000E+00 0. -1.
         -2   -1    0    0    0  501 -0.00000000000E+00 -0.00000000000E+00 -0.48999666802E+01  0.48999666802E+01  0.00000000000E+00 0.  1.
         21    1    1    2  502  503 -0.24529742543E+01 -0.24788913682E+02  0.71882888921E+03  0.71926036961E+03  0.00000000000E+00 0. -1.
         21    1    1    2  503  501  0.24529742543E+01  0.24788913682E+02  0.28432624649E+02  0.37801077612E+02  0.00000000000E+00 0.  1.
</event>
<event>
 4    1  0.5696713E+002  0.8691634E+02  0.7546771E-02  0.1188641E+00
          2   -1    0    0  503    0  0.00000000000E+00  0.00000000000E+00  0.29387390823E+02  0.29387390823E+02  0.00000000000E+00 0. -1.
         -2   -1    0    0    0  501 -0.00000000000E+00 -0.00000000000E+00 -0.38537098360E+03  0.38537098360E+03  0.00000000000E+00 0.  1.
         21    1    1    2  502  501  0.85464188296E+02  0.15821604446E+02 -0.29765213022E+03  0.31008263620E+03  0.00000000000E+00 0.  1.
         21    1    1    2  503  502 -0.85464188296E+02 -0.15821604446E+02 -0.58331462554E+02  0.10467573822E+03  0.00000000000E+00 0. -1.
</event>
<event>
 4    1  0.5696713E+002  0.3215342E+02  0.7546771E-02  0.1401762E+00
          2   -1    0    0  502    0  0.00000000000E+00  0.00000000000E+00  0.61080343214E+02  0.61080343214E+02  0.00000000000E+00 0. -1.
         -2   -1    0    0    0  501 -0.00000000000E+00 -0.00000000000E+00 -0.19461549297E+02  0.19461549297E+02  0.00000000000E+00 0.  1.
         21    1    1    2  502  503  0.59027931626E+00 -0.32148000167E+02  0.35345370662E+02  0.47782188853E+02  0.00000000000E+00 0. -1.
         21    1    1    2  503  501 -0.59027931626E+00  0.32148000167E+02  0.62734232553E+01  0.32759703657E+02  0.00000000000E+00 0.  1.
</event>
<event>
 4    1  0.5696713E+002  0.2704982E+02  0.7546771E-02  0.1447108E+00
          2   -1    0    0  502    0  0.00000000000E+00  0.00000000000E+00  0.15885181735E+03  0.15885181735E+03  0.00000000000E+00 0. -1.
         -2   -1    0    0    0  501 -0.00000000000E+00 -0.00000000000E+00 -0.47498470168E+01  0.47498470168E+01  0.00000000000E+00 0.  1.
         21    1    1    2  502  503  0.19056562172E+02  0.19197406300E+02  0.62822327449E+02  0.68398375687E+02  0.00000000000E+00 0. -1.
         21    1    1    2  503  501 -0.19056562172E+02 -0.19197406300E+02  0.91279642888E+02  0.95203288684E+02  0.00000000000E+00 0.  1.
</event>
<event>
 4    1  0.5696713E+002  0.2648394E+02  0.7546771E-02  0.1452862E+00
          2   -1    0    0  503    0  0.00000000000E+00  0.00000000000E+00  0.32782865587E+02  0.32782865587E+02  0.00000000000E+00 0. -1.
         -2   -1    0    0    0  501 -0.00000000000E+00 -0.00000000000E+00 -0.27451427045E+02  0.27451427045E+02  0.00000000000E+00 0.  1.
         21    1    1    2  502  501  0.35187515741E+01 -0.26249144005E+02 -0.11480126592E+02  0.28865073708E+02  0.00000000000E+00 0. -1.
         21    1    1    2  503  502 -0.35187515741E+01  0.26249144005E+02  0.16811565135E+02  0.31369218924E+02  0.00000000000E+00 0.  1.
</event>
<event>
 4    1  0.5696713E+002  0.6526307E+02  0.7546771E-02  0.1242928E+00
          2   -1    0    0  503    0  0.00000000000E+00  0.00000000000E+00  0.13520417435E+03  0.13520417435E+03  0.00000000000E+00 0.  1.
         -2   -1    0    0    0  501 -0.00000000000E+00 -0.00000000000E+00 -0.55403444176E+02  0.55403444176E+02  0.00000000000E+00 0. -1.
         21    1    1    2  502  501  0.16748383118E+02  0.63077414305E+02 -0.22696051436E+02  0.69096883311E+02  0.00000000000E+00 0. -1.
         21    1    1    2  503  502 -0.16748383118E+02 -0.63077414305E+02  0.10249678161E+03  0.12151073522E+03  0.00000000000E+00 0.  1.
</event>
<event>
 4    1  0.5696713E+002  0.2071549E+02  0.7546771E-02  0.1523366E+00
          2   -1    0    0  502    0  0.00000000000E+00  0.00000000000E+00  0.17444434341E+03  0.17444434341E+03  0.00000000000E+00 0. -1.
         -2   -1    0    0    0  501 -0.00000000000E+00 -0.00000000000E+00 -0.39796088434E+01  0.39796088434E+01  0.00000000000E+00 0.  1.
         21    1    1    2  502  503 -0.20357639703E+02 -0.38338124400E+01  0.14036009328E+03  0.14188053918E+03  0.00000000000E+00 0. -1.
         21    1    1    2  503  501  0.20357639703E+02  0.38338124400E+01  0.30104641282E+02  0.36543413070E+02  0.00000000000E+00 0.  1.
</event>
<event>
 4    1  0.5696713E+002  0.2025294E+02  0.7546771E-02  0.1530204E+00
          2   -1    0    0  503    0  0.00000000000E+00  0.00000000000E+00  0.29947080646E+01  0.29947080646E+01  0.00000000000E+00 0. -1.
         -2   -1    0    0    0  501 -0.00000000000E+00 -0.00000000000E+00 -0.16910912850E+03  0.16910912850E+03  0.00000000000E+00 0.  1.
         21    1    1    2  502  501 -0.16286420927E+02 -0.12038861381E+02 -0.12057194801E+03  0.12226109903E+03  0.00000000000E+00 0.  1.
         21    1    1    2  503  502  0.16286420927E+02  0.12038861381E+02 -0.45542472424E+02  0.49842737529E+02  0.00000000000E+00 0. -1.
</event>
<event>
 4    1  0.5696713E+002  0.3145797E+02  0.7546771E-02  0.1407336E+00
          2   -1    0    0  502    0  0.00000000000E+00  0.00000000000E+00  0.11055909205E+04  0.11055909205E+04  0.00000000000E+00 0. -1.
         -2   -1    0    0    0  501 -0.00000000000E+00 -0.00000000000E+00 -0.10039572026E+01  0.10039572026E+01  0.00000000000E+00 0.  1.
         21    1    1    2  502  503  0.21077144654E+02  0.23352897353E+02  0.73449364160E+03  0.73516699695E+03  0.00000000000E+00 0. -1.
         21    1    1    2  503  501 -0.21077144654E+02 -0.23352897353E+02  0.37009332173E+03  0.37142788079E+03  0.00000000000E+00 0.  1.
</event>
<event>
 4    1  0.5696713E+002  0.2403672E+02  0.7546771E-02  0.1479875E+00
          2   -1    0    0  502    0  0.00000000000E+00  0.00000000000E+00  0.15197620487E+03  0.15197620487E+03  0.00000000000E+00 0. -1.
         -2   -1    0    0    0  501 -0.00000000000E+00 -0.00000000000E+00 -0.22508562131E+02  0.22508562131E+02  0.00000000000E+00 0.  1.
         21    1    1    2  502  503  0.82577210011E+01  0.22573745888E+02  0.14426811392E+03  0.14625680379E+03  0.00000000000E+00 0. -1.
         21    1    1    2  503  501 -0.82577210011E+01 -0.22573745888E+02 -0.14800471188E+02  0.28227963209E+02  0.00000000000E+00 0.  1.
</event>
<event>
 4    1  0.5696713E+002  0.2622714E+02  0.7546771E-02  0.1455530E+00
          2   -1    0    0  503    0  0.00000000000E+00  0.00000000000E+00  0.37504826797E+02  0.37504826797E+02  0.00000000000E+00 0.  1.
         -2   -1    0    0    0  501 -0.00000000000E+00 -0.00000000000E+00 -0.25678429139E+02  0.25678429139E+02  0.00000000000E+00 0. -1.
         21    1    1    2  502  501  0.24465840463E+02 -0.94491013684E+01 -0.10974486414E+02  0.28430656311E+02  0.00000000000E+00 0. -1.
         21    1    1    2  503  502 -0.24465840463E+02  0.94491013684E+01  0.22800884072E+02  0.34752599625E+02  0.00000000000E+00 0.  1.
</event>
<event>
 4    1  0.5696713E+002  0.2514279E+02  0.7546771E-02  0.1467212E+00
          2   -1    0    0  503    0  0.00000000000E+00  0.00000000000E+00  0.11046552488E+03  0.11046552488E+03  0.00000000000E+00 0. -1.
         -2   -1    0    0    0  501 -0.00000000000E+00 -0.00000000000E+00 -0.57608338190E+01  0.57608338190E+01  0.00000000000E+00 0.  1.
         21    1    1    2  502  501  0.24465466374E+02 -0.57966385448E+01  0.57081009398E+02  0.62373084717E+02  0.00000000000E+00 0. -1.
         21    1    1    2  503  502 -0.24465466374E+02  0.57966385448E+01  0.47623681659E+02  0.53853273977E+02  0.00000000000E+00 0.  1.
</event>
<event>
 4    1  0.5696713E+002  0.6796413E+02  0.7546771E-02  0.1234936E+00
          2   -1    0    0  503    0  0.00000000000E+00  0.00000000000E+00  0.66904544799E+03  0.66904544799E+03  0.00000000000E+00 0. -1.
         -2   -1    0    0    0  501 -0.00000000000E+00 -0.00000000000E+00 -0.69196011028E+01  0.69196011028E+01  0.00000000000E+00 0.  1.
         21    1    1    2  502  501 -0.13346185325E+01 -0.67951027393E+02  0.31504035570E+03  0.32228799086E+03  0.00000000000E+00 0. -1.
         21    1    1    2  503  502  0.13346185325E+01  0.67951027393E+02  0.34708549118E+03  0.35367705823E+03  0.00000000000E+00 0.  1.
</event>
<event>
 4    1  0.5696713E+002  0.2292659E+02  0.7546771E-02  0.1493422E+00
          2   -1    0    0  502    0  0.00000000000E+00  0.00000000000E+00  0.11528258704E+04  0.11528258704E+04  0.00000000000E+00 0. -1.
         -2   -1    0    0    0  501 -0.00000000000E+00 -0.00000000000E+00 -0.53741746076E+00  0.53741746076E+00  0.00000000000E+00 0.  1.
         21    1    1    2  502  503  0.22822691659E+02  0.21802418838E+01  0.80067585448E+03  0.80100402786E+03  0.00000000000E+00 0. -1.
         21    1    1    2  503  501 -0.22822691659E+02 -0.21802418838E+01  0.35161259846E+03  0.35235926000E+03  0.00000000000E+00 0.  1.
</event>
<event>
 4    1  0.5696713E+002  0.2571326E+02  0.7546771E-02  0.1460980E+00
          2   -1    0    0  502    0  0.00000000000E+00  0.00000000000E+00  0.72802996629E+03  0.72802996629E+03  0.00000000000E+00 0. -1.
         -2   -1    0    0    0  501 -0.00000000000E+00 -0.00000000000E+00 -0.10153729213E+01  0.10153729213E+01  0.00000000000E+00 0.  1.
         21    1    1    2  502  503  0.10899695962E+02  0.23288798708E+02  0.48195446490E+03  0.48263990485E+03  0.00000000000E+00 0.  1.
         21    1    1    2  503  501 -0.10899695962E+02 -0.23288798708E+02  0.24506012847E+03  0.24640543436E+03  0.00000000000E+00 0. -1.
</event>
<event>
 4    1  0.5696713E+002  0.2015101E+02  0.7546771E-02  0.1531740E+00
          2   -1    0    0  502    0  0.00000000000E+00  0.00000000000E+00  0.11691238888E+04  0.11691238888E+04  0.00000000000E+00 0. -1.
         -2   -1    0    0    0  501 -0.00000000000E+00 -0.00000000000E+00 -0.17500536675E+01  0.17500536675E+01  0.00000000000E+00 0.  1.
         21    1    1    2  502  503  0.10089254961E+02  0.17443342265E+02  0.11078201002E+04  0.11080033564E+04  0.00000000000E+00 0. -1.
         21    1    1    2  503  501 -0.10089254961E+02 -0.17443342265E+02  0.59553734861E+02  0.62870586055E+02  0.00000000000E+00 0.  1.
</event>
<event>
 4    1  0.5696713E+002  0.2433433E+02  0.7546771E-02  0.1476390E+00
          2   -1    0    0  502    0  0.00000000000E+00  0.00000000000E+00  0.43373951727E+03  0.43373951727E+03  0.00000000000E+00 0. -1.
         -2   -1    0    0    0  501 -0.00000000000E+00 -0.00000000000E+00 -0.14780195454E+02  0.14780195454E+02  0.00000000000E+00 0.  1.
         21    1    1    2  502  503  0.75443744828E+01 -0.23135297531E+02  0.42313120195E+03  0.42383035951E+03  0.00000000000E+00 0. -1.
         21    1    1    2  503  501 -0.75443744828E+01  0.23135297531E+02 -0.41718801364E+01  0.24689353213E+02  0.00000000000E+00 0.  1.
</event>
<event>
 4    1  0.5696713E+002  0.2360528E+02  0.7546771E-02  0.1485034E+00
          2   -1    0    0  503    0  0.00000000000E+00  0.00000000000E+00  0.94637413063E+01  0.94637413063E+01  0.00000000000E+00 0. -1.
         -2   -1    0    0    0  501 -0.00000000000E+00 -0.00000000000E+00 -0.10625168693E+03  0.10625168693E+03  0.00000000000E+00 0.  1.
         21    1    1    2  502  501  0.19550948278E+02  0.13227613022E+02 -0.87027148984E+02  0.90171691706E+02  0.00000000000E+00 0. -1.
         21    1    1    2  503  502 -0.19550948278E+02 -0.13227613022E+02 -0.97607966383E+01  0.25543736529E+02  0.00000000000E+00 0.  1.
</event>
<event>
 4    1  0.5696713E+002  0.2514380E+02  0.7546771E-02  0.1467201E+00
          2   -1    0    0  503    0  0.00000000000E+00  0.00000000000E+00  0.66363758581E+03  0.66363758581E+03  0.00000000000E+00 0. -1.
         -2   -1    0    0    0  501 -0.00000000000E+00 -0.00000000000E+00 -0.27010898647E+01  0.27010898647E+01  0.00000000000E+00 0.  1.
         21    1    1    2  502  501 -0.23123420550E+02 -0.98751327473E+01  0.62414725896E+02  0.67288994891E+02  0.00000000000E+00 0.  1.
         21    1    1    2  503  502  0.23123420550E+02  0.98751327473E+01  0.59852177005E+03  0.59904968078E+03  0.00000000000E+00 0. -1.
</event>
<event>
 4    1  0.5696713E+002  0.2382178E+02  0.7546771E-02  0.1482429E+00
          2   -1    0    0  502    0  0.00000000000E+00  0.00000000000E+00  0.63855701204E+03  0.63855701204E+03  0.00000000000E+00 0.  1.
         -2   -1    0    0    0  501 -0.00000000000E+00 -0.00000000000E+00 -0.98546909655E+00  0.98546909655E+00  0.00000000000E+00 0. -1.
         21    1    1    2  502  503  0.15056855259E+02  0.18459912177E+02  0.41899682939E+03  0.41967346865E+03  0.00000000000E+00 0. -1.
         21    1    1    2  503  501 -0.15056855259E+02 -0.18459912177E+02  0.21857471355E+03  0.21986901249E+03  0.00000000000E+00 0.  1.
</event>
<event>
 4    1  0.5696713E+002  0.3051550E+02  0.7546771E-02  0.1415169E+00
          2   -1    0    0  502    0  0.00000000000E+00  0.00000000000E+00  0.24627346675E+03  0.24627346675E+03  0.00000000000E+00 0.  1.
         -2   -1    0    0    0  501 -0.00000000000E+00 -0.00000000000E+00 -0.15596147406E+02  0.15596147406E+02  0.00000000000E+00 0. -1.
         21    1    1    2  502  503 -0.91166018810E+01  0.29121869599E+02  0.22930152287E+03  0.23132311625E+03  0.00000000000E+00 0.  1.
         21    1    1    2  503  501  0.91166018810E+01 -0.29121869599E+02  0.13757964752E+01  0.30546497913E+02  0.00000000000E+00 0. -1.
</event>
<event>
 4    1  0.5696713E+002  0.3527068E+02  0.7546771E-02  0.1378670E+00
          2   -1    0    0  502    0  0.00000000000E+00  0.00000000000E+00  0.87162481974E+03  0.87162481974E+03  0.00000000000E+00 0. -1.
         -2   -1    0    0    0  501 -0.00000000000E+00 -0.00000000000E+00 -0.64356661785E+01  0.64356661785E+01  0.00000000000E+00 0.  1.
         21    1    1    2  502  503 -0.11361189955E+02  0.33390776081E+02  0.81989519023E+03  0.82065348566E+03  0.00000000000E+00 0. -1.
         21    1    1    2  503  501  0.11361189955E+02 -0.33390776081E+02  0.45293963337E+02  0.57407000263E+02  0.00000000000E+00 0.  1.
</event>
<event>
 4    1  0.5696713E+002  0.3529265E+02  0.7546771E-02  0.1378517E+00
          2   -1    0    0  502    0  0.00000000000E+00  0.00000000000E+00  0.54263845869E+02  0.54263845869E+02  0.00000000000E+00 0. -1.
         -2   -1    0    0    0  501 -0.00000000000E+00 -0.00000000000E+00 -0.23392281533E+02  0.23392281533E+02  0.00000000000E+00 0.  1.
         21    1    1    2  502  503  0.33964287170E+02 -0.95915915093E+01  0.20750670338E+02  0.40940954436E+02  0.00000000000E+00 0. -1.
         21    1    1    2  503  501 -0.33964287170E+02  0.95915915093E+01  0.10120893997E+02  0.36715172966E+02  0.00000000000E+00 0.  1.
</event>
<event>
 4    1  0.5696713E+002  0.2616305E+02  0.7546771E-02  0.1456201E+00
          2   -1    0    0  503    0  0.00000000000E+00  0.00000000000E+00  0.47189409551E+01  0.47189409551E+01  0.00000000000E+00 0.  1.
         -2   -1    0    0    0  501 -0.00000000000E+00 -0.00000000000E+00 -0.15607740439E+03  0.15607740439E+03  0.00000000000E+00 0. -1.
         21    1    1    2  502  501  0.25177365458E+02  0.71137557471E+01 -0.97044943739E+02  0.10050983214E+03  0.00000000000E+00 0.  1.
         21    1    1    2  503  502 -0.25177365458E+02 -0.71137557471E+01 -0.54313519698E+02  0.60286513203E+02  0.00000000000E+00 0. -1.
</event>
<event>
 4    1  0.5696713E+002  0.2553767E+02  0.7546771E-02  0.1462877E+00
          2   -1    0    0  502    0  0.00000000000E+00  0.00000000000E+00  0.60655626791E+02  0.60655626791E+02  0.00000000000E+00 0.  1.
         -2   -1    0    0    0  501 -0.00000000000E+00 -0.00000000000E+00 -0.14164219122E+02  0.14164219122E+02  0.00000000000E+00 0. -1.
         21    1    1    2  502  503 -0.24094923943E+02  0.84621171145E+01  0.41607082773E+02  0.48819280236E+02  0.00000000000E+00 0.  1.
         21    1    1    2  503  501  0.24094923943E+02 -0.84621171145E+01  0.48843248951E+01  0.26000565677E+02  0.00000000000E+00 0. -1.
</event>
<event>
 4    1  0.5696713E+002  0.3727268E+02  0.7546771E-02  0.1365254E+00
          2   -1    0    0  503    0  0.00000000000E+00  0.00000000000E+00  0.26017993472E+04  0.26017993472E+04  0.00000000000E+00 0. -1.
         -2   -1    0    0    0  501 -0.00000000000E+00 -0.00000000000E+00 -0.66075390503E+00  0.66075390503E+00  0.00000000000E+00 0.  1.
         21    1    1    2  502  501 -0.33069058657E+02  0.17195639419E+02  0.73055451448E+03  0.73150471720E+03  0.00000000000E+00 0.  1.
         21    1    1    2  503  502  0.33069058657E+02 -0.17195639419E+02  0.18705840788E+04  0.18709553839E+04  0.00000000000E+00 0. -1.
</event>
<event>
 4    1  0.5696713E+002  0.2003533E+02  0.7546771E-02  0.1533496E+00
          2   -1    0    0  503    0  0.00000000000E+00  0.00000000000E+00  0.48074668639E+00  0.48074668639E+00  0.00000000000E+00 0.  1.
         -2   -1    0    0    0  501 -0.00000000000E+00 -0.00000000000E+00 -0.98924727515E+03  0.98924727515E+03  0.00000000000E+00 0. -1.
         21    1    1    2  502  501  0.13011197892E+02 -0.15235594685E+02 -0.68980287964E+03  0.69009378158E+03  0.00000000000E+00 0. -1.
         21    1    1    2  503  502 -0.13011197892E+02  0.15235594685E+02 -0.29896364882E+03  0.29963424026E+03  0.00000000000E+00 0.  1.
</event>
<event>
 4    1  0.5696713E+002  0.2117598E+02  0.7546771E-02  0.1516767E+00
          2   -1    0    0  502    0  0.00000000000E+00  0.00000000000E+00  0.16520050183E+02  0.16520050183E+02  0.00000000000E+00 0. -1.
         -2   -1    0    0    0  501 -0.00000000000E+00 -0.00000000000E+00 -0.61006755798E+02  0.61006755798E+02  0.00000000000E+00 0.  1.
         21    1    1    2  502  503 -0.10131173837E+02 -0.18595204388E+02  0.66363871028E+01  0.22191528639E+02  0.00000000000E+00 0. -1.
         21    1    1    2  503  501  0.10131173837E+02  0.18595204388E+02 -0.51123092717E+02  0.55335277342E+02  0.00000000000E+00 0.  1.
</event>
<event>
 4    1  0.5696713E+002  0.3628274E+02  0.7546771E-02  0.1371763E+00
          2   -1    0    0  502    0  0.00000000000E+00  0.00000000000E+00  0.69610540803E+02  0.69610540803E+02  0.00000000000E+00 0.  1.
         -2   -1    0    0    0  501 -0.00000000000E+00 -0.00000000000E+00 -0.50961740839E+02  0.50961740839E+02  0.00000000000E+00 0. -1.
         21    1    1    2  502  503  0.35268491460E+02  0.85188528650E+01  0.57133573745E+02  0.67680740192E+02  0.00000000000E+00 0.  1.
         21    1    1    2  503  501 -0.35268491460E+02 -0.85188528650E+01 -0.38484773781E+02  0.52891541450E+02  0.00000000000E+00 0. -1.
</event>
<event>
 4    1  0.5696713E+002  0.2169574E+02  0.7546771E-02  0.1509559E+00
          2   -1    0    0  502    0  0.00000000000E+00  0.00000000000E+00  0.43011786986E+01  0.43011786986E+01  0.00000000000E+00 0.  1.
         -2   -1    0    0    0  501 -0.00000000000E+00 -0.00000000000E+00 -0.11880354198E+03  0.11880354198E+03  0.00000000000E+00 0. -1.
         21    1    1    2  502  503  0.21595328459E+02  0.20848866975E+01 -0.39967489338E+02  0.45476424307E+02  0.00000000000E+00 0.  1.
         21    1    1    2  503  501 -0.21595328459E+02 -0.20848866975E+01 -0.74534873945E+02  0.77628296373E+02  0.00000000000E+00 0. -1.
</event>
<event>
 4    1  0.5696713E+002  0.5465608E+02  0.7546771E-02  0.1279156E+00
          2   -1    0    0  502    0  0.00000000000E+00  0.00000000000E+00  0.93482083372E+02  0.93482083372E+02  0.00000000000E+00 0. -1.
         -2   -1    0    0    0  501 -0.00000000000E+00 -0.00000000000E+00 -0.71935782577E+02  0.71935782577E+02  0.00000000000E+00 0.  1.
         21    1    1    2  502  503  0.42189997293E+01  0.54492998744E+02  0.72432890577E+02  0.90740346639E+02  0.00000000000E+00 0. -1.
         21    1    1    2  503  501 -0.42189997293E+01 -0.54492998744E+02 -0.50886589782E+02  0.74677519311E+02  0.00000000000E+00 0.  1.
</event>
<event>
 4    1  0.5696713E+002  0.3011215E+02  0.7546771E-02  0.1418624E+00
          2   -1    0    0  502    0  0.00000000000E+00  0.00000000000E+00  0.20644777437E+04  0.20644777437E+04  0.00000000000E+00 0. -1.
         -2   -1    0    0    0  501 -0.00000000000E+00 -0.00000000000E+00 -0.43991735901E+00  0.43991735901E+00  0.00000000000E+00 0.  1.
         21    1    1    2  502  503 -0.29514405352E+02 -0.59700551917E+01  0.10733853496E+04  0.10738076413E+04  0.00000000000E+00 0.  1.
         21    1    1    2  503  501  0.29514405352E+02  0.59700551917E+01  0.99065247675E+03  0.99111001981E+03  0.00000000000E+00 0. -1.
</event>
<event>
 4    1  0.5696713E+002  0.3193998E+02  0.7546771E-02  0.1403455E+00
          2   -1    0    0  503    0  0.00000000000E+00  0.00000000000E+00  0.36950523880E+02  0.36950523880E+02  0.00000000000E+00 0. -1.
         -2   -1    0    0    0  501 -0.00000000000E+00 -0.00000000000E+00 -0.27643519513E+02  0.27643519513E+02  0.00000000000E+00 0.  1.
         21    1    1    2  502  501 -0.70628118906E+01  0.31149305854E+02  0.35102188845E+01  0.32132292225E+02  0.00000000000E+00 0. -1.
         21    1    1    2  503  502  0.70628118906E+01 -0.31149305854E+02  0.57967854827E+01  0.32461751169E+02  0.00000000000E+00 0.  1.
</event>
<event>
 4    1  0.5696713E+002  0.5353416E+02  0.7546771E-02  0.1283536E+00
          2   -1    0    0  503    0  0.00000000000E+00  0.00000000000E+00  0.11106458382E+04  0.11106458382E+04  0.00000000000E+00 0. -1.
         -2   -1    0    0    0  501 -0.00000000000E+00 -0.00000000000E+00 -0.33031404745E+01  0.33031404745E+01  0.00000000000E+00 0.  1.
         21    1    1    2  502  501  0.46209976974E+02  0.27028576966E+02  0.29313746820E+03  0.29798570638E+03  0.00000000000E+00 0.  1.
         21    1    1    2  503  502 -0.46209976974E+02 -0.27028576966E+02  0.81420522949E+03  0.81596327226E+03  0.00000000000E+00 0. -1.
</event>
<event>
 4    1  0.5696713E+002  0.2911570E+02  0.7546771E-02  0.1427440E+00
          2   -1    0    0  503    0  0.00000000000E+00  0.00000000000E+00  0.26072543651E+03  0.26072543651E+03  0.00000000000E+00 0. -1.
         -2   -1    0    0    0  501 -0.00000000000E+00 -0.00000000000E+00 -0.34900246128E+02  0.34900246128E+02  0.00000000000E+00 0.  1.
         21    1    1    2  502  501  0.44816927840E+01 -0.28768704216E+02 -0.27846617329E+02  0.40288435179E+02  0.00000000000E+00 0.  1.
         21    1    1    2  503  502 -0.44816927840E+01  0.28768704216E+02  0.25367180771E+03  0.25533724746E+03  0.00000000000E+00 0. -1.
</event>
<event>
 4    1  0.5696713E+002  0.2362778E+02  0.7546771E-02  0.1484762E+00
          2   -1    0    0  503    0  0.00000000000E+00  0.00000000000E+00  0.11159983013E+04  0.11159983013E+04  0.00000000000E+00 0. -1.
         -2   -1    0    0    0  501 -0.00000000000E+00 -0.00000000000E+00 -0.54986049153E+00  0.54986049153E+00  0.00000000000E+00 0.  1.
         21    1    1    2  502  501 -0.11677501276E+02  0.20540402696E+02  0.39002486597E+03  0.39073989847E+03  0.00000000000E+00 0.  1.
         21    1    1    2  503  502  0.11677501276E+02 -0.20540402696E+02  0.72542357484E+03  0.72580826333E+03  0.00000000000E+00 0. -1.
</event>
<event>
 4    1  0.5696713E+002  0.2289592E+02  0.7546771E-02  0.1493809E+00
          2   -1    0    0  502    0  0.00000000000E+00  0.00000000000E+00  0.10561274356E+04  0.10561274356E+04  0.00000000000E+00 0. -1.
         -2   -1    0    0    0  501 -0.00000000000E+00 -0.00000000000E+00 -0.63958361103E+00  0.63958361103E+00  0.00000000000E+00 0.  1.
         21    1    1    2  502  503  0.58662874587E+01  0.22131648715E+02  0.77777987919E+03  0.77811680594E+03  0.00000000000E+00 0. -1.
         21    1    1    2  503  501 -0.58662874587E+01 -0.22131648715E+02  0.27770797277E+03  0.27865021325E+03  0.00000000000E+00 0.  1.
</event>
<event>
 4    1  0.5696713E+002  0.3225270E+02  0.7546771E-02  0.1400980E+00
          2   -1    0    0  503    0  0.00000000000E+00  0.00000000000E+00  0.69611004611E+02  0.69611004611E+02  0.00000000000E+00 0.  1.
         -2   -1    0    0    0  501 -0.00000000000E+00 -0.00000000000E+00 -0.26390704986E+02  0.26390704986E+02  0.00000000000E+00 0. -1.
         21    1    1    2  502  501 -0.31861583558E+02 -0.50076066290E+01 -0.10003304771E+02  0.33768368888E+02  0.00000000000E+00 0. -1.
         21    1    1    2  503  502  0.31861583558E+02  0.50076066290E+01  0.53223604396E+02  0.62233340709E+02  0.00000000000E+00 0.  1.
</event>
<event>
 4    1  0.5696713E+002  0.2433310E+02  0.7546771E-02  0.1476404E+00
          2   -1    0    0  502    0  0.00000000000E+00  0.00000000000E+00  0.74536684133E+03  0.74536684133E+03  0.00000000000E+00 0. -1.
         -2   -1    0    0    0  501 -0.00000000000E+00 -0.00000000000E+00 -0.80751030744E+00  0.80751030744E+00  0.00000000000E+00 0.  1.
         21    1    1    2  502  503  0.24277784222E+02 -0.16397323957E+01  0.41986621877E+03  0.42057073269E+03  0.00000000000E+00 0. -1.
         21    1    1    2  503  501 -0.24277784222E+02  0.16397323957E+01  0.32469311225E+03  0.32560361895E+03  0.00000000000E+00 0.  1.
</event>
<event>
 4    1  0.5696713E+002  0.8525664E+02  0.7546771E-02  0.1192143E+00
          2   -1    0    0  503    0  0.00000000000E+00  0.00000000000E+00  0.19006383234E+04  0.19006383234E+04  0.00000000000E+00 0. -1.
         -2   -1    0    0    0  501 -0.00000000000E+00 -0.00000000000E+00 -0.38870884954E+01  0.38870884954E+01  0.00000000000E+00 0.  1.
         21    1    1    2  502  501 -0.36358825213E+02 -0.77115045362E+02  0.10693610448E+04  0.10727542768E+04  0.00000000000E+00 0. -1.
         21    1    1    2  503  502  0.36358825213E+02  0.77115045362E+02  0.82739019016E+03  0.83177113509E+03  0.00000000000E+00 0.  1.
</event>
<event>
 4    1  0.5696713E+002  0.4079125E+02  0.7546771E-02  0.1343910E+00
          2   -1    0    0  502    0  0.00000000000E+00  0.00000000000E+00  0.16368867114E+02  0.16368867114E+02  0.00000000000E+00 0.  1.
         -2   -1    0    0    0  501 -0.00000000000E+00 -0.00000000000E+00 -0.13498005175E+03  0.13498005175E+03  0.00000000000E+00 0. -1.
         21    1    1    2  502  503 -0.25781773503E+02 -0.31610546032E+02 -0.21702796346E+02  0.46205387507E+02  0.00000000000E+00 0.  1.
         21    1    1    2  503  501  0.25781773503E+02  0.31610546032E+02 -0.96908388287E+02  0.10514353136E+03  0.00000000000E+00 0. -1.
</event>
<event>
 4    1  0.5696713E+002  0.2651149E+02  0.7546771E-02  0.1452578E+00
          2   -1    0    0  502    0  0.00000000000E+00  0.00000000000E+00  0.35857070551E+03  0.35857070551E+03  0.00000000000E+00 0. -1.
         -2   -1    0    0    0  501 -0.00000000000E+00 -0.00000000000E+00 -0.18029581232E+02  0.18029581232E+02  0.00000000000E+00 0.  1.
         21    1    1    2  502  503 -0.58018641981E+01 -0.25868849334E+02  0.34804030078E+03  0.34904857823E+03  0.00000000000E+00 0. -1.
         21    1    1    2  503  501  0.58018641981E+01  0.25868849334E+02 -0.74991765011E+01  0.27551708518E+02  0.00000000000E+00 0.  1.
</event>
<event>
 4    1  0.5696713E+002  0.3143249E+02  0.7546771E-02  0.1407544E+00
          2   -1    0    0  503    0  0.00000000000E+00  0.00000000000E+00  0.54411443034E+03  0.54411443034E+03  0.00000000000E+00 0.  1.
         -2   -1    0    0    0  501 -0.00000000000E+00 -0.00000000000E+00 -0.22060182726E+01  0.22060182726E+01  0.00000000000E+00 0. -1.
         21    1    1    2  502  501  0.29581164810E+02 -0.10628067609E+02  0.15606781129E+03  0.15920164212E+03  0.00000000000E+00 0. -1.
         21    1    1    2  503  502 -0.29581164810E+02  0.10628067609E+02  0.38584060078E+03  0.38711880650E+03  0.00000000000E+00 0.  1.
</event>
<event>
 4    1  0.5696713E+002  0.5334115E+02  0.7546771E-02  0.1284302E+00
          2   -1    0    0  503    0  0.00000000000E+00  0.00000000000E+00  0.14678392898E+04  0.14678392898E+04  0.00000000000E+00 0. -1.
         -2   -1    0    0    0  501 -0.00000000000E+00 -0.00000000000E+00 -0.20047005589E+01  0.20047005589E+01  0.00000000000E+00 0.  1.
         21    1    1    2  502  501 -0.35157838258E+02  0.40114888212E+02  0.59927788682E+03  0.60164712539E+03  0.00000000000E+00 0. -1.
         21    1    1    2  503  502  0.35157838258E+02 -0.40114888212E+02  0.86655670240E+03  0.86819686495E+03  0.00000000000E+00 0.  1.
</event>
<event>
 4    1  0.5696713E+002  0.2714478E+02  0.7546771E-02  0.1446159E+00
          2   -1    0    0  503    0  0.00000000000E+00  0.00000000000E+00  0.86124430506E+02  0.86124430506E+02  0.00000000000E+00 0. -1.
         -2   -1    0    0    0  501 -0.00000000000E+00 -0.00000000000E+00 -0.44664792864E+02  0.44664792864E+02  0.00000000000E+00 0.  1.
         21    1    1    2  502  501 -0.77025781648E+01  0.26029004988E+02 -0.38069014367E+02  0.46755627104E+02  0.00000000000E+00 0.  1.
         21    1    1    2  503  502  0.77025781648E+01 -0.26029004988E+02  0.79528652009E+02  0.84033596266E+02  0.00000000000E+00 0. -1.
</event>
<event>
 4    1  0.5696713E+002  0.2484555E+02  0.7546771E-02  0.1470539E+00
          2   -1    0    0  502    0  0.00000000000E+00  0.00000000000E+00  0.20377872664E+03  0.20377872664E+03  0.00000000000E+00 0.  1.
         -2   -1    0    0    0  501 -0.00000000000E+00 -0.00000000000E+00 -0.11276365689E+02  0.11276365689E+02  0.00000000000E+00 0. -1.
         21    1    1    2  502  503  0.24815453247E+02 -0.12225763598E+01  0.18820834995E+03  0.18984120839E+03  0.00000000000E+00 0.  1.
         21    1    1    2  503  501 -0.24815453247E+02  0.12225763598E+01  0.42940110024E+01  0.25213883939E+02  0.00000000000E+00 0. -1.
</event>
<event>
 4    1  0.5696713E+002  0.2499171E+02  0.7546771E-02  0.1468896E+00
          2   -1    0    0  503    0  0.00000000000E+00  0.00000000000E+00  0.13843704950E+02  0.13843704950E+02  0.00000000000E+00 0.  1.
         -2   -1    0    0    0  501 -0.00000000000E+00 -0.00000000000E+00 -0.12609725598E+03  0.12609725598E+03  0.00000000000E+00 0. -1.
         21    1    1    2  502  501 -0.24883081773E+02  0.23276222866E+01 -0.11219951518E+03  0.11494919221E+03  0.00000000000E+00 0. -1.
         21    1    1    2  503  502  0.24883081773E+02 -0.23276222866E+01 -0.54035857520E-01  0.24991768723E+02  0.00000000000E+00 0.  1.
</event>
<event>
 4    1  0.5696713E+002  0.4049101E+02  0.7546771E-02  0.1345632E+00
          2   -1    0    0  502    0  0.00000000000E+00  0.00000000000E+00  0.25815477584E+02  0.25815477584E+02  0.00000000000E+00 0.  1.
         -2   -1    0    0    0  501 -0.00000000000E+00 -0.00000000000E+00 -0.22715611018E+03  0.22715611018E+03  0.00000000000E+00 0. -1.
         21    1    1    2  502  503 -0.35149228661E+02  0.20101077061E+02  0.66874285624E+01  0.41039533078E+02  0.00000000000E+00 0.  1.
         21    1    1    2  503  501  0.35149228661E+02 -0.20101077061E+02 -0.20802806115E+03  0.21193205468E+03  0.00000000000E+00 0. -1.
</event>
<event>
 4    1  0.5696713E+002  0.2635044E+02  0.7546771E-02  0.1454244E+00
          2   -1    0    0  503    0  0.00000000000E+00  0.00000000000E+00  0.32816619436E+02  0.32816619436E+02  0.00000000000E+00 0.  1.
         -2   -1    0    0    0  501 -0.00000000000E+00 -0.00000000000E+00 -0.18236252344E+03  0.18236252344E+03  0.00000000000E+00 0. -1.
         21    1    1    2  502  501  0.20875580304E+01 -0.26267614042E+02 -0.17592869041E+03  0.17789111713E+03  0.00000000000E+00 0. -1.
         21    1    1    2  503  502 -0.20875580304E+01  0.26267614042E+02  0.26382786400E+02  0.37288025748E+02  0.00000000000E+00 0.  1.
</event>
<event>
 4    1  0.5696713E+002  0.2172822E+02  0.7546771E-02  0.1509117E+00
          2   -1    0    0  502    0  0.00000000000E+00  0.00000000000E+00  0.18008373939E+03  0.18008373939E+03  0.00000000000E+00 0.  1.
         -2   -1    0    0    0  501 -0.00000000000E+00 -0.00000000000E+00 -0.10379114043E+02  0.10379114043E+02  0.00000000000E+00 0. -1.
         21    1    1    2  502  503 -0.21098217703E+02  0.51943060493E+01  0.16718270388E+03  0.16858876618E+03  0.00000000000E+00 0.  1.
         21    1    1    2  503  501  0.21098217703E+02 -0.51943060493E+01  0.25219214751E+01  0.21874087261E+02  0.00000000000E+00 0. -1.
</event>
<event>
 4    1  0.5696713E+002  0.2189539E+02  0.7546771E-02  0.1506855E+00
          2   -1    0    0  502    0  0.00000000000E+00  0.00000000000E+00  0.10794331803E+04  0.10794331803E+04  0.00000000000E+00 0. -1.
         -2   -1    0    0    0  501 -0.00000000000E+00 -0.00000000000E+00 -0.45539816882E+00  0.45539816882E+00  0.00000000000E+00 0.  1.
         21    1    1    2  502  503  0.20085970768E+02  0.87156101547E+01  0.45455319062E+03  0.45508022500E+03  0.00000000000E+00 0.  1.
         21    1    1    2  503  501 -0.20085970768E+02 -0.87156101547E+01  0.62442459148E+03  0.62480835344E+03  0.00000000000E+00 0. -1.
</event>
<event>
 4    1  0.5696713E+002  0.2364491E+02  0.7546771E-02  0.1484555E+00
          2   -1    0    0  503    0  0.00000000000E+00  0.00000000000E+00  0.58906993043E+03  0.58906993043E+03  0.00000000000E+00 0. -1.
         -2   -1    0    0    0  501 -0.00000000000E+00 -0.00000000000E+00 -0.12409367486E+01  0.12409367486E+01  0.00000000000E+00 0.  1.
         21    1    1    2  502  501  0.22627144786E+02  0.68624970454E+01  0.15077749510E+03  0.15262022990E+03  0.00000000000E+00 0.  1.
         21    1    1    2  503  502 -0.22627144786E+02 -0.68624970454E+01  0.43705149858E+03  0.43769063728E+03  0.00000000000E+00 0. -1.
</event>
<event>
 4    1  0.5696713E+002  0.2139933E+02  0.7546771E-02  0.1513639E+00
          2   -1    0    0  502    0  0.00000000000E+00  0.00000000000E+00  0.93684913731E+02  0.93684913731E+02  0.00000000000E+00 0.  1.
         -2   -1    0    0    0  501 -0.00000000000E+00 -0.00000000000E+00 -0.55461892018E+01  0.55461892018E+01  0.00000000000E+00 0. -1.
         21    1    1    2  502  503 -0.10195931675E+02 -0.18814201442E+02  0.61161570766E+02  0.64797136798E+02  0.00000000000E+00 0.  1.
         21    1    1    2  503  501  0.10195931675E+02  0.18814201442E+02  0.26977153763E+02  0.34433966135E+02  0.00000000000E+00 0. -1.
</event>
<event>
 4    1  0.5696713E+002  0.2727951E+02  0.7546771E-02  0.1444820E+00
          2   -1    0    0  503    0  0.00000000000E+00  0.00000000000E+00  0.22613227158E+03  0.22613227158E+03  0.00000000000E+00 0. -1.
         -2   -1    0    0    0  501 -0.00000000000E+00 -0.00000000000E+00 -0.65438655280E+01  0.65438655280E+01  0.00000000000E+00 0.  1.
         21    1    1    2  502  501 -0.50824940132E+01 -0.26801860928E+02  0.27769149675E+02  0.38926818112E+02  0.00000000000E+00 0.  1.
         21    1    1    2  503  502  0.50824940132E+01  0.26801860928E+02  0.19181925637E+03  0.19374931899E+03  0.00000000000E+00 0. -1.
</event>
<event>
 4    1  0.5696713E+002  0.2141597E+02  0.7546771E-02  0.1513408E+00
          2   -1    0    0  502    0  0.00000000000E+00  0.00000000000E+00  0.66843769438E+03  0.66843769438E+03  0.00000000000E+00 0. -1.
         -2   -1    0    0    0  501 -0.00000000000E+00 -0.00000000000E+00 -0.71208917383E+00  0.71208917383E+00  0.00000000000E+00 0.  1.
         21    1    1    2  502  503  0.20921048295E+02 -0.45774878145E+01  0.39772813489E+03  0.39830429691E+03  0.00000000000E+00 0. -1.
         21    1    1    2  503  501 -0.20921048295E+02  0.45774878145E+01  0.26999747032E+03  0.27084548664E+03  0.00000000000E+00 0.  1.
</event>
<event>
 4    1  0.5696713E+002  0.2163381E+02  0.7546771E-02  0.1510405E+00
          2   -1    0    0  502    0  0.00000000000E+00  0.00000000000E+00  0.28003512819E+01  0.28003512819E+01  0.00000000000E+00 0. -1.
         -2   -1    0    0    0  501 -0.00000000000E+00 -0.00000000000E+00 -0.18892921610E+03  0.18892921610E+03  0.00000000000E+00 0.  1.
         21    1    1    2  502  503  0.18423158906E+02 -0.11340580606E+02 -0.60500706550E+02  0.64252292143E+02  0.00000000000E+00 0. -1.
         21    1    1    2  503  501 -0.18423158906E+02  0.11340580606E+02 -0.12562815827E+03  0.12747727524E+03  0.00000000000E+00 0.  1.
</event>
<event>
 4    1  0.5696713E+002  0.2364038E+02  0.7546771E-02  0.1484610E+00
          2   -1    0    0  503    0  0.00000000000E+00  0.00000000000E+00  0.77183860117E+03  0.77183860117E+03  0.00000000000E+00 0. -1.
         -2   -1    0    0    0  501 -0.00000000000E+00 -0.00000000000E+00 -0.16547004830E+01  0.16547004830E+01  0.00000000000E+00 0.  1.
         21    1    1    2  502  501 -0.21934085143E+01 -0.23538400408E+02  0.95053985595E+02  0.97949617213E+02  0.00000000000E+00 0.  1.
         21    1    1    2  503  502  0.21934085143E+01  0.23538400408E+02  0.67512991510E+03  0.67554368444E+03  0.00000000000E+00 0. -1.
</event>
<event>
 4    1  0.5696713E+002  0.3624217E+02  0.7546771E-02  0.1372035E+00
          2   -1    0    0  503    0  0.00000000000E+00  0.00000000000E+00  0.45260418773E+02  0.45260418773E+02  0.00000000000E+00 0.  1.
         -2   -1    0    0    0  501 -0.00000000000E+00 -0.00000000000E+00 -0.14049328242E+03  0.14049328242E+03  0.00000000000E+00 0. -1.
         21    1    1    2  502  501  0.19873644340E+01 -0.36187637695E+02 -0.13034651983E+03  0.13529120434E+03  0.00000000000E+00 0. -1.
         21    1    1    2  503  502 -0.19873644340E+01  0.36187637695E+02  0.35113656178E+02  0.50462496861E+02  0.00000000000E+00 0.  1.
</event>
<event>
 4    1  0.5696713E+002  0.2013199E+02  0.7546771E-02  0.1532028E+00
          2   -1    0    0  502    0  0.00000000000E+00  0.00000000000E+00  0.81193324539E+03  0.81193324539E+03  0.00000000000E+00 0. -1.
         -2   -1    0    0    0  501 -0.00000000000E+00 -0.00000000000E+00 -0.62852937768E+00  0.62852937768E+00  0.00000000000E+00 0.  1.
         21    1    1    2  502  503  0.67934551395E+01  0.18951143239E+02  0.58996451906E+03  0.59030791170E+03  0.00000000000E+00 0.  1.
         21    1    1    2  503  501 -0.67934551395E+01 -0.18951143239E+02  0.22134019695E+03  0.22225386307E+03  0.00000000000E+00 0. -1.
</event>
<event>
 4    1  0.5696713E+002  0.2680970E+02  0.7546771E-02  0.1449529E+00
          2   -1    0    0  503    0  0.00000000000E+00  0.00000000000E+00  0.50444892179E+03  0.50444892179E+03  0.00000000000E+00 0. -1.
         -2   -1    0    0    0  501 -0.00000000000E+00 -0.00000000000E+00 -0.19627883573E+01  0.19627883573E+01  0.00000000000E+00 0.  1.
         21    1    1    2  502  501  0.26519468325E+02 -0.39341869767E+01  0.11868490295E+03  0.12167524899E+03  0.00000000000E+00 0.  1.
         21    1    1    2  503  502 -0.26519468325E+02  0.39341869767E+01  0.38380123048E+03  0.38473646115E+03  0.00000000000E+00 0. -1.
</event>
<event>
 4    1  0.5696713E+002  0.2001032E+02  0.7546771E-02  0.1533878E+00
          2   -1    0    0  502    0  0.00000000000E+00  0.00000000000E+00  0.66604172847E+03  0.66604172847E+03  0.00000000000E+00 0. -1.
         -2   -1    0    0    0  501 -0.00000000000E+00 -0.00000000000E+00 -0.68751556072E+00  0.68751556072E+00  0.00000000000E+00 0.  1.
         21    1    1    2  502  503  0.58772325943E+00  0.20001689243E+02  0.45080853427E+03  0.45125242112E+03  0.00000000000E+00 0. -1.
         21    1    1    2  503  501 -0.58772325943E+00 -0.20001689243E+02  0.21454567864E+03  0.21547682291E+03  0.00000000000E+00 0.  1.
</event>
<event>
 4    1  0.5696713E+002  0.2148263E+02  0.7546771E-02  0.1512484E+00
          2   -1    0    0  503    0  0.00000000000E+00  0.00000000000E+00  0.43370595471E+03  0.43370595471E+03  0.00000000000E+00 0.  1.
         -2   -1    0    0    0  501 -0.00000000000E+00 -0.00000000000E+00 -0.10006301902E+02  0.10006301902E+02  0.00000000000E+00 0. -1.
         21    1    1    2  502  501 -0.19105287420E+02  0.98229995764E+01  0.21215236130E+01  0.21587130205E+02  0.00000000000E+00 0. -1.
         21    1    1    2  503  502  0.19105287420E+02 -0.98229995764E+01  0.42157812919E+03  0.42212512640E+03  0.00000000000E+00 0.  1.
</event>
<event>
 4    1  0.5696713E+002  0.2876990E+02  0.7546771E-02  0.1430596E+00
          2   -1    0    0  503    0  0.00000000000E+00  0.00000000000E+00  0.76329335121E+01  0.76329335121E+01  0.00000000000E+00 0.  1.
         -2   -1    0    0    0  501 -0.00000000000E+00 -0.00000000000E+00 -0.11575739347E+03  0.11575739347E+03  0.00000000000E+00 0. -1.
         21    1    1    2  502  501 -0.26843548353E+02 -0.10350426163E+02 -0.69574868281E+02  0.75288576200E+02  0.00000000000E+00 0.  1.
         21    1    1    2  503  502  0.26843548353E+02  0.10350426163E+02 -0.38549591681E+02  0.48101750786E+02  0.00000000000E+00 0. -1.
</event>
<event>
 4    1  0.5696713E+002  0.2565988E+02  0.7546771E-02  0.1461555E+00
          2   -1    0    0  503    0  0.00000000000E+00  0.00000000000E+00  0.81764161688E+02  0.81764161688E+02  0.00000000000E+00 0. -1.
         -2   -1    0    0    0  501 -0.00000000000E+00 -0.00000000000E+00 -0.13422638180E+03  0.13422638180E+03  0.00000000000E+00 0.  1.
         21    1    1    2  502  501  0.20093785358E+02 -0.15958352576E+02 -0.13093674177E+03  0.13342735691E+03  0.00000000000E+00 0.  1.
         21    1    1    2  503  502 -0.20093785358E+02  0.15958352576E+02  0.78474521662E+02  0.82563186573E+02  0.00000000000E+00 0. -1.
</event>
<event>
 4    1  0.5696713E+002  0.2165543E+02  0.7546771E-02  0.1510109E+00
          2   -1    0    0  502    0  0.00000000000E+00  0.00000000000E+00  0.10305941381E+03  0.10305941381E+03  0.00000000000E+00 0. -1.
         -2   -1    0    0    0  501 -0.00000000000E+00 -0.00000000000E+00 -0.47061811886E+01  0.47061811886E+01  0.00000000000E+00 0.  1.
         21    1    1    2  502  503 -0.12028482586E+02  0.18007593591E+02  0.58981080163E+02  0.62830928988E+02  0.00000000000E+00 0.  1.
         21    1    1    2  503  501  0.12028482586E+02 -0.18007593591E+02  0.39372152455E+02  0.44934666007E+02  0.00000000000E+00 0. -1.
</event>
<event>
 4    1  0.5696713E+002  0.3025498E+02  0.7546771E-02  0.1417393E+00
          2   -1    0    0  503    0  0.00000000000E+00  0.00000000000E+00  0.17589347714E+04  0.17589347714E+04  0.00000000000E+00 0.  1.
         -2   -1    0    0    0  501 -0.00000000000E+00 -0.00000000000E+00 -0.75262372505E+00  0.75262372505E+00  0.00000000000E+00 0. -1.
         21    1    1    2  502  501  0.11093688142E+02 -0.28147718901E+02  0.39036867384E+03  0.39153935372E+03  0.00000000000E+00 0. -1.
         21    1    1    2  503  502 -0.11093688142E+02  0.28147718901E+02  0.13678134739E+04  0.13681480414E+04  0.00000000000E+00 0.  1.
</event>
<event>
 4    1  0.5696713E+002  0.3499260E+02  0.7546771E-02  0.1380615E+00
          2   -1    0    0  503    0  0.00000000000E+00  0.00000000000E+00  0.18609801134E+03  0.18609801134E+03  0.00000000000E+00 0.  1.
         -2   -1    0    0    0  501 -0.00000000000E+00 -0.00000000000E+00 -0.11643913289E+02  0.11643913289E+02  0.00000000000E+00 0. -1.
         21    1    1    2  502  501 -0.85262950437E+01  0.33937952039E+02  0.22023350576E+02  0.41346224330E+02  0.00000000000E+00 0. -1.
         21    1    1    2  503  502  0.85262950437E+01 -0.33937952039E+02  0.15243074748E+03  0.15639570030E+03  0.00000000000E+00 0.  1.
</event>
<event>
 4    1  0.5696713E+002  0.2947234E+02  0.7546771E-02  0.1424238E+00
          2   -1    0    0  503    0  0.00000000000E+00  0.00000000000E+00  0.18161097779E+04  0.18161097779E+04  0.00000000000E+00 0.  1.
         -2   -1    0    0    0  501 -0.00000000000E+00 -0.00000000000E+00 -0.48098300624E+00  0.48098300624E+00  0.00000000000E+00 0. -1.
         21    1    1    2  502  501  0.29419157178E+02  0.17697349088E+01  0.97583687454E+03  0.97628183660E+03  0.00000000000E+00 0. -1.
         21    1    1    2  503  502 -0.29419157178E+02 -0.17697349088E+01  0.83979192039E+03  0.84030892434E+03  0.00000000000E+00 0.  1.
</event>
<event>
 4    1  0.5696713E+002  0.2019368E+02  0.7546771E-02  0.1531095E+00
          2   -1    0    0  503    0  0.00000000000E+00  0.00000000000E+00  0.20542001361E+02  0.20542001361E+02  0.00000000000E+00 0.  1.
         -2   -1    0    0    0  501 -0.00000000000E+00 -0.00000000000E+00 -0.28553069551E+02  0.28553069551E+02  0.00000000000E+00 0. -1.
         21    1    1    2  502  501  0.16968191153E+02  0.10948288684E+02 -0.17557002943E+02  0.26758790863E+02  0.00000000000E+00 0. -1.
         21    1    1    2  503  502 -0.16968191153E+02 -0.10948288684E+02  0.95459347539E+01  0.22336280049E+02  0.00000000000E+00 0.  1.
</event>
<event>
 4    1  0.5696713E+002  0.2031099E+02  0.7546771E-02  0.1529334E+00
          2   -1    0    0  503    0  0.00000000000E+00  0.00000000000E+00  0.34274965431E+03  0.34274965431E+03  0.00000000000E+00 0.  1.
         -2   -1    0    0    0  501 -0.00000000000E+00 -0.00000000000E+00 -0.47126658951E+01  0.47126658951E+01  0.00000000000E+00 0. -1.
         21    1    1    2  502  501 -0.12956752708E+02  0.15641571649E+02  0.19105366678E+02  0.27884605795E+02  0.00000000000E+00 0. -1.
         21    1    1    2  503  502  0.12956752708E+02 -0.15641571649E+02  0.31893162174E+03  0.31957771441E+03  0.00000000000E+00 0.  1.
</event>
<event>
 4    1  0.5696713E+002  0.3475856E+02  0.7546771E-02  0.1382269E+00
          2   -1    0    0  502    0  0.00000000000E+00  0.00000000000E+00  0.53789060078E+02  0.53789060078E+02  0.00000000000E+00 0. -1.
         -2   -1    0    0    0  501 -0.00000000000E+00 -0.00000000000E+00 -0.36005988554E+02  0.36005988554E+02  0.00000000000E+00 0.  1.
         21    1    1    2  502  503 -0.67163717813E+01 -0.34103483645E+02  0.36429003275E+02  0.50351062811E+02  0.00000000000E+00 0. -1.
         21    1    1    2  503  501  0.67163717813E+01  0.34103483645E+02 -0.18645931751E+02  0.39443985821E+02  0.00000000000E+00 0.  1.
</event>
<event>
 4    1  0.5696713E+002  0.3450479E+02  0.7546771E-02  0.1384078E+00
          2   -1    0    0  503    0  0.00000000000E+00  0.00000000000E+00  0.23890690736E+01  0.23890690736E+01  0.00000000000E+00 0. -1.
         -2   -1    0    0    0  501 -0.00000000000E+00 -0.00000000000E+00 -0.49852357976E+03  0.49852357976E+03  0.00000000000E+00 0.  1.
         21    1    1    2  502  501  0.37040089510E+01  0.34305408261E+02 -0.25280704515E+03  0.25515090200E+03  0.00000000000E+00 0.  1.
         21    1    1    2  503  502 -0.37040089510E+01 -0.34305408261E+02 -0.24332746554E+03  0.24576174683E+03  0.00000000000E+00 0. -1.
</event>
<event>
 4    1  0.5696713E+002  0.4390695E+02  0.7546771E-02  0.1326996E+00
          2   -1    0    0  503    0  0.00000000000E+00  0.00000000000E+00  0.11396252147E+04  0.11396252147E+04  0.00000000000E+00 0.  1.
         -2   -1    0    0    0  501 -0.00000000000E+00 -0.00000000000E+00 -0.21542587910E+01  0.21542587910E+01  0.00000000000E+00 0. -1.
         21    1    1    2  502  501 -0.41404601916E+02  0.14610942101E+02  0.30417737124E+03  0.30732994300E+03  0.00000000000E+00 0. -1.
         21    1    1    2  503  502  0.41404601916E+02 -0.14610942101E+02  0.83329358462E+03  0.83444953044E+03  0.00000000000E+00 0.  1.
</event>
<event>
 4    1  0.5696713E+002  0.2695784E+02  0.7546771E-02  0.1448032E+00
          2   -1    0    0  503    0  0.00000000000E+00  0.00000000000E+00  0.82030602461E+03  0.82030602461E+03  0.00000000000E+00 0. -1.
         -2   -1    0    0    0  501 -0.00000000000E+00 -0.00000000000E+00 -0.18213430501E+01  0.18213430501E+01  0.00000000000E+00 0.  1.
         21    1    1    2  502  501 -0.21554270769E+02  0.16190694646E+02  0.11465277447E+03  0.11777938646E+03  0.00000000000E+00 0.  1.
         21    1    1    2  503  502  0.21554270769E+02 -0.16190694646E+02  0.70383190709E+03  0.70434798119E+03  0.00000000000E+00 0. -1.
</event>
<event>
 4    1  0.5696713E+002  0.2704595E+02  0.7546771E-02  0.1447147E+00
          2   -1    0    0  503    0  0.00000000000E+00  0.00000000000E+00  0.33315504247E+03  0.33315504247E+03  0.00000000000E+00 0.  1.
         -2   -1    0    0    0  501 -0.00000000000E+00 -0.00000000000E+00 -0.27807960816E+01  0.27807960816E+01  0.00000000000E+00 0. -1.
         21    1    1    2  502  501 -0.18391092740E+02 -0.19830557146E+02  0.88135200784E+02  0.92191631432E+02  0.00000000000E+00 0. -1.
         21    1    1    2  503  502  0.18391092740E+02  0.19830557146E+02  0.24223904561E+03  0.24374420712E+03  0.00000000000E+00 0.  1.
</event>
<event>
 4    1  0.5696713E+002  0.3242759E+02  0.7546771E-02  0.1399610E+00
          2   -1    0    0  503    0  0.00000000000E+00  0.00000000000E+00  0.36347803158E+03  0.36347803158E+03  0.00000000000E+00 0. -1.
         -2   -1    0    0    0  501 -0.00000000000E+00 -0.00000000000E+00 -0.43489078396E+01  0.43489078396E+01  0.00000000000E+00 0.  1.
         21    1    1    2  502  501  0.92645128939E+01  0.31075996183E+02  0.73153300626E+02  0.80018461185E+02  0.00000000000E+00 0.  1.
         21    1    1    2  503  502 -0.92645128939E+01 -0.31075996183E+02  0.28597582312E+03  0.28780847824E+03  0.00000000000E+00 0. -1.
</event>
<event>
 4    1  0.5696713E+002  0.2267027E+02  0.7546771E-02  0.1496681E+00
          2   -1    0    0  503    0  0.00000000000E+00  0.00000000000E+00  0.10060362932E+02  0.10060362932E+02  0.00000000000E+00 0.  1.
         -2   -1    0    0    0  501 -0.00000000000E+00 -0.00000000000E+00 -0.60408431129E+03  0.60408431129E+03  0.00000000000E+00 0. -1.
         21    1    1    2  502  501  0.67490041620E+01 -0.21642367843E+02 -0.59081341304E+03  0.59124819676E+03  0.00000000000E+00 0. -1.
         21    1    1    2  503  502 -0.67490041620E+01  0.21642367843E+02 -0.32105353132E+01  0.22896477459E+02  0.00000000000E+00 0.  1.
</event>
<event>
 4    1  0.5696713E+002  0.2396062E+02  0.7546771E-02  0.1480776E+00
          2   -1    0    0  503    0  0.00000000000E+00  0.00000000000E+00  0.91370358233E+03  0.91370358233E+03  0.00000000000E+00 0. -1.
         -2   -1    0    0    0  501 -0.00000000000E+00 -0.00000000000E+00 -0.65569739036E+00  0.65569739036E+00  0.00000000000E+00 0.  1.
         21    1    1    2  502  501  0.99404554889E+00  0.23939986385E+02  0.36312978898E+03  0.36391943438E+03  0.00000000000E+00 0.  1.
         21    1    1    2  503  502 -0.99404554889E+00 -0.23939986385E+02  0.54991809596E+03  0.55043984534E+03  0.00000000000E+00 0. -1.
</event>
<event>
 4    1  0.5696713E+002  0.2681417E+02  0.7546771E-02  0.1449484E+00
          2   -1    0    0  503    0  0.00000000000E+00  0.00000000000E+00  0.20332951129E+04  0.20332951129E+04  0.00000000000E+00 0.  1.
         -2   -1    0    0    0  501 -0.00000000000E+00 -0.00000000000E+00 -0.14080474707E+01  0.14080474707E+01  0.00000000000E+00 0. -1.
         21    1    1    2  502  501 -0.21898611686E+02  0.15474185421E+02  0.13555939159E+03  0.13818591917E+03  0.00000000000E+00 0. -1.
         21    1    1    2  503  502  0.21898611686E+02 -0.15474185421E+02  0.18963276738E+04  0.18965172412E+04  0.00000000000E+00 0.  1.
</event>
<event>
 4    1  0.5696713E+002  0.8080383E+02  0.7546771E-02  0.1201994E+00
          2   -1    0    0  503    0  0.00000000000E+00  0.00000000000E+00  0.89989018716E+03  0.89989018716E+03  0.00000000000E+00 0.  1.
         -2   -1    0    0    0  501 -0.00000000000E+00 -0.00000000000E+00 -0.79748205458E+01  0.79748205458E+01  0.00000000000E+00 0. -1.
         21    1    1    2  502  501 -0.24160471906E+02 -0.77107270086E+02  0.30963867786E+03  0.32000839103E+03  0.00000000000E+00 0.  1.
         21    1    1    2  503  502  0.24160471906E+02  0.77107270086E+02  0.58227668875E+03  0.58785661667E+03  0.00000000000E+00 0. -1.
</event>
<event>
 4    1  0.5696713E+002  0.3911487E+02  0.7546771E-02  0.1353752E+00
          2   -1    0    0  503    0  0.00000000000E+00  0.00000000000E+00  0.16053700167E+03  0.16053700167E+03  0.00000000000E+00 0. -1.
         -2   -1    0    0    0  501 -0.00000000000E+00 -0.00000000000E+00 -0.54827892548E+02  0.54827892548E+02  0.00000000000E+00 0.  1.
         21    1    1    2  502  501 -0.32496591904E+02 -0.21770263189E+02 -0.45022634804E+02  0.59640678144E+02  0.00000000000E+00 0.  1.
         21    1    1    2  503  502  0.32496591904E+02  0.21770263189E+02  0.15073174392E+03  0.15572421607E+03  0.00000000000E+00 0. -1.
</event>
<event>
 4    1  0.5696713E+002  0.3071048E+02  0.7546771E-02  0.1413521E+00
          2   -1    0    0  502    0  0.00000000000E+00  0.00000000000E+00  0.83533422471E+02  0.83533422471E+02  0.00000000000E+00 0. -1.
         -2   -1    0    0    0  501 -0.00000000000E+00 -0.00000000000E+00 -0.12002341776E+02  0.12002341776E+02  0.00000000000E+00 0.  1.
         21    1    1    2  502  503 -0.27545292652E+02 -0.13579051805E+02  0.47398651137E+02  0.56478012756E+02  0.00000000000E+00 0.  1.
         21    1    1    2  503  501  0.27545292652E+02  0.13579051805E+02  0.24132429558E+02  0.39057751491E+02  0.00000000000E+00 0. -1.
</event>
<event>
 4    1  0.5696713E+002  0.2455767E+02  0.7546771E-02  0.1473813E+00
          2   -1    0    0  502    0  0.00000000000E+00  0.00000000000E+00  0.11248594726E+04  0.11248594726E+04  0.00000000000E+00 0. -1.
         -2   -1    0    0    0  501 -0.00000000000E+00 -0.00000000000E+00 -0.14060476217E+01  0.14060476217E+01  0.00000000000E+00 0.  1.
         21    1    1    2  502  503  0.15613980825E+02  0.18954750128E+02  0.10046699319E+04  0.10049700249E+04  0.00000000000E+00 0. -1.
         21    1    1    2  503  501 -0.15613980825E+02 -0.18954750128E+02  0.11878349310E+03  0.12129549532E+03  0.00000000000E+00 0.  1.
</event>
<event>
 4    1  0.5696713E+002  0.2949294E+02  0.7546771E-02  0.1424055E+00
          2   -1    0    0  503    0  0.00000000000E+00  0.00000000000E+00  0.28056981202E+03  0.28056981202E+03  0.00000000000E+00 0.  1.
         -2   -1    0    0    0  501 -0.00000000000E+00 -0.00000000000E+00 -0.66820838280E+01  0.66820838280E+01  0.00000000000E+00 0. -1.
         21    1    1    2  502  501  0.73969630328E+01 -0.28550279726E+02  0.31788769415E+02  0.43363110998E+02  0.00000000000E+00 0. -1.
         21    1    1    2  503  502 -0.73969630328E+01  0.28550279726E+02  0.24209895878E+03  0.24388878485E+03  0.00000000000E+00 0.  1.
</event>
<event>
 4    1  0.5696713E+002  0.3285348E+02  0.7546771E-02  0.1396316E+00
          2   -1    0    0  503    0  0.00000000000E+00  0.00000000000E+00  0.11624008067E+01  0.11624008067E+01  0.00000000000E+00 0. -1.
         -2   -1    0    0    0  501 -0.00000000000E+00 -0.00000000000E+00 -0.92876732623E+03  0.92876732623E+03  0.00000000000E+00 0.  1.
         21    1    1    2  502  501  0.23121811792E+01 -0.32772018116E+02 -0.45674768374E+03  0.45792772132E+03  0.00000000000E+00 0. -1.
         21    1    1    2  503  502 -0.23121811792E+01  0.32772018116E+02 -0.47085724168E+03  0.47200200571E+03  0.00000000000E+00 0.  1.
</event>
<event>
 4    1  0.5696713E+002  0.3367320E+02  0.7546771E-02  0.1390139E+00
          2   -1    0    0  503    0  0.00000000000E+00  0.00000000000E+00  0.58477699498E+03  0.58477699498E+03  0.00000000000E+00 0.  1.
         -2   -1    0    0    0  501 -0.00000000000E+00 -0.00000000000E+00 -0.19558507266E+01  0.19558507266E+01  0.00000000000E+00 0. -1.
         21    1    1    2  502  501  0.17812213898E+02  0.28576375177E+02  0.31863864166E+03  0.32041296500E+03  0.00000000000E+00 0. -1.
         21    1    1    2  503  502 -0.17812213898E+02 -0.28576375177E+02  0.26418250259E+03  0.26631988070E+03  0.00000000000E+00 0.  1.
</event>
<event>
 4    1  0.5696713E+002  0.2975419E+02  0.7546771E-02  0.1421745E+00
          2   -1    0    0  503    0  0.00000000000E+00  0.00000000000E+00  0.56544008306E+03  0.56544008306E+03  0.00000000000E+00 0.  1.
         -2   -1    0    0    0  501 -0.00000000000E+00 -0.00000000000E+00 -0.15773772032E+01  0.15773772032E+01  0.00000000000E+00 0. -1.
         21    1    1    2  502  501 -0.43715716824E+01  0.29431299097E+02  0.30631995529E+03  0.30776163993E+03  0.00000000000E+00 0. -1.
         21    1    1    2  503  502  0.43715716824E+01 -0.29431299097E+02  0.25754275057E+03  0.25925582033E+03  0.00000000000E+00 0.  1.
</event>
<event>
 4    1  0.5696713E+002  0.2024131E+02  0.7546771E-02  0.1530378E+00
          2   -1    0    0  502    0  0.00000000000E+00  0.00000000000E+00  0.55342752262E+03  0.55342752262E+03  0.00000000000E+00 0.  1.
         -2   -1    0    0    0  501 -0.00000000000E+00 -0.00000000000E+00 -0.74958001185E+00  0.74958001185E+00  0.00000000000E+00 0. -1.
         21    1    1    2  502  503 -0.20239560389E+02  0.26611125955E+00  0.30714500683E+03  0.30781125035E+03  0.00000000000E+00 0.  1.
         21    1    1    2  503  501  0.20239560389E+02 -0.26611125955E+00  0.24553293578E+03  0.24636585228E+03  0.00000000000E+00 0. -1.
</event>
<event>
 4    1  0.5696713E+002  0.2174287E+02  0.7546771E-02  0.1508918E+00
          2   -1    0    0  502    0  0.00000000000E+00  0.00000000000E+00  0.17588487717E+04  0.17588487717E+04  0.00000000000E+00 0.  1.
         -2   -1    0    0    0  501 -0.00000000000E+00 -0.00000000000E+00 -0.28221113296E+00  0.28221113296E+00  0.00000000000E+00 0. -1.
         21    1    1    2  502  503  0.55460962544E+01 -0.21023631008E+02  0.68743590067E+03  0.68777966659E+03  0.00000000000E+00 0.  1.
         21    1    1    2  503  501 -0.55460962544E+01  0.21023631008E+02  0.10711306599E+04  0.10713513163E+04  0.00000000000E+00 0. -1.
</event>
<event>
 4    1  0.5696713E+002  0.2201401E+02  0.7546771E-02  0.1505265E+00
          2   -1    0    0  502    0  0.00000000000E+00  0.00000000000E+00  0.17829489039E+04  0.17829489039E+04  0.00000000000E+00 0. -1.
         -2   -1    0    0    0  501 -0.00000000000E+00 -0.00000000000E+00 -0.46077603138E+00  0.46077603138E+00  0.00000000000E+00 0.  1.
         21    1    1    2  502  503  0.10689885703E+02  0.19244292590E+02  0.14622919056E+04  0.14624576006E+04  0.00000000000E+00 0. -1.
         21    1    1    2  503  501 -0.10689885703E+02 -0.19244292590E+02  0.32019622233E+03  0.32095207936E+03  0.00000000000E+00 0.  1.
</event>
<event>
 4    1  0.5696713E+002  0.2376095E+02  0.7546771E-02  0.1483158E+00
          2   -1    0    0  503    0  0.00000000000E+00  0.00000000000E+00  0.15597360405E+03  0.15597360405E+03  0.00000000000E+00 0. -1.
         -2   -1    0    0    0  501 -0.00000000000E+00 -0.00000000000E+00 -0.48899068231E+01  0.48899068231E+01  0.00000000000E+00 0.  1.
         21    1    1    2  502  501 -0.13701931835E+02 -0.19412358420E+02  0.34548909201E+02  0.41931011464E+02  0.00000000000E+00 0.  1.
         21    1    1    2  503  502  0.13701931835E+02  0.19412358420E+02  0.11653478803E+03  0.11893249941E+03  0.00000000000E+00 0. -1.
</event>
<event>
 4    1  0.5696713E+002  0.2039070E+02  0.7546771E-02  0.1528145E+00
          2   -1    0    0  503    0  0.00000000000E+00  0.00000000000E+00  0.91417003695E+02  0.91417003695E+02  0.00000000000E+00 0. -1.
         -2   -1    0    0    0  501 -0.00000000000E+00 -0.00000000000E+00 -0.13018892635E+02  0.13018892635E+02  0.00000000000E+00 0.  1.
         21    1    1    2  502  501  0.10591949986E+02 -0.17423873645E+02 -0.29213761505E+01  0.20598912979E+02  0.00000000000E+00 0.  1.
         21    1    1    2  503  502 -0.10591949986E+02  0.17423873645E+02  0.81319487210E+02  0.83836983351E+02  0.00000000000E+00 0. -1.
</event>
<event>
 4    1  0.5696713E+002  0.2619018E+02  0.7546771E-02  0.1455917E+00
          2   -1    0    0  503    0  0.00000000000E+00  0.00000000000E+00  0.12736616067E+03  0.12736616067E+03  0.00000000000E+00 0.  1.
         -2   -1    0    0    0  501 -0.00000000000E+00 -0.00000000000E+00 -0.18836623981E+02  0.18836623981E+02  0.00000000000E+00 0. -1.
         21    1    1    2  502  501  0.97745648743E+01 -0.24297809109E+02 -0.75089882331E+01  0.27245376677E+02  0.00000000000E+00 0. -1.
         21    1    1    2  503  502 -0.97745648743E+01  0.24297809109E+02  0.11603852492E+03  0.11895740797E+03  0.00000000000E+00 0.  1.
</event>
<event>
 4    1  0.5696713E+002  0.2775242E+02  0.7546771E-02  0.1440193E+00
          2   -1    0    0  503    0  0.00000000000E+00  0.00000000000E+00  0.27452497283E+03  0.27452497283E+03  0.00000000000E+00 0.  1.
         -2   -1    0    0    0  501 -0.00000000000E+00 -0.00000000000E+00 -0.40093434147E+01  0.40093434147E+01  0.00000000000E+00 0. -1.
         21    1    1    2  502  501 -0.75131506709E+01  0.26716083359E+02  0.21156862970E+03  0.21338107136E+03  0.00000000000E+00 0.  1.
         21    1    1    2  503  502  0.75131506709E+01 -0.26716083359E+02  0.58946999712E+02  0.65153244878E+02  0.00000000000E+00 0. -1.
</event>
<event>
 4    1  0.5696713E+002  0.2215990E+02  0.7546771E-02  0.1503326E+00
          2   -1    0    0  503    0  0.00000000000E+00  0.00000000000E+00  0.14672735212E+03  0.14672735212E+03  0.00000000000E+00 0. -1.
         -2   -1    0    0    0  501 -0.00000000000E+00 -0.00000000000E+00 -0.12093600393E+02  0.12093600393E+02  0.00000000000E+00 0.  1.
         21    1    1    2  502  501 -0.12764951777E+02  0.18114007976E+02 -0.21760825752E+00  0.22160970921E+02  0.00000000000E+00 0.  1.
         21    1    1    2  503  502  0.12764951777E+02 -0.18114007976E+02  0.13485135998E+03  0.13665998159E+03  0.00000000000E+00 0. -1.
</event>
<event>
 4    1  0.5696713E+002  0.3421373E+02  0.7546771E-02  0.1386177E+00
          2   -1    0    0  503    0  0.00000000000E+00  0.00000000000E+00  0.68516052688E+03  0.68516052688E+03  0.00000000000E+00 0.  1.
         -2   -1    0    0    0  501 -0.00000000000E+00 -0.00000000000E+00 -0.32966401883E+01  0.32966401883E+01  0.00000000000E+00 0. -1.
         21    1    1    2  502  501  0.43501503293E+01  0.33936049189E+02  0.10200833274E+03  0.10759311870E+03  0.00000000000E+00 0. -1.
         21    1    1    2  503  502 -0.43501503293E+01 -0.33936049189E+02  0.57985555394E+03  0.58086404836E+03  0.00000000000E+00 0.  1.
</event>
<event>
 4    1  0.5696713E+002  0.3754242E+02  0.7546771E-02  0.1363522E+00
          2   -1    0    0  502    0  0.00000000000E+00  0.00000000000E+00  0.20043349289E+03  0.20043349289E+03  0.00000000000E+00 0.  1.
         -2   -1    0    0    0  501 -0.00000000000E+00 -0.00000000000E+00 -0.88745742913E+01  0.88745742913E+01  0.00000000000E+00 0. -1.
         21    1    1    2  502  503  0.26849524765E+02 -0.26239979838E+02  0.14346683381E+03  0.14829755873E+03  0.00000000000E+00 0.  1.
         21    1    1    2  503  501 -0.26849524765E+02  0.26239979838E+02  0.48092084786E+02  0.61010508448E+02  0.00000000000E+00 0. -1.
</event>
<event>
 4    1  0.5696713E+002  0.2624366E+02  0.7546771E-02  0.1455357E+00
          2   -1    0    0  503    0  0.00000000000E+00  0.00000000000E+00  0.34290359563E+02  0.34290359563E+02  0.00000000000E+00 0.  1.
         -2   -1    0    0    0  501 -0.00000000000E+00 -0.00000000000E+00 -0.22719742321E+02  0.22719742321E+02  0.00000000000E+00 0. -1.
         21    1    1    2  502  501 -0.26240684207E+02  0.39508714958E+00 -0.39213692094E+01  0.26535009666E+02  0.00000000000E+00 0. -1.
         21    1    1    2  503  502  0.26240684207E+02 -0.39508714958E+00  0.15491986452E+02  0.30475092218E+02  0.00000000000E+00 0.  1.
</event>
<event>
 4    1  0.5696713E+002  0.2143574E+02  0.7546771E-02  0.1513134E+00
          2   -1    0    0  502    0  0.00000000000E+00  0.00000000000E+00  0.98065074215E+02  0.98065074215E+02  0.00000000000E+00 0.  1.
         -2   -1    0    0    0  501 -0.00000000000E+00 -0.00000000000E+00 -0.68431940095E+01  0.68431940095E+01  0.00000000000E+00 0. -1.
         21    1    1    2  502  503 -0.49329312902E+01 -0.20860422209E+02  0.75064508344E+02  0.78065174302E+02  0.00000000000E+00 0.  1.
         21    1    1    2  503  501  0.49329312902E+01  0.20860422209E+02  0.16157371861E+02  0.26843093922E+02  0.00000000000E+00 0. -1.
</event>
<event>
 4    1  0.5696713E+002  0.3052812E+02  0.7546771E-02  0.1415062E+00
          2   -1    0    0  502    0  0.00000000000E+00  0.00000000000E+00  0.16727370888E+01  0.16727370888E+01  0.00000000000E+00 0.  1.
         -2   -1    0    0    0  501 -0.00000000000E+00 -0.00000000000E+00 -0.69754513931E+03  0.69754513931E+03  0.00000000000E+00 0. -1.
         21    1    1    2  502  503  0.12075739801E+02 -0.28038236349E+02 -0.19109081811E+03  0.19351399680E+03  0.00000000000E+00 0. -1.
         21    1    1    2  503  501 -0.12075739801E+02  0.28038236349E+02 -0.50478158411E+03  0.50570387960E+03  0.00000000000E+00 0.  1.
</event>
<event>
 4    1  0.5696713E+002  0.2326164E+02  0.7546771E-02  0.1489239E+00
          2   -1    0    0  503    0  0.00000000000E+00  0.00000000000E+00  0.60760067146E+03  0.60760067146E+03  0.00000000000E+00 0. -1.
         -2   -1    0    0    0  501 -0.00000000000E+00 -0.00000000000E+00 -0.95727556272E+00  0.95727556272E+00  0.00000000000E+00 0.  1.
         21    1    1    2  502  501 -0.14771930183E+02  0.17969254206E+02  0.38365054081E+03  0.38435509816E+03  0.00000000000E+00 0.  1.
         21    1    1    2  503  502  0.14771930183E+02 -0.17969254206E+02  0.22299285509E+03  0.22420284887E+03  0.00000000000E+00 0. -1.
</event>
<event>
 4    1  0.5696713E+002  0.2088240E+02  0.7546771E-02  0.1520951E+00
          2   -1    0    0  502    0  0.00000000000E+00  0.00000000000E+00  0.45572074065E+02  0.45572074065E+02  0.00000000000E+00 0. -1.
         -2   -1    0    0    0  501 -0.00000000000E+00 -0.00000000000E+00 -0.10319074780E+02  0.10319074780E+02  0.00000000000E+00 0.  1.
         21    1    1    2  502  503  0.48239224277E+00 -0.20876824269E+02  0.25161350997E+02  0.32698135694E+02  0.00000000000E+00 0. -1.
         21    1    1    2  503  501 -0.48239224277E+00  0.20876824269E+02  0.10091648288E+02  0.23193013151E+02  0.00000000000E+00 0.  1.
</event>
<event>
 4    1  0.5696713E+002  0.2132314E+02  0.7546771E-02  0.1514701E+00
          2   -1    0    0  502    0  0.00000000000E+00  0.00000000000E+00  0.38503247294E+03  0.38503247294E+03  0.00000000000E+00 0. -1.
         -2   -1    0    0    0  501 -0.00000000000E+00 -0.00000000000E+00 -0.12150559894E+01  0.12150559894E+01  0.00000000000E+00 0.  1.
         21    1    1    2  502  503  0.17900514144E+02  0.11586538685E+02  0.22429881186E+03  0.22531008253E+03  0.00000000000E+00 0.  1.
         21    1    1    2  503  501 -0.17900514144E+02 -0.11586538685E+02  0.15951860509E+03  0.16093744640E+03  0.00000000000E+00 0. -1.
</event>
<event>
 4    1  0.5696713E+002  0.2835274E+02  0.7546771E-02  0.1434473E+00
          2   -1    0    0  502    0  0.00000000000E+00  0.00000000000E+00  0.15229876239E+04  0.15229876239E+04  0.00000000000E+00 0.  1.
         -2   -1    0    0    0  501 -0.00000000000E+00 -0.00000000000E+00 -0.31267057291E+01  0.31267057291E+01  0.00000000000E+00 0. -1.
         21    1    1    2  502  503  0.85787712456E+01 -0.27023737607E+02  0.14556054211E+04  0.14558815266E+04  0.00000000000E+00 0.  1.
         21    1    1    2  503  501 -0.85787712456E+01  0.27023737607E+02  0.64255497079E+02  0.70232802986E+02  0.00000000000E+00 0. -1.
</event>
<event>
 4    1  0.5696713E+002  0.2052526E+02  0.7546771E-02  0.1526152E+00
          2   -1    0    0  502    0  0.00000000000E+00  0.00000000000E+00  0.92168520107E+03  0.92168520107E+03  0.00000000000E+00 0. -1.
         -2   -1    0    0    0  501 -0.00000000000E+00 -0.00000000000E+00 -0.48338961913E+00  0.48338961913E+00  0.00000000000E+00 0.  1.
         21    1    1    2  502  503  0.19519466096E+02  0.63463887583E+01  0.56816517679E+03  0.56853579863E+03  0.00000000000E+00 0. -1.
         21    1    1    2  503  501 -0.19519466096E+02 -0.63463887583E+01  0.35303663467E+03  0.35363279206E+03  0.00000000000E+00 0.  1.
</event>
<event>
 4    1  0.5696713E+002  0.4188476E+02  0.7546771E-02  0.1337782E+00
          2   -1    0    0  503    0  0.00000000000E+00  0.00000000000E+00  0.25204847316E+03  0.25204847316E+03  0.00000000000E+00 0. -1.
         -2   -1    0    0    0  501 -0.00000000000E+00 -0.00000000000E+00 -0.31115998901E+02  0.31115998901E+02  0.00000000000E+00 0.  1.
         21    1    1    2  502  501 -0.35250205731E+02  0.22622031596E+02 -0.14279779067E+02  0.44252066707E+02  0.00000000000E+00 0.  1.
         21    1    1    2  503  502  0.35250205731E+02 -0.22622031596E+02  0.23521225333E+03  0.23891240536E+03  0.00000000000E+00 0. -1.
</event>
<event>
 4    1  0.5696713E+002  0.2110145E+02  0.7546771E-02  0.1517821E+00
          2   -1    0    0  502    0  0.00000000000E+00  0.00000000000E+00  0.15169280314E+04  0.15169280314E+04  0.00000000000E+00 0. -1.
         -2   -1    0    0    0  501 -0.00000000000E+00 -0.00000000000E+00 -0.30222460941E+00  0.30222460941E+00  0.00000000000E+00 0.  1.
         21    1    1    2  502  503  0.20900884047E+02  0.29024290215E+01  0.88694923851E+03  0.88720021571E+03  0.00000000000E+00 0. -1.
         21    1    1    2  503  501 -0.20900884047E+02 -0.29024290215E+01  0.62967656828E+03  0.63003004030E+03  0.00000000000E+00 0.  1.
</event>
<event>
 4    1  0.5696713E+002  0.2707277E+02  0.7546771E-02  0.1446879E+00
          2   -1    0    0  503    0  0.00000000000E+00  0.00000000000E+00  0.47084280514E+01  0.47084280514E+01  0.00000000000E+00 0. -1.
         -2   -1    0    0    0  501 -0.00000000000E+00 -0.00000000000E+00 -0.37294325797E+03  0.37294325797E+03  0.00000000000E+00 0.  1.
         21    1    1    2  502  501  0.23960212837E+02 -0.12603294627E+02 -0.32824554204E+03  0.32936009276E+03  0.00000000000E+00 0.  1.
         21    1    1    2  503  502 -0.23960212837E+02  0.12603294627E+02 -0.39989287884E+02  0.48291593265E+02  0.00000000000E+00 0. -1.
</event>
<event>
 4    1  0.5696713E+002  0.2003343E+02  0.7546771E-02  0.1533525E+00
          2   -1    0    0  502    0  0.00000000000E+00  0.00000000000E+00  0.14699284853E+03  0.14699284853E+03  0.00000000000E+00 0. -1.
         -2   -1    0    0    0  501 -0.00000000000E+00 -0.00000000000E+00 -0.46600389665E+01  0.46600389665E+01  0.00000000000E+00 0.  1.
         21    1    1    2  502  503 -0.18090018479E+02  0.86075342229E+01  0.11996106048E+03  0.12162234353E+03  0.00000000000E+00 0. -1.
         21    1    1    2  503  501  0.18090018479E+02 -0.86075342229E+01  0.22371749085E+02  0.30030543969E+02  0.00000000000E+00 0.  1.
</event>
<event>
 4    1  0.5696713E+002  0.4339331E+02  0.7546771E-02  0.1329672E+00
          2   -1    0    0  503    0  0.00000000000E+00  0.00000000000E+00  0.54424000967E+02  0.54424000967E+02  0.00000000000E+00 0. -1.
         -2   -1    0    0    0  501 -0.00000000000E+00 -0.00000000000E+00 -0.12156288774E+03  0.12156288774E+03  0.00000000000E+00 0.  1.
         21    1    1    2  502  501  0.84254660573E+01  0.42567484005E+02 -0.10799480905E+03  0.11638667430E+03  0.00000000000E+00 0.  1.
         21    1    1    2  503  502 -0.84254660573E+01 -0.42567484005E+02  0.40855922275E+02  0.59600214410E+02  0.00000000000E+00 0. -1.
</event>
<event>
 4    1  0.5696713E+002  0.2219457E+02  0.7546771E-02  0.1502867E+00
          2   -1    0    0  503    0  0.00000000000E+00  0.00000000000E+00  0.45844986547E+02  0.45844986547E+02  0.00000000000E+00 0. -1.
         -2   -1    0    0    0  501 -0.00000000000E+00 -0.00000000000E+00 -0.11295914404E+02  0.11295914404E+02  0.00000000000E+00 0.  1.
         21    1    1    2  502  501 -0.98235384835E+01 -0.19902191093E+02  0.10964327855E+02  0.24755112683E+02  0.00000000000E+00 0.  1.
         21    1    1    2  503  502  0.98235384835E+01  0.19902191093E+02  0.23584744288E+02  0.32385788268E+02  0.00000000000E+00 0. -1.
</event>
<event>
 4    1  0.5696713E+002  0.2531269E+02  0.7546771E-02  0.1465336E+00
          2   -1    0    0  503    0  0.00000000000E+00  0.00000000000E+00  0.10145641442E+04  0.10145641442E+04  0.00000000000E+00 0. -1.
         -2   -1    0    0    0  501 -0.00000000000E+00 -0.00000000000E+00 -0.74589194401E+00  0.74589194401E+00  0.00000000000E+00 0.  1.
         21    1    1    2  502  501  0.13524056415E+02  0.21397014729E+02  0.30813365468E+03  0.30917160524E+03  0.00000000000E+00 0.  1.
         21    1    1    2  503  502 -0.13524056415E+02 -0.21397014729E+02  0.70568459755E+03  0.70613843087E+03  0.00000000000E+00 0. -1.
</event>
<event>
 4    1  0.5696713E+002  0.4084072E+02  0.7546771E-02  0.1343628E+00
          2   -1    0    0  503    0  0.00000000000E+00  0.00000000000E+00  0.30110026308E+02  0.30110026308E+02  0.00000000000E+00 0. -1.
         -2   -1    0    0    0  501 -0.00000000000E+00 -0.00000000000E+00 -0.83880268626E+02  0.83880268626E+02  0.00000000000E+00 0.  1.
         21    1    1    2  502  501  0.23531358940E+02 -0.33380231847E+02 -0.60098504337E+02  0.72662197568E+02  0.00000000000E+00 0.  1.
         21    1    1    2  503  502 -0.23531358940E+02  0.33380231847E+02  0.63282620190E+01  0.41328097366E+02  0.00000000000E+00 0. -1.
</event>
<event>
 4    1  0.5696713E+002  0.2215115E+02  0.7546771E-02  0.1503441E+00
          2   -1    0    0  502    0  0.00000000000E+00  0.00000000000E+00  0.45472153172E+01  0.45472153172E+01  0.00000000000E+00 0. -1.
         -2   -1    0    0    0  501 -0.00000000000E+00 -0.00000000000E+00 -0.17824222151E+03  0.17824222151E+03  0.00000000000E+00 0.  1.
         21    1    1    2  502  503 -0.10499529542E+02  0.19504702935E+02 -0.29435309470E+02  0.36838987510E+02  0.00000000000E+00 0. -1.
         21    1    1    2  503  501  0.10499529542E+02 -0.19504702935E+02 -0.14425969672E+03  0.14595044932E+03  0.00000000000E+00 0.  1.
</event>
<event>
 4    1  0.5696713E+002  0.3323830E+02  0.7546771E-02  0.1393390E+00
          2   -1    0    0  502    0  0.00000000000E+00  0.00000000000E+00  0.10510014041E+04  0.10510014041E+04  0.00000000000E+00 0. -1.
         -2   -1    0    0    0  501 -0.00000000000E+00 -0.00000000000E+00 -0.29980067524E+01  0.29980067524E+01  0.00000000000E+00 0.  1.
         21    1    1    2  502  503  0.16004467329E+00  0.33237914006E+02  0.94867844061E+03  0.94926053759E+03  0.00000000000E+00 0. -1.
         21    1    1    2  503  501 -0.16004467329E+00 -0.33237914006E+02  0.99324956722E+02  0.10473887325E+03  0.00000000000E+00 0.  1.
</event>
<event>
 4    1  0.5696713E+002  0.2757804E+02  0.7546771E-02  0.1441886E+00
          2   -1    0    0  503    0  0.00000000000E+00  0.00000000000E+00  0.52796213645E+03  0.52796213645E+03  0.00000000000E+00 0.  1.
         -2   -1    0    0    0  501 -0.00000000000E+00 -0.00000000000E+00 -0.87567516977E+01  0.87567516977E+01  0.00000000000E+00 0. -1.
         21    1    1    2  502  501 -0.71812923802E+01  0.26626629702E+02  0.14307734231E+02  0.31068627719E+02  0.00000000000E+00 0. -1.
         21    1    1    2  503  502  0.71812923802E+01 -0.26626629702E+02  0.50489765052E+03  0.50565026043E+03  0.00000000000E+00 0.  1.
</event>
<event>
 4    1  0.5696713E+002  0.2346790E+02  0.7546771E-02  0.1486705E+00
          2   -1    0    0  502    0  0.00000000000E+00  0.00000000000E+00  0.76130558408E+03  0.76130558408E+03  0.00000000000E+00 0.  1.
         -2   -1    0    0    0  501 -0.00000000000E+00 -0.00000000000E+00 -0.78396690633E+00  0.78396690633E+00  0.00000000000E+00 0. -1.
         21    1    1    2  502  503 -0.21349282801E+02 -0.97442404837E+01  0.48615706339E+03  0.48672315784E+03  0.00000000000E+00 0.  1.
         21    1    1    2  503  501  0.21349282801E+02  0.97442404837E+01  0.27436455378E+03  0.27536639314E+03  0.00000000000E+00 0. -1.
</event>
<event>
 4    1  0.5696713E+002  0.2454861E+02  0.7546771E-02  0.1473917E+00
          2   -1    0    0  502    0  0.00000000000E+00  0.00000000000E+00  0.14167101733E+04  0.14167101733E+04  0.00000000000E+00 0.  1.
         -2   -1    0    0    0  501 -0.00000000000E+00 -0.00000000000E+00 -0.36918470936E+01  0.36918470936E+01  0.00000000000E+00 0. -1.
         21    1    1    2  502  503 -0.23695062352E+02 -0.64170290076E+01  0.13745436067E+04  0.13747628017E+04  0.00000000000E+00 0.  1.
         21    1    1    2  503  501  0.23695062352E+02  0.64170290076E+01  0.38474719511E+02  0.45639218690E+02  0.00000000000E+00 0. -1.
</event>
<event>
 4    1  0.5696713E+002  0.4623607E+02  0.7546771E-02  0.1315372E+00
          2   -1    0    0  503    0  0.00000000000E+00  0.00000000000E+00  0.63847720882E+03  0.63847720882E+03  0.00000000000E+00 0.  1.
         -2   -1    0    0    0  501 -0.00000000000E+00 -0.00000000000E+00 -0.38665110555E+01  0.38665110555E+01  0.00000000000E+00 0. -1.
         21    1    1    2  502  501 -0.30660279976E+02  0.34608105420E+02  0.19971894084E+03  0.20500104648E+03  0.00000000000E+00 0. -1.
         21    1    1    2  503  502  0.30660279976E+02 -0.34608105420E+02  0.43489175693E+03  0.43734267340E+03  0.00000000000E+00 0.  1.
</event>
<event>
 4    1  0.5696713E+002  0.2128804E+02  0.7546771E-02  0.1515192E+00
          2   -1    0    0  502    0  0.00000000000E+00  0.00000000000E+00  0.41154312088E+03  0.41154312088E+03  0.00000000000E+00 0.  1.
         -2   -1    0    0    0  501 -0.00000000000E+00 -0.00000000000E+00 -0.30562513463E+01  0.30562513463E+01  0.00000000000E+00 0. -1.
         21    1    1    2  502  503 -0.16133459895E+02 -0.13888553114E+02  0.37004404420E+03  0.37065587151E+03  0.00000000000E+00 0.  1.
         21    1    1    2  503  501  0.16133459895E+02  0.13888553114E+02  0.38442825339E+02  0.43943500723E+02  0.00000000000E+00 0. -1.
</event>
<event>
 4    1  0.5696713E+002  0.9920722E+02  0.7546771E-02  0.1165189E+00
          2   -1    0    0  503    0  0.00000000000E+00  0.00000000000E+00  0.33484618709E+02  0.33484618709E+02  0.00000000000E+00 0.  1.
         -2   -1    0    0    0  501 -0.00000000000E+00 -0.00000000000E+00 -0.37133918680E+03  0.37133918680E+03  0.00000000000E+00 0. -1.
         21    1    1    2  502  501  0.44395486951E+02  0.88719298096E+02 -0.76510254031E+02  0.12528324744E+03  0.00000000000E+00 0.  1.
         21    1    1    2  503  502 -0.44395486951E+02 -0.88719298096E+02 -0.26134431406E+03  0.27954055807E+03  0.00000000000E+00 0. -1.
</event>
<event>
 4    1  0.5696713E+002  0.5119391E+02  0.7546771E-02  0.1293077E+00
          2   -1    0    0  502    0  0.00000000000E+00  0.00000000000E+00  0.32152953403E+02  0.32152953403E+02  0.00000000000E+00 0. -1.
         -2   -1    0    0    0  501 -0.00000000000E+00 -0.00000000000E+00 -0.13602061961E+03  0.13602061961E+03  0.00000000000E+00 0.  1.
         21    1    1    2  502  503 -0.35294277344E+02  0.37082756621E+02  0.12968783446E+01  0.51210338265E+02  0.00000000000E+00 0. -1.
         21    1    1    2  503  501  0.35294277344E+02 -0.37082756621E+02 -0.10516454455E+03  0.11696323474E+03  0.00000000000E+00 0.  1.
</event>
<event>
 4    1  0.5696713E+002  0.3402721E+02  0.7546771E-02  0.1387534E+00
          2   -1    0    0  502    0  0.00000000000E+00  0.00000000000E+00  0.10793587518E+02  0.10793587518E+02  0.00000000000E+00 0. -1.
         -2   -1    0    0    0  501 -0.00000000000E+00 -0.00000000000E+00 -0.12127677161E+03  0.12127677161E+03  0.00000000000E+00 0.  1.
         21    1    1    2  502  503 -0.32399446709E+02  0.10398413650E+02 -0.77681574121E+02  0.84807299871E+02  0.00000000000E+00 0.  1.
         21    1    1    2  503  501  0.32399446709E+02 -0.10398413650E+02 -0.32801609967E+02  0.47263059253E+02  0.00000000000E+00 0. -1.
</event>
<event>
 4    1  0.5696713E+002  0.2534656E+02  0.7546771E-02  0.1464963E+00
          2   -1    0    0  502    0  0.00000000000E+00  0.00000000000E+00  0.45540052220E+03  0.45540052220E+03  0.00000000000E+00 0.  1.
         -2   -1    0    0    0  501 -0.00000000000E+00 -0.00000000000E+00 -0.14149365978E+01  0.14149365978E+01  0.00000000000E+00 0. -1.
         21    1    1    2  502  503 -0.10745147261E+02 -0.22956265618E+02  0.23944304943E+03  0.24078085937E+03  0.00000000000E+00 0.  1.
         21    1    1    2  503  501  0.10745147261E+02  0.22956265618E+02  0.21454253617E+03  0.21603459942E+03  0.00000000000E+00 0. -1.
</event>
<event>
 4    1  0.5696713E+002  0.2032078E+02  0.7546771E-02  0.1529187E+00
          2   -1    0    0  502    0  0.00000000000E+00  0.00000000000E+00  0.56560769453E+01  0.56560769453E+01  0.00000000000E+00 0. -1.
         -2   -1    0    0    0  501 -0.00000000000E+00 -0.00000000000E+00 -0.41632542033E+03  0.41632542033E+03  0.00000000000E+00 0.  1.
         21    1    1    2  502  503  0.11377487730E+02 -0.16837071718E+02 -0.13734722623E+02  0.24527062943E+02  0.00000000000E+00 0. -1.
         21    1    1    2  503  501 -0.11377487730E+02  0.16837071718E+02 -0.39693462076E+03  0.39745443433E+03  0.00000000000E+00 0.  1.
</event>
<event>
 4    1  0.5696713E+002  0.2682105E+02  0.7546771E-02  0.1449414E+00
          2   -1    0    0  502    0  0.00000000000E+00  0.00000000000E+00  0.29107678630E+03  0.29107678630E+03  0.00000000000E+00 0. -1.
         -2   -1    0    0    0  501 -0.00000000000E+00 -0.00000000000E+00 -0.11116718929E+02  0.11116718929E+02  0.00000000000E+00 0.  1.
         21    1    1    2  502  503 -0.96283336239E+01 -0.25033254814E+02  0.27322695989E+03  0.27454023433E+03  0.00000000000E+00 0. -1.
         21    1    1    2  503  501  0.96283336239E+01  0.25033254814E+02  0.67331074768E+01  0.27653270896E+02  0.00000000000E+00 0.  1.
</event>
<event>
 4    1  0.5696713E+002  0.2782687E+02  0.7546771E-02  0.1439474E+00
          2   -1    0    0  502    0  0.00000000000E+00  0.00000000000E+00  0.55880355568E+03  0.55880355568E+03  0.00000000000E+00 0.  1.
         -2   -1    0    0    0  501 -0.00000000000E+00 -0.00000000000E+00 -0.44843891777E+01  0.44843891777E+01  0.00000000000E+00 0. -1.
         21    1    1    2  502  503  0.17650845095E+02 -0.21512375274E+02  0.51127917266E+03  0.51203586497E+03  0.00000000000E+00 0.  1.
         21    1    1    2  503  501 -0.17650845095E+02  0.21512375274E+02  0.43039993839E+02  0.51252079881E+02  0.00000000000E+00 0. -1.
</event>
<event>
 4    1  0.5696713E+002  0.2219779E+02  0.7546771E-02  0.1502825E+00
          2   -1    0    0  503    0  0.00000000000E+00  0.00000000000E+00  0.83765873673E+03  0.83765873673E+03  0.00000000000E+00 0. -1.
         -2   -1    0    0    0  501 -0.00000000000E+00 -0.00000000000E+00 -0.71887287416E+00  0.71887287416E+00  0.00000000000E+00 0.  1.
         21    1    1    2  502  501 -0.78494230670E+01 -0.20763635603E+02  0.23977403933E+03  0.24079936034E+03  0.00000000000E+00 0. -1.
         21    1    1    2  503  502  0.78494230670E+01  0.20763635603E+02  0.59716582453E+03  0.59757824926E+03  0.00000000000E+00 0.  1.
</event>
<event>
 4    1  0.5696713E+002  0.2877514E+02  0.7546771E-02  0.1430548E+00
          2   -1    0    0  502    0  0.00000000000E+00  0.00000000000E+00  0.26607077230E+04  0.26607077230E+04  0.00000000000E+00 0.  1.
         -2   -1    0    0    0  501 -0.00000000000E+00 -0.00000000000E+00 -0.41102962685E+00  0.41102962685E+00  0.00000000000E+00 0. -1.
         21    1    1    2  502  503 -0.27503388000E+02  0.84600435578E+01  0.19858863085E+04  0.19860947709E+04  0.00000000000E+00 0.  1.
         21    1    1    2  503  501  0.27503388000E+02 -0.84600435578E+01  0.67441038488E+03  0.67502398174E+03  0.00000000000E+00 0. -1.
</event>
<event>
 4    1  0.5696713E+002  0.5671286E+02  0.7546771E-02  0.1271430E+00
          2   -1    0    0  502    0  0.00000000000E+00  0.00000000000E+00  0.99688769713E+02  0.99688769713E+02  0.00000000000E+00 0. -1.
         -2   -1    0    0    0  501 -0.00000000000E+00 -0.00000000000E+00 -0.72619325331E+02  0.72619325331E+02  0.00000000000E+00 0.  1.
         21    1    1    2  502  503 -0.56388576969E+02  0.60561836250E+01  0.77759190763E+02  0.96243652886E+02  0.00000000000E+00 0. -1.
         21    1    1    2  503  501  0.56388576969E+02 -0.60561836250E+01 -0.50689746381E+02  0.76064442159E+02  0.00000000000E+00 0.  1.
</event>
<event>
 4    1  0.5696713E+002  0.2042810E+02  0.7546771E-02  0.1527589E+00
          2   -1    0    0  502    0  0.00000000000E+00  0.00000000000E+00  0.83749873370E+03  0.83749873370E+03  0.00000000000E+00 0. -1.
         -2   -1    0    0    0  501 -0.00000000000E+00 -0.00000000000E+00 -0.10063968253E+01  0.10063968253E+01  0.00000000000E+00 0.  1.
         21    1    1    2  502  503  0.87940400011E+01  0.18438335101E+02  0.71614833883E+03  0.71643963497E+03  0.00000000000E+00 0. -1.
         21    1    1    2  503  501 -0.87940400011E+01 -0.18438335101E+02  0.12034399804E+03  0.12206549556E+03  0.00000000000E+00 0.  1.
</event>
<event>
 4    1  0.5696713E+002  0.2152679E+02  0.7546771E-02  0.1511875E+00
          2   -1    0    0  502    0  0.00000000000E+00  0.00000000000E+00  0.82532845647E+02  0.82532845647E+02  0.00000000000E+00 0. -1.
         -2   -1    0    0    0  501 -0.00000000000E+00 -0.00000000000E+00 -0.10257557821E+02  0.10257557821E+02  0.00000000000E+00 0.  1.
         21    1    1    2  502  503  0.18219964877E+02 -0.11464537878E+02  0.67351010315E+02  0.70707576251E+02  0.00000000000E+00 0. -1.
         21    1    1    2  503  501 -0.18219964877E+02  0.11464537878E+02  0.49242775114E+01  0.22082827216E+02  0.00000000000E+00 0.  1.
</event>
<event>
 4    1  0.5696713E+002  0.3184246E+02  0.7546771E-02  0.1404233E+00
          2   -1    0    0  503    0  0.00000000000E+00  0.00000000000E+00  0.17708939902E+03  0.17708939902E+03  0.00000000000E+00 0. -1.
         -2   -1    0    0    0  501 -0.00000000000E+00 -0.00000000000E+00 -0.63323866438E+02  0.63323866438E+02  0.00000000000E+00 0.  1.
         21    1    1    2  502  501  0.22903206858E+02  0.22122059142E+02 -0.57760734741E+02  0.65956386066E+02  0.00000000000E+00 0.  1.
         21    1    1    2  503  502 -0.22903206858E+02 -0.22122059142E+02  0.17152626732E+03  0.17445687939E+03  0.00000000000E+00 0. -1.
</event>
<event>
 4    1  0.5696713E+002  0.2889142E+02  0.7546771E-02  0.1429481E+00
          2   -1    0    0  503    0  0.00000000000E+00  0.00000000000E+00  0.42434952447E+03  0.42434952447E+03  0.00000000000E+00 0.  1.
         -2   -1    0    0    0  501 -0.00000000000E+00 -0.00000000000E+00 -0.15959117652E+02  0.15959117652E+02  0.00000000000E+00 0. -1.
         21    1    1    2  502  501  0.26698104244E+01 -0.28767799039E+02 -0.19455307224E+01  0.28956851331E+02  0.00000000000E+00 0. -1.
         21    1    1    2  503  502 -0.26698104244E+01  0.28767799039E+02  0.41033593754E+03  0.41135179079E+03  0.00000000000E+00 0.  1.
</event>
<event>
 4    1  0.5696713E+002  0.2016781E+02  0.7546771E-02  0.1531486E+00
          2   -1    0    0  503    0  0.00000000000E+00  0.00000000000E+00  0.35562957979E+03  0.35562957979E+03  0.00000000000E+00 0. -1.
         -2   -1    0    0    0  501 -0.00000000000E+00 -0.00000000000E+00 -0.42100673800E+01  0.42100673800E+01  0.00000000000E+00 0.  1.
         21    1    1    2  502  501 -0.91648508619E+01 -0.17965131607E+02  0.22161385142E+02  0.29964436193E+02  0.00000000000E+00 0.  1.
         21    1    1    2  503  502  0.91648508619E+01  0.17965131607E+02  0.32925812727E+03  0.32987521097E+03  0.00000000000E+00 0. -1.
</event>
<event>
 4    1  0.5696713E+002  0.2152499E+02  0.7546771E-02  0.1511900E+00
          2   -1    0    0  503    0  0.00000000000E+00  0.00000000000E+00  0.78271616858E+03  0.78271616858E+03  0.00000000000E+00 0.  1.
         -2   -1    0    0    0  501 -0.00000000000E+00 -0.00000000000E+00 -0.22293690619E+01  0.22293690619E+01  0.00000000000E+00 0. -1.
         21    1    1    2  502  501  0.33905025930E+01 -0.21256280909E+02  0.53887447487E+02  0.58027424401E+02  0.00000000000E+00 0. -1.
         21    1    1    2  503  502 -0.33905025930E+01  0.21256280909E+02  0.72659935203E+03  0.72691811324E+03  0.00000000000E+00 0.  1.
</event>
<event>
 4    1  0.5696713E+002  0.2815171E+02  0.7546771E-02  0.1436370E+00
          2   -1    0    0  503    0  0.00000000000E+00  0.00000000000E+00  0.13210468540E+03  0.13210468540E+03  0.00000000000E+00 0. -1.
         -2   -1    0    0    0  501 -0.00000000000E+00 -0.00000000000E+00 -0.14230325144E+02  0.14230325144E+02  0.00000000000E+00 0.  1.
         21    1    1    2  502  501  0.24765447823E+02 -0.13386246102E+02  0.32902609961E+01  0.28343337982E+02  0.00000000000E+00 0.  1.
         21    1    1    2  503  502 -0.24765447823E+02  0.13386246102E+02  0.11458409926E+03  0.11799167256E+03  0.00000000000E+00 0. -1.
</event>
<event>
 4    1  0.5696713E+002  0.2060761E+02  0.7546771E-02  0.1524941E+00
          2   -1    0    0  503    0  0.00000000000E+00  0.00000000000E+00  0.37014492805E+01  0.37014492805E+01  0.00000000000E+00 0. -1.
         -2   -1    0    0    0  501 -0.00000000000E+00 -0.00000000000E+00 -0.19984254456E+03  0.19984254456E+03  0.00000000000E+00 0.  1.
         21    1    1    2  502  501  0.18178782283E+02  0.97059600393E+01 -0.16448714482E+03  0.16577302132E+03  0.00000000000E+00 0.  1.
         21    1    1    2  503  502 -0.18178782283E+02 -0.97059600393E+01 -0.31653950452E+02  0.37770972515E+02  0.00000000000E+00 0. -1.
</event>
<event>
 4    1  0.5696713E+002  0.2092284E+02  0.7546771E-02  0.1520369E+00
          2   -1    0    0  503    0  0.00000000000E+00  0.00000000000E+00  0.65311075345E+00  0.65311075345E+00  0.00000000000E+00 0. -1.
         -2   -1    0    0    0  501 -0.00000000000E+00 -0.00000000000E+00 -0.68347713154E+03  0.68347713154E+03  0.00000000000E+00 0.  1.
         21    1    1    2  502  501  0.20301597045E+02 -0.50606720018E+01 -0.38894911484E+03  0.38951146219E+03  0.00000000000E+00 0. -1.
         21    1    1    2  503  502 -0.20301597045E+02  0.50606720018E+01 -0.29387490595E+03  0.29461878011E+03  0.00000000000E+00 0.  1.
</event>
<event>
 4    1  0.5696713E+002  0.2488094E+02  0.7546771E-02  0.1470140E+00
          2   -1    0    0  503    0  0.00000000000E+00  0.00000000000E+00  0.51656070846E+02  0.51656070846E+02  0.00000000000E+00 0.  1.
         -2   -1    0    0    0  501 -0.00000000000E+00 -0.00000000000E+00 -0.15194106292E+02  0.15194106292E+02  0.00000000000E+00 0. -1.
         21    1    1    2  502  501  0.20589458164E+02  0.13969088722E+02  0.28680111602E+01  0.25045692548E+02  0.00000000000E+00 0. -1.
         21    1    1    2  503  502 -0.20589458164E+02 -0.13969088722E+02  0.33593953394E+02  0.41804484590E+02  0.00000000000E+00 0.  1.
</event>
<event>
 4    1  0.5696713E+002  0.2955177E+02  0.7546771E-02  0.1423532E+00
          2   -1    0    0  503    0  0.00000000000E+00  0.00000000000E+00  0.99310272982E+01  0.99310272982E+01  0.00000000000E+00 0.  1.
         -2   -1    0    0    0  501 -0.00000000000E+00 -0.00000000000E+00 -0.23965438665E+03  0.23965438665E+03  0.00000000000E+00 0. -1.
         21    1    1    2  502  501  0.29252380642E+02 -0.41958899777E+01 -0.21415358117E+03  0.21618294011E+03  0.00000000000E+00 0. -1.
         21    1    1    2  503  502 -0.29252380642E+02  0.41958899777E+01 -0.15569778180E+02  0.33402473838E+02  0.00000000000E+00 0.  1.
</event>
<event>
 4    1  0.5696713E+002  0.4826832E+02  0.7546771E-02  0.1305860E+00
          2   -1    0    0  503    0  0.00000000000E+00  0.00000000000E+00  0.24697812599E+03  0.24697812599E+03  0.00000000000E+00 0. -1.
         -2   -1    0    0    0  501 -0.00000000000E+00 -0.00000000000E+00 -0.40927956040E+02  0.40927956040E+02  0.00000000000E+00 0.  1.
         21    1    1    2  502  501 -0.23924741417E+02  0.41921799744E+02 -0.23253271640E+02  0.53577469030E+02  0.00000000000E+00 0.  1.
         21    1    1    2  503  502  0.23924741417E+02 -0.41921799744E+02  0.22930344159E+03  0.23432861300E+03  0.00000000000E+00 0. -1.
</event>
<event>
 4    1  0.5696713E+002  0.2189595E+02  0.7546771E-02  0.1506847E+00
          2   -1    0    0  503    0  0.00000000000E+00  0.00000000000E+00  0.18357663789E+04  0.18357663789E+04  0.00000000000E+00 0. -1.
         -2   -1    0    0    0  501 -0.00000000000E+00 -0.00000000000E+00 -0.33496608247E+00  0.33496608247E+00  0.00000000000E+00 0.  1.
         21    1    1    2  502  501  0.15493311692E+01 -0.21841070898E+02  0.48678661851E+03  0.48727881625E+03  0.00000000000E+00 0.  1.
         21    1    1    2  503  502 -0.15493311692E+01  0.21841070898E+02  0.13486447943E+04  0.13488225288E+04  0.00000000000E+00 0. -1.
</event>
<event>
 4    1  0.5696713E+002  0.2110317E+02  0.7546771E-02  0.1517797E+00
          2   -1    0    0  503    0  0.00000000000E+00  0.00000000000E+00  0.10410290721E+04  0.10410290721E+04  0.00000000000E+00 0. -1.
         -2   -1    0    0    0  501 -0.00000000000E+00 -0.00000000000E+00 -0.58585955769E+00  0.58585955769E+00  0.00000000000E+00 0.  1.
         21    1    1    2  502  501 -0.20319470579E+02 -0.56976252640E+01  0.24970001550E+03  0.25059018648E+03  0.00000000000E+00 0.  1.
         21    1    1    2  503  502  0.20319470579E+02  0.56976252640E+01  0.79074319704E+03  0.79102474518E+03  0.00000000000E+00 0. -1.
</event>
<event>
 4    1  0.5696713E+002  0.2779809E+02  0.7546771E-02  0.1439752E+00
          2   -1    0    0  503    0  0.00000000000E+00  0.00000000000E+00  0.71783819674E+02  0.71783819674E+02  0.00000000000E+00 0. -1.
         -2   -1    0    0    0  501 -0.00000000000E+00 -0.00000000000E+00 -0.65918680682E+02  0.65918680682E+02  0.00000000000E+00 0.  1.
         21    1    1    2  502  501  0.24285941907E+02 -0.13525036218E+02 -0.60046448204E+02  0.66168795674E+02  0.00000000000E+00 0.  1.
         21    1    1    2  503  502 -0.24285941907E+02  0.13525036218E+02  0.65911587196E+02  0.71533704683E+02  0.00000000000E+00 0. -1.
</event>
<event>
 4    1  0.5696713E+002  0.2249031E+02  0.7546771E-02  0.1498999E+00
          2   -1    0    0  502    0  0.00000000000E+00  0.00000000000E+00  0.28092146995E+01  0.28092146995E+01  0.00000000000E+00 0. -1.
         -2   -1    0    0    0  501 -0.00000000000E+00 -0.00000000000E+00 -0.19728567887E+03  0.19728567887E+03  0.00000000000E+00 0.  1.
         21    1    1    2  502  503  0.17162467847E+02  0.14534920942E+02 -0.67671413684E+02  0.71310829888E+02  0.00000000000E+00 0. -1.
         21    1    1    2  503  501 -0.17162467847E+02 -0.14534920942E+02 -0.12680505049E+03  0.12878406368E+03  0.00000000000E+00 0.  1.
</event>
<event>
 4    1  0.5696713E+002  0.2213855E+02  0.7546771E-02  0.1503608E+00
          2   -1    0    0  502    0  0.00000000000E+00  0.00000000000E+00  0.12153242909E+02  0.12153242909E+02  0.00000000000E+00 0. -1.
         -2   -1    0    0    0  501 -0.00000000000E+00 -0.00000000000E+00 -0.73108857711E+02  0.73108857711E+02  0.00000000000E+00 0.  1.
         21    1    1    2  502  503  0.18765356747E+02 -0.11746350434E+02 -0.19313956030E+01  0.22222638263E+02  0.00000000000E+00 0. -1.
         21    1    1    2  503  501 -0.18765356747E+02  0.11746350434E+02 -0.59024219199E+02  0.63039462358E+02  0.00000000000E+00 0.  1.
</event>
<event>
 4    1  0.5696713E+002  0.2540532E+02  0.7546771E-02  0.1464320E+00
          2   -1    0    0  502    0  0.00000000000E+00  0.00000000000E+00  0.54878777524E+03  0.54878777524E+03  0.00000000000E+00 0.  1.
         -2   -1    0    0    0  501 -0.00000000000E+00 -0.00000000000E+00 -0.21838994052E+01  0.21838994052E+01  0.00000000000E+00 0. -1.
         21    1    1    2  502  503 -0.25358431650E+02 -0.15427206952E+01  0.46044327147E+03  0.46114361785E+03  0.00000000000E+00 0.  1.
         21    1    1    2  503  501  0.25358431650E+02  0.15427206952E+01  0.86160604366E+02  0.89828056795E+02  0.00000000000E+00 0. -1.
</event>
<event>
 4    1  0.5696713E+002  0.2971879E+02  0.7546771E-02  0.1422056E+00
          2   -1    0    0  502    0  0.00000000000E+00  0.00000000000E+00  0.42785481898E+03  0.42785481898E+03  0.00000000000E+00 0. -1.
         -2   -1    0    0    0  501 -0.00000000000E+00 -0.00000000000E+00 -0.30858094180E+01  0.30858094180E+01  0.00000000000E+00 0.  1.
         21    1    1    2  502  503  0.55702388592E+01  0.29192105729E+02  0.33635864074E+03  0.33766898259E+03  0.00000000000E+00 0. -1.
         21    1    1    2  503  501 -0.55702388592E+01 -0.29192105729E+02  0.88410368814E+02  0.93271645808E+02  0.00000000000E+00 0.  1.
</event>
<event>
 4    1  0.5696713E+002  0.2687017E+02  0.7546771E-02  0.1448917E+00
          2   -1    0    0  502    0  0.00000000000E+00  0.00000000000E+00  0.90580381593E+03  0.90580381593E+03  0.00000000000E+00 0.  1.
         -2   -1    0    0    0  501 -0.00000000000E+00 -0.00000000000E+00 -0.11281192173E+01  0.11281192173E+01  0.00000000000E+00 0. -1.
         21    1    1    2  502  503  0.55833128278E-01  0.26870112558E+02  0.69797901911E+03  0.69849603949E+03  0.00000000000E+00 0.  1.
         21    1    1    2  503  501 -0.55833128278E-01 -0.26870112558E+02  0.20669667761E+03  0.20843589566E+03  0.00000000000E+00 0. -1.
</event>
<event>
 4    1  0.5696713E+002  0.3233194E+02  0.7546771E-02  0.1400358E+00
          2   -1    0    0  503    0  0.00000000000E+00  0.00000000000E+00  0.14614479857E+03  0.14614479857E+03  0.00000000000E+00 0. -1.
         -2   -1    0    0    0  501 -0.00000000000E+00 -0.00000000000E+00 -0.11911875267E+02  0.11911875267E+02  0.00000000000E+00 0.  1.
         21    1    1    2  502  501 -0.19131480097E+01  0.32275288948E+02  0.17164681387E+02  0.36605746804E+02  0.00000000000E+00 0.  1.
         21    1    1    2  503  502  0.19131480097E+01 -0.32275288948E+02  0.11706824191E+03  0.12145092703E+03  0.00000000000E+00 0. -1.
</event>
<event>
 4    1  0.5696713E+002  0.2580427E+02  0.7546771E-02  0.1460004E+00
          2   -1    0    0  502    0  0.00000000000E+00  0.00000000000E+00  0.20127762974E+04  0.20127762974E+04  0.00000000000E+00 0. -1.
         -2   -1    0    0    0  501 -0.00000000000E+00 -0.00000000000E+00 -0.33137347466E+00  0.33137347466E+00  0.00000000000E+00 0.  1.
         21    1    1    2  502  503 -0.74284218717E+01  0.24711918554E+02  0.10474747996E+04  0.10477925921E+04  0.00000000000E+00 0.  1.
         21    1    1    2  503  501  0.74284218717E+01 -0.24711918554E+02  0.96497012428E+03  0.96531507868E+03  0.00000000000E+00 0. -1.
</event>
<event>
 4    1  0.5696713E+002  0.2691826E+02  0.7546771E-02  0.1448431E+00
          2   -1    0    0  503    0  0.00000000000E+00  0.00000000000E+00  0.14935443832E+04  0.14935443832E+04  0.00000000000E+00 0. -1.
         -2   -1    0    0    0  501 -0.00000000000E+00 -0.00000000000E+00 -0.15786792445E+01  0.15786792445E+01  0.00000000000E+00 0.  1.
         21    1    1    2  502  501  0.66009319024E+01  0.26096370079E+02  0.12380402738E+03  0.12669660623E+03  0.00000000000E+00 0.  1.
         21    1    1    2  503  502 -0.66009319024E+01 -0.26096370079E+02  0.13681616766E+04  0.13684264562E+04  0.00000000000E+00 0. -1.
</event>
<event>
 4    1  0.5696713E+002  0.3104189E+02  0.7546771E-02  0.1410753E+00
          2   -1    0    0  502    0  0.00000000000E+00  0.00000000000E+00  0.81894533639E+01  0.81894533639E+01  0.00000000000E+00 0.  1.
         -2   -1    0    0    0  501 -0.00000000000E+00 -0.00000000000E+00 -0.32267255780E+03  0.32267255780E+03  0.00000000000E+00 0. -1.
         21    1    1    2  502  503  0.28322851488E+02  0.12704922289E+02 -0.25378683604E+02  0.40095842032E+02  0.00000000000E+00 0.  1.
         21    1    1    2  503  501 -0.28322851488E+02 -0.12704922289E+02 -0.28910442084E+03  0.29076616914E+03  0.00000000000E+00 0. -1.
</event>
<event>
 4    1  0.5696713E+002  0.2883258E+02  0.7546771E-02  0.1430020E+00
          2   -1    0    0  502    0  0.00000000000E+00  0.00000000000E+00  0.19230246294E+03  0.19230246294E+03  0.00000000000E+00 0. -1.
         -2   -1    0    0    0  501 -0.00000000000E+00 -0.00000000000E+00 -0.13398203141E+02  0.13398203141E+02  0.00000000000E+00 0.  1.
         21    1    1    2  502  503 -0.18449463747E+02 -0.22157045976E+02  0.17409908995E+03  0.17647042393E+03  0.00000000000E+00 0. -1.
         21    1    1    2  503  501  0.18449463747E+02  0.22157045976E+02  0.48051698430E+01  0.29230242150E+02  0.00000000000E+00 0.  1.
</event>
<event>
 4    1  0.5696713E+002  0.2004219E+02  0.7546771E-02  0.1533392E+00
          2   -1    0    0  502    0  0.00000000000E+00  0.00000000000E+00  0.28688328197E+02  0.28688328197E+02  0.00000000000E+00 0.  1.
         -2   -1    0    0    0  501 -0.00000000000E+00 -0.00000000000E+00 -0.25958618217E+02  0.25958618217E+02  0.00000000000E+00 0. -1.
         21    1    1    2  502  503  0.48977715655E+01 -0.19434539270E+02  0.19908800415E+02  0.28249775520E+02  0.00000000000E+00 0.  1.
         21    1    1    2  503  501 -0.48977715655E+01  0.19434539270E+02 -0.17179090435E+02  0.26397170893E+02  0.00000000000E+00 0. -1.
</event>
<event>
 4    1  0.5696713E+002  0.2402644E+02  0.7546771E-02  0.1479996E+00
          2   -1    0    0  502    0  0.00000000000E+00  0.00000000000E+00  0.35378158322E+02  0.35378158322E+02  0.00000000000E+00 0.  1.
         -2   -1    0    0    0  501 -0.00000000000E+00 -0.00000000000E+00 -0.55838070066E+02  0.55838070066E+02  0.00000000000E+00 0. -1.
         21    1    1    2  502  503  0.83132083093E+01  0.22542408132E+02  0.28139939315E+02  0.37001699710E+02  0.00000000000E+00 0.  1.
         21    1    1    2  503  501 -0.83132083093E+01 -0.22542408132E+02 -0.48599851059E+02  0.54214528678E+02  0.00000000000E+00 0. -1.
</event>
<event>
 4    1  0.5696713E+002  0.2046576E+02  0.7546771E-02  0.1527031E+00
          2   -1    0    0  503    0  0.00000000000E+00  0.00000000000E+00  0.11850501558E+03  0.11850501558E+03  0.00000000000E+00 0.  1.
         -2   -1    0    0    0  501 -0.00000000000E+00 -0.00000000000E+00 -0.14304057911E+02  0.14304057911E+02  0.00000000000E+00 0. -1.
         21    1    1    2  502  501  0.12892088696E+02 -0.15894692730E+02 -0.55188972735E+01  0.21196826061E+02  0.00000000000E+00 0. -1.
         21    1    1    2  503  502 -0.12892088696E+02  0.15894692730E+02  0.10971985495E+03  0.11161224743E+03  0.00000000000E+00 0.  1.
</event>
<event>
 4    1  0.5696713E+002  0.2816711E+02  0.7546771E-02  0.1436224E+00
          2   -1    0    0  503    0  0.00000000000E+00  0.00000000000E+00  0.71809749354E+03  0.71809749354E+03  0.00000000000E+00 0. -1.
         -2   -1    0    0    0  501 -0.00000000000E+00 -0.00000000000E+00 -0.12726867763E+01  0.12726867763E+01  0.00000000000E+00 0.  1.
         21    1    1    2  502  501 -0.26271660701E+02 -0.10158034957E+02  0.22779147222E+03  0.22952633976E+03  0.00000000000E+00 0.  1.
         21    1    1    2  503  502  0.26271660701E+02  0.10158034957E+02  0.48903333455E+03  0.48984384056E+03  0.00000000000E+00 0. -1.
</event>
<event>
 4    1  0.5696713E+002  0.2009249E+02  0.7546771E-02  0.1532627E+00
          2   -1    0    0  502    0  0.00000000000E+00  0.00000000000E+00  0.10906488929E+04  0.10906488929E+04  0.00000000000E+00 0. -1.
         -2   -1    0    0    0  501 -0.00000000000E+00 -0.00000000000E+00 -0.38759511471E+00  0.38759511471E+00  0.00000000000E+00 0.  1.
         21    1    1    2  502  503 -0.29648970486E+01  0.19872534027E+02  0.66084981029E+03  0.66115518600E+03  0.00000000000E+00 0. -1.
         21    1    1    2  503  501  0.29648970486E+01 -0.19872534027E+02  0.42941148746E+03  0.42988130197E+03  0.00000000000E+00 0.  1.
</event>
<event>
 4    1  0.5696713E+002  0.2900408E+02  0.7546771E-02  0.1428453E+00
          2   -1    0    0  502    0  0.00000000000E+00  0.00000000000E+00  0.39681822628E+03  0.39681822628E+03  0.00000000000E+00 0.  1.
         -2   -1    0    0    0  501 -0.00000000000E+00 -0.00000000000E+00 -0.25601720481E+01  0.25601720481E+01  0.00000000000E+00 0. -1.
         21    1    1    2  502  503 -0.28732209967E+02 -0.39619289460E+01  0.27993343261E+03  0.28143198728E+03  0.00000000000E+00 0.  1.
         21    1    1    2  503  501  0.28732209967E+02  0.39619289460E+01  0.11432462162E+03  0.11794641105E+03  0.00000000000E+00 0. -1.
</event>
<event>
 4    1  0.5696713E+002  0.2133017E+02  0.7546771E-02  0.1514603E+00
          2   -1    0    0  503    0  0.00000000000E+00  0.00000000000E+00  0.70370229678E+03  0.70370229678E+03  0.00000000000E+00 0.  1.
         -2   -1    0    0    0  501 -0.00000000000E+00 -0.00000000000E+00 -0.91779157684E+00  0.91779157684E+00  0.00000000000E+00 0. -1.
         21    1    1    2  502  501  0.74624186817E+01  0.19982202350E+02  0.54292105722E+03  0.54333990326E+03  0.00000000000E+00 0.  1.
         21    1    1    2  503  502 -0.74624186817E+01 -0.19982202350E+02  0.15986344798E+03  0.16128018509E+03  0.00000000000E+00 0. -1.
</event>
<event>
 4    1  0.5696713E+002  0.2149629E+02  0.7546771E-02  0.1512296E+00
          2   -1    0    0  503    0  0.00000000000E+00  0.00000000000E+00  0.30107787623E+02  0.30107787623E+02  0.00000000000E+00 0.  1.
         -2   -1    0    0    0  501 -0.00000000000E+00 -0.00000000000E+00 -0.26789306805E+02  0.26789306805E+02  0.00000000000E+00 0. -1.
         21    1    1    2  502  501  0.10902762065E+02  0.18526207272E+02 -0.16932478024E+02  0.27364199030E+02  0.00000000000E+00 0. -1.
         21    1    1    2  503  502 -0.10902762065E+02 -0.18526207272E+02  0.20250958842E+02  0.29532895398E+02  0.00000000000E+00 0.  1.
</event>
<event>
 4    1  0.5696713E+002  0.4537135E+02  0.7546771E-02  0.1319593E+00
          2   -1    0    0  503    0  0.00000000000E+00  0.00000000000E+00  0.10188605267E+04  0.10188605267E+04  0.00000000000E+00 0. -1.
         -2   -1    0    0    0  501 -0.00000000000E+00 -0.00000000000E+00 -0.21401252164E+01  0.21401252164E+01  0.00000000000E+00 0.  1.
         21    1    1    2  502  501  0.14180877180E+02  0.43098279708E+02  0.38764149999E+03  0.39028770350E+03  0.00000000000E+00 0. -1.
         21    1    1    2  503  502 -0.14180877180E+02 -0.43098279708E+02  0.62907890148E+03  0.63071294840E+03  0.00000000000E+00 0.  1.
</event>
<event>
 4    1  0.5696713E+002  0.3301475E+02  0.7546771E-02  0.1395084E+00
          2   -1    0    0  502    0  0.00000000000E+00  0.00000000000E+00  0.90189969725E+03  0.90189969725E+03  0.00000000000E+00 0. -1.
         -2   -1    0    0    0  501 -0.00000000000E+00 -0.00000000000E+00 -0.12618280849E+01  0.12618280849E+01  0.00000000000E+00 0.  1.
         21    1    1    2  502  503  0.21483969308E+02 -0.25068164904E+02  0.54312720476E+03  0.54412970364E+03  0.00000000000E+00 0. -1.
         21    1    1    2  503  501 -0.21483969308E+02  0.25068164904E+02  0.35751066441E+03  0.35903182170E+03  0.00000000000E+00 0.  1.
</event>
<event>
 4    1  0.5696713E+002  0.2088176E+02  0.7546771E-02  0.1520960E+00
          2   -1    0    0  503    0  0.00000000000E+00  0.00000000000E+00  0.48003697915E+02  0.48003697915E+02  0.00000000000E+00 0. -1.
         -2   -1    0    0    0  501 -0.00000000000E+00 -0.00000000000E+00 -0.14072342330E+02  0.14072342330E+02  0.00000000000E+00 0.  1.
         21    1    1    2  502  501  0.20555607292E+02  0.36762524640E+01 -0.15144534788E+01  0.20936604134E+02  0.00000000000E+00 0. -1.
         21    1    1    2  503  502 -0.20555607292E+02 -0.36762524640E+01  0.35445809064E+02  0.41139436111E+02  0.00000000000E+00 0.  1.
</event>
<event>
 4    1  0.5696713E+002  0.2250512E+02  0.7546771E-02  0.1498808E+00
          2   -1    0    0  503    0  0.00000000000E+00  0.00000000000E+00  0.18621733729E+03  0.18621733729E+03  0.00000000000E+00 0. -1.
         -2   -1    0    0    0  501 -0.00000000000E+00 -0.00000000000E+00 -0.57060594111E+01  0.57060594111E+01  0.00000000000E+00 0.  1.
         21    1    1    2  502  501  0.22485279586E+02 -0.94470404197E+00  0.20834606675E+02  0.30668568585E+02  0.00000000000E+00 0.  1.
         21    1    1    2  503  502 -0.22485279586E+02  0.94470404197E+00  0.15967667121E+03  0.16125482812E+03  0.00000000000E+00 0. -1.
</event>
<event>
 4    1  0.5696713E+002  0.2737128E+02  0.7546771E-02  0.1443914E+00
          2   -1    0    0  502    0  0.00000000000E+00  0.00000000000E+00  0.29862484633E+01  0.29862484633E+01  0.00000000000E+00 0. -1.
         -2   -1    0    0    0  501 -0.00000000000E+00 -0.00000000000E+00 -0.25148956633E+03  0.25148956633E+03  0.00000000000E+00 0.  1.
         21    1    1    2  502  503 -0.19116320599E+02  0.19589627868E+02 -0.11798265510E+03  0.12111603584E+03  0.00000000000E+00 0. -1.
         21    1    1    2  503  501  0.19116320599E+02 -0.19589627868E+02 -0.13052066276E+03  0.13335977895E+03  0.00000000000E+00 0.  1.
</event>
<event>
 4    1  0.5696713E+002  0.4340996E+02  0.7546771E-02  0.1329584E+00
          2   -1    0    0  503    0  0.00000000000E+00  0.00000000000E+00  0.39750451943E+03  0.39750451943E+03  0.00000000000E+00 0. -1.
         -2   -1    0    0    0  501 -0.00000000000E+00 -0.00000000000E+00 -0.12652901501E+03  0.12652901501E+03  0.00000000000E+00 0.  1.
         21    1    1    2  502  501  0.35178277380E+02 -0.25434485189E+02 -0.12157369335E+03  0.12909139069E+03  0.00000000000E+00 0.  1.
         21    1    1    2  503  502 -0.35178277380E+02  0.25434485189E+02  0.39254919777E+03  0.39494214374E+03  0.00000000000E+00 0. -1.
</event>
<event>
 4    1  0.5696713E+002  0.5215698E+02  0.7546771E-02  0.1289082E+00
          2   -1    0    0  503    0  0.00000000000E+00  0.00000000000E+00  0.26978130521E+04  0.26978130521E+04  0.00000000000E+00 0. -1.
         -2   -1    0    0    0  501 -0.00000000000E+00 -0.00000000000E+00 -0.17745747990E+01  0.17745747990E+01  0.00000000000E+00 0.  1.
         21    1    1    2  502  501  0.51857649935E+02 -0.55798837599E+01  0.46107318210E+03  0.46401382545E+03  0.00000000000E+00 0.  1.
         21    1    1    2  503  502 -0.51857649935E+02  0.55798837599E+01  0.22349652952E+04  0.22355738015E+04  0.00000000000E+00 0. -1.
</event>
<event>
 4    1  0.5696713E+002  0.2174793E+02  0.7546771E-02  0.1508849E+00
          2   -1    0    0  502    0  0.00000000000E+00  0.00000000000E+00  0.47605103611E+02  0.47605103611E+02  0.00000000000E+00 0. -1.
         -2   -1    0    0    0  501 -0.00000000000E+00 -0.00000000000E+00 -0.38211559244E+02  0.38211559244E+02  0.00000000000E+00 0.  1.
         21    1    1    2  502  503  0.20114770595E+02 -0.82685213996E+01  0.41607702300E+02  0.46948624398E+02  0.00000000000E+00 0. -1.
         21    1    1    2  503  501 -0.20114770595E+02  0.82685213996E+01 -0.32214157932E+02  0.38868038457E+02  0.00000000000E+00 0.  1.
</event>
<event>
 4    1  0.5696713E+002  0.3802621E+02  0.7546771E-02  0.1360457E+00
          2   -1    0    0  503    0  0.00000000000E+00  0.00000000000E+00  0.29679909075E+04  0.29679909075E+04  0.00000000000E+00 0.  1.
         -2   -1    0    0    0  501 -0.00000000000E+00 -0.00000000000E+00 -0.54992904750E+00  0.54992904750E+00  0.00000000000E+00 0. -1.
         21    1    1    2  502  501 -0.37607675747E+02  0.56262935727E+01  0.98240759088E+03  0.98314325867E+03  0.00000000000E+00 0. -1.
         21    1    1    2  503  502  0.37607675747E+02 -0.56262935727E+01  0.19850333876E+04  0.19853975779E+04  0.00000000000E+00 0.  1.
</event>
<event>
 4    1  0.5696713E+002  0.5502755E+02  0.7546771E-02  0.1277732E+00
          2   -1    0    0  503    0  0.00000000000E+00  0.00000000000E+00  0.29733735209E+04  0.29733735209E+04  0.00000000000E+00 0. -1.
         -2   -1    0    0    0  501 -0.00000000000E+00 -0.00000000000E+00 -0.13317849631E+01  0.13317849631E+01  0.00000000000E+00 0.  1.
         21    1    1    2  502  501 -0.34875202559E+02  0.42564668548E+02  0.76450101168E+03  0.76647885008E+03  0.00000000000E+00 0.  1.
         21    1    1    2  503  502  0.34875202559E+02 -0.42564668548E+02  0.22075407242E+04  0.22082264558E+04  0.00000000000E+00 0. -1.
</event>
<event>
 4    1  0.5696713E+002  0.2918313E+02  0.7546771E-02  0.1426830E+00
          2   -1    0    0  503    0  0.00000000000E+00  0.00000000000E+00  0.70484420233E+03  0.70484420233E+03  0.00000000000E+00 0.  1.
         -2   -1    0    0    0  501 -0.00000000000E+00 -0.00000000000E+00 -0.13757535139E+01  0.13757535139E+01  0.00000000000E+00 0. -1.
         21    1    1    2  502  501 -0.28123288737E+02 -0.77933123308E+01  0.22853674424E+03  0.23039248806E+03  0.00000000000E+00 0. -1.
         21    1    1    2  503  502  0.28123288737E+02  0.77933123308E+01  0.47493170457E+03  0.47582746778E+03  0.00000000000E+00 0.  1.
</event>
<event>
 4    1  0.5696713E+002  0.2956520E+02  0.7546771E-02  0.1423413E+00
          2   -1    0    0  503    0  0.00000000000E+00  0.00000000000E+00  0.17262968416E+04  0.17262968416E+04  0.00000000000E+00 0. -1.
         -2   -1    0    0    0  501 -0.00000000000E+00 -0.00000000000E+00 -0.80959707959E+00  0.80959707959E+00  0.00000000000E+00 0.  1.
         21    1    1    2  502  501  0.29279162570E+02 -0.41026162607E+01  0.33422909356E+03  0.33553418276E+03  0.00000000000E+00 0.  1.
         21    1    1    2  503  502 -0.29279162570E+02  0.41026162607E+01  0.13912581510E+04  0.13915722559E+04  0.00000000000E+00 0. -1.
</event>
<event>
 4    1  0.5696713E+002  0.4499421E+02  0.7546771E-02  0.1321468E+00
          2   -1    0    0  503    0  0.00000000000E+00  0.00000000000E+00  0.86535446328E+03  0.86535446328E+03  0.00000000000E+00 0. -1.
         -2   -1    0    0    0  501 -0.00000000000E+00 -0.00000000000E+00 -0.34874056611E+01  0.34874056611E+01  0.00000000000E+00 0.  1.
         21    1    1    2  502  501  0.10115283063E+02 -0.43842445051E+02  0.18169423776E+03  0.18718246438E+03  0.00000000000E+00 0. -1.
         21    1    1    2  503  502 -0.10115283063E+02  0.43842445051E+02  0.68017281987E+03  0.68165940456E+03  0.00000000000E+00 0.  1.
</event>
<event>
 4    1  0.5696713E+002  0.2513760E+02  0.7546771E-02  0.1467270E+00
          2   -1    0    0  503    0  0.00000000000E+00  0.00000000000E+00  0.79075703898E+03  0.79075703898E+03  0.00000000000E+00 0. -1.
         -2   -1    0    0    0  501 -0.00000000000E+00 -0.00000000000E+00 -0.10113477937E+01  0.10113477937E+01  0.00000000000E+00 0.  1.
         21    1    1    2  502  501  0.88158422554E+01 -0.23541019971E+02  0.21351625286E+03  0.21499090430E+03  0.00000000000E+00 0.  1.
         21    1    1    2  503  502 -0.88158422554E+01  0.23541019971E+02  0.57622943833E+03  0.57677748247E+03  0.00000000000E+00 0. -1.
</event>
<event>
 4    1  0.5696713E+002  0.2235502E+02  0.7546771E-02  0.1500760E+00
          2   -1    0    0  502    0  0.00000000000E+00  0.00000000000E+00  0.17829560841E+04  0.17829560841E+04  0.00000000000E+00 0. -1.
         -2   -1    0    0    0  501 -0.00000000000E+00 -0.00000000000E+00 -0.30265900799E+00  0.30265900799E+00  0.00000000000E+00 0.  1.
         21    1    1    2  502  503  0.36761673427E+01  0.22050690157E+02  0.64893489371E+03  0.64931983137E+03  0.00000000000E+00 0. -1.
         21    1    1    2  503  501 -0.36761673427E+01 -0.22050690157E+02  0.11337185314E+04  0.11339389117E+04  0.00000000000E+00 0.  1.
</event>
<event>
 4    1  0.5696713E+002  0.2031631E+02  0.7546771E-02  0.1529254E+00
          2   -1    0    0  503    0  0.00000000000E+00  0.00000000000E+00  0.11803849570E+04  0.11803849570E+04  0.00000000000E+00 0. -1.
         -2   -1    0    0    0  501 -0.00000000000E+00 -0.00000000000E+00 -0.36755892655E+00  0.36755892655E+00  0.00000000000E+00 0.  1.
         21    1    1    2  502  501 -0.70463405245E+01  0.19055228052E+02  0.45978765037E+03  0.46023628286E+03  0.00000000000E+00 0.  1.
         21    1    1    2  503  502  0.70463405245E+01 -0.19055228052E+02  0.72022974767E+03  0.72051623303E+03  0.00000000000E+00 0. -1.
</event>
<event>
 4    1  0.5696713E+002  0.4126038E+02  0.7546771E-02  0.1341254E+00
          2   -1    0    0  502    0  0.00000000000E+00  0.00000000000E+00  0.98168189577E+03  0.98168189577E+03  0.00000000000E+00 0. -1.
         -2   -1    0    0    0  501 -0.00000000000E+00 -0.00000000000E+00 -0.25127114596E+01  0.25127114596E+01  0.00000000000E+00 0.  1.
         21    1    1    2  502  503  0.12326183349E+02  0.39376192821E+02  0.76349969812E+03  0.76461376419E+03  0.00000000000E+00 0. -1.
         21    1    1    2  503  501 -0.12326183349E+02 -0.39376192821E+02  0.21566948618E+03  0.21958084303E+03  0.00000000000E+00 0.  1.
</event>
<event>
 4    1  0.5696713E+002  0.3124876E+02  0.7546771E-02  0.1409046E+00
          2   -1    0    0  503    0  0.00000000000E+00  0.00000000000E+00  0.25954186745E+03  0.25954186745E+03  0.00000000000E+00 0. -1.
         -2   -1    0    0    0  501 -0.00000000000E+00 -0.00000000000E+00 -0.37637076180E+01  0.37637076180E+01  0.00000000000E+00 0.  1.
         21    1    1    2  502  501 -0.28808701777E+02  0.12105512117E+02  0.12537938129E+03  0.12921483651E+03  0.00000000000E+00 0.  1.
         21    1    1    2  503  502  0.28808701777E+02 -0.12105512117E+02  0.13039877854E+03  0.13409073855E+03  0.00000000000E+00 0. -1.
</event>
<event>
 4    1  0.5696713E+002  0.2809953E+02  0.7546771E-02  0.1436865E+00
          2   -1    0    0  503    0  0.00000000000E+00  0.00000000000E+00  0.14210264685E+02  0.14210264685E+02  0.00000000000E+00 0. -1.
         -2   -1    0    0    0  501 -0.00000000000E+00 -0.00000000000E+00 -0.59518127447E+02  0.59518127447E+02  0.00000000000E+00 0.  1.
         21    1    1    2  502  501 -0.23104265879E+02  0.15993017940E+02 -0.32155335231E+02  0.42703036291E+02  0.00000000000E+00 0.  1.
         21    1    1    2  503  502  0.23104265879E+02 -0.15993017940E+02 -0.13152527530E+02  0.31025355841E+02  0.00000000000E+00 0. -1.
</event>
<event>
 4    1  0.5696713E+002  0.2148722E+02  0.7546771E-02  0.1512421E+00
          2   -1    0    0  503    0  0.00000000000E+00  0.00000000000E+00  0.90056508808E+02  0.90056508808E+02  0.00000000000E+00 0. -1.
         -2   -1    0    0    0  501 -0.00000000000E+00 -0.00000000000E+00 -0.10287550952E+02  0.10287550952E+02  0.00000000000E+00 0.  1.
         21    1    1    2  502  501  0.12121983849E+02 -0.17741421045E+02  0.43489583340E+01  0.21922909290E+02  0.00000000000E+00 0.  1.
         21    1    1    2  503  502 -0.12121983849E+02  0.17741421045E+02  0.75419999522E+02  0.78421150470E+02  0.00000000000E+00 0. -1.
</event>
<event>
 4    1  0.5696713E+002  0.2249821E+02  0.7546771E-02  0.1498897E+00
          2   -1    0    0  503    0  0.00000000000E+00  0.00000000000E+00  0.13302821345E+04  0.13302821345E+04  0.00000000000E+00 0.  1.
         -2   -1    0    0    0  501 -0.00000000000E+00 -0.00000000000E+00 -0.57356390735E+00  0.57356390735E+00  0.00000000000E+00 0. -1.
         21    1    1    2  502  501  0.49755494511E+01  0.21941136371E+02  0.27878702470E+03  0.27969335834E+03  0.00000000000E+00 0. -1.
         21    1    1    2  503  502 -0.49755494511E+01 -0.21941136371E+02  0.10509215458E+04  0.10511623400E+04  0.00000000000E+00 0.  1.
</event>
<event>
 4    1  0.5696713E+002  0.2764465E+02  0.7546771E-02  0.1441238E+00
          2   -1    0    0  502    0  0.00000000000E+00  0.00000000000E+00  0.15230793633E+04  0.15230793633E+04  0.00000000000E+00 0. -1.
         -2   -1    0    0    0  501 -0.00000000000E+00 -0.00000000000E+00 -0.20094102960E+01  0.20094102960E+01  0.00000000000E+00 0.  1.
         21    1    1    2  502  503 -0.11101695092E+02 -0.25317560677E+02  0.14210467120E+04  0.14213155822E+04  0.00000000000E+00 0. -1.
         21    1    1    2  503  501  0.11101695092E+02  0.25317560677E+02  0.10002324108E+03  0.10377319147E+03  0.00000000000E+00 0.  1.
</event>
<event>
 4    1  0.5696713E+002  0.2095548E+02  0.7546771E-02  0.1519901E+00
          2   -1    0    0  503    0  0.00000000000E+00  0.00000000000E+00  0.42362247578E+01  0.42362247578E+01  0.00000000000E+00 0.  1.
         -2   -1    0    0    0  501 -0.00000000000E+00 -0.00000000000E+00 -0.12419898117E+03  0.12419898117E+03  0.00000000000E+00 0. -1.
         21    1    1    2  502  501  0.17785646044E+02  0.11081655390E+02 -0.86095261680E+02  0.88608839147E+02  0.00000000000E+00 0. -1.
         21    1    1    2  503  502 -0.17785646044E+02 -0.11081655390E+02 -0.33867494729E+02  0.39826366776E+02  0.00000000000E+00 0.  1.
</event>
<event>
 4    1  0.5696713E+002  0.2242353E+02  0.7546771E-02  0.1499867E+00
          2   -1    0    0  503    0  0.00000000000E+00  0.00000000000E+00  0.22176876149E+02  0.22176876149E+02  0.00000000000E+00 0.  1.
         -2   -1    0    0    0  501 -0.00000000000E+00 -0.00000000000E+00 -0.86325301859E+02  0.86325301859E+02  0.00000000000E+00 0. -1.
         21    1    1    2  502  501  0.21360190865E+02  0.68232548317E+01 -0.78659280879E+02  0.81793013325E+02  0.00000000000E+00 0. -1.
         21    1    1    2  503  502 -0.21360190865E+02 -0.68232548317E+01  0.14510855169E+02  0.26709164683E+02  0.00000000000E+00 0.  1.
</event>
<event>
 4    1  0.5696713E+002  0.2565770E+02  0.7546771E-02  0.1461578E+00
          2   -1    0    0  502    0  0.00000000000E+00  0.00000000000E+00  0.62127133824E+03  0.62127133824E+03  0.00000000000E+00 0. -1.
         -2   -1    0    0    0  501 -0.00000000000E+00 -0.00000000000E+00 -0.10604265109E+01  0.10604265109E+01  0.00000000000E+00 0.  1.
         21    1    1    2  502  503 -0.24349195436E+02 -0.80891556224E+01  0.30157752566E+03  0.30266701462E+03  0.00000000000E+00 0.  1.
         21    1    1    2  503  501  0.24349195436E+02  0.80891556224E+01  0.31863338608E+03  0.31966475014E+03  0.00000000000E+00 0. -1.
</event>
<event>
 4    1  0.5696713E+002  0.2041502E+02  0.7546771E-02  0.1527783E+00
          2   -1    0    0  503    0  0.00000000000E+00  0.00000000000E+00  0.59064318273E+01  0.59064318273E+01  0.00000000000E+00 0. -1.
         -2   -1    0    0    0  501 -0.00000000000E+00 -0.00000000000E+00 -0.28208589058E+03  0.28208589058E+03  0.00000000000E+00 0.  1.
         21    1    1    2  502  501  0.97013546778E+01  0.17962651211E+02 -0.26278194466E+03  0.26357375355E+03  0.00000000000E+00 0.  1.
         21    1    1    2  503  502 -0.97013546778E+01 -0.17962651211E+02 -0.13397514090E+02  0.24418568855E+02  0.00000000000E+00 0. -1.
</event>
<event>
 4    1  0.5696713E+002  0.3446457E+02  0.7546771E-02  0.1384367E+00
          2   -1    0    0  503    0  0.00000000000E+00  0.00000000000E+00  0.24814889010E+03  0.24814889010E+03  0.00000000000E+00 0.  1.
         -2   -1    0    0    0  501 -0.00000000000E+00 -0.00000000000E+00 -0.50659769777E+01  0.50659769777E+01  0.00000000000E+00 0. -1.
         21    1    1    2  502  501 -0.27647780532E+02 -0.20576855202E+02  0.15126967168E+03  0.15514612567E+03  0.00000000000E+00 0.  1.
         21    1    1    2  503  502  0.27647780532E+02  0.20576855202E+02  0.91813241435E+02  0.98068741406E+02  0.00000000000E+00 0. -1.
</event>
<event>
 4    1  0.5696713E+002  0.2416884E+02  0.7546771E-02  0.1478320E+00
          2   -1    0    0  503    0  0.00000000000E+00  0.00000000000E+00  0.49201493667E+03  0.49201493667E+03  0.00000000000E+00 0.  1.
         -2   -1    0    0    0  501 -0.00000000000E+00 -0.00000000000E+00 -0.30660824931E+01  0.30660824931E+01  0.00000000000E+00 0. -1.
         21    1    1    2  502  501  0.75192671057E+01  0.22969406960E+02  0.50697911470E+02  0.56164145692E+02  0.00000000000E+00 0. -1.
         21    1    1    2  503  502 -0.75192671057E+01 -0.22969406960E+02  0.43825094271E+03  0.43891687347E+03  0.00000000000E+00 0.  1.
</event>
<event>
 4    1  0.5696713E+002  0.3389250E+02  0.7546771E-02  0.1388521E+00
          2   -1    0    0  503    0  0.00000000000E+00  0.00000000000E+00  0.11310521796E+04  0.11310521796E+04  0.00000000000E+00 0.  1.
         -2   -1    0    0    0  501 -0.00000000000E+00 -0.00000000000E+00 -0.14823057648E+01  0.14823057648E+01  0.00000000000E+00 0. -1.
         21    1    1    2  502  501 -0.26904847457E+02 -0.20611426651E+02  0.24704484837E+03  0.24935889563E+03  0.00000000000E+00 0. -1.
         21    1    1    2  503  502  0.26904847457E+02  0.20611426651E+02  0.88252502545E+03  0.88317558971E+03  0.00000000000E+00 0.  1.
</event>
<event>
 4    1  0.5696713E+002  0.3823524E+02  0.7546771E-02  0.1359149E+00
          2   -1    0    0  502    0  0.00000000000E+00  0.00000000000E+00  0.11469402489E+02  0.11469402489E+02  0.00000000000E+00 0.  1.
         -2   -1    0    0    0  501 -0.00000000000E+00 -0.00000000000E+00 -0.24484990174E+03  0.24484990174E+03  0.00000000000E+00 0. -1.
         21    1    1    2  502  503  0.30994737567E+02 -0.22388838217E+02 -0.27952244893E+02  0.47363085078E+02  0.00000000000E+00 0.  1.
         21    1    1    2  503  501 -0.30994737567E+02  0.22388838217E+02 -0.20542825436E+03  0.20895621916E+03  0.00000000000E+00 0. -1.
</event>
<event>
 4    1  0.5696713E+002  0.2152642E+02  0.7546771E-02  0.1511880E+00
          2   -1    0    0  503    0  0.00000000000E+00  0.00000000000E+00  0.92277134914E+03  0.92277134914E+03  0.00000000000E+00 0.  1.
         -2   -1    0    0    0  501 -0.00000000000E+00 -0.00000000000E+00 -0.51499969334E+00  0.51499969334E+00  0.00000000000E+00 0. -1.
         21    1    1    2  502  501 -0.17119886113E+02 -0.13049761993E+02  0.53399584947E+03  0.53442955948E+03  0.00000000000E+00 0. -1.
         21    1    1    2  503  502  0.17119886113E+02  0.13049761993E+02  0.38826049998E+03  0.38885678936E+03  0.00000000000E+00 0.  1.
</event>
<event>
 4    1  0.5696713E+002  0.2299576E+03  0.7546771E-02  0.1035715E+00
          2   -1    0    0  503    0  0.00000000000E+00  0.00000000000E+00  0.11753670749E+03  0.11753670749E+03  0.00000000000E+00 0. -1.
         -2   -1    0    0    0  501 -0.00000000000E+00 -0.00000000000E+00 -0.49959709106E+03  0.49959709106E+03  0.00000000000E+00 0.  1.
         21    1    1    2  502  501  0.22384774891E+03 -0.52656477185E+02 -0.28834452629E+03  0.36881307613E+03  0.00000000000E+00 0.  1.
         21    1    1    2  503  502 -0.22384774891E+03  0.52656477185E+02 -0.93715857271E+02  0.24832072242E+03  0.00000000000E+00 0. -1.
</event>
<event>
 4    1  0.5696713E+002  0.2161283E+02  0.7546771E-02  0.1510692E+00
          2   -1    0    0  502    0  0.00000000000E+00  0.00000000000E+00  0.16017713597E+03  0.16017713597E+03  0.00000000000E+00 0. -1.
         -2   -1    0    0    0  501 -0.00000000000E+00 -0.00000000000E+00 -0.80140970461E+01  0.80140970461E+01  0.00000000000E+00 0.  1.
         21    1    1    2  502  503  0.17153400368E+02  0.13148196641E+02  0.14315333875E+03  0.14477566306E+03  0.00000000000E+00 0. -1.
         21    1    1    2  503  501 -0.17153400368E+02 -0.13148196641E+02  0.90097001714E+01  0.23415569954E+02  0.00000000000E+00 0.  1.
</event>
<event>
 4    1  0.5696713E+002  0.3384667E+02  0.7546771E-02  0.1388858E+00
          2   -1    0    0  502    0  0.00000000000E+00  0.00000000000E+00  0.94719459641E+03  0.94719459641E+03  0.00000000000E+00 0. -1.
         -2   -1    0    0    0  501 -0.00000000000E+00 -0.00000000000E+00 -0.12103539048E+01  0.12103539048E+01  0.00000000000E+00 0.  1.
         21    1    1    2  502  503 -0.20256252062E+02 -0.27116068247E+02  0.48585686077E+03  0.48703437873E+03  0.00000000000E+00 0.  1.
         21    1    1    2  503  501  0.20256252062E+02  0.27116068247E+02  0.46012738173E+03  0.46137057158E+03  0.00000000000E+00 0. -1.
</event>
<event>
 4    1  0.5696713E+002  0.2214220E+02  0.7546771E-02  0.1503560E+00
          2   -1    0    0  503    0  0.00000000000E+00  0.00000000000E+00  0.69356918963E+03  0.69356918963E+03  0.00000000000E+00 0.  1.
         -2   -1    0    0    0  501 -0.00000000000E+00 -0.00000000000E+00 -0.97938943458E+01  0.97938943458E+01  0.00000000000E+00 0. -1.
         21    1    1    2  502  501 -0.10198108209E+02  0.19653892988E+02  0.31353554809E+01  0.22363080616E+02  0.00000000000E+00 0. -1.
         21    1    1    2  503  502  0.10198108209E+02 -0.19653892988E+02  0.68063993981E+03  0.68100000336E+03  0.00000000000E+00 0.  1.
</event>
<event>
 4    1  0.5696713E+002  0.2123875E+02  0.7546771E-02  0.1515883E+00
          2   -1    0    0  502    0  0.00000000000E+00  0.00000000000E+00  0.91311421758E+02  0.91311421758E+02  0.00000000000E+00 0.  1.
         -2   -1    0    0    0  501 -0.00000000000E+00 -0.00000000000E+00 -0.52690721372E+01  0.52690721372E+01  0.00000000000E+00 0. -1.
         21    1    1    2  502  503 -0.31537485033E+01 -0.21003292806E+02  0.55088039375E+02  0.59040465111E+02  0.00000000000E+00 0.  1.
         21    1    1    2  503  501  0.31537485033E+01  0.21003292806E+02  0.30954310246E+02  0.37540028785E+02  0.00000000000E+00 0. -1.
</event>
<event>
 4    1  0.5696713E+002  0.2223685E+02  0.7546771E-02  0.1502310E+00
          2   -1    0    0  503    0  0.00000000000E+00  0.00000000000E+00  0.19018118186E+03  0.19018118186E+03  0.00000000000E+00 0.  1.
         -2   -1    0    0    0  501 -0.00000000000E+00 -0.00000000000E+00 -0.27051635069E+01  0.27051635069E+01  0.00000000000E+00 0. -1.
         21    1    1    2  502  501 -0.15090024831E+02  0.16333052385E+02  0.74725562310E+02  0.77964011647E+02  0.00000000000E+00 0.  1.
         21    1    1    2  503  502  0.15090024831E+02 -0.16333052385E+02  0.11275045604E+03  0.11492233372E+03  0.00000000000E+00 0. -1.
</event>
<event>
 4    1  0.5696713E+002  0.2740396E+02  0.7546771E-02  0.1443592E+00
          2   -1    0    0  502    0  0.00000000000E+00  0.00000000000E+00  0.28589302752E+02  0.28589302752E+02  0.00000000000E+00 0.  1.
         -2   -1    0    0    0  501 -0.00000000000E+00 -0.00000000000E+00 -0.29091108336E+02  0.29091108336E+02  0.00000000000E+00 0. -1.
         21    1    1    2  502  503 -0.27199308281E+02 -0.33428874261E+01  0.87337143892E+01  0.28762041554E+02  0.00000000000E+00 0.  1.
         21    1    1    2  503  501  0.27199308281E+02  0.33428874261E+01 -0.92355199731E+01  0.28918369534E+02  0.00000000000E+00 0. -1.
</event>
<event>
 4    1  0.5696713E+002  0.2191816E+02  0.7546771E-02  0.1506549E+00
          2   -1    0    0  503    0  0.00000000000E+00  0.00000000000E+00  0.77017295048E+03  0.77017295048E+03  0.00000000000E+00 0.  1.
         -2   -1    0    0    0  501 -0.00000000000E+00 -0.00000000000E+00 -0.68221353519E+00  0.68221353519E+00  0.00000000000E+00 0. -1.
         21    1    1    2  502  501 -0.73305387501E+01  0.20655967186E+02  0.49756248511E+03  0.49804501038E+03  0.00000000000E+00 0.  1.
         21    1    1    2  503  502  0.73305387501E+01 -0.20655967186E+02  0.27192825184E+03  0.27281015363E+03  0.00000000000E+00 0. -1.
</event>
<event>
 4    1  0.5696713E+002  0.2769516E+02  0.7546771E-02  0.1440747E+00
          2   -1    0    0  502    0  0.00000000000E+00  0.00000000000E+00  0.10112955152E+04  0.10112955152E+04  0.00000000000E+00 0. -1.
         -2   -1    0    0    0  501 -0.00000000000E+00 -0.00000000000E+00 -0.12505049151E+01  0.12505049151E+01  0.00000000000E+00 0.  1.
         21    1    1    2  502  503 -0.13766203150E+02 -0.24031513518E+02  0.82259780682E+03  0.82306389411E+03  0.00000000000E+00 0. -1.
         21    1    1    2  503  501  0.13766203150E+02  0.24031513518E+02  0.18744720345E+03  0.18948212600E+03  0.00000000000E+00 0.  1.
</event>
<event>
 4    1  0.5696713E+002  0.2309933E+02  0.7546771E-02  0.1491255E+00
          2   -1    0    0  503    0  0.00000000000E+00  0.00000000000E+00  0.67003212526E+03  0.67003212526E+03  0.00000000000E+00 0. -1.
         -2   -1    0    0    0  501 -0.00000000000E+00 -0.00000000000E+00 -0.79751206569E+00  0.79751206569E+00  0.00000000000E+00 0.  1.
         21    1    1    2  502  501  0.65922920234E+01  0.22138675578E+02  0.32180712089E+03  0.32263509159E+03  0.00000000000E+00 0.  1.
         21    1    1    2  503  502 -0.65922920234E+01 -0.22138675578E+02  0.34742749230E+03  0.34819454574E+03  0.00000000000E+00 0. -1.
</event>
<event>
 4    1  0.5696713E+002  0.2738252E+02  0.7546771E-02  0.1443803E+00
          2   -1    0    0  503    0  0.00000000000E+00  0.00000000000E+00  0.83338099622E+01  0.83338099622E+01  0.00000000000E+00 0. -1.
         -2   -1    0    0    0  501 -0.00000000000E+00 -0.00000000000E+00 -0.39780526549E+03  0.39780526549E+03  0.00000000000E+00 0.  1.
         21    1    1    2  502  501  0.22905766238E+02 -0.15004283843E+02 -0.37337127072E+03  0.37437402215E+03  0.00000000000E+00 0.  1.
         21    1    1    2  503  502 -0.22905766238E+02  0.15004283843E+02 -0.16100184809E+02  0.31765053305E+02  0.00000000000E+00 0. -1.
</event>
<event>
 4    1  0.5696713E+002  0.2196244E+02  0.7546771E-02  0.1505955E+00
          2   -1    0    0  502    0  0.00000000000E+00  0.00000000000E+00  0.13914912302E+04  0.13914912302E+04  0.00000000000E+00 0. -1.
         -2   -1    0    0    0  501 -0.00000000000E+00 -0.00000000000E+00 -0.13991579664E+01  0.13991579664E+01  0.00000000000E+00 0.  1.
         21    1    1    2  502  503 -0.21078721772E+02 -0.61673393313E+01  0.12990892696E+04  0.12992749051E+04  0.00000000000E+00 0. -1.
         21    1    1    2  503  501  0.21078721772E+02  0.61673393313E+01  0.91002802636E+02  0.93615483087E+02  0.00000000000E+00 0.  1.
</event>
<event>
 4    1  0.5696713E+002  0.2347088E+02  0.7546771E-02  0.1486668E+00
          2   -1    0    0  502    0  0.00000000000E+00  0.00000000000E+00  0.18631636546E+04  0.18631636546E+04  0.00000000000E+00 0.  1.
         -2   -1    0    0    0  501 -0.00000000000E+00 -0.00000000000E+00 -0.36348988736E+00  0.36348988736E+00  0.00000000000E+00 0. -1.
         21    1    1    2  502  503 -0.12573777301E+02  0.19818741218E+02  0.13338730819E+04  0.13340795632E+04  0.00000000000E+00 0.  1.
         21    1    1    2  503  501  0.12573777301E+02 -0.19818741218E+02  0.52892708284E+03  0.52944758129E+03  0.00000000000E+00 0. -1.
</event>
<event>
 4    1  0.5696713E+002  0.2439726E+02  0.7546771E-02  0.1475660E+00
          2   -1    0    0  503    0  0.00000000000E+00  0.00000000000E+00  0.31347610494E+03  0.31347610494E+03  0.00000000000E+00 0. -1.
         -2   -1    0    0    0  501 -0.00000000000E+00 -0.00000000000E+00 -0.23790561746E+01  0.23790561746E+01  0.00000000000E+00 0.  1.
         21    1    1    2  502  501  0.21986911556E+02 -0.10573649933E+02  0.84591547236E+02  0.88039515085E+02  0.00000000000E+00 0.  1.
         21    1    1    2  503  502 -0.21986911556E+02  0.10573649933E+02  0.22650550153E+03  0.22781564603E+03  0.00000000000E+00 0. -1.
</event>
<event>
 4    1  0.5696713E+002  0.2565253E+02  0.7546771E-02  0.1461634E+00
          2   -1    0    0  502    0  0.00000000000E+00  0.00000000000E+00  0.76845861485E+03  0.76845861485E+03  0.00000000000E+00 0.  1.
         -2   -1    0    0    0  501 -0.00000000000E+00 -0.00000000000E+00 -0.16784514830E+01  0.16784514830E+01  0.00000000000E+00 0. -1.
         21    1    1    2  502  503  0.55898261285E+01  0.25036096454E+02  0.65288605501E+03  0.65338981711E+03  0.00000000000E+00 0.  1.
         21    1    1    2  503  501 -0.55898261285E+01 -0.25036096454E+02  0.11389410837E+03  0.11674724923E+03  0.00000000000E+00 0. -1.
</event>
<event>
 4    1  0.5696713E+002  0.2272510E+02  0.7546771E-02  0.1495979E+00
          2   -1    0    0  503    0  0.00000000000E+00  0.00000000000E+00  0.14158942965E+04  0.14158942965E+04  0.00000000000E+00 0.  1.
         -2   -1    0    0    0  501 -0.00000000000E+00 -0.00000000000E+00 -0.45355556711E+00  0.45355556711E+00  0.00000000000E+00 0. -1.
         21    1    1    2  502  501 -0.14479731541E+02 -0.17514774999E+02  0.39433771537E+03  0.39499197933E+03  0.00000000000E+00 0.  1.
         21    1    1    2  503  502  0.14479731541E+02  0.17514774999E+02  0.10211030256E+04  0.10213558727E+04  0.00000000000E+00 0. -1.
</event>
<event>
 4    1  0.5696713E+002  0.2230319E+02  0.7546771E-02  0.1501438E+00
          2   -1    0    0  503    0  0.00000000000E+00  0.00000000000E+00  0.16273131110E+03  0.16273131110E+03  0.00000000000E+00 0.  1.
         -2   -1    0    0    0  501 -0.00000000000E+00 -0.00000000000E+00 -0.48974189958E+01  0.48974189958E+01  0.00000000000E+00 0. -1.
         21    1    1    2  502  501 -0.20911168547E+02 -0.77559751800E+01  0.27533838315E+02  0.35433661586E+02  0.00000000000E+00 0. -1.
         21    1    1    2  503  502  0.20911168547E+02  0.77559751800E+01  0.13030005379E+03  0.13219506851E+03  0.00000000000E+00 0.  1.
</event>
<event>
 4    1  0.5696713E+002  0.2516458E+02  0.7546771E-02  0.1466971E+00
          2   -1    0    0  502    0  0.00000000000E+00  0.00000000000E+00  0.17424735958E+03  0.17424735958E+03  0.00000000000E+00 0.  1.
         -2   -1    0    0    0  501 -0.00000000000E+00 -0.00000000000E+00 -0.64791854444E+01  0.64791854444E+01  0.00000000000E+00 0. -1.
         21    1    1    2  502  503 -0.19680086056E+02 -0.15682800951E+02  0.14376232608E+03  0.14594814981E+03  0.00000000000E+00 0.  1.
         21    1    1    2  503  501  0.19680086056E+02  0.15682800951E+02  0.24005848055E+02  0.34778395214E+02  0.00000000000E+00 0. -1.
</event>
<event>
 4    1  0.5696713E+002  0.4017450E+02  0.7546771E-02  0.1347466E+00
          2   -1    0    0  502    0  0.00000000000E+00  0.00000000000E+00  0.57751301111E+03  0.57751301111E+03  0.00000000000E+00 0. -1.
         -2   -1    0    0    0  501 -0.00000000000E+00 -0.00000000000E+00 -0.30513726492E+01  0.30513726492E+01  0.00000000000E+00 0.  1.
         21    1    1    2  502  503 -0.35097534079E+02 -0.19548737943E+02  0.37141711661E+03  0.37358354429E+03  0.00000000000E+00 0. -1.
         21    1    1    2  503  501  0.35097534079E+02  0.19548737943E+02  0.20304452185E+03  0.20698083947E+03  0.00000000000E+00 0.  1.
</event>
<event>
 4    1  0.5696713E+002  0.2318765E+02  0.7546771E-02  0.1490155E+00
          2   -1    0    0  503    0  0.00000000000E+00  0.00000000000E+00  0.14371912097E+03  0.14371912097E+03  0.00000000000E+00 0. -1.
         -2   -1    0    0    0  501 -0.00000000000E+00 -0.00000000000E+00 -0.41884038223E+01  0.41884038223E+01  0.00000000000E+00 0.  1.
         21    1    1    2  502  501  0.65913907897E+01  0.22231075740E+02  0.93933252094E+02  0.96752896649E+02  0.00000000000E+00 0. -1.
         21    1    1    2  503  502 -0.65913907897E+01 -0.22231075740E+02  0.45597465050E+02  0.51154628140E+02  0.00000000000E+00 0.  1.
</event>
<event>
 4    1  0.5696713E+002  0.2193430E+02  0.7546771E-02  0.1506332E+00
          2   -1    0    0  503    0  0.00000000000E+00  0.00000000000E+00  0.18999084538E+04  0.18999084538E+04  0.00000000000E+00 0.  1.
         -2   -1    0    0    0  501 -0.00000000000E+00 -0.00000000000E+00 -0.50874680877E+00  0.50874680877E+00  0.00000000000E+00 0. -1.
         21    1    1    2  502  501 -0.16436828766E+02  0.14523913466E+02  0.27629222613E+03  0.27716151901E+03  0.00000000000E+00 0. -1.
         21    1    1    2  503  502  0.16436828766E+02 -0.14523913466E+02  0.16231074808E+04  0.16232556816E+04  0.00000000000E+00 0.  1.
</event>
<event>
 4    1  0.5696713E+002  0.2031478E+02  0.7546771E-02  0.1529277E+00
          2   -1    0    0  503    0  0.00000000000E+00  0.00000000000E+00  0.58681386458E+01  0.58681386458E+01  0.00000000000E+00 0.  1.
         -2   -1    0    0    0  501 -0.00000000000E+00 -0.00000000000E+00 -0.32141968636E+03  0.32141968636E+03  0.00000000000E+00 0. -1.
         21    1    1    2  502  501 -0.20313678001E+02 -0.21121711656E+00 -0.30241311261E+03  0.30309467301E+03  0.00000000000E+00 0. -1.
         21    1    1    2  503  502  0.20313678001E+02  0.21121711656E+00 -0.13138435101E+02  0.24193151996E+02  0.00000000000E+00 0.  1.
</event>
<event>
 4    1  0.5696713E+002  0.2991266E+02  0.7546771E-02  0.1420357E+00
          2   -1    0    0  503    0  0.00000000000E+00  0.00000000000E+00  0.65994952111E+03  0.65994952111E+03  0.00000000000E+00 0.  1.
         -2   -1    0    0    0  501 -0.00000000000E+00 -0.00000000000E+00 -0.13681296998E+01  0.13681296998E+01  0.00000000000E+00 0. -1.
         21    1    1    2  502  501 -0.17460737459E+02 -0.24287651134E+02  0.29791562164E+03  0.29941356845E+03  0.00000000000E+00 0. -1.
         21    1    1    2  503  502  0.17460737459E+02  0.24287651134E+02  0.36066576977E+03  0.36190408237E+03  0.00000000000E+00 0.  1.
</event>
<event>
 4    1  0.5696713E+002  0.2150915E+02  0.7546771E-02  0.1512118E+00
          2   -1    0    0  502    0  0.00000000000E+00  0.00000000000E+00  0.52527010611E+03  0.52527010611E+03  0.00000000000E+00 0.  1.
         -2   -1    0    0    0  501 -0.00000000000E+00 -0.00000000000E+00 -0.88475524893E+00  0.88475524893E+00  0.00000000000E+00 0. -1.
         21    1    1    2  502  503 -0.20587396634E+02 -0.62291785467E+01  0.27984301226E+03  0.28066840769E+03  0.00000000000E+00 0. -1.
         21    1    1    2  503  501  0.20587396634E+02  0.62291785467E+01  0.24454233860E+03  0.24548645366E+03  0.00000000000E+00 0.  1.
</event>
<event>
 4    1  0.5696713E+002  0.2302202E+02  0.7546771E-02  0.1492222E+00
          2   -1    0    0  502    0  0.00000000000E+00  0.00000000000E+00  0.19835519540E+03  0.19835519540E+03  0.00000000000E+00 0.  1.
         -2   -1    0    0    0  501 -0.00000000000E+00 -0.00000000000E+00 -0.26722930085E+01  0.26722930085E+01  0.00000000000E+00 0. -1.
         21    1    1    2  502  503 -0.77401314168E+01 -0.21681873840E+02  0.98816831994E+02  0.10146319319E+03  0.00000000000E+00 0.  1.
         21    1    1    2  503  501  0.77401314168E+01  0.21681873840E+02  0.96866070396E+02  0.99564295214E+02  0.00000000000E+00 0. -1.
</event>
<event>
 4    1  0.5696713E+002  0.2314641E+02  0.7546771E-02  0.1490668E+00
          2   -1    0    0  503    0  0.00000000000E+00  0.00000000000E+00  0.64160430703E+03  0.64160430703E+03  0.00000000000E+00 0. -1.
         -2   -1    0    0    0  501 -0.00000000000E+00 -0.00000000000E+00 -0.11377032517E+01  0.11377032517E+01  0.00000000000E+00 0.  1.
         21    1    1    2  502  501 -0.18259591798E+02 -0.14224745853E+02  0.15447232565E+03  0.15619684850E+03  0.00000000000E+00 0.  1.
         21    1    1    2  503  502  0.18259591798E+02  0.14224745853E+02  0.48599427812E+03  0.48654516179E+03  0.00000000000E+00 0. -1.
</event>
<event>
 4    1  0.5696713E+002  0.2290323E+02  0.7546771E-02  0.1493717E+00
          2   -1    0    0  502    0  0.00000000000E+00  0.00000000000E+00  0.10168614870E+02  0.10168614870E+02  0.00000000000E+00 0. -1.
         -2   -1    0    0    0  501 -0.00000000000E+00 -0.00000000000E+00 -0.62009346894E+02  0.62009346894E+02  0.00000000000E+00 0.  1.
         21    1    1    2  502  503 -0.16292686835E+02 -0.16096782676E+02 -0.11124177345E+02  0.25461841615E+02  0.00000000000E+00 0. -1.
         21    1    1    2  503  501  0.16292686835E+02  0.16096782676E+02 -0.40716554679E+02  0.46716120149E+02  0.00000000000E+00 0.  1.
</event>
<event>
 4    1  0.5696713E+002  0.2698366E+02  0.7546771E-02  0.1447772E+00
          2   -1    0    0  503    0  0.00000000000E+00  0.00000000000E+00  0.11498503308E+03  0.11498503308E+03  0.00000000000E+00 0. -1.
         -2   -1    0    0    0  501 -0.00000000000E+00 -0.00000000000E+00 -0.88121836719E+01  0.88121836719E+01  0.00000000000E+00 0.  1.
         21    1    1    2  502  501 -0.25848408479E+02  0.77445182545E+01  0.20249971008E+02  0.33736910198E+02  0.00000000000E+00 0.  1.
         21    1    1    2  503  502  0.25848408479E+02 -0.77445182545E+01  0.85922878397E+02  0.90060306550E+02  0.00000000000E+00 0. -1.
</event>
<event>
 4    1  0.5696713E+002  0.2084100E+02  0.7546771E-02  0.1521547E+00
          2   -1    0    0  503    0  0.00000000000E+00  0.00000000000E+00  0.52047617752E+00  0.52047617752E+00  0.00000000000E+00 0. -1.
         -2   -1    0    0    0  501 -0.00000000000E+00 -0.00000000000E+00 -0.83643175671E+03  0.83643175671E+03  0.00000000000E+00 0.  1.
         21    1    1    2  502  501  0.19853723795E+02  0.63385267153E+01 -0.39794398331E+03  0.39848934882E+03  0.00000000000E+00 0.  1.
         21    1    1    2  503  502 -0.19853723795E+02 -0.63385267153E+01 -0.43796729723E+03  0.43846288407E+03  0.00000000000E+00 0. -1.
</event>
<event>
 4    1  0.5696713E+002  0.2162086E+02  0.7546771E-02  0.1510582E+00
          2   -1    0    0  503    0  0.00000000000E+00  0.00000000000E+00  0.27479033203E+03  0.27479033203E+03  0.00000000000E+00 0.  1.
         -2   -1    0    0    0  501 -0.00000000000E+00 -0.00000000000E+00 -0.51045725383E+01  0.51045725383E+01  0.00000000000E+00 0. -1.
         21    1    1    2  502  501  0.15668166448E+02 -0.14898659554E+02  0.20570099057E+02  0.29842762466E+02  0.00000000000E+00 0. -1.
         21    1    1    2  503  502 -0.15668166448E+02  0.14898659554E+02  0.24911566043E+03  0.25005214210E+03  0.00000000000E+00 0.  1.
</event>
<event>
 4    1  0.5696713E+002  0.2469883E+02  0.7546771E-02  0.1472201E+00
          2   -1    0    0  503    0  0.00000000000E+00  0.00000000000E+00  0.14140698242E+04  0.14140698242E+04  0.00000000000E+00 0. -1.
         -2   -1    0    0    0  501 -0.00000000000E+00 -0.00000000000E+00 -0.71109375179E+00  0.71109375179E+00  0.00000000000E+00 0.  1.
         21    1    1    2  502  501 -0.12522955047E+02  0.21288674987E+02  0.11503246308E+04  0.11505897567E+04  0.00000000000E+00 0. -1.
         21    1    1    2  503  502  0.12522955047E+02 -0.21288674987E+02  0.26303409972E+03  0.26419116129E+03  0.00000000000E+00 0.  1.
</event>
<event>
 4    1  0.5696713E+002  0.2108486E+02  0.7546771E-02  0.1518057E+00
          2   -1    0    0  502    0  0.00000000000E+00  0.00000000000E+00  0.73080092543E+01  0.73080092543E+01  0.00000000000E+00 0.  1.
         -2   -1    0    0    0  501 -0.00000000000E+00 -0.00000000000E+00 -0.20335052515E+03  0.20335052515E+03  0.00000000000E+00 0. -1.
         21    1    1    2  502  503  0.11834258337E+02  0.17450554298E+02 -0.98433393837E+01  0.23269354222E+02  0.00000000000E+00 0.  1.
         21    1    1    2  503  501 -0.11834258337E+02 -0.17450554298E+02 -0.18619917651E+03  0.18738918018E+03  0.00000000000E+00 0. -1.
</event>
<event>
 4    1  0.5696713E+002  0.2468880E+02  0.7546771E-02  0.1472315E+00
          2   -1    0    0  503    0  0.00000000000E+00  0.00000000000E+00  0.11559807228E+03  0.11559807228E+03  0.00000000000E+00 0.  1.
         -2   -1    0    0    0  501 -0.00000000000E+00 -0.00000000000E+00 -0.80210354374E+01  0.80210354374E+01  0.00000000000E+00 0. -1.
         21    1    1    2  502  501  0.24868525333E+01 -0.24563233956E+02  0.17609266825E+02  0.30325289380E+02  0.00000000000E+00 0. -1.
         21    1    1    2  503  502 -0.24868525333E+01  0.24563233956E+02  0.89967770014E+02  0.93293818333E+02  0.00000000000E+00 0.  1.
</event>
<event>
 4    1  0.5696713E+002  0.3647981E+02  0.7546771E-02  0.1370448E+00
          2   -1    0    0  502    0  0.00000000000E+00  0.00000000000E+00  0.26214885176E+02  0.26214885176E+02  0.00000000000E+00 0. -1.
         -2   -1    0    0    0  501 -0.00000000000E+00 -0.00000000000E+00 -0.54846570683E+02  0.54846570683E+02  0.00000000000E+00 0.  1.
         21    1    1    2  502  503  0.13939000045E+02 -0.33711731251E+02 -0.32580569947E+01  0.36625011694E+02  0.00000000000E+00 0. -1.
         21    1    1    2  503  501 -0.13939000045E+02  0.33711731251E+02 -0.25373628512E+02  0.44436444165E+02  0.00000000000E+00 0.  1.
</event>
<event>
 4    1  0.5696713E+002  0.2323694E+02  0.7546771E-02  0.1489544E+00
          2   -1    0    0  503    0  0.00000000000E+00  0.00000000000E+00  0.73684904055E+03  0.73684904055E+03  0.00000000000E+00 0.  1.
         -2   -1    0    0    0  501 -0.00000000000E+00 -0.00000000000E+00 -0.88827163343E+00  0.88827163343E+00  0.00000000000E+00 0. -1.
         21    1    1    2  502  501  0.71924466540E+01  0.22095797586E+02  0.21365459896E+03  0.21491450211E+03  0.00000000000E+00 0. -1.
         21    1    1    2  503  502 -0.71924466540E+01 -0.22095797586E+02  0.52230616996E+03  0.52282281007E+03  0.00000000000E+00 0.  1.
</event>
<event>
 4    1  0.5696713E+002  0.4117424E+02  0.7546771E-02  0.1341739E+00
          2   -1    0    0  502    0  0.00000000000E+00  0.00000000000E+00  0.13999536706E+02  0.13999536706E+02  0.00000000000E+00 0. -1.
         -2   -1    0    0    0  501 -0.00000000000E+00 -0.00000000000E+00 -0.21659468382E+03  0.21659468382E+03  0.00000000000E+00 0.  1.
         21    1    1    2  502  503 -0.58459724525E+01  0.40757118806E+02 -0.24739973785E+02  0.48035241544E+02  0.00000000000E+00 0. -1.
         21    1    1    2  503  501  0.58459724525E+01 -0.40757118806E+02 -0.17785517333E+03  0.18255897898E+03  0.00000000000E+00 0.  1.
</event>
<event>
 4    1  0.5696713E+002  0.2316880E+02  0.7546771E-02  0.1490389E+00
          2   -1    0    0  503    0  0.00000000000E+00  0.00000000000E+00  0.88586162451E+03  0.88586162451E+03  0.00000000000E+00 0. -1.
         -2   -1    0    0    0  501 -0.00000000000E+00 -0.00000000000E+00 -0.74613204138E+00  0.74613204138E+00  0.00000000000E+00 0.  1.
         21    1    1    2  502  501  0.94368694311E+01 -0.21159843957E+02  0.25041234422E+03  0.25148187935E+03  0.00000000000E+00 0.  1.
         21    1    1    2  503  502 -0.94368694311E+01  0.21159843957E+02  0.63470314824E+03  0.63512587720E+03  0.00000000000E+00 0. -1.
</event>
<event>
 4    1  0.5696713E+002  0.2140088E+02  0.7546771E-02  0.1513618E+00
          2   -1    0    0  503    0  0.00000000000E+00  0.00000000000E+00  0.20479696195E+03  0.20479696195E+03  0.00000000000E+00 0.  1.
         -2   -1    0    0    0  501 -0.00000000000E+00 -0.00000000000E+00 -0.38125958124E+02  0.38125958124E+02  0.00000000000E+00 0. -1.
         21    1    1    2  502  501 -0.18331863060E+02 -0.11042659391E+02 -0.34509855200E+02  0.40606989985E+02  0.00000000000E+00 0. -1.
         21    1    1    2  503  502  0.18331863060E+02  0.11042659391E+02  0.20118085902E+03  0.20231593009E+03  0.00000000000E+00 0.  1.
</event>
<event>
 4    1  0.5696713E+002  0.2521421E+02  0.7546771E-02  0.1466421E+00
          2   -1    0    0  503    0  0.00000000000E+00  0.00000000000E+00  0.79819458895E+03  0.79819458895E+03  0.00000000000E+00 0. -1.
         -2   -1    0    0    0  501 -0.00000000000E+00 -0.00000000000E+00 -0.96677740673E+00  0.96677740673E+00  0.00000000000E+00 0.  1.
         21    1    1    2  502  501  0.14189598198E+02 -0.20842540072E+02  0.23091545712E+03  0.23228797754E+03  0.00000000000E+00 0.  1.
         21    1    1    2  503  502 -0.14189598198E+02  0.20842540072E+02  0.56631235443E+03  0.56687338882E+03  0.00000000000E+00 0. -1.
</event>
<event>
 4    1  0.5696713E+002  0.2394946E+02  0.7546771E-02  0.1480908E+00
          2   -1    0    0  502    0  0.00000000000E+00  0.00000000000E+00  0.11541649350E+04  0.11541649350E+04  0.00000000000E+00 0. -1.
         -2   -1    0    0    0  501 -0.00000000000E+00 -0.00000000000E+00 -0.52627629076E+00  0.52627629076E+00  0.00000000000E+00 0.  1.
         21    1    1    2  502  503  0.15765358087E+02 -0.18028587271E+02  0.71307868967E+03  0.71348075947E+03  0.00000000000E+00 0. -1.
         21    1    1    2  503  501 -0.15765358087E+02  0.18028587271E+02  0.44055996902E+03  0.44121045180E+03  0.00000000000E+00 0.  1.
</event>
<event>
 4    1  0.5696713E+002  0.1733677E+03  0.7546771E-02  0.1075814E+00
          2   -1    0    0  503    0  0.00000000000E+00  0.00000000000E+00  0.21427136999E+04  0.21427136999E+04  0.00000000000E+00 0. -1.
         -2   -1    0    0    0  501 -0.00000000000E+00 -0.00000000000E+00 -0.18996426872E+02  0.18996426872E+02  0.00000000000E+00 0.  1.
         21    1    1    2  502  501 -0.17320534477E+03  0.75005233359E+01  0.50905057188E+03  0.53776280462E+03  0.00000000000E+00 0.  1.
         21    1    1    2  503  502  0.17320534477E+03 -0.75005233359E+01  0.16146667012E+04  0.16239473222E+04  0.00000000000E+00 0. -1.
</event>
<event>
 4    1  0.5696713E+002  0.8503605E+02  0.7546771E-02  0.1192615E+00
          2   -1    0    0  502    0  0.00000000000E+00  0.00000000000E+00  0.36612390611E+03  0.36612390611E+03  0.00000000000E+00 0. -1.
         -2   -1    0    0    0  501 -0.00000000000E+00 -0.00000000000E+00 -0.20829827872E+02  0.20829827872E+02  0.00000000000E+00 0.  1.
         21    1    1    2  502  503 -0.27794683501E+02  0.80365321836E+02  0.21668866606E+03  0.23277694771E+03  0.00000000000E+00 0.  1.
         21    1    1    2  503  501  0.27794683501E+02 -0.80365321836E+02  0.12860541218E+03  0.15417678628E+03  0.00000000000E+00 0. -1.
</event>
<event>
 4    1  0.5696713E+002  0.2502315E+02  0.7546771E-02  0.1468545E+00
          2   -1    0    0  502    0  0.00000000000E+00  0.00000000000E+00  0.13389223006E+04  0.13389223006E+04  0.00000000000E+00 0. -1.
         -2   -1    0    0    0  501 -0.00000000000E+00 -0.00000000000E+00 -0.68537585013E+00  0.68537585013E+00  0.00000000000E+00 0.  1.
         21    1    1    2  502  503 -0.17577310510E+02  0.17810002890E+02  0.10466298108E+04  0.10469288987E+04  0.00000000000E+00 0. -1.
         21    1    1    2  503  501  0.17577310510E+02 -0.17810002890E+02  0.29160711401E+03  0.29267877783E+03  0.00000000000E+00 0.  1.
</event>
<event>
 4    1  0.5696713E+002  0.2205098E+02  0.7546771E-02  0.1504772E+00
          2   -1    0    0  503    0  0.00000000000E+00  0.00000000000E+00  0.57333898984E+02  0.57333898984E+02  0.00000000000E+00 0.  1.
         -2   -1    0    0    0  501 -0.00000000000E+00 -0.00000000000E+00 -0.85987251194E+01  0.85987251194E+01  0.00000000000E+00 0. -1.
         21    1    1    2  502  501 -0.17370979951E+02  0.13582891796E+02  0.20509417593E+02  0.30114483293E+02  0.00000000000E+00 0. -1.
         21    1    1    2  503  502  0.17370979951E+02 -0.13582891796E+02  0.28225756271E+02  0.35818140810E+02  0.00000000000E+00 0.  1.
</event>
<event>
 4    1  0.5696713E+002  0.2377862E+02  0.7546771E-02  0.1482946E+00
          2   -1    0    0  503    0  0.00000000000E+00  0.00000000000E+00  0.19225210065E+02  0.19225210065E+02  0.00000000000E+00 0. -1.
         -2   -1    0    0    0  501 -0.00000000000E+00 -0.00000000000E+00 -0.31521482018E+02  0.31521482018E+02  0.00000000000E+00 0.  1.
         21    1    1    2  502  501 -0.17620406701E+02  0.15966970759E+02  0.41811554329E+00  0.23782298210E+02  0.00000000000E+00 0.  1.
         21    1    1    2  503  502  0.17620406701E+02 -0.15966970759E+02 -0.12714387497E+02  0.26964393873E+02  0.00000000000E+00 0. -1.
</event>
<event>
 4    1  0.5696713E+002  0.2712558E+02  0.7546771E-02  0.1446351E+00
          2   -1    0    0  502    0  0.00000000000E+00  0.00000000000E+00  0.36259916987E+02  0.36259916987E+02  0.00000000000E+00 0. -1.
         -2   -1    0    0    0  501 -0.00000000000E+00 -0.00000000000E+00 -0.40339777389E+02  0.40339777389E+02  0.00000000000E+00 0.  1.
         21    1    1    2  502  503  0.12237480376E+01 -0.27097965788E+02  0.24959842017E+02  0.36861782684E+02  0.00000000000E+00 0. -1.
         21    1    1    2  503  501 -0.12237480376E+01  0.27097965788E+02 -0.29039702419E+02  0.39737911693E+02  0.00000000000E+00 0.  1.
</event>
<event>
 4    1  0.5696713E+002  0.2129770E+02  0.7546771E-02  0.1515057E+00
          2   -1    0    0  502    0  0.00000000000E+00  0.00000000000E+00  0.41620647365E+03  0.41620647365E+03  0.00000000000E+00 0. -1.
         -2   -1    0    0    0  501 -0.00000000000E+00 -0.00000000000E+00 -0.91484514666E+01  0.91484514666E+01  0.00000000000E+00 0.  1.
         21    1    1    2  502  503  0.21036650501E+02  0.33243308413E+01  0.40313713530E+03  0.40369932090E+03  0.00000000000E+00 0. -1.
         21    1    1    2  503  501 -0.21036650501E+02 -0.33243308413E+01  0.39208868817E+01  0.21655604212E+02  0.00000000000E+00 0.  1.
</event>
<event>
 4    1  0.5696713E+002  0.2050355E+02  0.7546771E-02  0.1526472E+00
          2   -1    0    0  503    0  0.00000000000E+00  0.00000000000E+00  0.70350094435E+03  0.70350094435E+03  0.00000000000E+00 0.  1.
         -2   -1    0    0    0  501 -0.00000000000E+00 -0.00000000000E+00 -0.94564812202E+00  0.94564812202E+00  0.00000000000E+00 0. -1.
         21    1    1    2  502  501  0.79279197635E+01  0.18908820710E+02  0.13758587721E+03  0.13910524441E+03  0.00000000000E+00 0. -1.
         21    1    1    2  503  502 -0.79279197635E+01 -0.18908820710E+02  0.56496941902E+03  0.56534134807E+03  0.00000000000E+00 0.  1.
</event>
<event>
 4    1  0.5696713E+002  0.2618368E+02  0.7546771E-02  0.1455985E+00
          2   -1    0    0  502    0  0.00000000000E+00  0.00000000000E+00  0.59777467909E+01  0.59777467909E+01  0.00000000000E+00 0.  1.
         -2   -1    0    0    0  501 -0.00000000000E+00 -0.00000000000E+00 -0.11523254058E+03  0.11523254058E+03  0.00000000000E+00 0. -1.
         21    1    1    2  502  503 -0.19624353473E+02  0.17334069736E+02 -0.58787548337E+02  0.64354961443E+02  0.00000000000E+00 0.  1.
         21    1    1    2  503  501  0.19624353473E+02 -0.17334069736E+02 -0.50467245452E+02  0.56855325928E+02  0.00000000000E+00 0. -1.
</event>
<event>
 4    1  0.5696713E+002  0.2748604E+02  0.7546771E-02  0.1442786E+00
          2   -1    0    0  502    0  0.00000000000E+00  0.00000000000E+00  0.53594483984E+02  0.53594483984E+02  0.00000000000E+00 0.  1.
         -2   -1    0    0    0  501 -0.00000000000E+00 -0.00000000000E+00 -0.30273157160E+02  0.30273157160E+02  0.00000000000E+00 0. -1.
         21    1    1    2  502  503 -0.27363593733E+02 -0.25915796583E+01  0.42314369938E+02  0.50457788797E+02  0.00000000000E+00 0.  1.
         21    1    1    2  503  501  0.27363593733E+02  0.25915796583E+01 -0.18993043114E+02  0.33409852347E+02  0.00000000000E+00 0. -1.
</event>
<event>
 4    1  0.5696713E+002  0.2106630E+02  0.7546771E-02  0.1518320E+00
          2   -1    0    0  502    0  0.00000000000E+00  0.00000000000E+00  0.12418876713E+04  0.12418876713E+04  0.00000000000E+00 0. -1.
         -2   -1    0    0    0  501 -0.00000000000E+00 -0.00000000000E+00 -0.25420745647E+01  0.25420745647E+01  0.00000000000E+00 0.  1.
         21    1    1    2  502  503 -0.19771784318E+02 -0.72708672073E+01  0.11964984412E+04  0.11966838801E+04  0.00000000000E+00 0. -1.
         21    1    1    2  503  501  0.19771784318E+02  0.72708672073E+01  0.42847155500E+02  0.47745865785E+02  0.00000000000E+00 0.  1.
</event>
<event>
 4    1  0.5696713E+002  0.4816852E+02  0.7546771E-02  0.1306315E+00
          2   -1    0    0  503    0  0.00000000000E+00  0.00000000000E+00  0.27649329437E+04  0.27649329437E+04  0.00000000000E+00 0. -1.
         -2   -1    0    0    0  501 -0.00000000000E+00 -0.00000000000E+00 -0.83956951905E+00  0.83956951905E+00  0.00000000000E+00 0.  1.
         21    1    1    2  502  501  0.38147039097E+02 -0.29411039571E+02  0.14127940271E+04  0.14136149295E+04  0.00000000000E+00 0. -1.
         21    1    1    2  503  502 -0.38147039097E+02  0.29411039571E+02  0.13512993471E+04  0.13521575838E+04  0.00000000000E+00 0.  1.
</event>
<event>
 4    1  0.5696713E+002  0.2225065E+02  0.7546771E-02  0.1502128E+00
          2   -1    0    0  503    0  0.00000000000E+00  0.00000000000E+00  0.84914594649E+03  0.84914594649E+03  0.00000000000E+00 0.  1.
         -2   -1    0    0    0  501 -0.00000000000E+00 -0.00000000000E+00 -0.99543872437E+00  0.99543872437E+00  0.00000000000E+00 0. -1.
         21    1    1    2  502  501  0.11702884773E+02 -0.18924423037E+02  0.15047953334E+03  0.15211568378E+03  0.00000000000E+00 0. -1.
         21    1    1    2  503  502 -0.11702884773E+02  0.18924423037E+02  0.69767097443E+03  0.69802570143E+03  0.00000000000E+00 0.  1.
</event>
<event>
 4    1  0.5696713E+002  0.4053907E+02  0.7546771E-02  0.1345355E+00
          2   -1    0    0  503    0  0.00000000000E+00  0.00000000000E+00  0.34210637779E+04  0.34210637779E+04  0.00000000000E+00 0.  1.
         -2   -1    0    0    0  501 -0.00000000000E+00 -0.00000000000E+00 -0.56511361803E+00  0.56511361803E+00  0.00000000000E+00 0. -1.
         21    1    1    2  502  501 -0.40497601340E+02 -0.18332653781E+01  0.23727074615E+04  0.23730537529E+04  0.00000000000E+00 0.  1.
         21    1    1    2  503  502  0.40497601340E+02  0.18332653781E+01  0.10477912028E+04  0.10485751386E+04  0.00000000000E+00 0. -1.
</event>
<event>
 4    1  0.5696713E+002  0.2345110E+02  0.7546771E-02  0.1486910E+00
          2   -1    0    0  502    0  0.00000000000E+00  0.00000000000E+00  0.20047805252E+03  0.20047805252E+03  0.00000000000E+00 0. -1.
         -2   -1    0    0    0  501 -0.00000000000E+00 -0.00000000000E+00 -0.37946127940E+01  0.37946127940E+01  0.00000000000E+00 0.  1.
         21    1    1    2  502  503  0.15723748118E+02  0.17398787435E+02  0.15210433793E+03  0.15390153891E+03  0.00000000000E+00 0. -1.
         21    1    1    2  503  501 -0.15723748118E+02 -0.17398787435E+02  0.44579101790E+02  0.50371126406E+02  0.00000000000E+00 0.  1.
</event>
<event>
 4    1  0.5696713E+002  0.2185279E+02  0.7546771E-02  0.1507429E+00
          2   -1    0    0  503    0  0.00000000000E+00  0.00000000000E+00  0.28753197189E+02  0.28753197189E+02  0.00000000000E+00 0.  1.
         -2   -1    0    0    0  501 -0.00000000000E+00 -0.00000000000E+00 -0.17357951921E+02  0.17357951921E+02  0.00000000000E+00 0. -1.
         21    1    1    2  502  501 -0.66094670944E+01 -0.20829287525E+02  0.90657095555E+00  0.21871583047E+02  0.00000000000E+00 0. -1.
         21    1    1    2  503  502  0.66094670944E+01  0.20829287525E+02  0.10488674313E+02  0.24239566063E+02  0.00000000000E+00 0.  1.
</event>
<event>
 4    1  0.5696713E+002  0.2013882E+02  0.7546771E-02  0.1531924E+00
          2   -1    0    0  502    0  0.00000000000E+00  0.00000000000E+00  0.86407367005E+01  0.86407367005E+01  0.00000000000E+00 0. -1.
         -2   -1    0    0    0  501 -0.00000000000E+00 -0.00000000000E+00 -0.54048843270E+02  0.54048843270E+02  0.00000000000E+00 0.  1.
         21    1    1    2  502  503 -0.15361050689E+02 -0.13023441904E+02 -0.11334133797E+02  0.23109186620E+02  0.00000000000E+00 0. -1.
         21    1    1    2  503  501  0.15361050689E+02  0.13023441904E+02 -0.34073972773E+02  0.39580393351E+02  0.00000000000E+00 0.  1.
</event>
<event>
 4    1  0.5696713E+002  0.2248203E+02  0.7546771E-02  0.1499107E+00
          2   -1    0    0  502    0  0.00000000000E+00  0.00000000000E+00  0.49304673333E+03  0.49304673333E+03  0.00000000000E+00 0. -1.
         -2   -1    0    0    0  501 -0.00000000000E+00 -0.00000000000E+00 -0.12559761572E+01  0.12559761572E+01  0.00000000000E+00 0.  1.
         21    1    1    2  502  503 -0.22058164675E+02 -0.43450133512E+01  0.13993963153E+03  0.14173405463E+03  0.00000000000E+00 0.  1.
         21    1    1    2  503  501  0.22058164675E+02  0.43450133512E+01  0.35185112565E+03  0.35256865486E+03  0.00000000000E+00 0. -1.
</event>
<event>
 4    1  0.5696713E+002  0.2203175E+02  0.7546771E-02  0.1505028E+00
          2   -1    0    0  503    0  0.00000000000E+00  0.00000000000E+00  0.11766874591E+04  0.11766874591E+04  0.00000000000E+00 0.  1.
         -2   -1    0    0    0  501 -0.00000000000E+00 -0.00000000000E+00 -0.14681079301E+01  0.14681079301E+01  0.00000000000E+00 0. -1.
         21    1    1    2  502  501 -0.21711747471E+02 -0.37413756243E+01  0.88101644556E+02  0.90814633420E+02  0.00000000000E+00 0. -1.
         21    1    1    2  503  502  0.21711747471E+02  0.37413756243E+01  0.10871177066E+04  0.10873409336E+04  0.00000000000E+00 0.  1.
</event>
<event>
 4    1  0.5696713E+002  0.2825649E+02  0.7546771E-02  0.1435379E+00
          2   -1    0    0  502    0  0.00000000000E+00  0.00000000000E+00  0.29450895296E+02  0.29450895296E+02  0.00000000000E+00 0. -1.
         -2   -1    0    0    0  501 -0.00000000000E+00 -0.00000000000E+00 -0.29462966857E+02  0.29462966857E+02  0.00000000000E+00 0.  1.
         21    1    1    2  502  503  0.14212617384E+02 -0.24421927879E+02  0.83175272003E+01  0.29455225563E+02  0.00000000000E+00 0. -1.
         21    1    1    2  503  501 -0.14212617384E+02  0.24421927879E+02 -0.83295987616E+01  0.29458636590E+02  0.00000000000E+00 0.  1.
</event>
<event>
 4    1  0.5696713E+002  0.2448688E+02  0.7546771E-02  0.1474626E+00
          2   -1    0    0  503    0  0.00000000000E+00  0.00000000000E+00  0.80462440406E+01  0.80462440406E+01  0.00000000000E+00 0.  1.
         -2   -1    0    0    0  501 -0.00000000000E+00 -0.00000000000E+00 -0.96434962656E+02  0.96434962656E+02  0.00000000000E+00 0. -1.
         21    1    1    2  502  501  0.19551287053E+02 -0.14742942711E+02 -0.69097834992E+02  0.73308375959E+02  0.00000000000E+00 0. -1.
         21    1    1    2  503  502 -0.19551287053E+02  0.14742942711E+02 -0.19290883623E+02  0.31172830737E+02  0.00000000000E+00 0.  1.
</event>
<event>
 4    1  0.5696713E+002  0.2615776E+02  0.7546771E-02  0.1456257E+00
          2   -1    0    0  502    0  0.00000000000E+00  0.00000000000E+00  0.15931188194E+04  0.15931188194E+04  0.00000000000E+00 0.  1.
         -2   -1    0    0    0  501 -0.00000000000E+00 -0.00000000000E+00 -0.44176134484E+00  0.44176134484E+00  0.00000000000E+00 0. -1.
         21    1    1    2  502  503 -0.23388865990E+02 -0.11712795768E+02  0.92913618683E+03  0.92950432076E+03  0.00000000000E+00 0. -1.
         21    1    1    2  503  501  0.23388865990E+02  0.11712795768E+02  0.66354087118E+03  0.66405625994E+03  0.00000000000E+00 0.  1.
</event>
<event>
 4    1  0.5696713E+002  0.2305421E+02  0.7546771E-02  0.1491819E+00
          2   -1    0    0  502    0  0.00000000000E+00  0.00000000000E+00  0.12518789039E+04  0.12518789039E+04  0.00000000000E+00 0.  1.
         -2   -1    0    0    0  501 -0.00000000000E+00 -0.00000000000E+00 -0.42729437092E+00  0.42729437092E+00  0.00000000000E+00 0. -1.
         21    1    1    2  502  503  0.14249070828E+02  0.18123484887E+02  0.67582238073E+03  0.67621548859E+03  0.00000000000E+00 0. -1.
         21    1    1    2  503  501 -0.14249070828E+02 -0.18123484887E+02  0.57562922877E+03  0.57609070965E+03  0.00000000000E+00 0.  1.
</event>
<event>
 4    1  0.5696713E+002  0.2830950E+02  0.7546771E-02  0.1434880E+00
          2   -1    0    0  502    0  0.00000000000E+00  0.00000000000E+00  0.14225450755E+02  0.14225450755E+02  0.00000000000E+00 0.  1.
         -2   -1    0    0    0  501 -0.00000000000E+00 -0.00000000000E+00 -0.81366201633E+02  0.81366201633E+02  0.00000000000E+00 0. -1.
         21    1    1    2  502  503 -0.16909292342E+02  0.22704705058E+02 -0.70618104997E+01  0.29176993794E+02  0.00000000000E+00 0.  1.
         21    1    1    2  503  501  0.16909292342E+02 -0.22704705058E+02 -0.60078940378E+02  0.66414658594E+02  0.00000000000E+00 0. -1.
</event>
<event>
 4    1  0.5696713E+002  0.2952974E+02  0.7546771E-02  0.1423728E+00
          2   -1    0    0  503    0  0.00000000000E+00  0.00000000000E+00  0.13584583571E+04  0.13584583571E+04  0.00000000000E+00 0.  1.
         -2   -1    0    0    0  501 -0.00000000000E+00 -0.00000000000E+00 -0.10793739754E+01  0.10793739754E+01  0.00000000000E+00 0. -1.
         21    1    1    2  502  501 -0.14398352537E+02 -0.25781639757E+02  0.24592924554E+03  0.24769577977E+03  0.00000000000E+00 0. -1.
         21    1    1    2  503  502  0.14398352537E+02  0.25781639757E+02  0.11114497376E+04  0.11118419513E+04  0.00000000000E+00 0.  1.
</event>
<event>
 4    1  0.5696713E+002  0.2052503E+02  0.7546771E-02  0.1526155E+00
          2   -1    0    0  502    0  0.00000000000E+00  0.00000000000E+00  0.20600115928E+01  0.20600115928E+01  0.00000000000E+00 0.  1.
         -2   -1    0    0    0  501 -0.00000000000E+00 -0.00000000000E+00 -0.20573179003E+03  0.20573179003E+03  0.00000000000E+00 0. -1.
         21    1    1    2  502  503 -0.63350506996E+01  0.19522908489E+02 -0.10986809253E+03  0.11176884441E+03  0.00000000000E+00 0.  1.
         21    1    1    2  503  501  0.63350506996E+01 -0.19522908489E+02 -0.93803685901E+02  0.96022957213E+02  0.00000000000E+00 0. -1.
</event>
<event>
 4    1  0.5696713E+002  0.2080784E+02  0.7546771E-02  0.1522026E+00
          2   -1    0    0  503    0  0.00000000000E+00  0.00000000000E+00  0.22440497533E+01  0.22440497533E+01  0.00000000000E+00 0.  1.
         -2   -1    0    0    0  501 -0.00000000000E+00 -0.00000000000E+00 -0.22203143017E+03  0.22203143017E+03  0.00000000000E+00 0. -1.
         21    1    1    2  502  501  0.20262371267E+02  0.47331195738E+01 -0.15048470709E+03  0.15191646777E+03  0.00000000000E+00 0. -1.
         21    1    1    2  503  502 -0.20262371267E+02 -0.47331195738E+01 -0.69302673324E+02  0.72359012155E+02  0.00000000000E+00 0.  1.
</event>
<event>
 4    1  0.5696713E+002  0.2159457E+02  0.7546771E-02  0.1510943E+00
          2   -1    0    0  502    0  0.00000000000E+00  0.00000000000E+00  0.11015241399E+04  0.11015241399E+04  0.00000000000E+00 0.  1.
         -2   -1    0    0    0  501 -0.00000000000E+00 -0.00000000000E+00 -0.21206463398E+01  0.21206463398E+01  0.00000000000E+00 0. -1.
         21    1    1    2  502  503  0.12736360092E+02 -0.17438765764E+02  0.10433806793E+04  0.10436041239E+04  0.00000000000E+00 0.  1.
         21    1    1    2  503  501 -0.12736360092E+02  0.17438765764E+02  0.56022814193E+02  0.60040662304E+02  0.00000000000E+00 0. -1.
</event>
<event>
 4    1  0.5696713E+002  0.2025764E+02  0.7546771E-02  0.1530133E+00
          2   -1    0    0  502    0  0.00000000000E+00  0.00000000000E+00  0.85203991982E+01  0.85203991982E+01  0.00000000000E+00 0.  1.
         -2   -1    0    0    0  501 -0.00000000000E+00 -0.00000000000E+00 -0.48914386067E+02  0.48914386067E+02  0.00000000000E+00 0. -1.
         21    1    1    2  502  503  0.15577119445E+02  0.12950884019E+02 -0.23755112716E+02  0.31219824267E+02  0.00000000000E+00 0. -1.
         21    1    1    2  503  501 -0.15577119445E+02 -0.12950884019E+02 -0.16638874153E+02  0.26214960999E+02  0.00000000000E+00 0.  1.
</event>
<event>
 4    1  0.5696713E+002  0.2305890E+02  0.7546771E-02  0.1491760E+00
          2   -1    0    0  503    0  0.00000000000E+00  0.00000000000E+00  0.17802772047E+02  0.17802772047E+02  0.00000000000E+00 0. -1.
         -2   -1    0    0    0  501 -0.00000000000E+00 -0.00000000000E+00 -0.86339591479E+02  0.86339591479E+02  0.00000000000E+00 0.  1.
         21    1    1    2  502  501 -0.18282157981E+02 -0.14052606099E+02 -0.76380985615E+02  0.79785763154E+02  0.00000000000E+00 0.  1.
         21    1    1    2  503  502  0.18282157981E+02  0.14052606099E+02  0.78441661823E+01  0.24356600373E+02  0.00000000000E+00 0. -1.
</event>
<event>
 4    1  0.5696713E+002  0.2213794E+02  0.7546771E-02  0.1503616E+00
          2   -1    0    0  502    0  0.00000000000E+00  0.00000000000E+00  0.59971337102E+01  0.59971337102E+01  0.00000000000E+00 0. -1.
         -2   -1    0    0    0  501 -0.00000000000E+00 -0.00000000000E+00 -0.86878816132E+02  0.86878816132E+02  0.00000000000E+00 0.  1.
         21    1    1    2  502  503 -0.13895555765E+02  0.17233742042E+02 -0.29125352248E+02  0.36583800764E+02  0.00000000000E+00 0.  1.
         21    1    1    2  503  501  0.13895555765E+02 -0.17233742042E+02 -0.51756330174E+02  0.56292149078E+02  0.00000000000E+00 0. -1.
</event>
<event>
 4    1  0.5696713E+002  0.2009281E+02  0.7546771E-02  0.1532622E+00
          2   -1    0    0  503    0  0.00000000000E+00  0.00000000000E+00  0.75715200281E+01  0.75715200281E+01  0.00000000000E+00 0.  1.
         -2   -1    0    0    0  501 -0.00000000000E+00 -0.00000000000E+00 -0.12298322429E+03  0.12298322429E+03  0.00000000000E+00 0. -1.
         21    1    1    2  502  501 -0.56332912576E+01  0.19286961830E+02 -0.10683491237E+03  0.10870795448E+03  0.00000000000E+00 0. -1.
         21    1    1    2  503  502  0.56332912576E+01 -0.19286961830E+02 -0.85767918969E+01  0.21846789839E+02  0.00000000000E+00 0.  1.
</event>
<event>
 4    1  0.5696713E+002  0.3869900E+02  0.7546771E-02  0.1356283E+00
          2   -1    0    0  502    0  0.00000000000E+00  0.00000000000E+00  0.15406654885E+04  0.15406654885E+04  0.00000000000E+00 0.  1.
         -2   -1    0    0    0  501 -0.00000000000E+00 -0.00000000000E+00 -0.20986786752E+01  0.20986786752E+01  0.00000000000E+00 0. -1.
         21    1    1    2  502  503  0.35557444179E+02  0.15273536567E+02  0.13344622059E+04  0.13350232177E+04  0.00000000000E+00 0.  1.
         21    1    1    2  503  501 -0.35557444179E+02 -0.15273536567E+02  0.20410460391E+03  0.20774094949E+03  0.00000000000E+00 0. -1.
</event>
<event>
 4    1  0.5696713E+002  0.5329516E+02  0.7546771E-02  0.1284485E+00
          2   -1    0    0  503    0  0.00000000000E+00  0.00000000000E+00  0.44272426747E+03  0.44272426747E+03  0.00000000000E+00 0.  1.
         -2   -1    0    0    0  501 -0.00000000000E+00 -0.00000000000E+00 -0.64256825240E+01  0.64256825240E+01  0.00000000000E+00 0. -1.
         21    1    1    2  502  501 -0.53224514536E+02 -0.27431089263E+01  0.20928519227E+03  0.21596450008E+03  0.00000000000E+00 0.  1.
         21    1    1    2  503  502  0.53224514536E+02  0.27431089263E+01  0.22701339268E+03  0.23318544991E+03  0.00000000000E+00 0. -1.
</event>
<event>
 4    1  0.5696713E+002  0.2002170E+02  0.7546771E-02  0.1533704E+00
          2   -1    0    0  502    0  0.00000000000E+00  0.00000000000E+00  0.61670439497E+02  0.61670439497E+02  0.00000000000E+00 0. -1.
         -2   -1    0    0    0  501 -0.00000000000E+00 -0.00000000000E+00 -0.26658434714E+02  0.26658434714E+02  0.00000000000E+00 0.  1.
         21    1    1    2  502  503 -0.14241281432E+02  0.14073185143E+02  0.55910483087E+02  0.59387294566E+02  0.00000000000E+00 0. -1.
         21    1    1    2  503  501  0.14241281432E+02 -0.14073185143E+02 -0.20898478304E+02  0.28941579644E+02  0.00000000000E+00 0.  1.
</event>
<event>
 4    1  0.5696713E+002  0.2255940E+02  0.7546771E-02  0.1498106E+00
          2   -1    0    0  503    0  0.00000000000E+00  0.00000000000E+00  0.11308884927E+03  0.11308884927E+03  0.00000000000E+00 0.  1.
         -2   -1    0    0    0  501 -0.00000000000E+00 -0.00000000000E+00 -0.57539177036E+01  0.57539177036E+01  0.00000000000E+00 0. -1.
         21    1    1    2  502  501  0.12277112807E+02 -0.18926142868E+02  0.25930766632E+02  0.34370496663E+02  0.00000000000E+00 0. -1.
         21    1    1    2  503  502 -0.12277112807E+02  0.18926142868E+02  0.81404164935E+02  0.84472270311E+02  0.00000000000E+00 0.  1.
</event>
<event>
 4    1  0.5696713E+002  0.2940544E+02  0.7546771E-02  0.1424835E+00
          2   -1    0    0  502    0  0.00000000000E+00  0.00000000000E+00  0.28718604110E+02  0.28718604110E+02  0.00000000000E+00 0. -1.
         -2   -1    0    0    0  501 -0.00000000000E+00 -0.00000000000E+00 -0.37554743856E+02  0.37554743856E+02  0.00000000000E+00 0.  1.
         21    1    1    2  502  503 -0.19804333457E+02  0.21736333052E+02  0.10336934608E+02  0.31169408324E+02  0.00000000000E+00 0. -1.
         21    1    1    2  503  501  0.19804333457E+02 -0.21736333052E+02 -0.19173074353E+02  0.35103939642E+02  0.00000000000E+00 0.  1.
</event>
<event>
 4    1  0.5696713E+002  0.2952756E+02  0.7546771E-02  0.1423747E+00
          2   -1    0    0  503    0  0.00000000000E+00  0.00000000000E+00  0.31694324569E+02  0.31694324569E+02  0.00000000000E+00 0.  1.
         -2   -1    0    0    0  501 -0.00000000000E+00 -0.00000000000E+00 -0.27759601737E+02  0.27759601737E+02  0.00000000000E+00 0. -1.
         21    1    1    2  502  501 -0.72399990091E+01 -0.28626193906E+02 -0.85756636201E+00  0.29540006487E+02  0.00000000000E+00 0.  1.
         21    1    1    2  503  502  0.72399990091E+01  0.28626193906E+02  0.47922891940E+01  0.29913919819E+02  0.00000000000E+00 0. -1.
</event>
<event>
 4    1  0.5696713E+002  0.3026645E+02  0.7546771E-02  0.1417295E+00
          2   -1    0    0  502    0  0.00000000000E+00  0.00000000000E+00  0.11878469673E+01  0.11878469673E+01  0.00000000000E+00 0.  1.
         -2   -1    0    0    0  501 -0.00000000000E+00 -0.00000000000E+00 -0.93242868427E+03  0.93242868427E+03  0.00000000000E+00 0. -1.
         21    1    1    2  502  503  0.19713130284E+02  0.22966291401E+02 -0.27150381219E+03  0.27318561104E+03  0.00000000000E+00 0.  1.
         21    1    1    2  503  501 -0.19713130284E+02 -0.22966291401E+02 -0.65973702512E+03  0.66043092020E+03  0.00000000000E+00 0. -1.
</event>
<event>
 4    1  0.5696713E+002  0.2070861E+02  0.7546771E-02  0.1523466E+00
          2   -1    0    0  502    0  0.00000000000E+00  0.00000000000E+00  0.34234812609E+03  0.34234812609E+03  0.00000000000E+00 0.  1.
         -2   -1    0    0    0  501 -0.00000000000E+00 -0.00000000000E+00 -0.14620799707E+01  0.14620799707E+01  0.00000000000E+00 0. -1.
         21    1    1    2  502  503 -0.90975303397E+01  0.18603269396E+02  0.23550235003E+03  0.23641109018E+03  0.00000000000E+00 0.  1.
         21    1    1    2  503  501  0.90975303397E+01 -0.18603269396E+02  0.10538369609E+03  0.10739911588E+03  0.00000000000E+00 0. -1.
</event>
<event>
 4    1  0.5696713E+002  0.2036430E+02  0.7546771E-02  0.1528538E+00
          2   -1    0    0  502    0  0.00000000000E+00  0.00000000000E+00  0.96358085893E+02  0.96358085893E+02  0.00000000000E+00 0.  1.
         -2   -1    0    0    0  501 -0.00000000000E+00 -0.00000000000E+00 -0.48229187569E+01  0.48229187569E+01  0.00000000000E+00 0. -1.
         21    1    1    2  502  503 -0.46064122277E+01 -0.19836474353E+02  0.62365459309E+02  0.65606061177E+02  0.00000000000E+00 0.  1.
         21    1    1    2  503  501  0.46064122277E+01  0.19836474353E+02  0.29169707827E+02  0.35574943473E+02  0.00000000000E+00 0. -1.
</event>
<event>
 4    1  0.5696713E+002  0.2397078E+02  0.7546771E-02  0.1480655E+00
          2   -1    0    0  502    0  0.00000000000E+00  0.00000000000E+00  0.16892262871E+04  0.16892262871E+04  0.00000000000E+00 0.  1.
         -2   -1    0    0    0  501 -0.00000000000E+00 -0.00000000000E+00 -0.47806007510E+00  0.47806007510E+00  0.00000000000E+00 0. -1.
         21    1    1    2  502  503  0.59707415519E+01 -0.23215261967E+02  0.12981382780E+04  0.12983595754E+04  0.00000000000E+00 0.  1.
         21    1    1    2  503  501 -0.59707415519E+01  0.23215261967E+02  0.39060994899E+03  0.39134477177E+03  0.00000000000E+00 0. -1.
</event>
<event>
 4    1  0.5696713E+002  0.2876211E+02  0.7546771E-02  0.1430667E+00
          2   -1    0    0  502    0  0.00000000000E+00  0.00000000000E+00  0.57844472357E+03  0.57844472357E+03  0.00000000000E+00 0.  1.
         -2   -1    0    0    0  501 -0.00000000000E+00 -0.00000000000E+00 -0.23435418770E+01  0.23435418770E+01  0.00000000000E+00 0. -1.
         21    1    1    2  502  503  0.18374032294E+02  0.22128129730E+02  0.46934378589E+03  0.47022425346E+03  0.00000000000E+00 0.  1.
         21    1    1    2  503  501 -0.18374032294E+02 -0.22128129730E+02  0.10675739580E+03  0.11056401198E+03  0.00000000000E+00 0. -1.
</event>
<event>
 4    1  0.5696713E+002  0.2402149E+02  0.7546771E-02  0.1480055E+00
          2   -1    0    0  503    0  0.00000000000E+00  0.00000000000E+00  0.57870231225E+03  0.57870231225E+03  0.00000000000E+00 0.  1.
         -2   -1    0    0    0  501 -0.00000000000E+00 -0.00000000000E+00 -0.13347431156E+01  0.13347431156E+01  0.00000000000E+00 0. -1.
         21    1    1    2  502  501 -0.13140068381E+02  0.20108973150E+02  0.14282022045E+03  0.14482626685E+03  0.00000000000E+00 0. -1.
         21    1    1    2  503  502  0.13140068381E+02 -0.20108973150E+02  0.43454734868E+03  0.43521078852E+03  0.00000000000E+00 0.  1.
</event>
<event>
 4    1  0.5696713E+002  0.2015519E+02  0.7546771E-02  0.1531676E+00
          2   -1    0    0  503    0  0.00000000000E+00  0.00000000000E+00  0.94038778855E+01  0.94038778855E+01  0.00000000000E+00 0.  1.
         -2   -1    0    0    0  501 -0.00000000000E+00 -0.00000000000E+00 -0.43336656121E+02  0.43336656121E+02  0.00000000000E+00 0. -1.
         21    1    1    2  502  501 -0.22518624748E+01  0.20029000485E+02 -0.18456269734E+02  0.27328842594E+02  0.00000000000E+00 0. -1.
         21    1    1    2  503  502  0.22518624748E+01 -0.20029000485E+02 -0.15476508502E+02  0.25411691413E+02  0.00000000000E+00 0.  1.
</event>
<event>
 4    1  0.5696713E+002  0.2230018E+02  0.7546771E-02  0.1501478E+00
          2   -1    0    0  502    0  0.00000000000E+00  0.00000000000E+00  0.58533779820E+03  0.58533779820E+03  0.00000000000E+00 0. -1.
         -2   -1    0    0    0  501 -0.00000000000E+00 -0.00000000000E+00 -0.25895957488E+01  0.25895957488E+01  0.00000000000E+00 0.  1.
         21    1    1    2  502  503 -0.21189422364E+02 -0.69502712133E+01  0.53233850716E+03  0.53280539045E+03  0.00000000000E+00 0. -1.
         21    1    1    2  503  501  0.21189422364E+02  0.69502712133E+01  0.50409695287E+02  0.55122003492E+02  0.00000000000E+00 0.  1.
</event>
<event>
 4    1  0.5696713E+002  0.2747157E+02  0.7546771E-02  0.1442928E+00
          2   -1    0    0  503    0  0.00000000000E+00  0.00000000000E+00  0.25026309076E+01  0.25026309076E+01  0.00000000000E+00 0.  1.
         -2   -1    0    0    0  501 -0.00000000000E+00 -0.00000000000E+00 -0.50946972789E+03  0.50946972789E+03  0.00000000000E+00 0. -1.
         21    1    1    2  502  501 -0.11632756505E+02  0.24887062794E+02 -0.89953552244E+02  0.94054922677E+02  0.00000000000E+00 0.  1.
         21    1    1    2  503  502  0.11632756505E+02 -0.24887062794E+02 -0.41701354474E+03  0.41791743612E+03  0.00000000000E+00 0. -1.
</event>
<event>
 4    1  0.5696713E+002  0.2128058E+02  0.7546771E-02  0.1515296E+00
          2   -1    0    0  502    0  0.00000000000E+00  0.00000000000E+00  0.52075985947E+02  0.52075985947E+02  0.00000000000E+00 0. -1.
         -2   -1    0    0    0  501 -0.00000000000E+00 -0.00000000000E+00 -0.42438887037E+02  0.42438887037E+02  0.00000000000E+00 0.  1.
         21    1    1    2  502  503 -0.16283341518E+02 -0.13700946282E+02  0.46956945865E+02  0.51554028989E+02  0.00000000000E+00 0. -1.
         21    1    1    2  503  501  0.16283341518E+02  0.13700946282E+02 -0.37319846954E+02  0.42960843995E+02  0.00000000000E+00 0.  1.
</event>
<event>
 4    1  0.5696713E+002  0.7168510E+02  0.7546771E-02  0.1224589E+00
          2   -1    0    0  502    0  0.00000000000E+00  0.00000000000E+00  0.88267322477E+02  0.88267322477E+02  0.00000000000E+00 0.  1.
         -2   -1    0    0    0  501 -0.00000000000E+00 -0.00000000000E+00 -0.18255322961E+03  0.18255322961E+03  0.00000000000E+00 0. -1.
         21    1    1    2  502  503 -0.43914719577E+02 -0.56659071192E+02  0.64608671042E+02  0.96504058555E+02  0.00000000000E+00 0.  1.
         21    1    1    2  503  501  0.43914719577E+02  0.56659071192E+02 -0.15889457817E+03  0.17431649353E+03  0.00000000000E+00 0. -1.
</event>
<event>
 4    1  0.5696713E+002  0.3472283E+02  0.7546771E-02  0.1382522E+00
          2   -1    0    0  502    0  0.00000000000E+00  0.00000000000E+00  0.25793674547E+02  0.25793674547E+02  0.00000000000E+00 0.  1.
         -2   -1    0    0    0  501 -0.00000000000E+00 -0.00000000000E+00 -0.63135663741E+02  0.63135663741E+02  0.00000000000E+00 0. -1.
         21    1    1    2  502  503  0.30195640878E+02  0.17143461741E+02  0.39859737607E+01  0.34950865445E+02  0.00000000000E+00 0.  1.
         21    1    1    2  503  501 -0.30195640878E+02 -0.17143461741E+02 -0.41327962955E+02  0.53978472844E+02  0.00000000000E+00 0. -1.
</event>
<event>
 4    1  0.5696713E+002  0.2485210E+02  0.7546771E-02  0.1470465E+00
          2   -1    0    0  502    0  0.00000000000E+00  0.00000000000E+00  0.65640897403E+01  0.65640897403E+01  0.00000000000E+00 0. -1.
         -2   -1    0    0    0  501 -0.00000000000E+00 -0.00000000000E+00 -0.15258051098E+03  0.15258051098E+03  0.00000000000E+00 0.  1.
         21    1    1    2  502  503 -0.21353547084E+02  0.12714273051E+02 -0.23742065775E+02  0.34370225480E+02  0.00000000000E+00 0.  1.
         21    1    1    2  503  501  0.21353547084E+02 -0.12714273051E+02 -0.12227435547E+03  0.12477437524E+03  0.00000000000E+00 0. -1.
</event>
<event>
 4    1  0.5696713E+002  0.7677308E+02  0.7546771E-02  0.1211544E+00
          2   -1    0    0  502    0  0.00000000000E+00  0.00000000000E+00  0.20583309780E+03  0.20583309780E+03  0.00000000000E+00 0.  1.
         -2   -1    0    0    0  501 -0.00000000000E+00 -0.00000000000E+00 -0.15836234011E+03  0.15836234011E+03  0.00000000000E+00 0. -1.
         21    1    1    2  502  503  0.20868249542E+02 -0.73882488350E+02  0.18854922554E+03  0.20358024555E+03  0.00000000000E+00 0.  1.
         21    1    1    2  503  501 -0.20868249542E+02  0.73882488350E+02 -0.14107846785E+03  0.16061519236E+03  0.00000000000E+00 0. -1.
</event>
<event>
 4    1  0.5696713E+002  0.3405352E+02  0.7546771E-02  0.1387342E+00
          2   -1    0    0  503    0  0.00000000000E+00  0.00000000000E+00  0.62457136634E+01  0.62457136634E+01  0.00000000000E+00 0.  1.
         -2   -1    0    0    0  501 -0.00000000000E+00 -0.00000000000E+00 -0.56087866665E+03  0.56087866665E+03  0.00000000000E+00 0. -1.
         21    1    1    2  502  501 -0.29926695242E+02  0.16249166757E+02 -0.50924289038E+03  0.51038021505E+03  0.00000000000E+00 0. -1.
         21    1    1    2  503  502  0.29926695242E+02 -0.16249166757E+02 -0.45390062606E+02  0.56744165266E+02  0.00000000000E+00 0.  1.
</event>
<event>
 4    1  0.5696713E+002  0.2169556E+02  0.7546771E-02  0.1509561E+00
          2   -1    0    0  503    0  0.00000000000E+00  0.00000000000E+00  0.34414705889E+03  0.34414705889E+03  0.00000000000E+00 0.  1.
         -2   -1    0    0    0  501 -0.00000000000E+00 -0.00000000000E+00 -0.70974856503E+01  0.70974856503E+01  0.00000000000E+00 0. -1.
         21    1    1    2  502  501  0.49636995539E+01 -0.21120107866E+02  0.10728888319E+02  0.24203435998E+02  0.00000000000E+00 0. -1.
         21    1    1    2  503  502 -0.49636995539E+01  0.21120107866E+02  0.32632068492E+03  0.32704110855E+03  0.00000000000E+00 0.  1.
</event>
<event>
 4    1  0.5696713E+002  0.3583415E+02  0.7546771E-02  0.1374792E+00
          2   -1    0    0  503    0  0.00000000000E+00  0.00000000000E+00  0.11842656840E+03  0.11842656840E+03  0.00000000000E+00 0.  1.
         -2   -1    0    0    0  501 -0.00000000000E+00 -0.00000000000E+00 -0.36158834815E+02  0.36158834815E+02  0.00000000000E+00 0. -1.
         21    1    1    2  502  501 -0.26878764495E+02  0.23698488749E+02 -0.23539926915E+02  0.42874403890E+02  0.00000000000E+00 0. -1.
         21    1    1    2  503  502  0.26878764495E+02 -0.23698488749E+02  0.10580766050E+03  0.11171099932E+03  0.00000000000E+00 0.  1.
</event>
<event>
 4    1  0.5696713E+002  0.2192574E+02  0.7546771E-02  0.1506447E+00
          2   -1    0    0  502    0  0.00000000000E+00  0.00000000000E+00  0.40916807418E+03  0.40916807418E+03  0.00000000000E+00 0. -1.
         -2   -1    0    0    0  501 -0.00000000000E+00 -0.00000000000E+00 -0.15056390068E+01  0.15056390068E+01  0.00000000000E+00 0.  1.
         21    1    1    2  502  503  0.73541073601E+01  0.20655634938E+02  0.30006745435E+03  0.30086743810E+03  0.00000000000E+00 0. -1.
         21    1    1    2  503  501 -0.73541073601E+01 -0.20655634938E+02  0.10759498083E+03  0.10980627509E+03  0.00000000000E+00 0.  1.
</event>
<event>
 4    1  0.5696713E+002  0.2046386E+02  0.7546771E-02  0.1527059E+00
          2   -1    0    0  503    0  0.00000000000E+00  0.00000000000E+00  0.13842401585E+04  0.13842401585E+04  0.00000000000E+00 0. -1.
         -2   -1    0    0    0  501 -0.00000000000E+00 -0.00000000000E+00 -0.30308025976E+00  0.30308025976E+00  0.00000000000E+00 0.  1.
         21    1    1    2  502  501 -0.12646133286E+02 -0.16088652996E+02  0.72155729200E+03  0.72184741815E+03  0.00000000000E+00 0. -1.
         21    1    1    2  503  502  0.12646133286E+02  0.16088652996E+02  0.66237978621E+03  0.66269582059E+03  0.00000000000E+00 0.  1.
</event>
<event>
 4    1  0.5696713E+002  0.2213014E+02  0.7546771E-02  0.1503720E+00
          2   -1    0    0  503    0  0.00000000000E+00  0.00000000000E+00  0.33691768673E+01  0.33691768673E+01  0.00000000000E+00 0.  1.
         -2   -1    0    0    0  501 -0.00000000000E+00 -0.00000000000E+00 -0.16282603022E+03  0.16282603022E+03  0.00000000000E+00 0. -1.
         21    1    1    2  502  501  0.21802786091E+02 -0.37922840325E+01 -0.10694453870E+03  0.10921024337E+03  0.00000000000E+00 0.  1.
         21    1    1    2  503  502 -0.21802786091E+02  0.37922840325E+01 -0.52512314655E+02  0.56984963718E+02  0.00000000000E+00 0. -1.
</event>
<event>
 4    1  0.5696713E+002  0.2115936E+02  0.7546771E-02  0.1517002E+00
          2   -1    0    0  502    0  0.00000000000E+00  0.00000000000E+00  0.39931505581E+03  0.39931505581E+03  0.00000000000E+00 0.  1.
         -2   -1    0    0    0  501 -0.00000000000E+00 -0.00000000000E+00 -0.13657511758E+01  0.13657511758E+01  0.00000000000E+00 0. -1.
         21    1    1    2  502  503  0.21034766425E+02 -0.22928268717E+01  0.28374683576E+03  0.28453468200E+03  0.00000000000E+00 0.  1.
         21    1    1    2  503  501 -0.21034766425E+02  0.22928268717E+01  0.11420246887E+03  0.11614612499E+03  0.00000000000E+00 0. -1.
</event>
<event>
 4    1  0.5696713E+002  0.3458250E+02  0.7546771E-02  0.1383522E+00
          2   -1    0    0  502    0  0.00000000000E+00  0.00000000000E+00  0.41872610387E+03  0.41872610387E+03  0.00000000000E+00 0.  1.
         -2   -1    0    0    0  501 -0.00000000000E+00 -0.00000000000E+00 -0.76948488333E+02  0.76948488333E+02  0.00000000000E+00 0. -1.
         21    1    1    2  502  503  0.10581842494E+02 -0.32923758936E+02  0.41408301921E+03  0.41552460347E+03  0.00000000000E+00 0.  1.
         21    1    1    2  503  501 -0.10581842494E+02  0.32923758936E+02 -0.72305403673E+02  0.80149988730E+02  0.00000000000E+00 0. -1.
</event>
<event>
 4    1  0.5696713E+002  0.2095545E+02  0.7546771E-02  0.1519902E+00
          2   -1    0    0  502    0  0.00000000000E+00  0.00000000000E+00  0.57616839649E+02  0.57616839649E+02  0.00000000000E+00 0. -1.
         -2   -1    0    0    0  501 -0.00000000000E+00 -0.00000000000E+00 -0.76911780100E+01  0.76911780100E+01  0.00000000000E+00 0.  1.
         21    1    1    2  502  503 -0.84370788703E+01  0.19181929942E+02  0.28069334484E+02  0.35028820627E+02  0.00000000000E+00 0. -1.
         21    1    1    2  503  501  0.84370788703E+01 -0.19181929942E+02  0.21856327155E+02  0.30279197031E+02  0.00000000000E+00 0.  1.
</event>
<event>
 4    1  0.5696713E+002  0.2728075E+02  0.7546771E-02  0.1444808E+00
          2   -1    0    0  503    0  0.00000000000E+00  0.00000000000E+00  0.23770831660E+03  0.23770831660E+03  0.00000000000E+00 0. -1.
         -2   -1    0    0    0  501 -0.00000000000E+00 -0.00000000000E+00 -0.32568441096E+01  0.32568441096E+01  0.00000000000E+00 0.  1.
         21    1    1    2  502  501  0.18737453699E+00  0.27280105120E+02  0.14091912650E+03  0.14353549895E+03  0.00000000000E+00 0.  1.
         21    1    1    2  503  502 -0.18737453699E+00 -0.27280105120E+02  0.93532345988E+02  0.97429661760E+02  0.00000000000E+00 0. -1.
</event>
<event>
 4    1  0.5696713E+002  0.6205081E+02  0.7546771E-02  0.1253019E+00
          2   -1    0    0  502    0  0.00000000000E+00  0.00000000000E+00  0.18423857452E+04  0.18423857452E+04  0.00000000000E+00 0. -1.
         -2   -1    0    0    0  501 -0.00000000000E+00 -0.00000000000E+00 -0.22608002227E+01  0.22608002227E+01  0.00000000000E+00 0.  1.
         21    1    1    2  502  503 -0.34422718505E+02 -0.51627314673E+02  0.11736871539E+04  0.11753262689E+04  0.00000000000E+00 0. -1.
         21    1    1    2  503  501  0.34422718505E+02  0.51627314673E+02  0.66643779107E+03  0.66932027651E+03  0.00000000000E+00 0.  1.
</event>
<event>
 4    1  0.5696713E+002  0.2011831E+02  0.7546771E-02  0.1532235E+00
          2   -1    0    0  502    0  0.00000000000E+00  0.00000000000E+00  0.19557355423E+01  0.19557355423E+01  0.00000000000E+00 0. -1.
         -2   -1    0    0    0  501 -0.00000000000E+00 -0.00000000000E+00 -0.35264906663E+03  0.35264906663E+03  0.00000000000E+00 0.  1.
         21    1    1    2  502  503 -0.18602766014E+02 -0.76605174118E+01 -0.61383021245E+02  0.64595833670E+02  0.00000000000E+00 0. -1.
         21    1    1    2  503  501  0.18602766014E+02  0.76605174118E+01 -0.28931030984E+03  0.29000896850E+03  0.00000000000E+00 0.  1.
</event>
<event>
 4    1  0.5696713E+002  0.1049273E+03  0.7546771E-02  0.1155533E+00
          2   -1    0    0  502    0  0.00000000000E+00  0.00000000000E+00  0.22577165199E+03  0.22577165199E+03  0.00000000000E+00 0. -1.
         -2   -1    0    0    0  501 -0.00000000000E+00 -0.00000000000E+00 -0.49090155300E+03  0.49090155300E+03  0.00000000000E+00 0.  1.
         21    1    1    2  502  503  0.65331020497E+02 -0.82107250498E+02  0.20750809039E+03  0.23252817120E+03  0.00000000000E+00 0. -1.
         21    1    1    2  503  501 -0.65331020497E+02  0.82107250498E+02 -0.47263799140E+03  0.48414503379E+03  0.00000000000E+00 0.  1.
</event>
<event>
 4    1  0.5696713E+002  0.2005194E+02  0.7546771E-02  0.1533243E+00
          2   -1    0    0  502    0  0.00000000000E+00  0.00000000000E+00  0.73007981870E+02  0.73007981870E+02  0.00000000000E+00 0.  1.
         -2   -1    0    0    0  501 -0.00000000000E+00 -0.00000000000E+00 -0.14806961040E+02  0.14806961040E+02  0.00000000000E+00 0. -1.
         21    1    1    2  502  503  0.86837701400E+01  0.18074080955E+02  0.63897200141E+02  0.66969638285E+02  0.00000000000E+00 0.  1.
         21    1    1    2  503  501 -0.86837701400E+01 -0.18074080955E+02 -0.56961793109E+01  0.20845304626E+02  0.00000000000E+00 0. -1.
</event>
<event>
 4    1  0.5696713E+002  0.2008667E+02  0.7546771E-02  0.1532715E+00
          2   -1    0    0  503    0  0.00000000000E+00  0.00000000000E+00  0.12521772160E+01  0.12521772160E+01  0.00000000000E+00 0.  1.
         -2   -1    0    0    0  501 -0.00000000000E+00 -0.00000000000E+00 -0.55674425680E+03  0.55674425680E+03  0.00000000000E+00 0. -1.
         21    1    1    2  502  501 -0.40643414004E+01 -0.19671183223E+02 -0.45882545458E+03  0.45926492582E+03  0.00000000000E+00 0. -1.
         21    1    1    2  503  502  0.40643414004E+01  0.19671183223E+02 -0.96666625001E+02  0.98731508190E+02  0.00000000000E+00 0.  1.
</event>
<event>
 4    1  0.5696713E+002  0.2002649E+02  0.7546771E-02  0.1533631E+00
          2   -1    0    0  502    0  0.00000000000E+00  0.00000000000E+00  0.36754837319E+02  0.36754837319E+02  0.00000000000E+00 0.  1.
         -2   -1    0    0    0  501 -0.00000000000E+00 -0.00000000000E+00 -0.12540147617E+02  0.12540147617E+02  0.00000000000E+00 0. -1.
         21    1    1    2  502  503 -0.17584720983E+02 -0.95832183273E+01  0.20989092307E+02  0.29010385751E+02  0.00000000000E+00 0.  1.
         21    1    1    2  503  501  0.17584720983E+02  0.95832183273E+01  0.32255973955E+01  0.20284599185E+02  0.00000000000E+00 0. -1.
</event>
<event>
 4    1  0.5696713E+002  0.2753586E+02  0.7546771E-02  0.1442298E+00
          2   -1    0    0  503    0  0.00000000000E+00  0.00000000000E+00  0.71443942112E+02  0.71443942112E+02  0.00000000000E+00 0. -1.
         -2   -1    0    0    0  501 -0.00000000000E+00 -0.00000000000E+00 -0.13399706956E+02  0.13399706956E+02  0.00000000000E+00 0.  1.
         21    1    1    2  502  501  0.14977772110E+02  0.23106056860E+02  0.96757524100E+01  0.29186361638E+02  0.00000000000E+00 0.  1.
         21    1    1    2  503  502 -0.14977772110E+02 -0.23106056860E+02  0.48368482746E+02  0.55657287430E+02  0.00000000000E+00 0. -1.
</event>
<event>
 4    1  0.5696713E+002  0.2689373E+02  0.7546771E-02  0.1448679E+00
          2   -1    0    0  503    0  0.00000000000E+00  0.00000000000E+00  0.40210664450E+03  0.40210664450E+03  0.00000000000E+00 0.  1.
         -2   -1    0    0    0  501 -0.00000000000E+00 -0.00000000000E+00 -0.28257074641E+01  0.28257074641E+01  0.00000000000E+00 0. -1.
         21    1    1    2  502  501 -0.26874651150E+02 -0.10127785008E+01  0.32170062072E+03  0.32282280274E+03  0.00000000000E+00 0.  1.
         21    1    1    2  503  502  0.26874651150E+02  0.10127785008E+01  0.77580316311E+02  0.82109549223E+02  0.00000000000E+00 0. -1.
</event>
<event>
 4    1  0.5696713E+002  0.2515054E+02  0.7546771E-02  0.1467126E+00
          2   -1    0    0  503    0  0.00000000000E+00  0.00000000000E+00  0.72519351960E+02  0.72519351960E+02  0.00000000000E+00 0. -1.
         -2   -1    0    0    0  501 -0.00000000000E+00 -0.00000000000E+00 -0.16523009042E+02  0.16523009042E+02  0.00000000000E+00 0.  1.
         21    1    1    2  502  501 -0.89796335665E+01 -0.23492889835E+02 -0.25921266944E+01  0.25283765792E+02  0.00000000000E+00 0.  1.
         21    1    1    2  503  502  0.89796335665E+01  0.23492889835E+02  0.58588469612E+02  0.63758595211E+02  0.00000000000E+00 0. -1.
</event>
<event>
 4    1  0.5696713E+002  0.3079693E+02  0.7546771E-02  0.1412795E+00
          2   -1    0    0  502    0  0.00000000000E+00  0.00000000000E+00  0.56150013832E+02  0.56150013832E+02  0.00000000000E+00 0.  1.
         -2   -1    0    0    0  501 -0.00000000000E+00 -0.00000000000E+00 -0.19960643031E+02  0.19960643031E+02  0.00000000000E+00 0. -1.
         21    1    1    2  502  503 -0.30209817547E+02 -0.59848115301E+01  0.33017319338E+02  0.45150796467E+02  0.00000000000E+00 0.  1.
         21    1    1    2  503  501  0.30209817547E+02  0.59848115301E+01  0.31720514625E+01  0.30959860397E+02  0.00000000000E+00 0. -1.
</event>
<event>
 4    1  0.5696713E+002  0.4604308E+02  0.7546771E-02  0.1316304E+00
          2   -1    0    0  503    0  0.00000000000E+00  0.00000000000E+00  0.53415712608E+03  0.53415712608E+03  0.00000000000E+00 0.  1.
         -2   -1    0    0    0  501 -0.00000000000E+00 -0.00000000000E+00 -0.29231028507E+02  0.29231028507E+02  0.00000000000E+00 0. -1.
         21    1    1    2  502  501 -0.35720273089E+02 -0.29052148276E+02 -0.94103942357E+01  0.46994901306E+02  0.00000000000E+00 0. -1.
         21    1    1    2  503  502  0.35720273089E+02  0.29052148276E+02  0.51433649180E+03  0.51639325328E+03  0.00000000000E+00 0.  1.
</event>
<event>
 4    1  0.5696713E+002  0.4288963E+02  0.7546771E-02  0.1332337E+00
          2   -1    0    0  503    0  0.00000000000E+00  0.00000000000E+00  0.39203937038E+03  0.39203937038E+03  0.00000000000E+00 0. -1.
         -2   -1    0    0    0  501 -0.00000000000E+00 -0.00000000000E+00 -0.93454391108E+01  0.93454391108E+01  0.00000000000E+00 0.  1.
         21    1    1    2  502  501  0.13664289164E+02  0.40654733981E+02  0.49731856402E+02  0.65671742284E+02  0.00000000000E+00 0.  1.
         21    1    1    2  503  502 -0.13664289164E+02 -0.40654733981E+02  0.33296207487E+03  0.33571306721E+03  0.00000000000E+00 0. -1.
</event>
<event>
 4    1  0.5696713E+002  0.2409987E+02  0.7546771E-02  0.1479130E+00
          2   -1    0    0  502    0  0.00000000000E+00  0.00000000000E+00  0.51820681256E+03  0.51820681256E+03  0.00000000000E+00 0. -1.
         -2   -1    0    0    0  501 -0.00000000000E+00 -0.00000000000E+00 -0.18260917308E+01  0.18260917308E+01  0.00000000000E+00 0.  1.
         21    1    1    2  502  503  0.18576606721E+02 -0.15352957788E+02  0.41978444305E+03  0.42047566191E+03  0.00000000000E+00 0. -1.
         21    1    1    2  503  501 -0.18576606721E+02  0.15352957788E+02  0.96596277785E+02  0.99557242389E+02  0.00000000000E+00 0.  1.
</event>
<event>
 4    1  0.5696713E+002  0.5021308E+02  0.7546771E-02  0.1297251E+00
          2   -1    0    0  503    0  0.00000000000E+00  0.00000000000E+00  0.14977419198E+03  0.14977419198E+03  0.00000000000E+00 0. -1.
         -2   -1    0    0    0  501 -0.00000000000E+00 -0.00000000000E+00 -0.20255399016E+02  0.20255399016E+02  0.00000000000E+00 0.  1.
         21    1    1    2  502  501 -0.45619052554E+02  0.20982259931E+02  0.29821005078E+02  0.58400732286E+02  0.00000000000E+00 0.  1.
         21    1    1    2  503  502  0.45619052554E+02 -0.20982259931E+02  0.99697787888E+02  0.11162885871E+03  0.00000000000E+00 0. -1.
</event>
<event>
 4    1  0.5696713E+002  0.2040939E+02  0.7546771E-02  0.1527867E+00
          2   -1    0    0  502    0  0.00000000000E+00  0.00000000000E+00  0.80615018085E+03  0.80615018085E+03  0.00000000000E+00 0.  1.
         -2   -1    0    0    0  501 -0.00000000000E+00 -0.00000000000E+00 -0.60529767778E+00  0.60529767778E+00  0.00000000000E+00 0. -1.
         21    1    1    2  502  503  0.11602267720E+02 -0.16790782714E+02  0.55709264147E+03  0.55746637044E+03  0.00000000000E+00 0.  1.
         21    1    1    2  503  501 -0.11602267720E+02  0.16790782714E+02  0.24845224171E+03  0.24928910808E+03  0.00000000000E+00 0. -1.
</event>
<event>
 4    1  0.5696713E+002  0.3836488E+02  0.7546771E-02  0.1358343E+00
          2   -1    0    0  503    0  0.00000000000E+00  0.00000000000E+00  0.55974127293E+03  0.55974127293E+03  0.00000000000E+00 0. -1.
         -2   -1    0    0    0  501 -0.00000000000E+00 -0.00000000000E+00 -0.33033250482E+01  0.33033250482E+01  0.00000000000E+00 0.  1.
         21    1    1    2  502  501 -0.37153607941E+02 -0.95641896733E+01  0.15107477791E+03  0.15586998694E+03  0.00000000000E+00 0. -1.
         21    1    1    2  503  502  0.37153607941E+02  0.95641896733E+01  0.40536316997E+03  0.40717461104E+03  0.00000000000E+00 0.  1.
</event>
<event>
 4    1  0.5696713E+002  0.2054739E+02  0.7546771E-02  0.1525826E+00
          2   -1    0    0  503    0  0.00000000000E+00  0.00000000000E+00  0.86265564826E+01  0.86265564826E+01  0.00000000000E+00 0. -1.
         -2   -1    0    0    0  501 -0.00000000000E+00 -0.00000000000E+00 -0.78311049000E+02  0.78311049000E+02  0.00000000000E+00 0.  1.
         21    1    1    2  502  501 -0.88595865918E+01  0.18539223989E+02 -0.61462739232E+02  0.64806353196E+02  0.00000000000E+00 0.  1.
         21    1    1    2  503  502  0.88595865918E+01 -0.18539223989E+02 -0.82217532856E+01  0.22131252287E+02  0.00000000000E+00 0. -1.
</event>
<event>
 4    1  0.5696713E+002  0.3025042E+02  0.7546771E-02  0.1417432E+00
          2   -1    0    0  502    0  0.00000000000E+00  0.00000000000E+00  0.10404103655E+02  0.10404103655E+02  0.00000000000E+00 0.  1.
         -2   -1    0    0    0  501 -0.00000000000E+00 -0.00000000000E+00 -0.43514391844E+03  0.43514391844E+03  0.00000000000E+00 0. -1.
         21    1    1    2  502  503 -0.17432013662E+02  0.24722718338E+02 -0.13379887509E+02  0.33077322928E+02  0.00000000000E+00 0.  1.
         21    1    1    2  503  501  0.17432013662E+02 -0.24722718338E+02 -0.41135992727E+03  0.41247069917E+03  0.00000000000E+00 0. -1.
</event>
<event>
 4    1  0.5696713E+002  0.2482460E+02  0.7546771E-02  0.1470775E+00
          2   -1    0    0  502    0  0.00000000000E+00  0.00000000000E+00  0.10437774548E+03  0.10437774548E+03  0.00000000000E+00 0.  1.
         -2   -1    0    0    0  501 -0.00000000000E+00 -0.00000000000E+00 -0.94054047516E+01  0.94054047516E+01  0.00000000000E+00 0. -1.
         21    1    1    2  502  503 -0.24494923130E+02  0.40323008001E+01  0.82197540472E+02  0.85864406878E+02  0.00000000000E+00 0.  1.
         21    1    1    2  503  501  0.24494923130E+02 -0.40323008001E+01  0.12774800257E+02  0.27918743354E+02  0.00000000000E+00 0. -1.
</event>
<event>
 4    1  0.5696713E+002  0.2107661E+02  0.7546771E-02  0.1518174E+00
          2   -1    0    0  503    0  0.00000000000E+00  0.00000000000E+00  0.15650643974E+04  0.15650643974E+04  0.00000000000E+00 0.  1.
         -2   -1    0    0    0  501 -0.00000000000E+00 -0.00000000000E+00 -0.63423679188E+00  0.63423679188E+00  0.00000000000E+00 0. -1.
         21    1    1    2  502  501 -0.19482321737E+02 -0.80413110655E+01  0.20033399765E+03  0.20143965389E+03  0.00000000000E+00 0. -1.
         21    1    1    2  503  502  0.19482321737E+02  0.80413110655E+01  0.13640961630E+04  0.13642589803E+04  0.00000000000E+00 0.  1.
</event>
<event>
 4    1  0.5696713E+002  0.2159731E+02  0.7546771E-02  0.1510905E+00
          2   -1    0    0  503    0  0.00000000000E+00  0.00000000000E+00  0.21020825713E+03  0.21020825713E+03  0.00000000000E+00 0.  1.
         -2   -1    0    0    0  501 -0.00000000000E+00 -0.00000000000E+00 -0.41693112245E+01  0.41693112245E+01  0.00000000000E+00 0. -1.
         21    1    1    2  502  501  0.18003681771E+02 -0.11929429803E+02  0.29707732884E+02  0.36728643397E+02  0.00000000000E+00 0. -1.
         21    1    1    2  503  502 -0.18003681771E+02  0.11929429803E+02  0.17633121302E+03  0.17764892496E+03  0.00000000000E+00 0.  1.
</event>
<event>
 4    1  0.5696713E+002  0.3011038E+02  0.7546771E-02  0.1418640E+00
          2   -1    0    0  503    0  0.00000000000E+00  0.00000000000E+00  0.77959566873E+01  0.77959566873E+01  0.00000000000E+00 0. -1.
         -2   -1    0    0    0  501 -0.00000000000E+00 -0.00000000000E+00 -0.16501801552E+03  0.16501801552E+03  0.00000000000E+00 0.  1.
         21    1    1    2  502  501 -0.25604291049E+02 -0.15844723452E+02 -0.12556235482E+03  0.12912218992E+03  0.00000000000E+00 0.  1.
         21    1    1    2  503  502  0.25604291049E+02  0.15844723452E+02 -0.31659704011E+02  0.43691782288E+02  0.00000000000E+00 0. -1.
</event>
<event>
 4    1  0.5696713E+002  0.2319136E+02  0.7546771E-02  0.1490109E+00
          2   -1    0    0  502    0  0.00000000000E+00  0.00000000000E+00  0.19401915317E+04  0.19401915317E+04  0.00000000000E+00 0. -1.
         -2   -1    0    0    0  501 -0.00000000000E+00 -0.00000000000E+00 -0.60030121603E+00  0.60030121603E+00  0.00000000000E+00 0.  1.
         21    1    1    2  502  503 -0.23094396757E+02  0.21184798698E+01  0.16817093977E+04  0.16818692986E+04  0.00000000000E+00 0. -1.
         21    1    1    2  503  501  0.23094396757E+02 -0.21184798698E+01  0.25788183278E+03  0.25892253436E+03  0.00000000000E+00 0.  1.
</event>
<event>
 4    1  0.5696713E+002  0.2471584E+02  0.7546771E-02  0.1472008E+00
          2   -1    0    0  502    0  0.00000000000E+00  0.00000000000E+00  0.13000209749E+03  0.13000209749E+03  0.00000000000E+00 0. -1.
         -2   -1    0    0    0  501 -0.00000000000E+00 -0.00000000000E+00 -0.10663298021E+02  0.10663298021E+02  0.00000000000E+00 0.  1.
         21    1    1    2  502  503  0.62898597826E+01 -0.23902096724E+02  0.11227030429E+03  0.11495866122E+03  0.00000000000E+00 0. -1.
         21    1    1    2  503  501 -0.62898597826E+01  0.23902096724E+02  0.70684951804E+01  0.25706734293E+02  0.00000000000E+00 0.  1.
</event>
<event>
 4    1  0.5696713E+002  0.2792494E+02  0.7546771E-02  0.1438532E+00
          2   -1    0    0  502    0  0.00000000000E+00  0.00000000000E+00  0.98310510791E+03  0.98310510791E+03  0.00000000000E+00 0.  1.
         -2   -1    0    0    0  501 -0.00000000000E+00 -0.00000000000E+00 -0.48055485392E+01  0.48055485392E+01  0.00000000000E+00 0. -1.
         21    1    1    2  502  503  0.19697025185E+02 -0.19794676985E+02  0.94050175490E+03  0.94091623060E+03  0.00000000000E+00 0.  1.
         21    1    1    2  503  501 -0.19697025185E+02  0.19794676985E+02  0.37797804475E+02  0.46994425853E+02  0.00000000000E+00 0. -1.
</event>
<event>
 4    1  0.5696713E+002  0.3191916E+02  0.7546771E-02  0.1403621E+00
          2   -1    0    0  503    0  0.00000000000E+00  0.00000000000E+00  0.30841069200E+04  0.30841069200E+04  0.00000000000E+00 0. -1.
         -2   -1    0    0    0  501 -0.00000000000E+00 -0.00000000000E+00 -0.33847769985E+00  0.33847769985E+00  0.00000000000E+00 0.  1.
         21    1    1    2  502  501 -0.30756468369E+02  0.85365309954E+01  0.13028922414E+04  0.13032831716E+04  0.00000000000E+00 0.  1.
         21    1    1    2  503  502  0.30756468369E+02 -0.85365309954E+01  0.17808762008E+04  0.17811622260E+04  0.00000000000E+00 0. -1.
</event>
<event>
 4    1  0.5696713E+002  0.2933485E+02  0.7546771E-02  0.1425466E+00
          2   -1    0    0  502    0  0.00000000000E+00  0.00000000000E+00  0.52773364456E+03  0.52773364456E+03  0.00000000000E+00 0. -1.
         -2   -1    0    0    0  501 -0.00000000000E+00 -0.00000000000E+00 -0.43063351800E+01  0.43063351800E+01  0.00000000000E+00 0.  1.
         21    1    1    2  502  503 -0.13510704174E+02 -0.26038329253E+02  0.47140484940E+03  0.47231670070E+03  0.00000000000E+00 0. -1.
         21    1    1    2  503  501  0.13510704174E+02  0.26038329253E+02  0.52022459981E+02  0.59723279046E+02  0.00000000000E+00 0.  1.
</event>
<event>
 4    1  0.5696713E+002  0.4080904E+02  0.7546771E-02  0.1343809E+00
          2   -1    0    0  503    0  0.00000000000E+00  0.00000000000E+00  0.47233188010E+03  0.47233188010E+03  0.00000000000E+00 0.  1.
         -2   -1    0    0    0  501 -0.00000000000E+00 -0.00000000000E+00 -0.58868926608E+01  0.58868926608E+01  0.00000000000E+00 0. -1.
         21    1    1    2  502  501 -0.74913136059E+01 -0.40115559045E+02  0.81795179948E+02  0.91410225466E+02  0.00000000000E+00 0. -1.
         21    1    1    2  503  502  0.74913136059E+01  0.40115559045E+02  0.38464980749E+03  0.38680854729E+03  0.00000000000E+00 0.  1.
</event>
<event>
 4    1  0.5696713E+002  0.2023213E+02  0.7546771E-02  0.1530516E+00
          2   -1    0    0  502    0  0.00000000000E+00  0.00000000000E+00  0.14970150410E+04  0.14970150410E+04  0.00000000000E+00 0. -1.
         -2   -1    0    0    0  501 -0.00000000000E+00 -0.00000000000E+00 -0.36679094468E+00  0.36679094468E+00  0.00000000000E+00 0.  1.
         21    1    1    2  502  503  0.18959256861E+02 -0.70629853699E+01  0.11260352551E+04  0.11262170017E+04  0.00000000000E+00 0. -1.
         21    1    1    2  503  501 -0.18959256861E+02  0.70629853699E+01  0.37061299490E+03  0.37116483019E+03  0.00000000000E+00 0.  1.
</event>
<event>
 4    1  0.5696713E+002  0.2050281E+02  0.7546771E-02  0.1526483E+00
          2   -1    0    0  502    0  0.00000000000E+00  0.00000000000E+00  0.11288012992E+04  0.11288012992E+04  0.00000000000E+00 0.  1.
         -2   -1    0    0    0  501 -0.00000000000E+00 -0.00000000000E+00 -0.45901875572E+00  0.45901875572E+00  0.00000000000E+00 0. -1.
         21    1    1    2  502  503 -0.18695289029E+02 -0.84173252231E+01  0.31889475753E+03  0.31955317488E+03  0.00000000000E+00 0. -1.
         21    1    1    2  503  501  0.18695289029E+02  0.84173252231E+01  0.80944752295E+03  0.80970714311E+03  0.00000000000E+00 0.  1.
</event>
<event>
 4    1  0.5696713E+002  0.2000664E+02  0.7546771E-02  0.1533934E+00
          2   -1    0    0  502    0  0.00000000000E+00  0.00000000000E+00  0.24669655426E+02  0.24669655426E+02  0.00000000000E+00 0.  1.
         -2   -1    0    0    0  501 -0.00000000000E+00 -0.00000000000E+00 -0.12345588035E+03  0.12345588035E+03  0.00000000000E+00 0. -1.
         21    1    1    2  502  503 -0.16752328319E+02 -0.10937326701E+02  0.19631495104E+02  0.28029648936E+02  0.00000000000E+00 0.  1.
         21    1    1    2  503  501  0.16752328319E+02  0.10937326701E+02 -0.11841772003E+03  0.12009588684E+03  0.00000000000E+00 0. -1.
</event>
<event>
 4    1  0.5696713E+002  0.2353014E+02  0.7546771E-02  0.1485946E+00
          2   -1    0    0  503    0  0.00000000000E+00  0.00000000000E+00  0.12563347780E+02  0.12563347780E+02  0.00000000000E+00 0. -1.
         -2   -1    0    0    0  501 -0.00000000000E+00 -0.00000000000E+00 -0.44079399795E+02  0.44079399795E+02  0.00000000000E+00 0.  1.
         21    1    1    2  502  501  0.20224899487E+02  0.12025845192E+02 -0.16170242731E+02  0.28550731371E+02  0.00000000000E+00 0.  1.
         21    1    1    2  503  502 -0.20224899487E+02 -0.12025845192E+02 -0.15345809284E+02  0.28092016204E+02  0.00000000000E+00 0. -1.
</event>
<event>
 4    1  0.5696713E+002  0.2042482E+02  0.7546771E-02  0.1527638E+00
          2   -1    0    0  502    0  0.00000000000E+00  0.00000000000E+00  0.11297567540E+04  0.11297567540E+04  0.00000000000E+00 0.  1.
         -2   -1    0    0    0  501 -0.00000000000E+00 -0.00000000000E+00 -0.78067335907E+00  0.78067335907E+00  0.00000000000E+00 0. -1.
         21    1    1    2  502  503 -0.17083473839E+02 -0.11195015107E+02  0.97484302682E+03  0.97505697289E+03  0.00000000000E+00 0.  1.
         21    1    1    2  503  501  0.17083473839E+02  0.11195015107E+02  0.15413305378E+03  0.15548045443E+03  0.00000000000E+00 0. -1.
</event>
<event>
 4    1  0.5696713E+002  0.2361153E+02  0.7546771E-02  0.1484959E+00
          2   -1    0    0  502    0  0.00000000000E+00  0.00000000000E+00  0.23109735637E+02  0.23109735637E+02  0.00000000000E+00 0.  1.
         -2   -1    0    0    0  501 -0.00000000000E+00 -0.00000000000E+00 -0.14401750181E+03  0.14401750181E+03  0.00000000000E+00 0. -1.
         21    1    1    2  502  503  0.22203911932E+02  0.80305961233E+01  0.15790356866E+02  0.28404921213E+02  0.00000000000E+00 0.  1.
         21    1    1    2  503  501 -0.22203911932E+02 -0.80305961233E+01 -0.13669812304E+03  0.13872231623E+03  0.00000000000E+00 0. -1.
</event>
<event>
 4    1  0.5696713E+002  0.3357983E+02  0.7546771E-02  0.1390832E+00
          2   -1    0    0  502    0  0.00000000000E+00  0.00000000000E+00  0.21870710626E+04  0.21870710626E+04  0.00000000000E+00 0. -1.
         -2   -1    0    0    0  501 -0.00000000000E+00 -0.00000000000E+00 -0.67059780574E+00  0.67059780574E+00  0.00000000000E+00 0.  1.
         21    1    1    2  502  503 -0.12334400643E+02 -0.31232477037E+02  0.16191315062E+04  0.16194796817E+04  0.00000000000E+00 0. -1.
         21    1    1    2  503  501  0.12334400643E+02  0.31232477037E+02  0.56726895865E+03  0.56826197877E+03  0.00000000000E+00 0.  1.
</event>
<event>
 4    1  0.5696713E+002  0.3427918E+02  0.7546771E-02  0.1385703E+00
          2   -1    0    0  502    0  0.00000000000E+00  0.00000000000E+00  0.79986911381E+03  0.79986911381E+03  0.00000000000E+00 0. -1.
         -2   -1    0    0    0  501 -0.00000000000E+00 -0.00000000000E+00 -0.29776121299E+01  0.29776121299E+01  0.00000000000E+00 0.  1.
         21    1    1    2  502  503  0.32687377761E+02 -0.10324616539E+02  0.68417029381E+03  0.68502850547E+03  0.00000000000E+00 0. -1.
         21    1    1    2  503  501 -0.32687377761E+02  0.10324616539E+02  0.11272120787E+03  0.11781822048E+03  0.00000000000E+00 0.  1.
</event>
<event>
 4    1  0.5696713E+002  0.3368674E+02  0.7546771E-02  0.1390038E+00
          2   -1    0    0  503    0  0.00000000000E+00  0.00000000000E+00  0.17396744886E+03  0.17396744886E+03  0.00000000000E+00 0.  1.
         -2   -1    0    0    0  501 -0.00000000000E+00 -0.00000000000E+00 -0.19706505694E+02  0.19706505694E+02  0.00000000000E+00 0. -1.
         21    1    1    2  502  501 -0.41768905887E+01 -0.33426788217E+02 -0.20742759153E+01  0.33750543789E+02  0.00000000000E+00 0. -1.
         21    1    1    2  503  502  0.41768905887E+01  0.33426788217E+02  0.15633521908E+03  0.15992341076E+03  0.00000000000E+00 0.  1.
</event>
<event>
 4    1  0.5696713E+002  0.2302776E+02  0.7546771E-02  0.1492150E+00
          2   -1    0    0  503    0  0.00000000000E+00  0.00000000000E+00  0.21863058823E+02  0.21863058823E+02  0.00000000000E+00 0. -1.
         -2   -1    0    0    0  501 -0.00000000000E+00 -0.00000000000E+00 -0.24294951884E+02  0.24294951884E+02  0.00000000000E+00 0.  1.
         21    1    1    2  502  501 -0.14889588309E+02  0.17566389167E+02 -0.27437619321E+00  0.23029397532E+02  0.00000000000E+00 0.  1.
         21    1    1    2  503  502  0.14889588309E+02 -0.17566389167E+02 -0.21575168678E+01  0.23128613175E+02  0.00000000000E+00 0. -1.
</event>
<event>
 4    1  0.5696713E+002  0.2647355E+02  0.7546771E-02  0.1452969E+00
          2   -1    0    0  503    0  0.00000000000E+00  0.00000000000E+00  0.92745877198E+02  0.92745877198E+02  0.00000000000E+00 0. -1.
         -2   -1    0    0    0  501 -0.00000000000E+00 -0.00000000000E+00 -0.75567366012E+01  0.75567366012E+01  0.00000000000E+00 0.  1.
         21    1    1    2  502  501  0.20470312787E+02  0.16787357743E+02  0.42435180020E+02  0.50015933351E+02  0.00000000000E+00 0.  1.
         21    1    1    2  503  502 -0.20470312787E+02 -0.16787357743E+02  0.42753960577E+02  0.50286680449E+02  0.00000000000E+00 0. -1.
</event>
<event>
 4    1  0.5696713E+002  0.2161982E+02  0.7546771E-02  0.1510597E+00
          2   -1    0    0  503    0  0.00000000000E+00  0.00000000000E+00  0.12830880291E+04  0.12830880291E+04  0.00000000000E+00 0. -1.
         -2   -1    0    0    0  501 -0.00000000000E+00 -0.00000000000E+00 -0.85586267523E+00  0.85586267523E+00  0.00000000000E+00 0.  1.
         21    1    1    2  502  501 -0.36152526798E+01 -0.21315402014E+02  0.15458815172E+03  0.15609264258E+03  0.00000000000E+00 0.  1.
         21    1    1    2  503  502  0.36152526798E+01  0.21315402014E+02  0.11276440147E+04  0.11278512491E+04  0.00000000000E+00 0. -1.
</event>
<event>
 4    1  0.5696713E+002  0.2791717E+02  0.7546771E-02  0.1438606E+00
          2   -1    0    0  503    0  0.00000000000E+00  0.00000000000E+00  0.49854699689E+02  0.49854699689E+02  0.00000000000E+00 0.  1.
         -2   -1    0    0    0  501 -0.00000000000E+00 -0.00000000000E+00 -0.38250714599E+02  0.38250714599E+02  0.00000000000E+00 0. -1.
         21    1    1    2  502  501  0.18741360214E+02 -0.20691303910E+02 -0.28072990612E+02  0.39591178841E+02  0.00000000000E+00 0. -1.
         21    1    1    2  503  502 -0.18741360214E+02  0.20691303910E+02  0.39676975702E+02  0.48514235447E+02  0.00000000000E+00 0.  1.
</event>
<event>
 4    1  0.5696713E+002  0.3182399E+02  0.7546771E-02  0.1404381E+00
          2   -1    0    0  503    0  0.00000000000E+00  0.00000000000E+00  0.37598326223E+02  0.37598326223E+02  0.00000000000E+00 0.  1.
         -2   -1    0    0    0  501 -0.00000000000E+00 -0.00000000000E+00 -0.14258513285E+03  0.14258513285E+03  0.00000000000E+00 0. -1.
         21    1    1    2  502  501  0.39491994889E+00  0.31821535180E+02 -0.13363024830E+03  0.13736742453E+03  0.00000000000E+00 0. -1.
         21    1    1    2  503  502 -0.39491994889E+00 -0.31821535180E+02  0.28643441670E+02  0.42816034540E+02  0.00000000000E+00 0.  1.
</event>
<event>
 4    1  0.5696713E+002  0.2837851E+02  0.7546771E-02  0.1434231E+00
          2   -1    0    0  502    0  0.00000000000E+00  0.00000000000E+00  0.14129507692E+01  0.14129507692E+01  0.00000000000E+00 0. -1.
         -2   -1    0    0    0  501 -0.00000000000E+00 -0.00000000000E+00 -0.59516700680E+03  0.59516700680E+03  0.00000000000E+00 0.  1.
         21    1    1    2  502  503 -0.28326021808E+02 -0.17251418715E+01 -0.23550178110E+03  0.23720545636E+03  0.00000000000E+00 0. -1.
         21    1    1    2  503  501  0.28326021808E+02  0.17251418715E+01 -0.35825227493E+03  0.35937450121E+03  0.00000000000E+00 0.  1.
</event>
<event>
 4    1  0.5696713E+002  0.2176458E+02  0.7546771E-02  0.1508623E+00
          2   -1    0    0  502    0  0.00000000000E+00  0.00000000000E+00  0.34393573269E+03  0.34393573269E+03  0.00000000000E+00 0. -1.
         -2   -1    0    0    0  501 -0.00000000000E+00 -0.00000000000E+00 -0.18874151728E+01  0.18874151728E+01  0.00000000000E+00 0.  1.
         21    1    1    2  502  503 -0.68413255543E+01 -0.20661398394E+02  0.26091829258E+03  0.26182446891E+03  0.00000000000E+00 0. -1.
         21    1    1    2  503  501  0.68413255543E+01  0.20661398394E+02  0.81130024939E+02  0.83998678951E+02  0.00000000000E+00 0.  1.
</event>
<event>
 4    1  0.5696713E+002  0.2004813E+02  0.7546771E-02  0.1533301E+00
          2   -1    0    0  502    0  0.00000000000E+00  0.00000000000E+00  0.16613529883E+02  0.16613529883E+02  0.00000000000E+00 0. -1.
         -2   -1    0    0    0  501 -0.00000000000E+00 -0.00000000000E+00 -0.24728516647E+02  0.24728516647E+02  0.00000000000E+00 0.  1.
         21    1    1    2  502  503 -0.17975057089E+02  0.88783343749E+01 -0.10149413946E+01  0.20073803941E+02  0.00000000000E+00 0. -1.
         21    1    1    2  503  501  0.17975057089E+02 -0.88783343749E+01 -0.71000453685E+01  0.21268242589E+02  0.00000000000E+00 0.  1.
</event>
<event>
 4    1  0.5696713E+002  0.3233457E+02  0.7546771E-02  0.1400337E+00
          2   -1    0    0  503    0  0.00000000000E+00  0.00000000000E+00  0.19273601575E+01  0.19273601575E+01  0.00000000000E+00 0.  1.
         -2   -1    0    0    0  501 -0.00000000000E+00 -0.00000000000E+00 -0.84301033271E+03  0.84301033271E+03  0.00000000000E+00 0. -1.
         21    1    1    2  502  501  0.31673859085E+02  0.65031691479E+01 -0.67279287158E+03  0.67356942672E+03  0.00000000000E+00 0. -1.
         21    1    1    2  503  502 -0.31673859085E+02 -0.65031691479E+01 -0.16829010098E+03  0.17136826616E+03  0.00000000000E+00 0.  1.
</event>
<event>
 4    1  0.5696713E+002  0.3403242E+02  0.7546771E-02  0.1387496E+00
          2   -1    0    0  503    0  0.00000000000E+00  0.00000000000E+00  0.18003716515E+04  0.18003716515E+04  0.00000000000E+00 0. -1.
         -2   -1    0    0    0  501 -0.00000000000E+00 -0.00000000000E+00 -0.17142111643E+01  0.17142111643E+01  0.00000000000E+00 0.  1.
         21    1    1    2  502  501 -0.32303513693E+02 -0.10709289755E+02  0.18715322048E+03  0.19022232735E+03  0.00000000000E+00 0.  1.
         21    1    1    2  503  502  0.32303513693E+02  0.10709289755E+02  0.16115042199E+04  0.16118635353E+04  0.00000000000E+00 0. -1.
</event>
<event>
 4    1  0.5696713E+002  0.2079017E+02  0.7546771E-02  0.1522282E+00
          2   -1    0    0  502    0  0.00000000000E+00  0.00000000000E+00  0.15269560826E+04  0.15269560826E+04  0.00000000000E+00 0. -1.
         -2   -1    0    0    0  501 -0.00000000000E+00 -0.00000000000E+00 -0.17264221009E+01  0.17264221009E+01  0.00000000000E+00 0.  1.
         21    1    1    2  502  503  0.15752386332E+02 -0.13568101767E+02  0.14614912439E+04  0.14616391097E+04  0.00000000000E+00 0. -1.
         21    1    1    2  503  501 -0.15752386332E+02  0.13568101767E+02  0.63738416667E+02  0.67043395050E+02  0.00000000000E+00 0.  1.
</event>
<event>
 4    1  0.5696713E+002  0.2146218E+02  0.7546771E-02  0.1512767E+00
          2   -1    0    0  503    0  0.00000000000E+00  0.00000000000E+00  0.60300377904E+02  0.60300377904E+02  0.00000000000E+00 0. -1.
         -2   -1    0    0    0  501 -0.00000000000E+00 -0.00000000000E+00 -0.14094244382E+02  0.14094244382E+02  0.00000000000E+00 0.  1.
         21    1    1    2  502  501 -0.85208373709E+01  0.19698237461E+02 -0.20709323998E+01  0.21561864242E+02  0.00000000000E+00 0.  1.
         21    1    1    2  503  502  0.85208373709E+01 -0.19698237461E+02  0.48277065921E+02  0.52832758044E+02  0.00000000000E+00 0. -1.
</event>
<event>
 4    1  0.5696713E+002  0.2081760E+02  0.7546771E-02  0.1521885E+00
          2   -1    0    0  502    0  0.00000000000E+00  0.00000000000E+00  0.54074281268E+02  0.54074281268E+02  0.00000000000E+00 0.  1.
         -2   -1    0    0    0  501 -0.00000000000E+00 -0.00000000000E+00 -0.17484249623E+02  0.17484249623E+02  0.00000000000E+00 0. -1.
         21    1    1    2  502  503  0.18687614661E+02  0.91730944980E+01  0.44626758121E+02  0.49243478195E+02  0.00000000000E+00 0.  1.
         21    1    1    2  503  501 -0.18687614661E+02 -0.91730944980E+01 -0.80367264765E+01  0.22315052696E+02  0.00000000000E+00 0. -1.
</event>
<event>
 4    1  0.5696713E+002  0.2971560E+02  0.7546771E-02  0.1422084E+00
          2   -1    0    0  503    0  0.00000000000E+00  0.00000000000E+00  0.67239360790E+02  0.67239360790E+02  0.00000000000E+00 0. -1.
         -2   -1    0    0    0  501 -0.00000000000E+00 -0.00000000000E+00 -0.18816426216E+02  0.18816426216E+02  0.00000000000E+00 0.  1.
         21    1    1    2  502  501 -0.28168170557E+02  0.94642061839E+01  0.56273138782E+00  0.29720930299E+02  0.00000000000E+00 0.  1.
         21    1    1    2  503  502  0.28168170557E+02 -0.94642061839E+01  0.47860203186E+02  0.56334856707E+02  0.00000000000E+00 0. -1.
</event>
<event>
 4    1  0.5696713E+002  0.3720230E+02  0.7546771E-02  0.1365709E+00
          2   -1    0    0  502    0  0.00000000000E+00  0.00000000000E+00  0.18569860919E+03  0.18569860919E+03  0.00000000000E+00 0. -1.
         -2   -1    0    0    0  501 -0.00000000000E+00 -0.00000000000E+00 -0.15412235894E+02  0.15412235894E+02  0.00000000000E+00 0.  1.
         21    1    1    2  502  503 -0.36376282700E+02 -0.77959769687E+01  0.15740493054E+03  0.16174153257E+03  0.00000000000E+00 0. -1.
         21    1    1    2  503  501  0.36376282700E+02  0.77959769687E+01  0.12881442751E+02  0.39369312508E+02  0.00000000000E+00 0.  1.
</event>
<event>
 4    1  0.5696713E+002  0.2060593E+02  0.7546771E-02  0.1524966E+00
          2   -1    0    0  502    0  0.00000000000E+00  0.00000000000E+00  0.13361867901E+04  0.13361867901E+04  0.00000000000E+00 0.  1.
         -2   -1    0    0    0  501 -0.00000000000E+00 -0.00000000000E+00 -0.78715450429E+00  0.78715450429E+00  0.00000000000E+00 0. -1.
         21    1    1    2  502  503  0.78608386954E+01 -0.19047612524E+02  0.11839091572E+04  0.11840884666E+04  0.00000000000E+00 0.  1.
         21    1    1    2  503  501 -0.78608386954E+01  0.19047612524E+02  0.15149047842E+03  0.15288547799E+03  0.00000000000E+00 0. -1.
</event>
<event>
 4    1  0.5696713E+002  0.2154463E+02  0.7546771E-02  0.1511629E+00
          2   -1    0    0  502    0  0.00000000000E+00  0.00000000000E+00  0.73639302562E+03  0.73639302562E+03  0.00000000000E+00 0. -1.
         -2   -1    0    0    0  501 -0.00000000000E+00 -0.00000000000E+00 -0.11311417263E+01  0.11311417263E+01  0.00000000000E+00 0.  1.
         21    1    1    2  502  503  0.18316339194E+02  0.11343847062E+02  0.61300275962E+03  0.61338124722E+03  0.00000000000E+00 0. -1.
         21    1    1    2  503  501 -0.18316339194E+02 -0.11343847062E+02  0.12225912427E+03  0.12414292012E+03  0.00000000000E+00 0.  1.
</event>
<event>
 4    1  0.5696713E+002  0.5869805E+02  0.7546771E-02  0.1264322E+00
          2   -1    0    0  503    0  0.00000000000E+00  0.00000000000E+00  0.45373653194E+02  0.45373653194E+02  0.00000000000E+00 0.  1.
         -2   -1    0    0    0  501 -0.00000000000E+00 -0.00000000000E+00 -0.10061938074E+03  0.10061938074E+03  0.00000000000E+00 0. -1.
         21    1    1    2  502  501 -0.46779775663E+02 -0.35455793397E+02 -0.63778003449E+02  0.86678108081E+02  0.00000000000E+00 0. -1.
         21    1    1    2  503  502  0.46779775663E+02  0.35455793397E+02  0.85322759051E+01  0.59314925850E+02  0.00000000000E+00 0.  1.
</event>
<event>
 4    1  0.5696713E+002  0.4168603E+02  0.7546771E-02  0.1338879E+00
          2   -1    0    0  502    0  0.00000000000E+00  0.00000000000E+00  0.12926994728E+03  0.12926994728E+03  0.00000000000E+00 0.  1.
         -2   -1    0    0    0  501 -0.00000000000E+00 -0.00000000000E+00 -0.81483496864E+02  0.81483496864E+02  0.00000000000E+00 0. -1.
         21    1    1    2  502  503  0.36807763756E+02  0.19568186430E+02  0.12018625260E+03  0.12721030110E+03  0.00000000000E+00 0.  1.
         21    1    1    2  503  501 -0.36807763756E+02 -0.19568186430E+02 -0.72399802184E+02  0.83543143040E+02  0.00000000000E+00 0. -1.
</event>
<event>
 4    1  0.5696713E+002  0.2056553E+02  0.7546771E-02  0.1525559E+00
          2   -1    0    0  502    0  0.00000000000E+00  0.00000000000E+00  0.14089986459E+01  0.14089986459E+01  0.00000000000E+00 0. -1.
         -2   -1    0    0    0  501 -0.00000000000E+00 -0.00000000000E+00 -0.46050419981E+03  0.46050419981E+03  0.00000000000E+00 0.  1.
         21    1    1    2  502  503  0.93874759454E+01 -0.18297986068E+02 -0.93269880181E+02  0.95510269332E+02  0.00000000000E+00 0. -1.
         21    1    1    2  503  501 -0.93874759454E+01  0.18297986068E+02 -0.36582532098E+03  0.36640292913E+03  0.00000000000E+00 0.  1.
</event>
<event>
 4    1  0.5696713E+002  0.2130272E+02  0.7546771E-02  0.1514986E+00
          2   -1    0    0  502    0  0.00000000000E+00  0.00000000000E+00  0.19379941022E+04  0.19379941022E+04  0.00000000000E+00 0.  1.
         -2   -1    0    0    0  501 -0.00000000000E+00 -0.00000000000E+00 -0.27129105352E+00  0.27129105352E+00  0.00000000000E+00 0. -1.
         21    1    1    2  502  503  0.17721490335E+00 -0.21301981803E+02  0.61033706129E+03  0.61070871470E+03  0.00000000000E+00 0. -1.
         21    1    1    2  503  501 -0.17721490335E+00  0.21301981803E+02  0.13273857498E+04  0.13275566785E+04  0.00000000000E+00 0.  1.
</event>
<event>
 4    1  0.5696713E+002  0.2248887E+02  0.7546771E-02  0.1499018E+00
          2   -1    0    0  503    0  0.00000000000E+00  0.00000000000E+00  0.44488079829E+03  0.44488079829E+03  0.00000000000E+00 0.  1.
         -2   -1    0    0    0  501 -0.00000000000E+00 -0.00000000000E+00 -0.18020764205E+01  0.18020764205E+01  0.00000000000E+00 0. -1.
         21    1    1    2  502  501  0.21380098765E+02  0.69742720639E+01  0.85840107423E+02  0.88737101239E+02  0.00000000000E+00 0. -1.
         21    1    1    2  503  502 -0.21380098765E+02 -0.69742720639E+01  0.35723861444E+03  0.35794577347E+03  0.00000000000E+00 0.  1.
</event>
<event>
 4    1  0.5696713E+002  0.2874747E+02  0.7546771E-02  0.1430802E+00
          2   -1    0    0  502    0  0.00000000000E+00  0.00000000000E+00  0.69227936268E+02  0.69227936268E+02  0.00000000000E+00 0. -1.
         -2   -1    0    0    0  501 -0.00000000000E+00 -0.00000000000E+00 -0.12790382414E+02  0.12790382414E+02  0.00000000000E+00 0.  1.
         21    1    1    2  502  503  0.24979659946E+02  0.14227919192E+02  0.17629848145E+02  0.33722820777E+02  0.00000000000E+00 0.  1.
         21    1    1    2  503  501 -0.24979659946E+02 -0.14227919192E+02  0.38807705708E+02  0.48295497905E+02  0.00000000000E+00 0. -1.
</event>
<event>
 4    1  0.5696713E+002  0.6995727E+02  0.7546771E-02  0.1229303E+00
          2   -1    0    0  503    0  0.00000000000E+00  0.00000000000E+00  0.69545496048E+03  0.69545496048E+03  0.00000000000E+00 0. -1.
         -2   -1    0    0    0  501 -0.00000000000E+00 -0.00000000000E+00 -0.70865541324E+01  0.70865541324E+01  0.00000000000E+00 0.  1.
         21    1    1    2  502  501  0.49907453385E+02  0.49023112370E+02  0.37351440756E+03  0.38000925265E+03  0.00000000000E+00 0. -1.
         21    1    1    2  503  502 -0.49907453385E+02 -0.49023112370E+02  0.31485399879E+03  0.32253226196E+03  0.00000000000E+00 0.  1.
</event>
<event>
 4    1  0.5696713E+002  0.2115972E+02  0.7546771E-02  0.1516997E+00
          2   -1    0    0  503    0  0.00000000000E+00  0.00000000000E+00  0.17002623783E+04  0.17002623783E+04  0.00000000000E+00 0.  1.
         -2   -1    0    0    0  501 -0.00000000000E+00 -0.00000000000E+00 -0.26740942601E+00  0.26740942601E+00  0.00000000000E+00 0. -1.
         21    1    1    2  502  501  0.13044230631E+02 -0.16660783427E+02  0.95498889782E+03  0.95522328731E+03  0.00000000000E+00 0. -1.
         21    1    1    2  503  502 -0.13044230631E+02  0.16660783427E+02  0.74500607103E+03  0.74530650039E+03  0.00000000000E+00 0.  1.
</event>
<event>
 4    1  0.5696713E+002  0.3558079E+02  0.7546771E-02  0.1376525E+00
          2   -1    0    0  503    0  0.00000000000E+00  0.00000000000E+00  0.41048919486E+03  0.41048919486E+03  0.00000000000E+00 0. -1.
         -2   -1    0    0    0  501 -0.00000000000E+00 -0.00000000000E+00 -0.43858330570E+01  0.43858330570E+01  0.00000000000E+00 0.  1.
         21    1    1    2  502  501  0.10230532837E+02  0.34078273349E+02  0.90040585771E+02  0.96815802443E+02  0.00000000000E+00 0.  1.
         21    1    1    2  503  502 -0.10230532837E+02 -0.34078273349E+02  0.31606277603E+03  0.31805922547E+03  0.00000000000E+00 0. -1.
</event>
<event>
 4    1  0.5696713E+002  0.2013602E+02  0.7546771E-02  0.1531967E+00
          2   -1    0    0  503    0  0.00000000000E+00  0.00000000000E+00  0.99717638407E+03  0.99717638407E+03  0.00000000000E+00 0. -1.
         -2   -1    0    0    0  501 -0.00000000000E+00 -0.00000000000E+00 -0.67614370797E+00  0.67614370797E+00  0.00000000000E+00 0.  1.
         21    1    1    2  502  501 -0.64656338767E+01  0.19069732939E+02  0.18323918614E+03  0.18434223193E+03  0.00000000000E+00 0.  1.
         21    1    1    2  503  502  0.64656338767E+01 -0.19069732939E+02  0.81326105422E+03  0.81351029585E+03  0.00000000000E+00 0. -1.
</event>
<event>
 4    1  0.5696713E+002  0.2607855E+02  0.7546771E-02  0.1457090E+00
          2   -1    0    0  502    0  0.00000000000E+00  0.00000000000E+00  0.44014612576E+01  0.44014612576E+01  0.00000000000E+00 0.  1.
         -2   -1    0    0    0  501 -0.00000000000E+00 -0.00000000000E+00 -0.18715575309E+03  0.18715575309E+03  0.00000000000E+00 0. -1.
         21    1    1    2  502  503  0.25947941258E+02  0.26067634442E+01 -0.51378214009E+02  0.57617807542E+02  0.00000000000E+00 0.  1.
         21    1    1    2  503  501 -0.25947941258E+02 -0.26067634442E+01 -0.13137607782E+03  0.13393940681E+03  0.00000000000E+00 0. -1.
</event>
<event>
 4    1  0.5696713E+002  0.3404802E+02  0.7546771E-02  0.1387382E+00
          2   -1    0    0  503    0  0.00000000000E+00  0.00000000000E+00  0.24988698762E+03  0.24988698762E+03  0.00000000000E+00 0.  1.
         -2   -1    0    0    0  501 -0.00000000000E+00 -0.00000000000E+00 -0.75587389691E+01  0.75587389691E+01  0.00000000000E+00 0. -1.
         21    1    1    2  502  501  0.29927894260E+02 -0.16235408215E+02  0.20116424639E+03  0.20402529588E+03  0.00000000000E+00 0.  1.
         21    1    1    2  503  502 -0.29927894260E+02  0.16235408215E+02  0.41164002265E+02  0.53420430710E+02  0.00000000000E+00 0. -1.
</event>
<event>
 4    1  0.5696713E+002  0.6489854E+02  0.7546771E-02  0.1244040E+00
          2   -1    0    0  503    0  0.00000000000E+00  0.00000000000E+00  0.13388718836E+04  0.13388718836E+04  0.00000000000E+00 0.  1.
         -2   -1    0    0    0  501 -0.00000000000E+00 -0.00000000000E+00 -0.39422293260E+01  0.39422293260E+01  0.00000000000E+00 0. -1.
         21    1    1    2  502  501 -0.59324555048E+01  0.64626829246E+02  0.36568583391E+03  0.37139998682E+03  0.00000000000E+00 0. -1.
         21    1    1    2  503  502  0.59324555048E+01 -0.64626829246E+02  0.96924382037E+03  0.97141412611E+03  0.00000000000E+00 0.  1.
</event>
<event>
 4    1  0.5696713E+002  0.2447000E+02  0.7546771E-02  0.1474821E+00
          2   -1    0    0  503    0  0.00000000000E+00  0.00000000000E+00  0.24067407874E+04  0.24067407874E+04  0.00000000000E+00 0. -1.
         -2   -1    0    0    0  501 -0.00000000000E+00 -0.00000000000E+00 -0.27950556109E+00  0.27950556109E+00  0.00000000000E+00 0.  1.
         21    1    1    2  502  501  0.23762029507E+02  0.58435144497E+01  0.80428728749E+03  0.80465944444E+03  0.00000000000E+00 0.  1.
         21    1    1    2  503  502 -0.23762029507E+02 -0.58435144497E+01  0.16021739943E+04  0.16023608485E+04  0.00000000000E+00 0. -1.
</event>
<event>
 4    1  0.5696713E+002  0.2470958E+02  0.7546771E-02  0.1472079E+00
          2   -1    0    0  502    0  0.00000000000E+00  0.00000000000E+00  0.11964086697E+03  0.11964086697E+03  0.00000000000E+00 0.  1.
         -2   -1    0    0    0  501 -0.00000000000E+00 -0.00000000000E+00 -0.59543619408E+01  0.59543619408E+01  0.00000000000E+00 0. -1.
         21    1    1    2  502  503  0.14751913889E+02  0.19822823922E+02  0.80584632297E+02  0.84287877385E+02  0.00000000000E+00 0. -1.
         21    1    1    2  503  501 -0.14751913889E+02 -0.19822823922E+02  0.33101872728E+02  0.41307351522E+02  0.00000000000E+00 0.  1.
</event>
<event>
 4    1  0.5696713E+002  0.2004156E+02  0.7546771E-02  0.1533401E+00
          2   -1    0    0  502    0  0.00000000000E+00  0.00000000000E+00  0.13272595844E+04  0.13272595844E+04  0.00000000000E+00 0. -1.
         -2   -1    0    0    0  501 -0.00000000000E+00 -0.00000000000E+00 -0.77706723770E+00  0.77706723770E+00  0.00000000000E+00 0.  1.
         21    1    1    2  502  503 -0.11130265782E+02 -0.16666776503E+02  0.11820910392E+04  0.11822609227E+04  0.00000000000E+00 0. -1.
         21    1    1    2  503  501  0.11130265782E+02  0.16666776503E+02  0.14439147798E+03  0.14577572901E+03  0.00000000000E+00 0.  1.
</event>
<event>
 4    1  0.5696713E+002  0.2074468E+02  0.7546771E-02  0.1522942E+00
          2   -1    0    0  503    0  0.00000000000E+00  0.00000000000E+00  0.11201715338E+04  0.11201715338E+04  0.00000000000E+00 0.  1.
         -2   -1    0    0    0  501 -0.00000000000E+00 -0.00000000000E+00 -0.14815539392E+01  0.14815539392E+01  0.00000000000E+00 0. -1.
         21    1    1    2  502  501  0.28263365869E+01  0.20551240580E+02  0.76677355278E+02  0.79433988194E+02  0.00000000000E+00 0. -1.
         21    1    1    2  503  502 -0.28263365869E+01 -0.20551240580E+02  0.10420126246E+04  0.10422190995E+04  0.00000000000E+00 0.  1.
</event>
<event>
 4    1  0.5696713E+002  0.2027291E+02  0.7546771E-02  0.1529904E+00
          2   -1    0    0  503    0  0.00000000000E+00  0.00000000000E+00  0.87419537774E+03  0.87419537774E+03  0.00000000000E+00 0. -1.
         -2   -1    0    0    0  501 -0.00000000000E+00 -0.00000000000E+00 -0.81980849908E+00  0.81980849908E+00  0.00000000000E+00 0.  1.
         21    1    1    2  502  501 -0.18971913177E+02  0.71454457654E+01  0.15095504392E+03  0.15231026285E+03  0.00000000000E+00 0.  1.
         21    1    1    2  503  502  0.18971913177E+02 -0.71454457654E+01  0.72242052532E+03  0.72270492339E+03  0.00000000000E+00 0. -1.
</event>
<event>
 4    1  0.5696713E+002  0.2051080E+02  0.7546771E-02  0.1526365E+00
          2   -1    0    0  502    0  0.00000000000E+00  0.00000000000E+00  0.20790661874E+03  0.20790661874E+03  0.00000000000E+00 0.  1.
         -2   -1    0    0    0  501 -0.00000000000E+00 -0.00000000000E+00 -0.10689867470E+02  0.10689867470E+02  0.00000000000E+00 0. -1.
         21    1    1    2  502  503  0.66531852798E+01  0.19401749405E+02  0.19701998372E+03  0.19808474636E+03  0.00000000000E+00 0.  1.
         21    1    1    2  503  501 -0.66531852798E+01 -0.19401749405E+02  0.19676755008E+00  0.20511739854E+02  0.00000000000E+00 0. -1.
</event>
<event>
 4    1  0.5696713E+002  0.3193404E+02  0.7546771E-02  0.1403502E+00
          2   -1    0    0  502    0  0.00000000000E+00  0.00000000000E+00  0.58599635421E+03  0.58599635421E+03  0.00000000000E+00 0.  1.
         -2   -1    0    0    0  501 -0.00000000000E+00 -0.00000000000E+00 -0.33561501483E+01  0.33561501483E+01  0.00000000000E+00 0. -1.
         21    1    1    2  502  503 -0.31819453876E+02  0.27028800487E+01  0.49579076613E+03  0.49681814277E+03  0.00000000000E+00 0.  1.
         21    1    1    2  503  501  0.31819453876E+02 -0.27028800487E+01  0.86849437930E+02  0.92534361587E+02  0.00000000000E+00 0. -1.
</event>
<event>
 4    1  0.5696713E+002  0.7010371E+02  0.7546771E-02  0.1228897E+00
          2   -1    0    0  502    0  0.00000000000E+00  0.00000000000E+00  0.28979710941E+04  0.28979710941E+04  0.00000000000E+00 0.  1.
         -2   -1    0    0    0  501 -0.00000000000E+00 -0.00000000000E+00 -0.39584769565E+01  0.39584769565E+01  0.00000000000E+00 0. -1.
         21    1    1    2  502  503  0.29165542093E+02 -0.63748734839E+02  0.25439872934E+04  0.25449530210E+04  0.00000000000E+00 0.  1.
         21    1    1    2  503  501 -0.29165542093E+02  0.63748734839E+02  0.35002532373E+03  0.35697655006E+03  0.00000000000E+00 0. -1.
</event>
<event>
 4    1  0.5696713E+002  0.6637044E+02  0.7546771E-02  0.1239600E+00
          2   -1    0    0  503    0  0.00000000000E+00  0.00000000000E+00  0.10892508993E+04  0.10892508993E+04  0.00000000000E+00 0.  1.
         -2   -1    0    0    0  501 -0.00000000000E+00 -0.00000000000E+00 -0.77052575981E+01  0.77052575981E+01  0.00000000000E+00 0. -1.
         21    1    1    2  502  501  0.60074256899E+02 -0.28215576757E+02  0.16270027011E+03  0.17571685465E+03  0.00000000000E+00 0. -1.
         21    1    1    2  503  502 -0.60074256899E+02  0.28215576757E+02  0.91884537156E+03  0.92123930222E+03  0.00000000000E+00 0.  1.
</event>
<event>
 4    1  0.5696713E+002  0.2676185E+02  0.7546771E-02  0.1450015E+00
          2   -1    0    0  503    0  0.00000000000E+00  0.00000000000E+00  0.16088248325E+04  0.16088248325E+04  0.00000000000E+00 0.  1.
         -2   -1    0    0    0  501 -0.00000000000E+00 -0.00000000000E+00 -0.12792192803E+01  0.12792192803E+01  0.00000000000E+00 0. -1.
         21    1    1    2  502  501 -0.18982688042E+01  0.26694436978E+02  0.15372098699E+03  0.15603313184E+03  0.00000000000E+00 0. -1.
         21    1    1    2  503  502  0.18982688042E+01 -0.26694436978E+02  0.14538246262E+04  0.14540709199E+04  0.00000000000E+00 0.  1.
</event>
<event>
 4    1  0.5696713E+002  0.2308023E+02  0.7546771E-02  0.1491493E+00
          2   -1    0    0  503    0  0.00000000000E+00  0.00000000000E+00  0.54670201607E+02  0.54670201607E+02  0.00000000000E+00 0.  1.
         -2   -1    0    0    0  501 -0.00000000000E+00 -0.00000000000E+00 -0.10305816973E+02  0.10305816973E+02  0.00000000000E+00 0. -1.
         21    1    1    2  502  501  0.94120672891E+01  0.21073915017E+02  0.14595599957E+02  0.27308028909E+02  0.00000000000E+00 0. -1.
         21    1    1    2  503  502 -0.94120672891E+01 -0.21073915017E+02  0.29768784677E+02  0.37667989672E+02  0.00000000000E+00 0.  1.
</event>
<event>
 4    1  0.5696713E+002  0.3048122E+02  0.7546771E-02  0.1415460E+00
          2   -1    0    0  503    0  0.00000000000E+00  0.00000000000E+00  0.21608497753E+02  0.21608497753E+02  0.00000000000E+00 0. -1.
         -2   -1    0    0    0  501 -0.00000000000E+00 -0.00000000000E+00 -0.60462381522E+02  0.60462381522E+02  0.00000000000E+00 0.  1.
         21    1    1    2  502  501  0.13066057649E+02  0.27538755475E+02 -0.41481736035E+02  0.51476590214E+02  0.00000000000E+00 0.  1.
         21    1    1    2  503  502 -0.13066057649E+02 -0.27538755475E+02  0.26278522663E+01  0.30594289061E+02  0.00000000000E+00 0. -1.
</event>
<event>
 4    1  0.5696713E+002  0.5676019E+02  0.7546771E-02  0.1271256E+00
          2   -1    0    0  502    0  0.00000000000E+00  0.00000000000E+00  0.45983019504E+02  0.45983019504E+02  0.00000000000E+00 0. -1.
         -2   -1    0    0    0  501 -0.00000000000E+00 -0.00000000000E+00 -0.84915364456E+02  0.84915364456E+02  0.00000000000E+00 0.  1.
         21    1    1    2  502  503 -0.40639401609E+02 -0.39625226534E+02  0.79057545535E+01  0.57308118937E+02  0.00000000000E+00 0. -1.
         21    1    1    2  503  501  0.40639401609E+02  0.39625226534E+02 -0.46838099506E+02  0.73590265024E+02  0.00000000000E+00 0.  1.
</event>
<event>
 4    1  0.5696713E+002  0.2560608E+02  0.7546771E-02  0.1462136E+00
          2   -1    0    0  502    0  0.00000000000E+00  0.00000000000E+00  0.91309674474E+02  0.91309674474E+02  0.00000000000E+00 0. -1.
         -2   -1    0    0    0  501 -0.00000000000E+00 -0.00000000000E+00 -0.19584388051E+02  0.19584388051E+02  0.00000000000E+00 0.  1.
         21    1    1    2  502  503 -0.21965699785E+02  0.13159755816E+02  0.79988991842E+02  0.83987558341E+02  0.00000000000E+00 0. -1.
         21    1    1    2  503  501  0.21965699785E+02 -0.13159755816E+02 -0.82637054185E+01  0.26906504184E+02  0.00000000000E+00 0.  1.
</event>
<event>
 4    1  0.5696713E+002  0.2332513E+02  0.7546771E-02  0.1488455E+00
          2   -1    0    0  502    0  0.00000000000E+00  0.00000000000E+00  0.14780216760E+01  0.14780216760E+01  0.00000000000E+00 0. -1.
         -2   -1    0    0    0  501 -0.00000000000E+00 -0.00000000000E+00 -0.90479345973E+03  0.90479345973E+03  0.00000000000E+00 0.  1.
         21    1    1    2  502  503  0.76979344952E+00 -0.23312421502E+02 -0.10266509300E+03  0.10528144613E+03  0.00000000000E+00 0. -1.
         21    1    1    2  503  501 -0.76979344952E+00  0.23312421502E+02 -0.80065034506E+03  0.80099003528E+03  0.00000000000E+00 0.  1.
</event>
<event>
 4    1  0.5696713E+002  0.2042659E+02  0.7546771E-02  0.1527611E+00
          2   -1    0    0  503    0  0.00000000000E+00  0.00000000000E+00  0.22957827883E+04  0.22957827883E+04  0.00000000000E+00 0.  1.
         -2   -1    0    0    0  501 -0.00000000000E+00 -0.00000000000E+00 -0.18485927467E+00  0.18485927467E+00  0.00000000000E+00 0. -1.
         21    1    1    2  502  501 -0.20340847017E+02 -0.18696181865E+01  0.99878067970E+03  0.99898953532E+03  0.00000000000E+00 0.  1.
         21    1    1    2  503  502  0.20340847017E+02  0.18696181865E+01  0.12968172494E+04  0.12969781123E+04  0.00000000000E+00 0. -1.
</event>
<event>
 4    1  0.5696713E+002  0.2762869E+02  0.7546771E-02  0.1441393E+00
          2   -1    0    0  502    0  0.00000000000E+00  0.00000000000E+00  0.10931230500E+03  0.10931230500E+03  0.00000000000E+00 0. -1.
         -2   -1    0    0    0  501 -0.00000000000E+00 -0.00000000000E+00 -0.13232613012E+02  0.13232613012E+02  0.00000000000E+00 0.  1.
         21    1    1    2  502  503 -0.11743997801E+02 -0.25008457835E+02  0.90147765448E+02  0.94286605957E+02  0.00000000000E+00 0. -1.
         21    1    1    2  503  501  0.11743997801E+02  0.25008457835E+02  0.59319265389E+01  0.28258312053E+02  0.00000000000E+00 0.  1.
</event>
<event>
 4    1  0.5696713E+002  0.2526651E+02  0.7546771E-02  0.1465844E+00
          2   -1    0    0  502    0  0.00000000000E+00  0.00000000000E+00  0.75906999232E+02  0.75906999232E+02  0.00000000000E+00 0.  1.
         -2   -1    0    0    0  501 -0.00000000000E+00 -0.00000000000E+00 -0.96136222607E+01  0.96136222607E+01  0.00000000000E+00 0. -1.
         21    1    1    2  502  503 -0.24675114144E+02 -0.54346480035E+01  0.48275254329E+02  0.54487584251E+02  0.00000000000E+00 0.  1.
         21    1    1    2  503  501  0.24675114144E+02  0.54346480035E+01  0.18018122642E+02  0.31033037242E+02  0.00000000000E+00 0. -1.
</event>
<event>
 4    1  0.5696713E+002  0.2514692E+02  0.7546771E-02  0.1467166E+00
          2   -1    0    0  503    0  0.00000000000E+00  0.00000000000E+00  0.26041054869E+03  0.26041054869E+03  0.00000000000E+00 0.  1.
         -2   -1    0    0    0  501 -0.00000000000E+00 -0.00000000000E+00 -0.36141234288E+01  0.36141234288E+01  0.00000000000E+00 0. -1.
         21    1    1    2  502  501 -0.23306368273E+02 -0.94435589537E+01  0.52782138095E+02  0.58466415228E+02  0.00000000000E+00 0. -1.
         21    1    1    2  503  502  0.23306368273E+02  0.94435589537E+01  0.20401428717E+03  0.20555825690E+03  0.00000000000E+00 0.  1.
</event>
<event>
 4    1  0.5696713E+002  0.2195042E+02  0.7546771E-02  0.1506116E+00
          2   -1    0    0  502    0  0.00000000000E+00  0.00000000000E+00  0.30883677933E+02  0.30883677933E+02  0.00000000000E+00 0.  1.
         -2   -1    0    0    0  501 -0.00000000000E+00 -0.00000000000E+00 -0.15769495181E+02  0.15769495181E+02  0.00000000000E+00 0. -1.
         21    1    1    2  502  503 -0.19028165562E+02  0.10943027742E+02  0.51469606391E+01  0.22545778865E+02  0.00000000000E+00 0.  1.
         21    1    1    2  503  501  0.19028165562E+02 -0.10943027742E+02  0.99672221124E+01  0.24107394248E+02  0.00000000000E+00 0. -1.
</event>
<event>
 4    1  0.5696713E+002  0.3474981E+02  0.7546771E-02  0.1382331E+00
          2   -1    0    0  502    0  0.00000000000E+00  0.00000000000E+00  0.76671024609E+03  0.76671024609E+03  0.00000000000E+00 0.  1.
         -2   -1    0    0    0  501 -0.00000000000E+00 -0.00000000000E+00 -0.16188290297E+01  0.16188290297E+01  0.00000000000E+00 0. -1.
         21    1    1    2  502  503  0.31330302307E+02  0.15032023310E+02  0.44577537680E+03  0.44712776264E+03  0.00000000000E+00 0.  1.
         21    1    1    2  503  501 -0.31330302307E+02 -0.15032023310E+02  0.31931604027E+03  0.32120131248E+03  0.00000000000E+00 0. -1.
</event>
<event>
 4    1  0.5696713E+002  0.2147457E+02  0.7546771E-02  0.1512596E+00
          2   -1    0    0  503    0  0.00000000000E+00  0.00000000000E+00  0.37471935812E+03  0.37471935812E+03  0.00000000000E+00 0.  1.
         -2   -1    0    0    0  501 -0.00000000000E+00 -0.00000000000E+00 -0.14947729818E+01  0.14947729818E+01  0.00000000000E+00 0. -1.
         21    1    1    2  502  501  0.18926377053E+02 -0.10146390416E+02  0.10754412100E+03  0.10966720088E+03  0.00000000000E+00 0. -1.
         21    1    1    2  503  502 -0.18926377053E+02  0.10146390416E+02  0.26568046413E+03  0.26654693022E+03  0.00000000000E+00 0.  1.
</event>
<event>
 4    1  0.5696713E+002  0.2139586E+02  0.7546771E-02  0.1513687E+00
          2   -1    0    0  503    0  0.00000000000E+00  0.00000000000E+00  0.10428102559E+04  0.10428102559E+04  0.00000000000E+00 0.  1.
         -2   -1    0    0    0  501 -0.00000000000E+00 -0.00000000000E+00 -0.61227707896E+00  0.61227707896E+00  0.00000000000E+00 0. -1.
         21    1    1    2  502  501 -0.10654125772E+02  0.18554582579E+02  0.24354995671E+03  0.24448796360E+03  0.00000000000E+00 0. -1.
         21    1    1    2  503  502  0.10654125772E+02 -0.18554582579E+02  0.79864802216E+03  0.79893456943E+03  0.00000000000E+00 0.  1.
</event>
<event>
 4    1  0.5696713E+002  0.5737062E+02  0.7546771E-02  0.1269038E+00
          2   -1    0    0  502    0  0.00000000000E+00  0.00000000000E+00  0.21202067382E+03  0.21202067382E+03  0.00000000000E+00 0.  1.
         -2   -1    0    0    0  501 -0.00000000000E+00 -0.00000000000E+00 -0.24731529719E+03  0.24731529719E+03  0.00000000000E+00 0. -1.
         21    1    1    2  502  503  0.54538448193E+02 -0.17802958289E+02  0.20469577388E+03  0.21258350712E+03  0.00000000000E+00 0.  1.
         21    1    1    2  503  501 -0.54538448193E+02  0.17802958289E+02 -0.23999039726E+03  0.24675246388E+03  0.00000000000E+00 0. -1.
</event>
<event>
 4    1  0.5696713E+002  0.2567811E+02  0.7546771E-02  0.1461358E+00
          2   -1    0    0  503    0  0.00000000000E+00  0.00000000000E+00  0.14383502954E+03  0.14383502954E+03  0.00000000000E+00 0. -1.
         -2   -1    0    0    0  501 -0.00000000000E+00 -0.00000000000E+00 -0.58582513749E+01  0.58582513749E+01  0.00000000000E+00 0.  1.
         21    1    1    2  502  501 -0.49456058682E+01 -0.25197346055E+02  0.34083548149E+02  0.42673803674E+02  0.00000000000E+00 0.  1.
         21    1    1    2  503  502  0.49456058682E+01  0.25197346055E+02  0.10389323002E+03  0.10701947725E+03  0.00000000000E+00 0. -1.
</event>
<event>
 4    1  0.5696713E+002  0.2253094E+02  0.7546771E-02  0.1498474E+00
          2   -1    0    0  503    0  0.00000000000E+00  0.00000000000E+00  0.81813888473E+02  0.81813888473E+02  0.00000000000E+00 0.  1.
         -2   -1    0    0    0  501 -0.00000000000E+00 -0.00000000000E+00 -0.12721182686E+02  0.12721182686E+02  0.00000000000E+00 0. -1.
         21    1    1    2  502  501 -0.22525350705E+02 -0.50169581299E+00  0.71645001753E+00  0.22542325162E+02  0.00000000000E+00 0. -1.
         21    1    1    2  503  502  0.22525350705E+02  0.50169581299E+00  0.68376255770E+02  0.71992745997E+02  0.00000000000E+00 0.  1.
</event>
<event>
 4    1  0.5696713E+002  0.2404575E+02  0.7546771E-02  0.1479768E+00
          2   -1    0    0  502    0  0.00000000000E+00  0.00000000000E+00  0.55887712958E+03  0.55887712958E+03  0.00000000000E+00 0.  1.
         -2   -1    0    0    0  501 -0.00000000000E+00 -0.00000000000E+00 -0.14410415164E+01  0.14410415164E+01  0.00000000000E+00 0. -1.
         21    1    1    2  502  503 -0.22640577289E+02 -0.80995398353E+01  0.42751045607E+03  0.42818616084E+03  0.00000000000E+00 0.  1.
         21    1    1    2  503  501  0.22640577289E+02  0.80995398353E+01  0.12992563200E+03  0.13213201026E+03  0.00000000000E+00 0. -1.
</event>
<event>
 4    1  0.5696713E+002  0.2681294E+02  0.7546771E-02  0.1449496E+00
          2   -1    0    0  502    0  0.00000000000E+00  0.00000000000E+00  0.13934303730E+02  0.13934303730E+02  0.00000000000E+00 0. -1.
         -2   -1    0    0    0  501 -0.00000000000E+00 -0.00000000000E+00 -0.53298392759E+02  0.53298392759E+02  0.00000000000E+00 0.  1.
         21    1    1    2  502  503 -0.30175308341E+01 -0.26642605140E+02 -0.13671548223E+02  0.30097261201E+02  0.00000000000E+00 0. -1.
         21    1    1    2  503  501  0.30175308341E+01  0.26642605140E+02 -0.25692540805E+02  0.37135435288E+02  0.00000000000E+00 0.  1.
</event>
<event>
 4    1  0.5696713E+002  0.9645407E+02  0.7546771E-02  0.1170098E+00
          2   -1    0    0  502    0  0.00000000000E+00  0.00000000000E+00  0.98877587910E+03  0.98877587910E+03  0.00000000000E+00 0.  1.
         -2   -1    0    0    0  501 -0.00000000000E+00 -0.00000000000E+00 -0.14066642520E+02  0.14066642520E+02  0.00000000000E+00 0. -1.
         21    1    1    2  502  503  0.36192544522E+01  0.96386139455E+02  0.77588453379E+03  0.78185689014E+03  0.00000000000E+00 0.  1.
         21    1    1    2  503  501 -0.36192544522E+01 -0.96386139455E+02  0.19882470279E+03  0.22098563148E+03  0.00000000000E+00 0. -1.
</event>
<event>
 4    1  0.5696713E+002  0.3588158E+02  0.7546771E-02  0.1374469E+00
          2   -1    0    0  503    0  0.00000000000E+00  0.00000000000E+00  0.49611350919E+03  0.49611350919E+03  0.00000000000E+00 0. -1.
         -2   -1    0    0    0  501 -0.00000000000E+00 -0.00000000000E+00 -0.56179565975E+01  0.56179565975E+01  0.00000000000E+00 0.  1.
         21    1    1    2  502  501  0.10704075273E+02 -0.34247779780E+02  0.61230954492E+02  0.70969834686E+02  0.00000000000E+00 0.  1.
         21    1    1    2  503  502 -0.10704075273E+02  0.34247779780E+02  0.42926459810E+03  0.43076163110E+03  0.00000000000E+00 0. -1.
</event>
<event>
 4    1  0.5696713E+002  0.2158947E+02  0.7546771E-02  0.1511013E+00
          2   -1    0    0  502    0  0.00000000000E+00  0.00000000000E+00  0.15965686079E+03  0.15965686079E+03  0.00000000000E+00 0.  1.
         -2   -1    0    0    0  501 -0.00000000000E+00 -0.00000000000E+00 -0.59674906326E+01  0.59674906326E+01  0.00000000000E+00 0. -1.
         21    1    1    2  502  503  0.11133758777E+02 -0.18497157026E+02  0.13602957561E+03  0.13773217069E+03  0.00000000000E+00 0.  1.
         21    1    1    2  503  501 -0.11133758777E+02  0.18497157026E+02  0.17659794548E+02  0.27892180732E+02  0.00000000000E+00 0. -1.
</event>
<event>
 4    1  0.5696713E+002  0.4668911E+02  0.7546771E-02  0.1313203E+00
          2   -1    0    0  502    0  0.00000000000E+00  0.00000000000E+00  0.33720348923E+04  0.33720348923E+04  0.00000000000E+00 0. -1.
         -2   -1    0    0    0  501 -0.00000000000E+00 -0.00000000000E+00 -0.64669836714E+00  0.64669836714E+00  0.00000000000E+00 0.  1.
         21    1    1    2  502  503 -0.39605239871E+02  0.24724449595E+02  0.16530728629E+04  0.16537320712E+04  0.00000000000E+00 0.  1.
         21    1    1    2  503  501  0.39605239871E+02 -0.24724449595E+02  0.17183153311E+04  0.17189495195E+04  0.00000000000E+00 0. -1.
</event>
<event>
 4    1  0.5696713E+002  0.4053997E+02  0.7546771E-02  0.1345350E+00
          2   -1    0    0  502    0  0.00000000000E+00  0.00000000000E+00  0.24440221637E+03  0.24440221637E+03  0.00000000000E+00 0.  1.
         -2   -1    0    0    0  501 -0.00000000000E+00 -0.00000000000E+00 -0.89790266551E+02  0.89790266551E+02  0.00000000000E+00 0. -1.
         21    1    1    2  502  503 -0.39266293012E+02 -0.10082017785E+02  0.23802342144E+03  0.24145110893E+03  0.00000000000E+00 0.  1.
         21    1    1    2  503  501  0.39266293012E+02  0.10082017785E+02 -0.83411471628E+02  0.92741373985E+02  0.00000000000E+00 0. -1.
</event>
<event>
 4    1  0.5696713E+002  0.2568177E+02  0.7546771E-02  0.1461319E+00
          2   -1    0    0  503    0  0.00000000000E+00  0.00000000000E+00  0.14197041137E+03  0.14197041137E+03  0.00000000000E+00 0. -1.
         -2   -1    0    0    0  501 -0.00000000000E+00 -0.00000000000E+00 -0.80029622208E+01  0.80029622208E+01  0.00000000000E+00 0.  1.
         21    1    1    2  502  501 -0.60900292594E+01  0.24949248704E+02  0.18415668896E+02  0.31602062087E+02  0.00000000000E+00 0.  1.
         21    1    1    2  503  502  0.60900292594E+01 -0.24949248704E+02  0.11555178025E+03  0.11837131150E+03  0.00000000000E+00 0. -1.
</event>
<event>
 4    1  0.5696713E+002  0.2073284E+02  0.7546771E-02  0.1523114E+00
          2   -1    0    0  502    0  0.00000000000E+00  0.00000000000E+00  0.13661395858E+04  0.13661395858E+04  0.00000000000E+00 0.  1.
         -2   -1    0    0    0  501 -0.00000000000E+00 -0.00000000000E+00 -0.34933380235E+00  0.34933380235E+00  0.00000000000E+00 0. -1.
         21    1    1    2  502  503  0.64490237962E+01 -0.19704332331E+02  0.46759563919E+03  0.46805505276E+03  0.00000000000E+00 0. -1.
         21    1    1    2  503  501 -0.64490237962E+01  0.19704332331E+02  0.89819461279E+03  0.89843386683E+03  0.00000000000E+00 0.  1.
</event>
<event>
 4    1  0.5696713E+002  0.2739780E+02  0.7546771E-02  0.1443653E+00
          2   -1    0    0  502    0  0.00000000000E+00  0.00000000000E+00  0.86563235562E+02  0.86563235562E+02  0.00000000000E+00 0.  1.
         -2   -1    0    0    0  501 -0.00000000000E+00 -0.00000000000E+00 -0.91189335115E+01  0.91189335115E+01  0.00000000000E+00 0. -1.
         21    1    1    2  502  503 -0.72427628608E+01  0.26423134436E+02  0.49318506515E+02  0.56417681024E+02  0.00000000000E+00 0. -1.
         21    1    1    2  503  501  0.72427628608E+01 -0.26423134436E+02  0.28125795535E+02  0.39264488049E+02  0.00000000000E+00 0.  1.
</event>
<event>
 4    1  0.5696713E+002  0.5130784E+02  0.7546771E-02  0.1292600E+00
          2   -1    0    0  503    0  0.00000000000E+00  0.00000000000E+00  0.35767761570E+03  0.35767761570E+03  0.00000000000E+00 0.  1.
         -2   -1    0    0    0  501 -0.00000000000E+00 -0.00000000000E+00 -0.98336679153E+01  0.98336679153E+01  0.00000000000E+00 0. -1.
         21    1    1    2  502  501 -0.20733107421E+02 -0.46932217902E+02  0.81758961394E+02  0.96524725271E+02  0.00000000000E+00 0. -1.
         21    1    1    2  503  502  0.20733107421E+02  0.46932217902E+02  0.26608498639E+03  0.27098655834E+03  0.00000000000E+00 0.  1.
</event>
<event>
 4    1  0.5696713E+002  0.2560552E+02  0.7546771E-02  0.1462142E+00
          2   -1    0    0  502    0  0.00000000000E+00  0.00000000000E+00  0.95135308175E+03  0.95135308175E+03  0.00000000000E+00 0. -1.
         -2   -1    0    0    0  501 -0.00000000000E+00 -0.00000000000E+00 -0.70917372528E+00  0.70917372528E+00  0.00000000000E+00 0.  1.
         21    1    1    2  502  503  0.21592961430E+02 -0.13761789387E+02  0.55527368257E+03  0.55586374714E+03  0.00000000000E+00 0.  1.
         21    1    1    2  503  501 -0.21592961430E+02  0.13761789387E+02  0.39537022545E+03  0.39619850833E+03  0.00000000000E+00 0. -1.
</event>
<event>
 4    1  0.5696713E+002  0.2222375E+02  0.7546771E-02  0.1502482E+00
          2   -1    0    0  502    0  0.00000000000E+00  0.00000000000E+00  0.60626354295E+03  0.60626354295E+03  0.00000000000E+00 0.  1.
         -2   -1    0    0    0  501 -0.00000000000E+00 -0.00000000000E+00 -0.17772653371E+02  0.17772653371E+02  0.00000000000E+00 0. -1.
         21    1    1    2  502  503  0.17598927903E+02 -0.13571035453E+02  0.59902859406E+03  0.59944069912E+03  0.00000000000E+00 0.  1.
         21    1    1    2  503  501 -0.17598927903E+02  0.13571035453E+02 -0.10537704480E+02  0.24595497196E+02  0.00000000000E+00 0. -1.
</event>
<event>
 4    1  0.5696713E+002  0.2145537E+02  0.7546771E-02  0.1512862E+00
          2   -1    0    0  503    0  0.00000000000E+00  0.00000000000E+00  0.33023143874E+02  0.33023143874E+02  0.00000000000E+00 0. -1.
         -2   -1    0    0    0  501 -0.00000000000E+00 -0.00000000000E+00 -0.14859352409E+02  0.14859352409E+02  0.00000000000E+00 0.  1.
         21    1    1    2  502  501 -0.89283184297E+01 -0.19509435450E+02  0.15037928922E+02  0.26200615409E+02  0.00000000000E+00 0. -1.
         21    1    1    2  503  502  0.89283184297E+01  0.19509435450E+02  0.31258625433E+01  0.21681880873E+02  0.00000000000E+00 0.  1.
</event>
<event>
 4    1  0.5696713E+002  0.3381828E+02  0.7546771E-02  0.1389067E+00
          2   -1    0    0  502    0  0.00000000000E+00  0.00000000000E+00  0.23504630224E+02  0.23504630224E+02  0.00000000000E+00 0.  1.
         -2   -1    0    0    0  501 -0.00000000000E+00 -0.00000000000E+00 -0.26747493803E+03  0.26747493803E+03  0.00000000000E+00 0. -1.
         21    1    1    2  502  503 -0.57864090249E+01  0.33319566553E+02  0.96075883576E+01  0.35156532803E+02  0.00000000000E+00 0.  1.
         21    1    1    2  503  501  0.57864090249E+01 -0.33319566553E+02 -0.25357789616E+03  0.25582303545E+03  0.00000000000E+00 0. -1.
</event>
<event>
 4    1  0.5696713E+002  0.4574240E+02  0.7546771E-02  0.1317768E+00
          2   -1    0    0  503    0  0.00000000000E+00  0.00000000000E+00  0.16554699863E+03  0.16554699863E+03  0.00000000000E+00 0. -1.
         -2   -1    0    0    0  501 -0.00000000000E+00 -0.00000000000E+00 -0.55266859771E+02  0.55266859771E+02  0.00000000000E+00 0.  1.
         21    1    1    2  502  501  0.12810336261E+02 -0.43911984880E+02 -0.41823842349E+02  0.61980649561E+02  0.00000000000E+00 0.  1.
         21    1    1    2  503  502 -0.12810336261E+02  0.43911984880E+02  0.15210398121E+03  0.15883320884E+03  0.00000000000E+00 0. -1.
</event>
<event>
 4    1  0.5696713E+002  0.2135390E+02  0.7546771E-02  0.1514272E+00
          2   -1    0    0  503    0  0.00000000000E+00  0.00000000000E+00  0.11848003602E+03  0.11848003602E+03  0.00000000000E+00 0.  1.
         -2   -1    0    0    0  501 -0.00000000000E+00 -0.00000000000E+00 -0.53743677426E+01  0.53743677426E+01  0.00000000000E+00 0. -1.
         21    1    1    2  502  501 -0.12046586032E+02  0.17631473274E+02  0.23557404212E+02  0.31795288614E+02  0.00000000000E+00 0. -1.
         21    1    1    2  503  502  0.12046586032E+02 -0.17631473274E+02  0.89548264070E+02  0.92059115153E+02  0.00000000000E+00 0.  1.
</event>
<event>
 4    1  0.5696713E+002  0.2017203E+02  0.7546771E-02  0.1531422E+00
          2   -1    0    0  502    0  0.00000000000E+00  0.00000000000E+00  0.55514452596E+03  0.55514452596E+03  0.00000000000E+00 0.  1.
         -2   -1    0    0    0  501 -0.00000000000E+00 -0.00000000000E+00 -0.32532680282E+01  0.32532680282E+01  0.00000000000E+00 0. -1.
         21    1    1    2  502  503  0.13170217730E+02 -0.15279272367E+02  0.52168724742E+03  0.52207709672E+03  0.00000000000E+00 0.  1.
         21    1    1    2  503  501 -0.13170217730E+02  0.15279272367E+02  0.30204010519E+02  0.36320697275E+02  0.00000000000E+00 0. -1.
</event>
<event>
 4    1  0.5696713E+002  0.2909051E+02  0.7546771E-02  0.1427668E+00
          2   -1    0    0  503    0  0.00000000000E+00  0.00000000000E+00  0.16246144217E+04  0.16246144217E+04  0.00000000000E+00 0. -1.
         -2   -1    0    0    0  501 -0.00000000000E+00 -0.00000000000E+00 -0.17797913405E+01  0.17797913405E+01  0.00000000000E+00 0.  1.
         21    1    1    2  502  501 -0.95567953526E+00 -0.29074806870E+02  0.12749650144E+03  0.13077314556E+03  0.00000000000E+00 0.  1.
         21    1    1    2  503  502  0.95567953526E+00  0.29074806870E+02  0.14953381289E+04  0.14956210675E+04  0.00000000000E+00 0. -1.
</event>
<event>
 4    1  0.5696713E+002  0.2068946E+02  0.7546771E-02  0.1523745E+00
          2   -1    0    0  503    0  0.00000000000E+00  0.00000000000E+00  0.12501778373E+03  0.12501778373E+03  0.00000000000E+00 0.  1.
         -2   -1    0    0    0  501 -0.00000000000E+00 -0.00000000000E+00 -0.48294293526E+01  0.48294293526E+01  0.00000000000E+00 0. -1.
         21    1    1    2  502  501  0.13306090831E+02  0.15843037451E+02  0.25070003950E+02  0.32504753297E+02  0.00000000000E+00 0. -1.
         21    1    1    2  503  502 -0.13306090831E+02 -0.15843037451E+02  0.95118350429E+02  0.97342459786E+02  0.00000000000E+00 0.  1.
</event>
<event>
 4    1  0.5696713E+002  0.2033389E+02  0.7546771E-02  0.1528991E+00
          2   -1    0    0  503    0  0.00000000000E+00  0.00000000000E+00  0.27517922555E+01  0.27517922555E+01  0.00000000000E+00 0.  1.
         -2   -1    0    0    0  501 -0.00000000000E+00 -0.00000000000E+00 -0.35551722200E+03  0.35551722200E+03  0.00000000000E+00 0. -1.
         21    1    1    2  502  501 -0.32992737079E+01  0.20064446681E+02 -0.31249731753E+03  0.31315817200E+03  0.00000000000E+00 0. -1.
         21    1    1    2  503  502  0.32992737079E+01 -0.20064446681E+02 -0.40268112216E+02  0.45110842256E+02  0.00000000000E+00 0.  1.
</event>
<event>
 4    1  0.5696713E+002  0.2186086E+02  0.7546771E-02  0.1507320E+00
          2   -1    0    0  503    0  0.00000000000E+00  0.00000000000E+00  0.13655151598E+03  0.13655151598E+03  0.00000000000E+00 0. -1.
         -2   -1    0    0    0  501 -0.00000000000E+00 -0.00000000000E+00 -0.48718986668E+01  0.48718986668E+01  0.00000000000E+00 0.  1.
         21    1    1    2  502  501  0.11400369533E+02 -0.18652849830E+02  0.10336661021E+03  0.10565298547E+03  0.00000000000E+00 0. -1.
         21    1    1    2  503  502 -0.11400369533E+02  0.18652849830E+02  0.28313007101E+02  0.35770429175E+02  0.00000000000E+00 0.  1.
</event>
<event>
 4    1  0.5696713E+002  0.7009965E+02  0.7546771E-02  0.1228908E+00
          2   -1    0    0  502    0  0.00000000000E+00  0.00000000000E+00  0.59015443090E+03  0.59015443090E+03  0.00000000000E+00 0. -1.
         -2   -1    0    0    0  501 -0.00000000000E+00 -0.00000000000E+00 -0.21625821128E+02  0.21625821128E+02  0.00000000000E+00 0.  1.
         21    1    1    2  502  503  0.17805638016E+02  0.67800591331E+02  0.52414361057E+03  0.52881044376E+03  0.00000000000E+00 0. -1.
         21    1    1    2  503  501 -0.17805638016E+02 -0.67800591331E+02  0.44384999207E+02  0.82969808272E+02  0.00000000000E+00 0.  1.
</event>
<event>
 4    1  0.5696713E+002  0.2299821E+02  0.7546771E-02  0.1492521E+00
          2   -1    0    0  502    0  0.00000000000E+00  0.00000000000E+00  0.17009506649E+04  0.17009506649E+04  0.00000000000E+00 0. -1.
         -2   -1    0    0    0  501 -0.00000000000E+00 -0.00000000000E+00 -0.68126552526E+00  0.68126552526E+00  0.00000000000E+00 0.  1.
         21    1    1    2  502  503 -0.15254331216E+02 -0.17211131582E+02  0.14774139905E+04  0.14775929809E+04  0.00000000000E+00 0. -1.
         21    1    1    2  503  501  0.15254331216E+02  0.17211131582E+02  0.22285540882E+03  0.22403894954E+03  0.00000000000E+00 0.  1.
</event>
<event>
 4    1  0.5696713E+002  0.4008920E+02  0.7546771E-02  0.1347964E+00
          2   -1    0    0  502    0  0.00000000000E+00  0.00000000000E+00  0.13251405688E+04  0.13251405688E+04  0.00000000000E+00 0.  1.
         -2   -1    0    0    0  501 -0.00000000000E+00 -0.00000000000E+00 -0.12128767466E+01  0.12128767466E+01  0.00000000000E+00 0. -1.
         21    1    1    2  502  503 -0.32056209397E+02 -0.24073712055E+02  0.66687126686E+03  0.66807516848E+03  0.00000000000E+00 0.  1.
         21    1    1    2  503  501  0.32056209397E+02  0.24073712055E+02  0.65705642522E+03  0.65827827709E+03  0.00000000000E+00 0. -1.
</event>
<event>
 4    1  0.5696713E+002  0.2132051E+02  0.7546771E-02  0.1514738E+00
          2   -1    0    0  503    0  0.00000000000E+00  0.00000000000E+00  0.12380753961E+04  0.12380753961E+04  0.00000000000E+00 0.  1.
         -2   -1    0    0    0  501 -0.00000000000E+00 -0.00000000000E+00 -0.51842722191E+00  0.51842722191E+00  0.00000000000E+00 0. -1.
         21    1    1    2  502  501 -0.20383768454E+02  0.62503059356E+01  0.28424774070E+03  0.28504621104E+03  0.00000000000E+00 0. -1.
         21    1    1    2  503  502  0.20383768454E+02 -0.62503059356E+01  0.95330922820E+03  0.95354761229E+03  0.00000000000E+00 0.  1.
</event>
<event>
 4    1  0.5696713E+002  0.2055286E+02  0.7546771E-02  0.1525746E+00
          2   -1    0    0  502    0  0.00000000000E+00  0.00000000000E+00  0.18348207280E+04  0.18348207280E+04  0.00000000000E+00 0.  1.
         -2   -1    0    0    0  501 -0.00000000000E+00 -0.00000000000E+00 -0.23024341565E+00  0.23024341565E+00  0.00000000000E+00 0. -1.
         21    1    1    2  502  503 -0.20551294241E+02 -0.25396478579E+00  0.90892015325E+03  0.90915249831E+03  0.00000000000E+00 0. -1.
         21    1    1    2  503  501  0.20551294241E+02  0.25396478579E+00  0.92567033137E+03  0.92589847314E+03  0.00000000000E+00 0.  1.
</event>
<event>
 4    1  0.5696713E+002  0.2898334E+02  0.7546771E-02  0.1428642E+00
          2   -1    0    0  502    0  0.00000000000E+00  0.00000000000E+00  0.17915893448E+03  0.17915893448E+03  0.00000000000E+00 0. -1.
         -2   -1    0    0    0  501 -0.00000000000E+00 -0.00000000000E+00 -0.14085690934E+02  0.14085690934E+02  0.00000000000E+00 0.  1.
         21    1    1    2  502  503 -0.11884312538E+02 -0.26434774143E+02  0.16145556285E+03  0.16403637689E+03  0.00000000000E+00 0. -1.
         21    1    1    2  503  501  0.11884312538E+02  0.26434774143E+02  0.36176807027E+01  0.29208248530E+02  0.00000000000E+00 0.  1.
</event>
<event>
 4    1  0.5696713E+002  0.2470968E+02  0.7546771E-02  0.1472077E+00
          2   -1    0    0  503    0  0.00000000000E+00  0.00000000000E+00  0.15355789143E+03  0.15355789143E+03  0.00000000000E+00 0. -1.
         -2   -1    0    0    0  501 -0.00000000000E+00 -0.00000000000E+00 -0.97105922935E+01  0.97105922935E+01  0.00000000000E+00 0.  1.
         21    1    1    2  502  501  0.24641267750E+02  0.18374506650E+01  0.91907558296E+01  0.26363578930E+02  0.00000000000E+00 0.  1.
         21    1    1    2  503  502 -0.24641267750E+02 -0.18374506650E+01  0.13465654331E+03  0.13690490479E+03  0.00000000000E+00 0. -1.
</event>
<event>
 4    1  0.5696713E+002  0.2237459E+02  0.7546771E-02  0.1500504E+00
          2   -1    0    0  503    0  0.00000000000E+00  0.00000000000E+00  0.89541447541E+03  0.89541447541E+03  0.00000000000E+00 0.  1.
         -2   -1    0    0    0  501 -0.00000000000E+00 -0.00000000000E+00 -0.26767735442E+01  0.26767735442E+01  0.00000000000E+00 0. -1.
         21    1    1    2  502  501 -0.22365731097E+02  0.62952361693E+00  0.46962820696E+02  0.52020464773E+02  0.00000000000E+00 0. -1.
         21    1    1    2  503  502  0.22365731097E+02 -0.62952361693E+00  0.84577488117E+03  0.84607078418E+03  0.00000000000E+00 0.  1.
</event>
<event>
 4    1  0.5696713E+002  0.2170841E+02  0.7546771E-02  0.1509386E+00
          2   -1    0    0  502    0  0.00000000000E+00  0.00000000000E+00  0.77965216741E+03  0.77965216741E+03  0.00000000000E+00 0. -1.
         -2   -1    0    0    0  501 -0.00000000000E+00 -0.00000000000E+00 -0.16017347800E+01  0.16017347800E+01  0.00000000000E+00 0.  1.
         21    1    1    2  502  503  0.15696858772E+02  0.14995452538E+02  0.69725749068E+03  0.69759534351E+03  0.00000000000E+00 0. -1.
         21    1    1    2  503  501 -0.15696858772E+02 -0.14995452538E+02  0.80792941951E+02  0.83658558685E+02  0.00000000000E+00 0.  1.
</event>
<event>
 4    1  0.5696713E+002  0.4073752E+02  0.7546771E-02  0.1344217E+00
          2   -1    0    0  502    0  0.00000000000E+00  0.00000000000E+00  0.17503636075E+02  0.17503636075E+02  0.00000000000E+00 0.  1.
         -2   -1    0    0    0  501 -0.00000000000E+00 -0.00000000000E+00 -0.97783119468E+02  0.97783119468E+02  0.00000000000E+00 0. -1.
         21    1    1    2  502  503 -0.10659008958E+02  0.39318332053E+02 -0.50188566212E+02  0.64640837602E+02  0.00000000000E+00 0.  1.
         21    1    1    2  503  501  0.10659008958E+02 -0.39318332053E+02 -0.30090917181E+02  0.50645917942E+02  0.00000000000E+00 0. -1.
</event>
<event>
 4    1  0.5696713E+002  0.2839576E+02  0.7546771E-02  0.1434070E+00
          2   -1    0    0  503    0  0.00000000000E+00  0.00000000000E+00  0.17381389829E+02  0.17381389829E+02  0.00000000000E+00 0. -1.
         -2   -1    0    0    0  501 -0.00000000000E+00 -0.00000000000E+00 -0.46546271303E+02  0.46546271303E+02  0.00000000000E+00 0.  1.
         21    1    1    2  502  501  0.25887188171E+02  0.11669308582E+02 -0.12729217957E+02  0.31118358953E+02  0.00000000000E+00 0. -1.
         21    1    1    2  503  502 -0.25887188171E+02 -0.11669308582E+02 -0.16435663517E+02  0.32809302178E+02  0.00000000000E+00 0.  1.
</event>
<event>
 4    1  0.5696713E+002  0.2129684E+02  0.7546771E-02  0.1515069E+00
          2   -1    0    0  503    0  0.00000000000E+00  0.00000000000E+00  0.21298877365E+01  0.21298877365E+01  0.00000000000E+00 0. -1.
         -2   -1    0    0    0  501 -0.00000000000E+00 -0.00000000000E+00 -0.44493762398E+03  0.44493762398E+03  0.00000000000E+00 0.  1.
         21    1    1    2  502  501 -0.16666898707E+02 -0.13257816323E+02 -0.38281291989E+03  0.38340486022E+03  0.00000000000E+00 0.  1.
         21    1    1    2  503  502  0.16666898707E+02  0.13257816323E+02 -0.59994816348E+02  0.63662651491E+02  0.00000000000E+00 0. -1.
</event>
<event>
 4    1  0.5696713E+002  0.3302055E+02  0.7546771E-02  0.1395040E+00
          2   -1    0    0  502    0  0.00000000000E+00  0.00000000000E+00  0.11178752591E+03  0.11178752591E+03  0.00000000000E+00 0.  1.
         -2   -1    0    0    0  501 -0.00000000000E+00 -0.00000000000E+00 -0.10761410993E+02  0.10761410993E+02  0.00000000000E+00 0. -1.
         21    1    1    2  502  503 -0.16416245919E+02  0.28650714017E+02  0.69262350125E+02  0.76730891358E+02  0.00000000000E+00 0.  1.
         21    1    1    2  503  501  0.16416245919E+02 -0.28650714017E+02  0.31763764791E+02  0.45818045544E+02  0.00000000000E+00 0. -1.
</event>
<event>
 4    1  0.5696713E+002  0.5369424E+02  0.7546771E-02  0.1282904E+00
          2   -1    0    0  503    0  0.00000000000E+00  0.00000000000E+00  0.23609156480E+04  0.23609156480E+04  0.00000000000E+00 0.  1.
         -2   -1    0    0    0  501 -0.00000000000E+00 -0.00000000000E+00 -0.12799797405E+01  0.12799797405E+01  0.00000000000E+00 0. -1.
         21    1    1    2  502  501 -0.34938203776E+02  0.40772452537E+02  0.14329935665E+04  0.14339991745E+04  0.00000000000E+00 0.  1.
         21    1    1    2  503  502  0.34938203776E+02 -0.40772452537E+02  0.92664210176E+03  0.92819645320E+03  0.00000000000E+00 0. -1.
</event>
<event>
 4    1  0.5696713E+002  0.2759165E+02  0.7546771E-02  0.1441754E+00
          2   -1    0    0  503    0  0.00000000000E+00  0.00000000000E+00  0.36088172331E+03  0.36088172331E+03  0.00000000000E+00 0.  1.
         -2   -1    0    0    0  501 -0.00000000000E+00 -0.00000000000E+00 -0.64372878976E+02  0.64372878976E+02  0.00000000000E+00 0. -1.
         21    1    1    2  502  501 -0.12237719048E+02 -0.24729281583E+02 -0.60859871017E+02  0.66822324378E+02  0.00000000000E+00 0. -1.
         21    1    1    2  503  502  0.12237719048E+02  0.24729281583E+02  0.35736871535E+03  0.35843227791E+03  0.00000000000E+00 0.  1.
</event>
<event>
 4    1  0.5696713E+002  0.3692254E+02  0.7546771E-02  0.1367529E+00
          2   -1    0    0  503    0  0.00000000000E+00  0.00000000000E+00  0.11010136412E+04  0.11010136412E+04  0.00000000000E+00 0. -1.
         -2   -1    0    0    0  501 -0.00000000000E+00 -0.00000000000E+00 -0.13382417011E+01  0.13382417011E+01  0.00000000000E+00 0.  1.
         21    1    1    2  502  501  0.27905275030E+02 -0.24177867143E+02  0.70053878446E+03  0.70151112762E+03  0.00000000000E+00 0.  1.
         21    1    1    2  503  502 -0.27905275030E+02  0.24177867143E+02  0.39913661501E+03  0.40084075526E+03  0.00000000000E+00 0. -1.
</event>
<event>
 4    1  0.5696713E+002  0.2420569E+02  0.7546771E-02  0.1477889E+00
          2   -1    0    0  503    0  0.00000000000E+00  0.00000000000E+00  0.14373410724E+02  0.14373410724E+02  0.00000000000E+00 0.  1.
         -2   -1    0    0    0  501 -0.00000000000E+00 -0.00000000000E+00 -0.41344483617E+02  0.41344483617E+02  0.00000000000E+00 0. -1.
         21    1    1    2  502  501 -0.42828859398E+01  0.23823779551E+02 -0.16786998748E+02  0.29457068948E+02  0.00000000000E+00 0. -1.
         21    1    1    2  503  502  0.42828859398E+01 -0.23823779551E+02 -0.10184074145E+02  0.26260825392E+02  0.00000000000E+00 0.  1.
</event>
<event>
 4    1  0.5696713E+002  0.2006710E+02  0.7546771E-02  0.1533012E+00
          2   -1    0    0  502    0  0.00000000000E+00  0.00000000000E+00  0.60114652835E+03  0.60114652835E+03  0.00000000000E+00 0. -1.
         -2   -1    0    0    0  501 -0.00000000000E+00 -0.00000000000E+00 -0.85960655039E+01  0.85960655039E+01  0.00000000000E+00 0.  1.
         21    1    1    2  502  503  0.19488051499E+02  0.47858285065E+01  0.58902674465E+03  0.58936847067E+03  0.00000000000E+00 0. -1.
         21    1    1    2  503  501 -0.19488051499E+02 -0.47858285065E+01  0.35237181990E+01  0.20374123188E+02  0.00000000000E+00 0.  1.
</event>
<event>
 4    1  0.5696713E+002  0.2623805E+02  0.7546771E-02  0.1455416E+00
          2   -1    0    0  503    0  0.00000000000E+00  0.00000000000E+00  0.10374669920E+03  0.10374669920E+03  0.00000000000E+00 0.  1.
         -2   -1    0    0    0  501 -0.00000000000E+00 -0.00000000000E+00 -0.80313107631E+01  0.80313107631E+01  0.00000000000E+00 0. -1.
         21    1    1    2  502  501 -0.24008085235E+02 -0.10585231427E+02  0.24560138746E+02  0.35939333553E+02  0.00000000000E+00 0. -1.
         21    1    1    2  503  502  0.24008085235E+02  0.10585231427E+02  0.71155249686E+02  0.75838676405E+02  0.00000000000E+00 0.  1.
</event>
<event>
 4    1  0.5696713E+002  0.3468422E+02  0.7546771E-02  0.1382797E+00
          2   -1    0    0  502    0  0.00000000000E+00  0.00000000000E+00  0.15858191133E+03  0.15858191133E+03  0.00000000000E+00 0. -1.
         -2   -1    0    0    0  501 -0.00000000000E+00 -0.00000000000E+00 -0.16407409342E+02  0.16407409342E+02  0.00000000000E+00 0.  1.
         21    1    1    2  502  503  0.44887721673E+01  0.34392525285E+02  0.69320756999E+01  0.35370164610E+02  0.00000000000E+00 0.  1.
         21    1    1    2  503  501 -0.44887721673E+01 -0.34392525285E+02  0.13524242629E+03  0.13961915606E+03  0.00000000000E+00 0. -1.
</event>
<event>
 4    1  0.5696713E+002  0.2325391E+02  0.7546771E-02  0.1489334E+00
          2   -1    0    0  503    0  0.00000000000E+00  0.00000000000E+00  0.77824590061E+02  0.77824590061E+02  0.00000000000E+00 0. -1.
         -2   -1    0    0    0  501 -0.00000000000E+00 -0.00000000000E+00 -0.99832637734E+01  0.99832637734E+01  0.00000000000E+00 0.  1.
         21    1    1    2  502  501 -0.20055842998E+02  0.11768918581E+02  0.97132814740E+01  0.25201034104E+02  0.00000000000E+00 0.  1.
         21    1    1    2  503  502  0.20055842998E+02 -0.11768918581E+02  0.58128044813E+02  0.62606819730E+02  0.00000000000E+00 0. -1.
</event>
<event>
 4    1  0.5696713E+002  0.4170709E+02  0.7546771E-02  0.1338763E+00
          2   -1    0    0  502    0  0.00000000000E+00  0.00000000000E+00  0.90358230128E+03  0.90358230128E+03  0.00000000000E+00 0. -1.
         -2   -1    0    0    0  501 -0.00000000000E+00 -0.00000000000E+00 -0.65300233676E+01  0.65300233676E+01  0.00000000000E+00 0.  1.
         21    1    1    2  502  503 -0.84698956509E+01 -0.40837994681E+02  0.83066316102E+03  0.83170954546E+03  0.00000000000E+00 0. -1.
         21    1    1    2  503  501  0.84698956509E+01  0.40837994681E+02  0.66389116897E+02  0.78402779187E+02  0.00000000000E+00 0.  1.
</event>
<event>
 4    1  0.5696713E+002  0.3872663E+02  0.7546771E-02  0.1356114E+00
          2   -1    0    0  502    0  0.00000000000E+00  0.00000000000E+00  0.14386709670E+03  0.14386709670E+03  0.00000000000E+00 0. -1.
         -2   -1    0    0    0  501 -0.00000000000E+00 -0.00000000000E+00 -0.10450052843E+02  0.10450052843E+02  0.00000000000E+00 0.  1.
         21    1    1    2  502  503  0.36881768643E+02  0.11810455969E+02  0.70519195163E+02  0.80453145463E+02  0.00000000000E+00 0.  1.
         21    1    1    2  503  501 -0.36881768643E+02 -0.11810455969E+02  0.62897848690E+02  0.73864004077E+02  0.00000000000E+00 0. -1.
</event>
<event>
 4    1  0.5696713E+002  0.2279422E+02  0.7546771E-02  0.1495098E+00
          2   -1    0    0  502    0  0.00000000000E+00  0.00000000000E+00  0.74275313734E+03  0.74275313734E+03  0.00000000000E+00 0.  1.
         -2   -1    0    0    0  501 -0.00000000000E+00 -0.00000000000E+00 -0.73263053225E+00  0.73263053225E+00  0.00000000000E+00 0. -1.
         21    1    1    2  502  503 -0.22614125605E+02  0.28596946661E+01  0.45002925296E+03  0.45060615292E+03  0.00000000000E+00 0. -1.
         21    1    1    2  503  501  0.22614125605E+02 -0.28596946661E+01  0.29199125385E+03  0.29287961495E+03  0.00000000000E+00 0.  1.
</event>
<event>
 4    1  0.5696713E+002  0.2196490E+02  0.7546771E-02  0.1505922E+00
          2   -1    0    0  502    0  0.00000000000E+00  0.00000000000E+00  0.56125685905E+03  0.56125685905E+03  0.00000000000E+00 0.  1.
         -2   -1    0    0    0  501 -0.00000000000E+00 -0.00000000000E+00 -0.93997605291E+00  0.93997605291E+00  0.00000000000E+00 0. -1.
         21    1    1    2  502  503 -0.21720990429E+02  0.32642688550E+01  0.36235640002E+03  0.36302151108E+03  0.00000000000E+00 0.  1.
         21    1    1    2  503  501  0.21720990429E+02 -0.32642688550E+01  0.19796048298E+03  0.19917532402E+03  0.00000000000E+00 0. -1.
</event>
<event>
 4    1  0.5696713E+002  0.2005486E+02  0.7546771E-02  0.1533199E+00
          2   -1    0    0  503    0  0.00000000000E+00  0.00000000000E+00  0.29151191308E+03  0.29151191308E+03  0.00000000000E+00 0.  1.
         -2   -1    0    0    0  501 -0.00000000000E+00 -0.00000000000E+00 -0.16970787474E+01  0.16970787474E+01  0.00000000000E+00 0. -1.
         21    1    1    2  502  501  0.69386221420E-02 -0.20054856933E+02  0.81507441802E+02  0.83938432222E+02  0.00000000000E+00 0. -1.
         21    1    1    2  503  502 -0.69386221420E-02  0.20054856933E+02  0.20830739253E+03  0.20927055960E+03  0.00000000000E+00 0.  1.
</event>
<event>
 4    1  0.5696713E+002  0.2222869E+02  0.7546771E-02  0.1502418E+00
          2   -1    0    0  503    0  0.00000000000E+00  0.00000000000E+00  0.50160442945E+03  0.50160442945E+03  0.00000000000E+00 0. -1.
         -2   -1    0    0    0  501 -0.00000000000E+00 -0.00000000000E+00 -0.10537191179E+01  0.10537191179E+01  0.00000000000E+00 0.  1.
         21    1    1    2  502  501  0.78377065777E+01  0.20801078139E+02  0.18612427743E+03  0.18744695555E+03  0.00000000000E+00 0.  1.
         21    1    1    2  503  502 -0.78377065777E+01 -0.20801078139E+02  0.31442643290E+03  0.31521119301E+03  0.00000000000E+00 0. -1.
</event>
<event>
 4    1  0.5696713E+002  0.2237532E+02  0.7546771E-02  0.1500495E+00
          2   -1    0    0  503    0  0.00000000000E+00  0.00000000000E+00  0.38778057494E+03  0.38778057494E+03  0.00000000000E+00 0.  1.
         -2   -1    0    0    0  501 -0.00000000000E+00 -0.00000000000E+00 -0.27079874532E+01  0.27079874532E+01  0.00000000000E+00 0. -1.
         21    1    1    2  502  501  0.16931055758E+02 -0.14628538866E+02  0.51306568412E+02  0.55973375462E+02  0.00000000000E+00 0. -1.
         21    1    1    2  503  502 -0.16931055758E+02  0.14628538866E+02  0.33376601907E+03  0.33451518693E+03  0.00000000000E+00 0.  1.
</event>
<event>
 4    1  0.5696713E+002  0.4083316E+02  0.7546771E-02  0.1343672E+00
          2   -1    0    0  503    0  0.00000000000E+00  0.00000000000E+00  0.14545119160E+03  0.14545119160E+03  0.00000000000E+00 0. -1.
         -2   -1    0    0    0  501 -0.00000000000E+00 -0.00000000000E+00 -0.11669932146E+02  0.11669932146E+02  0.00000000000E+00 0.  1.
         21    1    1    2  502  501  0.85453363703E+01  0.39928987663E+02  0.56436282471E+02  0.69659176055E+02  0.00000000000E+00 0.  1.
         21    1    1    2  503  502 -0.85453363703E+01 -0.39928987663E+02  0.77344976984E+02  0.87461947692E+02  0.00000000000E+00 0. -1.
</event>
<event>
 4    1  0.5696713E+002  0.2980902E+02  0.7546771E-02  0.1421263E+00
          2   -1    0    0  503    0  0.00000000000E+00  0.00000000000E+00  0.32020296722E+03  0.32020296722E+03  0.00000000000E+00 0. -1.
         -2   -1    0    0    0  501 -0.00000000000E+00 -0.00000000000E+00 -0.32995017658E+01  0.32995017658E+01  0.00000000000E+00 0.  1.
         21    1    1    2  502  501 -0.15320136430E+02 -0.25570907539E+02  0.93963875738E+02  0.98578840713E+02  0.00000000000E+00 0.  1.
         21    1    1    2  503  502  0.15320136430E+02  0.25570907539E+02  0.22293958972E+03  0.22492362828E+03  0.00000000000E+00 0. -1.
</event>
<event>
 4    1  0.5696713E+002  0.2141717E+02  0.7546771E-02  0.1513391E+00
          2   -1    0    0  503    0  0.00000000000E+00  0.00000000000E+00  0.18818936762E+03  0.18818936762E+03  0.00000000000E+00 0. -1.
         -2   -1    0    0    0  501 -0.00000000000E+00 -0.00000000000E+00 -0.26432537432E+01  0.26432537432E+01  0.00000000000E+00 0.  1.
         21    1    1    2  502  501 -0.60470420053E+01 -0.20545766729E+02  0.66146276383E+02  0.69527153881E+02  0.00000000000E+00 0.  1.
         21    1    1    2  503  502  0.60470420053E+01  0.20545766729E+02  0.11939983749E+03  0.12130546748E+03  0.00000000000E+00 0. -1.
</event>
<event>
 4    1  0.5696713E+002  0.3122902E+02  0.7546771E-02  0.1409209E+00
          2   -1    0    0  503    0  0.00000000000E+00  0.00000000000E+00  0.33605774816E+03  0.33605774816E+03  0.00000000000E+00 0. -1.
         -2   -1    0    0    0  501 -0.00000000000E+00 -0.00000000000E+00 -0.92346837330E+01  0.92346837330E+01  0.00000000000E+00 0.  1.
         21    1    1    2  502  501 -0.22027356142E+02  0.22137014718E+02  0.20443578937E+02  0.37325484042E+02  0.00000000000E+00 0.  1.
         21    1    1    2  503  502  0.22027356142E+02 -0.22137014718E+02  0.30637948549E+03  0.30796694785E+03  0.00000000000E+00 0. -1.
</event>
<event>
 4    1  0.5696713E+002  0.2977991E+02  0.7546771E-02  0.1421519E+00
          2   -1    0    0  502    0  0.00000000000E+00  0.00000000000E+00  0.84564982335E+02  0.84564982335E+02  0.00000000000E+00 0.  1.
         -2   -1    0    0    0  501 -0.00000000000E+00 -0.00000000000E+00 -0.15386127263E+02  0.15386127263E+02  0.00000000000E+00 0. -1.
         21    1    1    2  502  503 -0.17571777811E+02  0.24043206314E+02  0.62789290057E+02  0.69493439195E+02  0.00000000000E+00 0.  1.
         21    1    1    2  503  501  0.17571777811E+02 -0.24043206314E+02  0.63895650158E+01  0.30457670403E+02  0.00000000000E+00 0. -1.
</event>
<event>
 4    1  0.5696713E+002  0.3716852E+02  0.7546771E-02  0.1365928E+00
          2   -1    0    0  503    0  0.00000000000E+00  0.00000000000E+00  0.14675620849E+04  0.14675620849E+04  0.00000000000E+00 0.  1.
         -2   -1    0    0    0  501 -0.00000000000E+00 -0.00000000000E+00 -0.94244096547E+00  0.94244096547E+00  0.00000000000E+00 0. -1.
         21    1    1    2  502  501 -0.35015155994E+02  0.12467464060E+02  0.70840021969E+03  0.70937463309E+03  0.00000000000E+00 0.  1.
         21    1    1    2  503  502  0.35015155994E+02 -0.12467464060E+02  0.75821942429E+03  0.75912989282E+03  0.00000000000E+00 0. -1.
</event>
<event>
 4    1  0.5696713E+002  0.2782097E+02  0.7546771E-02  0.1439531E+00
          2   -1    0    0  503    0  0.00000000000E+00  0.00000000000E+00  0.13976988601E+04  0.13976988601E+04  0.00000000000E+00 0.  1.
         -2   -1    0    0    0  501 -0.00000000000E+00 -0.00000000000E+00 -0.52559985078E+01  0.52559985078E+01  0.00000000000E+00 0. -1.
         21    1    1    2  502  501 -0.25712403853E+02  0.10624449314E+02  0.32726127224E+02  0.42953533478E+02  0.00000000000E+00 0. -1.
         21    1    1    2  503  502  0.25712403853E+02 -0.10624449314E+02  0.13597167344E+04  0.13600013252E+04  0.00000000000E+00 0.  1.
</event>
<event>
 4    1  0.5696713E+002  0.2063619E+02  0.7546771E-02  0.1524523E+00
          2   -1    0    0  502    0  0.00000000000E+00  0.00000000000E+00  0.77177825083E+02  0.77177825083E+02  0.00000000000E+00 0.  1.
         -2   -1    0    0    0  501 -0.00000000000E+00 -0.00000000000E+00 -0.16519867241E+02  0.16519867241E+02  0.00000000000E+00 0. -1.
         21    1    1    2  502  503 -0.19556793073E+01 -0.20543310051E+02  0.68561474847E+02  0.71599777253E+02  0.00000000000E+00 0.  1.
         21    1    1    2  503  501  0.19556793073E+01  0.20543310051E+02 -0.79035170054E+01  0.22097915071E+02  0.00000000000E+00 0. -1.
</event>
<event>
 4    1  0.5696713E+002  0.2632875E+02  0.7546771E-02  0.1454470E+00
          2   -1    0    0  502    0  0.00000000000E+00  0.00000000000E+00  0.97332401367E+02  0.97332401367E+02  0.00000000000E+00 0. -1.
         -2   -1    0    0    0  501 -0.00000000000E+00 -0.00000000000E+00 -0.78439887721E+01  0.78439887721E+01  0.00000000000E+00 0.  1.
         21    1    1    2  502  503  0.24615208962E+02  0.93431565726E+01  0.28789835669E+02  0.39013558218E+02  0.00000000000E+00 0. -1.
         21    1    1    2  503  501 -0.24615208962E+02 -0.93431565726E+01  0.60698576926E+02  0.66162831921E+02  0.00000000000E+00 0.  1.
</event>
<event>
 4    1  0.5696713E+002  0.2259013E+02  0.7546771E-02  0.1497710E+00
          2   -1    0    0  503    0  0.00000000000E+00  0.00000000000E+00  0.71079775229E+01  0.71079775229E+01  0.00000000000E+00 0.  1.
         -2   -1    0    0    0  501 -0.00000000000E+00 -0.00000000000E+00 -0.74270353113E+02  0.74270353113E+02  0.00000000000E+00 0. -1.
         21    1    1    2  502  501  0.13777618116E+02 -0.17902264355E+02 -0.41010212024E+02  0.46820415635E+02  0.00000000000E+00 0. -1.
         21    1    1    2  503  502 -0.13777618116E+02  0.17902264355E+02 -0.26152163566E+02  0.34557915000E+02  0.00000000000E+00 0.  1.
</event>
<event>
 4    1  0.5696713E+002  0.5416870E+02  0.7546771E-02  0.1281044E+00
          2   -1    0    0  503    0  0.00000000000E+00  0.00000000000E+00  0.31465587090E+02  0.31465587090E+02  0.00000000000E+00 0.  1.
         -2   -1    0    0    0  501 -0.00000000000E+00 -0.00000000000E+00 -0.12389030764E+03  0.12389030764E+03  0.00000000000E+00 0. -1.
         21    1    1    2  502  501 -0.43899560858E+02 -0.31734468791E+02 -0.84840800844E+02  0.10065887661E+03  0.00000000000E+00 0. -1.
         21    1    1    2  503  502  0.43899560858E+02  0.31734468791E+02 -0.75839197069E+01  0.54697018119E+02  0.00000000000E+00 0.  1.
</event>
<event>
 4    1  0.5696713E+002  0.2481057E+02  0.7546771E-02  0.1470934E+00
          2   -1    0    0  502    0  0.00000000000E+00  0.00000000000E+00  0.57733840752E+03  0.57733840752E+03  0.00000000000E+00 0.  1.
         -2   -1    0    0    0  501 -0.00000000000E+00 -0.00000000000E+00 -0.10921779869E+01  0.10921779869E+01  0.00000000000E+00 0. -1.
         21    1    1    2  502  503  0.24306269711E+02 -0.49769243962E+01  0.33271808322E+03  0.33364185503E+03  0.00000000000E+00 0.  1.
         21    1    1    2  503  501 -0.24306269711E+02  0.49769243962E+01  0.24352814632E+03  0.24478873048E+03  0.00000000000E+00 0. -1.
</event>
<event>
 4    1  0.5696713E+002  0.3666483E+02  0.7546771E-02  0.1369222E+00
          2   -1    0    0  503    0  0.00000000000E+00  0.00000000000E+00  0.53825505989E+01  0.53825505989E+01  0.00000000000E+00 0.  1.
         -2   -1    0    0    0  501 -0.00000000000E+00 -0.00000000000E+00 -0.33051240158E+03  0.33051240158E+03  0.00000000000E+00 0. -1.
         21    1    1    2  502  501  0.36664743209E+02  0.79201169990E-01 -0.24558352346E+03  0.24830541006E+03  0.00000000000E+00 0.  1.
         21    1    1    2  503  502 -0.36664743209E+02 -0.79201169990E-01 -0.79546327521E+02  0.87589542124E+02  0.00000000000E+00 0. -1.
</event>
<event>
 4    1  0.5696713E+002  0.2185728E+02  0.7546771E-02  0.1507368E+00
          2   -1    0    0  502    0  0.00000000000E+00  0.00000000000E+00  0.40982508738E+01  0.40982508738E+01  0.00000000000E+00 0.  1.
         -2   -1    0    0    0  501 -0.00000000000E+00 -0.00000000000E+00 -0.12940344212E+03  0.12940344212E+03  0.00000000000E+00 0. -1.
         21    1    1    2  502  503  0.71577801090E+01  0.20652043194E+02 -0.41633014279E+02  0.47021788376E+02  0.00000000000E+00 0.  1.
         21    1    1    2  503  501 -0.71577801090E+01 -0.20652043194E+02 -0.83672176969E+02  0.86479904619E+02  0.00000000000E+00 0. -1.
</event>
<event>
 4    1  0.5696713E+002  0.2668962E+02  0.7546771E-02  0.1450751E+00
          2   -1    0    0  503    0  0.00000000000E+00  0.00000000000E+00  0.94614607140E+03  0.94614607140E+03  0.00000000000E+00 0.  1.
         -2   -1    0    0    0  501 -0.00000000000E+00 -0.00000000000E+00 -0.34368186196E+01  0.34368186196E+01  0.00000000000E+00 0. -1.
         21    1    1    2  502  501  0.10461810459E+02 -0.24553748896E+02  0.51778536893E+02  0.58252493043E+02  0.00000000000E+00 0. -1.
         21    1    1    2  503  502 -0.10461810459E+02  0.24553748896E+02  0.89093071589E+03  0.89133039698E+03  0.00000000000E+00 0.  1.
</event>
<event>
 4    1  0.5696713E+002  0.5593268E+02  0.7546771E-02  0.1274315E+00
          2   -1    0    0  503    0  0.00000000000E+00  0.00000000000E+00  0.62006355238E+03  0.62006355238E+03  0.00000000000E+00 0.  1.
         -2   -1    0    0    0  501 -0.00000000000E+00 -0.00000000000E+00 -0.32376780716E+02  0.32376780716E+02  0.00000000000E+00 0. -1.
         21    1    1    2  502  501  0.42864124431E+01  0.55768195483E+02 -0.58828822754E+01  0.56241206094E+02  0.00000000000E+00 0. -1.
         21    1    1    2  503  502 -0.42864124431E+01 -0.55768195483E+02  0.59356965394E+03  0.59619912700E+03  0.00000000000E+00 0.  1.
</event>
<event>
 4    1  0.5696713E+002  0.2753353E+02  0.7546771E-02  0.1442321E+00
          2   -1    0    0  502    0  0.00000000000E+00  0.00000000000E+00  0.95800177705E+03  0.95800177705E+03  0.00000000000E+00 0.  1.
         -2   -1    0    0    0  501 -0.00000000000E+00 -0.00000000000E+00 -0.11515609598E+01  0.11515609598E+01  0.00000000000E+00 0. -1.
         21    1    1    2  502  503  0.27234888341E+02 -0.40442937362E+01  0.74665375296E+03  0.74716124248E+03  0.00000000000E+00 0.  1.
         21    1    1    2  503  501 -0.27234888341E+02  0.40442937362E+01  0.21019646313E+03  0.21199209553E+03  0.00000000000E+00 0. -1.
</event>
<event>
 4    1  0.5696713E+002  0.2118384E+02  0.7546771E-02  0.1516656E+00
          2   -1    0    0  502    0  0.00000000000E+00  0.00000000000E+00  0.10261877133E+04  0.10261877133E+04  0.00000000000E+00 0. -1.
         -2   -1    0    0    0  501 -0.00000000000E+00 -0.00000000000E+00 -0.45397651076E+00  0.45397651076E+00  0.00000000000E+00 0.  1.
         21    1    1    2  502  503  0.78672197760E+01  0.19668808006E+02  0.61124154718E+03  0.61160852198E+03  0.00000000000E+00 0. -1.
         21    1    1    2  503  501 -0.78672197760E+01 -0.19668808006E+02  0.41449218960E+03  0.41503316782E+03  0.00000000000E+00 0.  1.
</event>
<event>
 4    1  0.5696713E+002  0.2898624E+02  0.7546771E-02  0.1428615E+00
          2   -1    0    0  503    0  0.00000000000E+00  0.00000000000E+00  0.29490298486E+01  0.29490298486E+01  0.00000000000E+00 0. -1.
         -2   -1    0    0    0  501 -0.00000000000E+00 -0.00000000000E+00 -0.29263656839E+03  0.29263656839E+03  0.00000000000E+00 0.  1.
         21    1    1    2  502  501 -0.19376962332E+02  0.21557729685E+02 -0.16886176522E+03  0.17133154447E+03  0.00000000000E+00 0. -1.
         21    1    1    2  503  502  0.19376962332E+02 -0.21557729685E+02 -0.12082577333E+03  0.12425405377E+03  0.00000000000E+00 0.  1.
</event>
<event>
 4    1  0.5696713E+002  0.8928837E+02  0.7546771E-02  0.1183787E+00
          2   -1    0    0  502    0  0.00000000000E+00  0.00000000000E+00  0.10036903900E+04  0.10036903900E+04  0.00000000000E+00 0. -1.
         -2   -1    0    0    0  501 -0.00000000000E+00 -0.00000000000E+00 -0.98510748637E+01  0.98510748637E+01  0.00000000000E+00 0.  1.
         21    1    1    2  502  503 -0.56842019838E+02 -0.68857812108E+02  0.71994591561E+03  0.72546160127E+03  0.00000000000E+00 0. -1.
         21    1    1    2  503  501  0.56842019838E+02  0.68857812108E+02  0.27389339957E+03  0.28807986364E+03  0.00000000000E+00 0.  1.
</event>
<event>
 4    1  0.5696713E+002  0.2334105E+02  0.7546771E-02  0.1488259E+00
          2   -1    0    0  503    0  0.00000000000E+00  0.00000000000E+00  0.90862553623E+02  0.90862553623E+02  0.00000000000E+00 0. -1.
         -2   -1    0    0    0  501 -0.00000000000E+00 -0.00000000000E+00 -0.74047885023E+01  0.74047885023E+01  0.00000000000E+00 0.  1.
         21    1    1    2  502  501  0.12266815547E+02  0.19857740543E+02  0.20297110596E+02  0.30931817303E+02  0.00000000000E+00 0. -1.
         21    1    1    2  503  502 -0.12266815547E+02 -0.19857740543E+02  0.63160654524E+02  0.67335524822E+02  0.00000000000E+00 0.  1.
</event>
<event>
 4    1  0.5696713E+002  0.2490011E+02  0.7546771E-02  0.1469924E+00
          2   -1    0    0  503    0  0.00000000000E+00  0.00000000000E+00  0.12007403922E+04  0.12007403922E+04  0.00000000000E+00 0.  1.
         -2   -1    0    0    0  501 -0.00000000000E+00 -0.00000000000E+00 -0.55120290999E+00  0.55120290999E+00  0.00000000000E+00 0. -1.
         21    1    1    2  502  501 -0.24163887062E+02  0.60101461272E+01  0.44908143777E+03  0.44977122300E+03  0.00000000000E+00 0.  1.
         21    1    1    2  503  502  0.24163887062E+02 -0.60101461272E+01  0.75110775149E+03  0.75152037207E+03  0.00000000000E+00 0. -1.
</event>
<event>
 4    1  0.5696713E+002  0.2924565E+02  0.7546771E-02  0.1426267E+00
          2   -1    0    0  503    0  0.00000000000E+00  0.00000000000E+00  0.10938464054E+04  0.10938464054E+04  0.00000000000E+00 0.  1.
         -2   -1    0    0    0  501 -0.00000000000E+00 -0.00000000000E+00 -0.82721326055E+00  0.82721326055E+00  0.00000000000E+00 0. -1.
         21    1    1    2  502  501  0.44611035954E+01 -0.28903399944E+02  0.67457429301E+03  0.67520795668E+03  0.00000000000E+00 0.  1.
         21    1    1    2  503  502 -0.44611035954E+01  0.28903399944E+02  0.41844489914E+03  0.41946566199E+03  0.00000000000E+00 0. -1.
</event>
<event>
 4    1  0.5696713E+002  0.2022245E+02  0.7546771E-02  0.1530662E+00
          2   -1    0    0  502    0  0.00000000000E+00  0.00000000000E+00  0.20190998931E+02  0.20190998931E+02  0.00000000000E+00 0.  1.
         -2   -1    0    0    0  501 -0.00000000000E+00 -0.00000000000E+00 -0.20279451638E+02  0.20279451638E+02  0.00000000000E+00 0. -1.
         21    1    1    2  502  503  0.14089472933E+02 -0.14506349801E+02 -0.76183121615E+00  0.20236793691E+02  0.00000000000E+00 0. -1.
         21    1    1    2  503  501 -0.14089472933E+02  0.14506349801E+02  0.67337850911E+00  0.20233656879E+02  0.00000000000E+00 0.  1.
</event>
<event>
 4    1  0.5696713E+002  0.2257182E+02  0.7546771E-02  0.1497946E+00
          2   -1    0    0  503    0  0.00000000000E+00  0.00000000000E+00  0.14502041666E+04  0.14502041666E+04  0.00000000000E+00 0.  1.
         -2   -1    0    0    0  501 -0.00000000000E+00 -0.00000000000E+00 -0.11197732865E+01  0.11197732865E+01  0.00000000000E+00 0. -1.
         21    1    1    2  502  501 -0.62288768814E+01  0.21695349915E+02  0.12339921938E+03  0.12544661996E+03  0.00000000000E+00 0. -1.
         21    1    1    2  503  502  0.62288768814E+01 -0.21695349915E+02  0.13256851740E+04  0.13258773200E+04  0.00000000000E+00 0.  1.
</event>
<event>
 4    1  0.5696713E+002  0.2675237E+02  0.7546771E-02  0.1450112E+00
          2   -1    0    0  502    0  0.00000000000E+00  0.00000000000E+00  0.15825700057E+04  0.15825700057E+04  0.00000000000E+00 0.  1.
         -2   -1    0    0    0  501 -0.00000000000E+00 -0.00000000000E+00 -0.24611056958E+02  0.24611056958E+02  0.00000000000E+00 0. -1.
         21    1    1    2  502  503  0.24843650221E+02  0.99238309608E+01  0.15751527178E+04  0.15753798823E+04  0.00000000000E+00 0.  1.
         21    1    1    2  503  501 -0.24843650221E+02 -0.99238309608E+01 -0.17193769018E+02  0.31801180329E+02  0.00000000000E+00 0. -1.
</event>
<event>
 4    1  0.5696713E+002  0.2360942E+02  0.7546771E-02  0.1484984E+00
          2   -1    0    0  502    0  0.00000000000E+00  0.00000000000E+00  0.23093699644E+02  0.23093699644E+02  0.00000000000E+00 0.  1.
         -2   -1    0    0    0  501 -0.00000000000E+00 -0.00000000000E+00 -0.52861282959E+02  0.52861282959E+02  0.00000000000E+00 0. -1.
         21    1    1    2  502  503  0.13099465623E+02 -0.19642011997E+02  0.13111476898E+02  0.27005841245E+02  0.00000000000E+00 0.  1.
         21    1    1    2  503  501 -0.13099465623E+02  0.19642011997E+02 -0.42879060212E+02  0.48949141357E+02  0.00000000000E+00 0. -1.
</event>
<event>
 4    1  0.5696713E+002  0.4296030E+02  0.7546771E-02  0.1331960E+00
          2   -1    0    0  502    0  0.00000000000E+00  0.00000000000E+00  0.83689604903E+02  0.83689604903E+02  0.00000000000E+00 0.  1.
         -2   -1    0    0    0  501 -0.00000000000E+00 -0.00000000000E+00 -0.10061399258E+03  0.10061399258E+03  0.00000000000E+00 0. -1.
         21    1    1    2  502  503 -0.59773403638E+01  0.42542430779E+02  0.72966742436E+02  0.84674273047E+02  0.00000000000E+00 0.  1.
         21    1    1    2  503  501  0.59773403638E+01 -0.42542430779E+02 -0.89891130110E+02  0.99629324433E+02  0.00000000000E+00 0. -1.
</event>
<event>
 4    1  0.5696713E+002  0.2498702E+02  0.7546771E-02  0.1468949E+00
          2   -1    0    0  502    0  0.00000000000E+00  0.00000000000E+00  0.26194653533E+03  0.26194653533E+03  0.00000000000E+00 0.  1.
         -2   -1    0    0    0  501 -0.00000000000E+00 -0.00000000000E+00 -0.23881279697E+01  0.23881279697E+01  0.00000000000E+00 0. -1.
         21    1    1    2  502  503 -0.21775088456E+02  0.12255469744E+02  0.12396445586E+03  0.12645765036E+03  0.00000000000E+00 0.  1.
         21    1    1    2  503  501  0.21775088456E+02 -0.12255469744E+02  0.13559395150E+03  0.13787701294E+03  0.00000000000E+00 0. -1.
</event>
<event>
 4    1  0.5696713E+002  0.2172958E+02  0.7546771E-02  0.1509098E+00
          2   -1    0    0  503    0  0.00000000000E+00  0.00000000000E+00  0.90344259472E+03  0.90344259472E+03  0.00000000000E+00 0. -1.
         -2   -1    0    0    0  501 -0.00000000000E+00 -0.00000000000E+00 -0.10827625372E+01  0.10827625372E+01  0.00000000000E+00 0.  1.
         21    1    1    2  502  501  0.91788016256E+01 -0.19695790498E+02  0.12589348064E+03  0.12775501176E+03  0.00000000000E+00 0.  1.
         21    1    1    2  503  502 -0.91788016256E+01  0.19695790498E+02  0.77646635154E+03  0.77677034550E+03  0.00000000000E+00 0. -1.
</event>
<event>
 4    1  0.5696713E+002  0.3376059E+02  0.7546771E-02  0.1389492E+00
          2   -1    0    0  502    0  0.00000000000E+00  0.00000000000E+00  0.74670680118E+02  0.74670680118E+02  0.00000000000E+00 0. -1.
         -2   -1    0    0    0  501 -0.00000000000E+00 -0.00000000000E+00 -0.56655753715E+02  0.56655753715E+02  0.00000000000E+00 0.  1.
         21    1    1    2  502  503  0.24545453671E+02  0.23179691679E+02  0.65132516631E+02  0.73362266357E+02  0.00000000000E+00 0. -1.
         21    1    1    2  503  501 -0.24545453671E+02 -0.23179691679E+02 -0.47117590229E+02  0.57964167476E+02  0.00000000000E+00 0.  1.
</event>
<event>
 4    1  0.5696713E+002  0.3247246E+02  0.7546771E-02  0.1399260E+00
          2   -1    0    0  502    0  0.00000000000E+00  0.00000000000E+00  0.87295611442E+02  0.87295611442E+02  0.00000000000E+00 0. -1.
         -2   -1    0    0    0  501 -0.00000000000E+00 -0.00000000000E+00 -0.20483966799E+02  0.20483966799E+02  0.00000000000E+00 0.  1.
         21    1    1    2  502  503  0.32177668859E+02  0.43656135924E+01  0.67925151233E+02  0.75288027768E+02  0.00000000000E+00 0. -1.
         21    1    1    2  503  501 -0.32177668859E+02 -0.43656135924E+01 -0.11135065893E+01  0.32491550473E+02  0.00000000000E+00 0.  1.
</event>
<event>
 4    1  0.5696713E+002  0.5117005E+02  0.7546771E-02  0.1293178E+00
          2   -1    0    0  503    0  0.00000000000E+00  0.00000000000E+00  0.13454574643E+04  0.13454574643E+04  0.00000000000E+00 0.  1.
         -2   -1    0    0    0  501 -0.00000000000E+00 -0.00000000000E+00 -0.39537642109E+01  0.39537642109E+01  0.00000000000E+00 0. -1.
         21    1    1    2  502  501 -0.33196776662E+02  0.38940310689E+02  0.18996102957E+03  0.19673222037E+03  0.00000000000E+00 0. -1.
         21    1    1    2  503  502  0.33196776662E+02 -0.38940310689E+02  0.11515426706E+04  0.11526790082E+04  0.00000000000E+00 0.  1.
</event>
<event>
 4    1  0.5696713E+002  0.4671214E+02  0.7546771E-02  0.1313093E+00
          2   -1    0    0  502    0  0.00000000000E+00  0.00000000000E+00  0.35836751237E+03  0.35836751237E+03  0.00000000000E+00 0. -1.
         -2   -1    0    0    0  501 -0.00000000000E+00 -0.00000000000E+00 -0.10496590325E+02  0.10496590325E+02  0.00000000000E+00 0.  1.
         21    1    1    2  502  503  0.98025644214E+01  0.45672020065E+02  0.29345071667E+03  0.29714532943E+03  0.00000000000E+00 0. -1.
         21    1    1    2  503  501 -0.98025644214E+01 -0.45672020065E+02  0.54420205373E+02  0.71718773266E+02  0.00000000000E+00 0.  1.
</event>
<event>
 4    1  0.5696713E+002  0.2128169E+02  0.7546771E-02  0.1515281E+00
          2   -1    0    0  503    0  0.00000000000E+00  0.00000000000E+00  0.63692406005E+02  0.63692406005E+02  0.00000000000E+00 0. -1.
         -2   -1    0    0    0  501 -0.00000000000E+00 -0.00000000000E+00 -0.19908021820E+02  0.19908021820E+02  0.00000000000E+00 0.  1.
         21    1    1    2  502  501 -0.50601251000E+01 -0.20671370292E+02 -0.11621369138E+02  0.24248023350E+02  0.00000000000E+00 0.  1.
         21    1    1    2  503  502  0.50601251000E+01  0.20671370292E+02  0.55405753322E+02  0.59352404475E+02  0.00000000000E+00 0. -1.
</event>
<event>
 4    1  0.5696713E+002  0.3046179E+02  0.7546771E-02  0.1415625E+00
          2   -1    0    0  503    0  0.00000000000E+00  0.00000000000E+00  0.11060901119E+01  0.11060901119E+01  0.00000000000E+00 0.  1.
         -2   -1    0    0    0  501 -0.00000000000E+00 -0.00000000000E+00 -0.85840436429E+03  0.85840436429E+03  0.00000000000E+00 0. -1.
         21    1    1    2  502  501 -0.30003661704E+02 -0.52631733091E+01 -0.49339655264E+03  0.49433599795E+03  0.00000000000E+00 0. -1.
         21    1    1    2  503  502  0.30003661704E+02  0.52631733091E+01 -0.36390172154E+03  0.36517445646E+03  0.00000000000E+00 0.  1.
</event>
<event>
 4    1  0.5696713E+002  0.3299486E+02  0.7546771E-02  0.1395236E+00
          2   -1    0    0  502    0  0.00000000000E+00  0.00000000000E+00  0.56347177205E+03  0.56347177205E+03  0.00000000000E+00 0. -1.
         -2   -1    0    0    0  501 -0.00000000000E+00 -0.00000000000E+00 -0.19699791935E+01  0.19699791935E+01  0.00000000000E+00 0.  1.
         21    1    1    2  502  503  0.29260457870E+02  0.15247512650E+02  0.31997553889E+03  0.32167220353E+03  0.00000000000E+00 0. -1.
         21    1    1    2  503  501 -0.29260457870E+02 -0.15247512650E+02  0.24152625397E+03  0.24376954771E+03  0.00000000000E+00 0.  1.
</event>
<event>
 4    1  0.5696713E+002  0.2582540E+02  0.7546771E-02  0.1459778E+00
          2   -1    0    0  503    0  0.00000000000E+00  0.00000000000E+00  0.13191527358E+02  0.13191527358E+02  0.00000000000E+00 0.  1.
         -2   -1    0    0    0  501 -0.00000000000E+00 -0.00000000000E+00 -0.15480454951E+03  0.15480454951E+03  0.00000000000E+00 0. -1.
         21    1    1    2  502  501 -0.25790847061E+02  0.13355226117E+01 -0.13973613213E+03  0.14210256168E+03  0.00000000000E+00 0. -1.
         21    1    1    2  503  502  0.25790847061E+02 -0.13355226117E+01 -0.18768900225E+01  0.25893515190E+02  0.00000000000E+00 0.  1.
</event>
<event>
 4    1  0.5696713E+002  0.2685412E+02  0.7546771E-02  0.1449079E+00
          2   -1    0    0  502    0  0.00000000000E+00  0.00000000000E+00  0.36933198589E+01  0.36933198589E+01  0.00000000000E+00 0.  1.
         -2   -1    0    0    0  501 -0.00000000000E+00 -0.00000000000E+00 -0.22674163207E+03  0.22674163207E+03  0.00000000000E+00 0. -1.
         21    1    1    2  502  503  0.26852638669E+02  0.28158716059E+00 -0.68589523604E+02  0.73659121927E+02  0.00000000000E+00 0.  1.
         21    1    1    2  503  501 -0.26852638669E+02 -0.28158716059E+00 -0.15445878861E+03  0.15677583001E+03  0.00000000000E+00 0. -1.
</event>
<event>
 4    1  0.5696713E+002  0.2032191E+02  0.7546771E-02  0.1529170E+00
          2   -1    0    0  502    0  0.00000000000E+00  0.00000000000E+00  0.59832294343E+03  0.59832294343E+03  0.00000000000E+00 0. -1.
         -2   -1    0    0    0  501 -0.00000000000E+00 -0.00000000000E+00 -0.79493905095E+00  0.79493905095E+00  0.00000000000E+00 0.  1.
         21    1    1    2  502  503  0.11856359954E+02  0.16504745696E+02  0.40748398276E+03  0.40799041178E+03  0.00000000000E+00 0. -1.
         21    1    1    2  503  501 -0.11856359954E+02 -0.16504745696E+02  0.19004402163E+03  0.19112747071E+03  0.00000000000E+00 0.  1.
</event>
<event>
 4    1  0.5696713E+002  0.1060547E+03  0.7546771E-02  0.1153710E+00
          2   -1    0    0  502    0  0.00000000000E+00  0.00000000000E+00  0.64731598194E+03  0.64731598194E+03  0.00000000000E+00 0.  1.
         -2   -1    0    0    0  501 -0.00000000000E+00 -0.00000000000E+00 -0.18459221324E+02  0.18459221324E+02  0.00000000000E+00 0. -1.
         21    1    1    2  502  503  0.85366919307E+02 -0.62929273905E+02  0.39507728629E+03  0.40906437949E+03  0.00000000000E+00 0.  1.
         21    1    1    2  503  501 -0.85366919307E+02  0.62929273905E+02  0.23377947433E+03  0.25671082377E+03  0.00000000000E+00 0. -1.
</event>
<event>
 4    1  0.5696713E+002  0.3047007E+02  0.7546771E-02  0.1415555E+00
          2   -1    0    0  502    0  0.00000000000E+00  0.00000000000E+00  0.19854425292E+03  0.19854425292E+03  0.00000000000E+00 0. -1.
         -2   -1    0    0    0  501 -0.00000000000E+00 -0.00000000000E+00 -0.18380729916E+02  0.18380729916E+02  0.00000000000E+00 0.  1.
         21    1    1    2  502  503 -0.77792914683E+01  0.29460276797E+02  0.18373673764E+03  0.18624611148E+03  0.00000000000E+00 0. -1.
         21    1    1    2  503  501  0.77792914683E+01 -0.29460276797E+02 -0.35732146337E+01  0.30678871354E+02  0.00000000000E+00 0.  1.
</event>
<event>
 4    1  0.5696713E+002  0.2502172E+02  0.7546771E-02  0.1468561E+00
          2   -1    0    0  502    0  0.00000000000E+00  0.00000000000E+00  0.16648658972E+04  0.16648658972E+04  0.00000000000E+00 0.  1.
         -2   -1    0    0    0  501 -0.00000000000E+00 -0.00000000000E+00 -0.23537637002E+01  0.23537637002E+01  0.00000000000E+00 0. -1.
         21    1    1    2  502  503  0.14793537538E+02 -0.20180134558E+02  0.15953771811E+04  0.15955733880E+04  0.00000000000E+00 0.  1.
         21    1    1    2  503  501 -0.14793537538E+02  0.20180134558E+02  0.67134952374E+02  0.71646272854E+02  0.00000000000E+00 0. -1.
</event>
<event>
 4    1  0.5696713E+002  0.3941911E+02  0.7546771E-02  0.1351924E+00
          2   -1    0    0  503    0  0.00000000000E+00  0.00000000000E+00  0.56717657865E+01  0.56717657865E+01  0.00000000000E+00 0. -1.
         -2   -1    0    0    0  501 -0.00000000000E+00 -0.00000000000E+00 -0.56056365546E+03  0.56056365546E+03  0.00000000000E+00 0.  1.
         21    1    1    2  502  501 -0.37691776303E+02 -0.11541061801E+02 -0.47988371162E+03  0.48149999251E+03  0.00000000000E+00 0.  1.
         21    1    1    2  503  502  0.37691776303E+02  0.11541061801E+02 -0.75008178052E+02  0.84735428736E+02  0.00000000000E+00 0. -1.
</event>
<event>
 4    1  0.5696713E+002  0.2645797E+02  0.7546771E-02  0.1453130E+00
          2   -1    0    0  503    0  0.00000000000E+00  0.00000000000E+00  0.60316176841E+03  0.60316176841E+03  0.00000000000E+00 0.  1.
         -2   -1    0    0    0  501 -0.00000000000E+00 -0.00000000000E+00 -0.43155482929E+01  0.43155482929E+01  0.00000000000E+00 0. -1.
         21    1    1    2  502  501 -0.11927305590E+02  0.23617017014E+02  0.39718999752E+02  0.47724449212E+02  0.00000000000E+00 0. -1.
         21    1    1    2  503  502  0.11927305590E+02 -0.23617017014E+02  0.55912722037E+03  0.55975286749E+03  0.00000000000E+00 0.  1.
</event>
<event>
 4    1  0.5696713E+002  0.2268755E+02  0.7546771E-02  0.1496459E+00
          2   -1    0    0  503    0  0.00000000000E+00  0.00000000000E+00  0.12443898939E+03  0.12443898939E+03  0.00000000000E+00 0.  1.
         -2   -1    0    0    0  501 -0.00000000000E+00 -0.00000000000E+00 -0.99084846726E+01  0.99084846726E+01  0.00000000000E+00 0. -1.
         21    1    1    2  502  501  0.20001344360E+02 -0.10708462329E+02  0.59952196974E+01  0.23466307781E+02  0.00000000000E+00 0. -1.
         21    1    1    2  503  502 -0.20001344360E+02  0.10708462329E+02  0.10853528502E+03  0.11088116628E+03  0.00000000000E+00 0.  1.
</event>
<event>
 4    1  0.5696713E+002  0.2435623E+02  0.7546771E-02  0.1476136E+00
          2   -1    0    0  502    0  0.00000000000E+00  0.00000000000E+00  0.64236101514E+03  0.64236101514E+03  0.00000000000E+00 0. -1.
         -2   -1    0    0    0  501 -0.00000000000E+00 -0.00000000000E+00 -0.28219061391E+01  0.28219061391E+01  0.00000000000E+00 0.  1.
         21    1    1    2  502  503 -0.24342047231E+02 -0.83101367622E+00  0.58436062243E+03  0.58486798757E+03  0.00000000000E+00 0. -1.
         21    1    1    2  503  501  0.24342047231E+02  0.83101367622E+00  0.55178486577E+02  0.60314933707E+02  0.00000000000E+00 0.  1.
</event>
<event>
 4    1  0.5696713E+002  0.3283487E+02  0.7546771E-02  0.1396459E+00
          2   -1    0    0  502    0  0.00000000000E+00  0.00000000000E+00  0.37868298966E+01  0.37868298966E+01  0.00000000000E+00 0. -1.
         -2   -1    0    0    0  501 -0.00000000000E+00 -0.00000000000E+00 -0.28486196430E+03  0.28486196430E+03  0.00000000000E+00 0.  1.
         21    1    1    2  502  503  0.32097049179E+02  0.69215620839E+01 -0.13714739614E+03  0.14102317844E+03  0.00000000000E+00 0.  1.
         21    1    1    2  503  501 -0.32097049179E+02 -0.69215620839E+01 -0.14392773827E+03  0.14762561576E+03  0.00000000000E+00 0. -1.
</event>
<event>
 4    1  0.5696713E+002  0.3319066E+02  0.7546771E-02  0.1393750E+00
          2   -1    0    0  502    0  0.00000000000E+00  0.00000000000E+00  0.23732015450E+03  0.23732015450E+03  0.00000000000E+00 0. -1.
         -2   -1    0    0    0  501 -0.00000000000E+00 -0.00000000000E+00 -0.47645975738E+01  0.47645975738E+01  0.00000000000E+00 0.  1.
         21    1    1    2  502  503 -0.26306427730E+02 -0.20238380460E+02  0.96854869013E+02  0.10238401162E+03  0.00000000000E+00 0.  1.
         21    1    1    2  503  501  0.26306427730E+02  0.20238380460E+02  0.13570068791E+03  0.13970074045E+03  0.00000000000E+00 0. -1.
</event>
<event>
 4    1  0.5696713E+002  0.5204315E+02  0.7546771E-02  0.1289549E+00
          2   -1    0    0  502    0  0.00000000000E+00  0.00000000000E+00  0.33979174829E+04  0.33979174829E+04  0.00000000000E+00 0. -1.
         -2   -1    0    0    0  501 -0.00000000000E+00 -0.00000000000E+00 -0.80488331025E+00  0.80488331025E+00  0.00000000000E+00 0.  1.
         21    1    1    2  502  503 -0.34683467760E+02 -0.38801370078E+02  0.15314758616E+04  0.15323598807E+04  0.00000000000E+00 0. -1.
         21    1    1    2  503  501  0.34683467760E+02  0.38801370078E+02  0.18656367380E+04  0.18663624855E+04  0.00000000000E+00 0.  1.
</event>
<event>
 4    1  0.5696713E+002  0.2520347E+02  0.7546771E-02  0.1466540E+00
          2   -1    0    0  503    0  0.00000000000E+00  0.00000000000E+00  0.89001725719E+03  0.89001725719E+03  0.00000000000E+00 0.  1.
         -2   -1    0    0    0  501 -0.00000000000E+00 -0.00000000000E+00 -0.72187096758E+00  0.72187096758E+00  0.00000000000E+00 0. -1.
         21    1    1    2  502  501 -0.25192542224E+02  0.74210073523E+00  0.39729537700E+03  0.39809399830E+03  0.00000000000E+00 0.  1.
         21    1    1    2  503  502  0.25192542224E+02 -0.74210073523E+00  0.49200000922E+03  0.49264512985E+03  0.00000000000E+00 0. -1.
</event>
<event>
 4    1  0.5696713E+002  0.2325755E+02  0.7546771E-02  0.1489289E+00
          2   -1    0    0  503    0  0.00000000000E+00  0.00000000000E+00  0.19038334933E+01  0.19038334933E+01  0.00000000000E+00 0. -1.
         -2   -1    0    0    0  501 -0.00000000000E+00 -0.00000000000E+00 -0.30593396259E+03  0.30593396259E+03  0.00000000000E+00 0.  1.
         21    1    1    2  502  501 -0.20591159167E+02  0.10812861240E+02 -0.19311706800E+03  0.19451250797E+03  0.00000000000E+00 0.  1.
         21    1    1    2  503  502  0.20591159167E+02 -0.10812861240E+02 -0.11091306110E+03  0.11332528812E+03  0.00000000000E+00 0. -1.
</event>
<event>
 4    1  0.5696713E+002  0.2141388E+02  0.7546771E-02  0.1513437E+00
          2   -1    0    0  503    0  0.00000000000E+00  0.00000000000E+00  0.13362289735E+04  0.13362289735E+04  0.00000000000E+00 0.  1.
         -2   -1    0    0    0  501 -0.00000000000E+00 -0.00000000000E+00 -0.46500682593E+00  0.46500682593E+00  0.00000000000E+00 0. -1.
         21    1    1    2  502  501  0.19041504092E+02 -0.97967124384E+01  0.32577604520E+03  0.32647907449E+03  0.00000000000E+00 0. -1.
         21    1    1    2  503  502 -0.19041504092E+02  0.97967124384E+01  0.10099879215E+04  0.10102149058E+04  0.00000000000E+00 0.  1.
</event>
<event>
 4    1  0.5696713E+002  0.2047209E+02  0.7546771E-02  0.1526937E+00
          2   -1    0    0  503    0  0.00000000000E+00  0.00000000000E+00  0.43231151898E+03  0.43231151898E+03  0.00000000000E+00 0.  1.
         -2   -1    0    0    0  501 -0.00000000000E+00 -0.00000000000E+00 -0.10130529889E+01  0.10130529889E+01  0.00000000000E+00 0. -1.
         21    1    1    2  502  501 -0.16286062674E+02 -0.12404463522E+02  0.26059622100E+03  0.26139911429E+03  0.00000000000E+00 0. -1.
         21    1    1    2  503  502  0.16286062674E+02  0.12404463522E+02  0.17070224499E+03  0.17192545768E+03  0.00000000000E+00 0.  1.
</event>
<event>
 4    1  0.5696713E+002  0.2182998E+02  0.7546771E-02  0.1507737E+00
          2   -1    0    0  503    0  0.00000000000E+00  0.00000000000E+00  0.61772288297E+00  0.61772288297E+00  0.00000000000E+00 0. -1.
         -2   -1    0    0    0  501 -0.00000000000E+00 -0.00000000000E+00 -0.14476990810E+04  0.14476990810E+04  0.00000000000E+00 0.  1.
         21    1    1    2  502  501 -0.10224972535E+02  0.19287250808E+02 -0.12184717959E+04  0.12186673318E+04  0.00000000000E+00 0.  1.
         21    1    1    2  503  502  0.10224972535E+02 -0.19287250808E+02 -0.22860956221E+03  0.22964947212E+03  0.00000000000E+00 0. -1.
</event>
<event>
 4    1  0.5696713E+002  0.2492696E+02  0.7546771E-02  0.1469622E+00
          2   -1    0    0  503    0  0.00000000000E+00  0.00000000000E+00  0.17511783623E+03  0.17511783623E+03  0.00000000000E+00 0.  1.
         -2   -1    0    0    0  501 -0.00000000000E+00 -0.00000000000E+00 -0.48727193213E+01  0.48727193213E+01  0.00000000000E+00 0. -1.
         21    1    1    2  502  501 -0.15142993449E+02  0.19800083507E+02  0.38202045579E+02  0.45615236970E+02  0.00000000000E+00 0. -1.
         21    1    1    2  503  502  0.15142993449E+02 -0.19800083507E+02  0.13204307133E+03  0.13437531858E+03  0.00000000000E+00 0.  1.
</event>
<event>
 4    1  0.5696713E+002  0.2417801E+02  0.7546771E-02  0.1478213E+00
          2   -1    0    0  503    0  0.00000000000E+00  0.00000000000E+00  0.20578257097E+04  0.20578257097E+04  0.00000000000E+00 0.  1.
         -2   -1    0    0    0  501 -0.00000000000E+00 -0.00000000000E+00 -0.31923097615E+00  0.31923097615E+00  0.00000000000E+00 0. -1.
         21    1    1    2  502  501  0.23981203125E+02 -0.30786784928E+01  0.68725029676E+03  0.68767546616E+03  0.00000000000E+00 0. -1.
         21    1    1    2  503  502 -0.23981203125E+02  0.30786784928E+01  0.13702561820E+04  0.13704694745E+04  0.00000000000E+00 0.  1.
</event>
<event>
 4    1  0.5696713E+002  0.2852154E+02  0.7546771E-02  0.1432895E+00
          2   -1    0    0  502    0  0.00000000000E+00  0.00000000000E+00  0.15916390145E+04  0.15916390145E+04  0.00000000000E+00 0. -1.
         -2   -1    0    0    0  501 -0.00000000000E+00 -0.00000000000E+00 -0.13002440682E+01  0.13002440682E+01  0.00000000000E+00 0.  1.
         21    1    1    2  502  503 -0.28343509731E+02  0.31817712081E+01  0.14156616833E+04  0.14159489680E+04  0.00000000000E+00 0. -1.
         21    1    1    2  503  501  0.28343509731E+02 -0.31817712081E+01  0.17467708708E+03  0.17699029059E+03  0.00000000000E+00 0.  1.
</event>
<event>
 4    1  0.5696713E+002  0.2758599E+02  0.7546771E-02  0.1441809E+00
          2   -1    0    0  502    0  0.00000000000E+00  0.00000000000E+00  0.69763814859E+01  0.69763814859E+01  0.00000000000E+00 0.  1.
         -2   -1    0    0    0  501 -0.00000000000E+00 -0.00000000000E+00 -0.12063998621E+03  0.12063998621E+03  0.00000000000E+00 0. -1.
         21    1    1    2  502  503 -0.80404586916E+01 -0.26388214003E+02 -0.37080260817E+02  0.46216150386E+02  0.00000000000E+00 0.  1.
         21    1    1    2  503  501  0.80404586916E+01  0.26388214003E+02 -0.76583343912E+02  0.81400217315E+02  0.00000000000E+00 0. -1.
</event>
<event>
 4    1  0.5696713E+002  0.2056440E+02  0.7546771E-02  0.1525576E+00
          2   -1    0    0  502    0  0.00000000000E+00  0.00000000000E+00  0.40852034827E+01  0.40852034827E+01  0.00000000000E+00 0.  1.
         -2   -1    0    0    0  501 -0.00000000000E+00 -0.00000000000E+00 -0.12558809915E+03  0.12558809915E+03  0.00000000000E+00 0. -1.
         21    1    1    2  502  503 -0.89091974535E+01  0.18534315085E+02 -0.33571891993E+02  0.39369614767E+02  0.00000000000E+00 0.  1.
         21    1    1    2  503  501  0.89091974535E+01 -0.18534315085E+02 -0.87931003674E+02  0.90303687866E+02  0.00000000000E+00 0. -1.
</event>
<event>
 4    1  0.5696713E+002  0.2436746E+02  0.7546771E-02  0.1476006E+00
          2   -1    0    0  503    0  0.00000000000E+00  0.00000000000E+00  0.65447982860E+03  0.65447982860E+03  0.00000000000E+00 0.  1.
         -2   -1    0    0    0  501 -0.00000000000E+00 -0.00000000000E+00 -0.40955738256E+01  0.40955738256E+01  0.00000000000E+00 0. -1.
         21    1    1    2  502  501 -0.24364333606E+02  0.39009208148E+00  0.34656263841E+02  0.42365428681E+02  0.00000000000E+00 0. -1.
         21    1    1    2  503  502  0.24364333606E+02 -0.39009208148E+00  0.61572799093E+03  0.61620997375E+03  0.00000000000E+00 0.  1.
</event>
<event>
 4    1  0.5696713E+002  0.2369409E+02  0.7546771E-02  0.1483962E+00
          2   -1    0    0  502    0  0.00000000000E+00  0.00000000000E+00  0.12596684743E+02  0.12596684743E+02  0.00000000000E+00 0. -1.
         -2   -1    0    0    0  501 -0.00000000000E+00 -0.00000000000E+00 -0.97607325043E+02  0.97607325043E+02  0.00000000000E+00 0.  1.
         21    1    1    2  502  503  0.96229925586E+01 -0.21651973270E+02 -0.18867247138E+01  0.23769090484E+02  0.00000000000E+00 0. -1.
         21    1    1    2  503  501 -0.96229925586E+01  0.21651973270E+02 -0.83123915587E+02  0.86434919302E+02  0.00000000000E+00 0.  1.
</event>
<event>
 4    1  0.5696713E+002  0.2593988E+02  0.7546771E-02  0.1458558E+00
          2   -1    0    0  502    0  0.00000000000E+00  0.00000000000E+00  0.11910525319E+04  0.11910525319E+04  0.00000000000E+00 0. -1.
         -2   -1    0    0    0  501 -0.00000000000E+00 -0.00000000000E+00 -0.18723398410E+01  0.18723398410E+01  0.00000000000E+00 0.  1.
         21    1    1    2  502  503  0.22630041910E+02 -0.12679059351E+02  0.10930088752E+04  0.10933166415E+04  0.00000000000E+00 0. -1.
         21    1    1    2  503  501 -0.22630041910E+02  0.12679059351E+02  0.96171316867E+02  0.99608230236E+02  0.00000000000E+00 0.  1.
</event>
<event>
 4    1  0.5696713E+002  0.2230454E+02  0.7546771E-02  0.1501421E+00
          2   -1    0    0  502    0  0.00000000000E+00  0.00000000000E+00  0.99086267342E+03  0.99086267342E+03  0.00000000000E+00 0. -1.
         -2   -1    0    0    0  501 -0.00000000000E+00 -0.00000000000E+00 -0.83029748177E+00  0.83029748177E+00  0.00000000000E+00 0.  1.
         21    1    1    2  502  503  0.22281253730E+02 -0.10189870641E+01  0.80676948292E+03  0.80707774791E+03  0.00000000000E+00 0. -1.
         21    1    1    2  503  501 -0.22281253730E+02  0.10189870641E+01  0.18326289302E+03  0.18461522299E+03  0.00000000000E+00 0.  1.
</event>
<event>
 4    1  0.5696713E+002  0.3782244E+02  0.7546771E-02  0.1361741E+00
          2   -1    0    0  502    0  0.00000000000E+00  0.00000000000E+00  0.46982132191E+03  0.46982132191E+03  0.00000000000E+00 0. -1.
         -2   -1    0    0    0  501 -0.00000000000E+00 -0.00000000000E+00 -0.40521077999E+01  0.40521077999E+01  0.00000000000E+00 0.  1.
         21    1    1    2  502  503  0.24687112783E+02 -0.28654559134E+02  0.35101491619E+03  0.35304675141E+03  0.00000000000E+00 0. -1.
         21    1    1    2  503  501 -0.24687112783E+02  0.28654559134E+02  0.11475429793E+03  0.12082667830E+03  0.00000000000E+00 0.  1.
</event>
<event>
 4    1  0.5696713E+002  0.2079267E+02  0.7546771E-02  0.1522246E+00
          2   -1    0    0  503    0  0.00000000000E+00  0.00000000000E+00  0.45363009794E+01  0.45363009794E+01  0.00000000000E+00 0.  1.
         -2   -1    0    0    0  501 -0.00000000000E+00 -0.00000000000E+00 -0.96843483147E+02  0.96843483147E+02  0.00000000000E+00 0. -1.
         21    1    1    2  502  501  0.18882738523E+02  0.87050100198E+01 -0.52541281852E+02  0.56505940504E+02  0.00000000000E+00 0.  1.
         21    1    1    2  503  502 -0.18882738523E+02 -0.87050100198E+01 -0.39765900315E+02  0.44873843623E+02  0.00000000000E+00 0. -1.
</event>
<event>
 4    1  0.5696713E+002  0.2250341E+02  0.7546771E-02  0.1498830E+00
          2   -1    0    0  502    0  0.00000000000E+00  0.00000000000E+00  0.89090100085E+02  0.89090100085E+02  0.00000000000E+00 0.  1.
         -2   -1    0    0    0  501 -0.00000000000E+00 -0.00000000000E+00 -0.12072329260E+02  0.12072329260E+02  0.00000000000E+00 0. -1.
         21    1    1    2  502  503  0.86985033827E+01 -0.20754268572E+02  0.75303262254E+02  0.78593797027E+02  0.00000000000E+00 0.  1.
         21    1    1    2  503  501 -0.86985033827E+01  0.20754268572E+02  0.17145085713E+01  0.22568632318E+02  0.00000000000E+00 0. -1.
</event>
<event>
 4    1  0.5696713E+002  0.2584534E+02  0.7546771E-02  0.1459565E+00
          2   -1    0    0  503    0  0.00000000000E+00  0.00000000000E+00  0.36352905361E+02  0.36352905361E+02  0.00000000000E+00 0.  1.
         -2   -1    0    0    0  501 -0.00000000000E+00 -0.00000000000E+00 -0.20318397863E+02  0.20318397863E+02  0.00000000000E+00 0. -1.
         21    1    1    2  502  501  0.10374509483E+02  0.23671736535E+02 -0.74627057146E+00  0.25856111025E+02  0.00000000000E+00 0. -1.
         21    1    1    2  503  502 -0.10374509483E+02 -0.23671736535E+02  0.16780778070E+02  0.30815192198E+02  0.00000000000E+00 0.  1.
</event>
<event>
 4    1  0.5696713E+002  0.2382489E+02  0.7546771E-02  0.1482392E+00
          2   -1    0    0  503    0  0.00000000000E+00  0.00000000000E+00  0.72792934072E+02  0.72792934072E+02  0.00000000000E+00 0. -1.
         -2   -1    0    0    0  501 -0.00000000000E+00 -0.00000000000E+00 -0.19426670147E+02  0.19426670147E+02  0.00000000000E+00 0.  1.
         21    1    1    2  502  501  0.14585190039E+02  0.18838720362E+02 -0.89917652152E+01  0.25465211467E+02  0.00000000000E+00 0.  1.
         21    1    1    2  503  502 -0.14585190039E+02 -0.18838720362E+02  0.62358029140E+02  0.66754392751E+02  0.00000000000E+00 0. -1.
</event>
<event>
 4    1  0.5696713E+002  0.2007497E+02  0.7546771E-02  0.1532893E+00
          2   -1    0    0  502    0  0.00000000000E+00  0.00000000000E+00  0.27594529021E+03  0.27594529021E+03  0.00000000000E+00 0.  1.
         -2   -1    0    0    0  501 -0.00000000000E+00 -0.00000000000E+00 -0.15094251553E+01  0.15094251553E+01  0.00000000000E+00 0. -1.
         21    1    1    2  502  503 -0.94485139667E+01  0.17712423538E+02  0.11222925950E+03  0.11401057430E+03  0.00000000000E+00 0. -1.
         21    1    1    2  503  501  0.94485139667E+01 -0.17712423538E+02  0.16220660556E+03  0.16344414107E+03  0.00000000000E+00 0.  1.
</event>
<event>
 4    1  0.5696713E+002  0.2786139E+02  0.7546771E-02  0.1439142E+00
          2   -1    0    0  502    0  0.00000000000E+00  0.00000000000E+00  0.19528162820E+01  0.19528162820E+01  0.00000000000E+00 0.  1.
         -2   -1    0    0    0  501 -0.00000000000E+00 -0.00000000000E+00 -0.55470287803E+03  0.55470287803E+03  0.00000000000E+00 0. -1.
         21    1    1    2  502  503 -0.27680533931E+02 -0.31693833488E+01 -0.42454079704E+03  0.42545404605E+03  0.00000000000E+00 0. -1.
         21    1    1    2  503  501  0.27680533931E+02  0.31693833488E+01 -0.12820926471E+03  0.13120164826E+03  0.00000000000E+00 0.  1.
</event>
<event>
 4    1  0.5696713E+002  0.3017593E+02  0.7546771E-02  0.1418074E+00
          2   -1    0    0  502    0  0.00000000000E+00  0.00000000000E+00  0.46966223990E+03  0.46966223990E+03  0.00000000000E+00 0. -1.
         -2   -1    0    0    0  501 -0.00000000000E+00 -0.00000000000E+00 -0.31167452796E+01  0.31167452796E+01  0.00000000000E+00 0.  1.
         21    1    1    2  502  503  0.16461538888E+02 -0.25290399750E+02  0.37859694685E+03  0.37979762340E+03  0.00000000000E+00 0. -1.
         21    1    1    2  503  501 -0.16461538888E+02  0.25290399750E+02  0.87948547777E+02  0.92981361778E+02  0.00000000000E+00 0.  1.
</event>
<event>
 4    1  0.5696713E+002  0.3422877E+02  0.7546771E-02  0.1386068E+00
          2   -1    0    0  503    0  0.00000000000E+00  0.00000000000E+00  0.21963331626E+03  0.21963331626E+03  0.00000000000E+00 0.  1.
         -2   -1    0    0    0  501 -0.00000000000E+00 -0.00000000000E+00 -0.62321861681E+01  0.62321861681E+01  0.00000000000E+00 0. -1.
         21    1    1    2  502  501 -0.28723086566E+02 -0.18617001956E+02  0.63836830464E+02  0.72434448899E+02  0.00000000000E+00 0. -1.
         21    1    1    2  503  502  0.28723086566E+02  0.18617001956E+02  0.14956429963E+03  0.15343105353E+03  0.00000000000E+00 0.  1.
</event>
<event>
 4    1  0.5696713E+002  0.2086093E+02  0.7546771E-02  0.1521260E+00
          2   -1    0    0  503    0  0.00000000000E+00  0.00000000000E+00  0.34667360270E+02  0.34667360270E+02  0.00000000000E+00 0.  1.
         -2   -1    0    0    0  501 -0.00000000000E+00 -0.00000000000E+00 -0.12553125433E+02  0.12553125433E+02  0.00000000000E+00 0. -1.
         21    1    1    2  502  501 -0.11161067163E+02 -0.17624105063E+02  0.10975327714E+02  0.23571939206E+02  0.00000000000E+00 0.  1.
         21    1    1    2  503  502  0.11161067163E+02  0.17624105063E+02  0.11138907123E+02  0.23648546496E+02  0.00000000000E+00 0. -1.
</event>
<event>
 4    1  0.5696713E+002  0.3243351E+02  0.7546771E-02  0.1399564E+00
          2   -1    0    0  503    0  0.00000000000E+00  0.00000000000E+00  0.39197703262E+02  0.39197703262E+02  0.00000000000E+00 0. -1.
         -2   -1    0    0    0  501 -0.00000000000E+00 -0.00000000000E+00 -0.53111213926E+02  0.53111213926E+02  0.00000000000E+00 0.  1.
         21    1    1    2  502  501 -0.32296360036E+02 -0.29795516996E+01 -0.39419767949E+02  0.51047533781E+02  0.00000000000E+00 0.  1.
         21    1    1    2  503  502  0.32296360036E+02  0.29795516996E+01  0.25506257286E+02  0.41261383407E+02  0.00000000000E+00 0. -1.
</event>
<event>
 4    1  0.5696713E+002  0.2434555E+02  0.7546771E-02  0.1476260E+00
          2   -1    0    0  502    0  0.00000000000E+00  0.00000000000E+00  0.60851882630E+01  0.60851882630E+01  0.00000000000E+00 0.  1.
         -2   -1    0    0    0  501 -0.00000000000E+00 -0.00000000000E+00 -0.29748637199E+03  0.29748637199E+03  0.00000000000E+00 0. -1.
         21    1    1    2  502  503 -0.15785141471E+02 -0.18534699565E+02 -0.21219095974E+02  0.32294826415E+02  0.00000000000E+00 0.  1.
         21    1    1    2  503  501  0.15785141471E+02  0.18534699565E+02 -0.27018208775E+03  0.27127673383E+03  0.00000000000E+00 0. -1.
</event>
<event>
 4    1  0.5696713E+002  0.2615337E+02  0.7546771E-02  0.1456303E+00
          2   -1    0    0  503    0  0.00000000000E+00  0.00000000000E+00  0.26826793122E+03  0.26826793122E+03  0.00000000000E+00 0.  1.
         -2   -1    0    0    0  501 -0.00000000000E+00 -0.00000000000E+00 -0.63555509663E+01  0.63555509663E+01  0.00000000000E+00 0. -1.
         21    1    1    2  502  501 -0.26127402765E+02  0.11652032455E+01  0.24699133123E+02  0.35972851582E+02  0.00000000000E+00 0. -1.
         21    1    1    2  503  502  0.26127402765E+02 -0.11652032455E+01  0.23721324713E+03  0.23865063060E+03  0.00000000000E+00 0.  1.
</event>
<event>
 4    1  0.5696713E+002  0.3116656E+02  0.7546771E-02  0.1409723E+00
          2   -1    0    0  503    0  0.00000000000E+00  0.00000000000E+00  0.16711653713E+04  0.16711653713E+04  0.00000000000E+00 0. -1.
         -2   -1    0    0    0  501 -0.00000000000E+00 -0.00000000000E+00 -0.60930808588E+00  0.60930808588E+00  0.00000000000E+00 0.  1.
         21    1    1    2  502  501  0.24819403457E+02 -0.18850769312E+02  0.10146717738E+04  0.10151503153E+04  0.00000000000E+00 0.  1.
         21    1    1    2  503  502 -0.24819403457E+02  0.18850769312E+02  0.65588428943E+03  0.65662436401E+03  0.00000000000E+00 0. -1.
</event>
<event>
 4    1  0.5696713E+002  0.2245759E+02  0.7546771E-02  0.1499424E+00
          2   -1    0    0  503    0  0.00000000000E+00  0.00000000000E+00  0.53713086437E+03  0.53713086437E+03  0.00000000000E+00 0. -1.
         -2   -1    0    0    0  501 -0.00000000000E+00 -0.00000000000E+00 -0.10818719023E+01  0.10818719023E+01  0.00000000000E+00 0.  1.
         21    1    1    2  502  501  0.32706178031E+01 -0.22218157712E+02  0.17021683674E+03  0.17169191880E+03  0.00000000000E+00 0. -1.
         21    1    1    2  503  502 -0.32706178031E+01  0.22218157712E+02  0.36583215573E+03  0.36652081747E+03  0.00000000000E+00 0.  1.
</event>
<event>
 4    1  0.5696713E+002  0.2704970E+02  0.7546771E-02  0.1447110E+00
          2   -1    0    0  502    0  0.00000000000E+00  0.00000000000E+00  0.79526506443E+03  0.79526506443E+03  0.00000000000E+00 0. -1.
         -2   -1    0    0    0  501 -0.00000000000E+00 -0.00000000000E+00 -0.94207146525E+00  0.94207146525E+00  0.00000000000E+00 0.  1.
         21    1    1    2  502  503 -0.24321894156E+02  0.11837720948E+02  0.45802341388E+03  0.45882146183E+03  0.00000000000E+00 0. -1.
         21    1    1    2  503  501  0.24321894156E+02 -0.11837720948E+02  0.33629957908E+03  0.33738567406E+03  0.00000000000E+00 0.  1.
</event>
<event>
 4    1  0.5696713E+002  0.2103006E+02  0.7546771E-02  0.1518836E+00
          2   -1    0    0  502    0  0.00000000000E+00  0.00000000000E+00  0.40745296685E+00  0.40745296685E+00  0.00000000000E+00 0. -1.
         -2   -1    0    0    0  501 -0.00000000000E+00 -0.00000000000E+00 -0.15389942055E+04  0.15389942055E+04  0.00000000000E+00 0.  1.
         21    1    1    2  502  503 -0.38519495090E+01 -0.20674284884E+02 -0.35144317060E+03  0.35207181900E+03  0.00000000000E+00 0. -1.
         21    1    1    2  503  501  0.38519495090E+01  0.20674284884E+02 -0.11871435820E+04  0.11873298395E+04  0.00000000000E+00 0.  1.
</event>
<event>
 4    1  0.5696713E+002  0.2696262E+02  0.7546771E-02  0.1447984E+00
          2   -1    0    0  503    0  0.00000000000E+00  0.00000000000E+00  0.53102111323E+03  0.53102111323E+03  0.00000000000E+00 0.  1.
         -2   -1    0    0    0  501 -0.00000000000E+00 -0.00000000000E+00 -0.16153166244E+01  0.16153166244E+01  0.00000000000E+00 0. -1.
         21    1    1    2  502  501  0.53525704440E+01 -0.26425985959E+02  0.16071225533E+03  0.16295831295E+03  0.00000000000E+00 0. -1.
         21    1    1    2  503  502 -0.53525704440E+01  0.26425985959E+02  0.36869354128E+03  0.36967811691E+03  0.00000000000E+00 0.  1.
</event>
<event>
 4    1  0.5696713E+002  0.3054033E+02  0.7546771E-02  0.1414958E+00
          2   -1    0    0  502    0  0.00000000000E+00  0.00000000000E+00  0.15103969812E+04  0.15103969812E+04  0.00000000000E+00 0. -1.
         -2   -1    0    0    0  501 -0.00000000000E+00 -0.00000000000E+00 -0.81271490737E+00  0.81271490737E+00  0.00000000000E+00 0.  1.
         21    1    1    2  502  503 -0.22590908130E+02 -0.20551467444E+02  0.11250900934E+04  0.11255045225E+04  0.00000000000E+00 0. -1.
         21    1    1    2  503  501  0.22590908130E+02  0.20551467444E+02  0.38449417287E+03  0.38570517357E+03  0.00000000000E+00 0.  1.
</event>
<event>
 4    1  0.5696713E+002  0.2101391E+02  0.7546771E-02  0.1519066E+00
          2   -1    0    0  503    0  0.00000000000E+00  0.00000000000E+00  0.70640392553E+03  0.70640392553E+03  0.00000000000E+00 0.  1.
         -2   -1    0    0    0  501 -0.00000000000E+00 -0.00000000000E+00 -0.11768999370E+01  0.11768999370E+01  0.00000000000E+00 0. -1.
         21    1    1    2  502  501 -0.12882600787E+02  0.16601903878E+02  0.11036523689E+03  0.11234798676E+03  0.00000000000E+00 0. -1.
         21    1    1    2  503  502  0.12882600787E+02 -0.16601903878E+02  0.59486178870E+03  0.59523283871E+03  0.00000000000E+00 0.  1.
</event>
<event>
 4    1  0.5696713E+002  0.2248722E+02  0.7546771E-02  0.1499039E+00
          2   -1    0    0  502    0  0.00000000000E+00  0.00000000000E+00  0.64515135027E+02  0.64515135027E+02  0.00000000000E+00 0. -1.
         -2   -1    0    0    0  501 -0.00000000000E+00 -0.00000000000E+00 -0.17115158782E+02  0.17115158782E+02  0.00000000000E+00 0.  1.
         21    1    1    2  502  503 -0.20075007187E+02 -0.10132581436E+02  0.53749429313E+02  0.58263850470E+02  0.00000000000E+00 0. -1.
         21    1    1    2  503  501  0.20075007187E+02  0.10132581436E+02 -0.63494530678E+01  0.23366443340E+02  0.00000000000E+00 0.  1.
</event>
<event>
 4    1  0.5696713E+002  0.4970730E+02  0.7546771E-02  0.1299446E+00
          2   -1    0    0  502    0  0.00000000000E+00  0.00000000000E+00  0.32642416812E+02  0.32642416812E+02  0.00000000000E+00 0. -1.
         -2   -1    0    0    0  501 -0.00000000000E+00 -0.00000000000E+00 -0.12653937976E+03  0.12653937976E+03  0.00000000000E+00 0.  1.
         21    1    1    2  502  503 -0.24698072476E+02 -0.43137234462E+02  0.35035700549E+01  0.49830620949E+02  0.00000000000E+00 0. -1.
         21    1    1    2  503  501  0.24698072476E+02  0.43137234462E+02 -0.97400532998E+02  0.10935117562E+03  0.00000000000E+00 0.  1.
</event>
<event>
 4    1  0.5696713E+002  0.2088807E+02  0.7546771E-02  0.1520869E+00
          2   -1    0    0  503    0  0.00000000000E+00  0.00000000000E+00  0.35056799325E+03  0.35056799325E+03  0.00000000000E+00 0. -1.
         -2   -1    0    0    0  501 -0.00000000000E+00 -0.00000000000E+00 -0.32115813933E+01  0.32115813933E+01  0.00000000000E+00 0.  1.
         21    1    1    2  502  501  0.66905376932E+01 -0.19787575813E+02  0.35243448955E+02  0.40968428643E+02  0.00000000000E+00 0.  1.
         21    1    1    2  503  502 -0.66905376932E+01  0.19787575813E+02  0.31211296291E+03  0.31281114600E+03  0.00000000000E+00 0. -1.
</event>
<event>
 4    1  0.5696713E+002  0.6411233E+02  0.7546771E-02  0.1246466E+00
          2   -1    0    0  503    0  0.00000000000E+00  0.00000000000E+00  0.12417523464E+04  0.12417523464E+04  0.00000000000E+00 0.  1.
         -2   -1    0    0    0  501 -0.00000000000E+00 -0.00000000000E+00 -0.68037012377E+01  0.68037012377E+01  0.00000000000E+00 0. -1.
         21    1    1    2  502  501 -0.12137253248E+02 -0.62952986491E+02  0.17013328255E+03  0.18181233527E+03  0.00000000000E+00 0. -1.
         21    1    1    2  503  502  0.12137253248E+02  0.62952986491E+02  0.10648153627E+04  0.10667437124E+04  0.00000000000E+00 0.  1.
</event>
<event>
 4    1  0.5696713E+002  0.2497836E+02  0.7546771E-02  0.1469046E+00
          2   -1    0    0  503    0  0.00000000000E+00  0.00000000000E+00  0.27806952723E+02  0.27806952723E+02  0.00000000000E+00 0.  1.
         -2   -1    0    0    0  501 -0.00000000000E+00 -0.00000000000E+00 -0.24476275048E+02  0.24476275048E+02  0.00000000000E+00 0. -1.
         21    1    1    2  502  501  0.20926439985E+02  0.13638281995E+02  0.92100724688E+01  0.26622247484E+02  0.00000000000E+00 0. -1.
         21    1    1    2  503  502 -0.20926439985E+02 -0.13638281995E+02 -0.58793947938E+01  0.25660980288E+02  0.00000000000E+00 0.  1.
</event>
<event>
 4    1  0.5696713E+002  0.3658612E+02  0.7546771E-02  0.1369742E+00
          2   -1    0    0  502    0  0.00000000000E+00  0.00000000000E+00  0.29632780880E+03  0.29632780880E+03  0.00000000000E+00 0.  1.
         -2   -1    0    0    0  501 -0.00000000000E+00 -0.00000000000E+00 -0.51039626634E+01  0.51039626634E+01  0.00000000000E+00 0. -1.
         21    1    1    2  502  503 -0.17912838053E+02  0.31901015177E+02  0.19671779351E+03  0.20009106632E+03  0.00000000000E+00 0.  1.
         21    1    1    2  503  501  0.17912838053E+02 -0.31901015177E+02  0.94506052622E+02  0.10134070514E+03  0.00000000000E+00 0. -1.
</event>
<event>
 4    1  0.5696713E+002  0.3028080E+02  0.7546771E-02  0.1417172E+00
          2   -1    0    0  502    0  0.00000000000E+00  0.00000000000E+00  0.77158174968E+03  0.77158174968E+03  0.00000000000E+00 0. -1.
         -2   -1    0    0    0  501 -0.00000000000E+00 -0.00000000000E+00 -0.42070527360E+01  0.42070527360E+01  0.00000000000E+00 0.  1.
         21    1    1    2  502  503 -0.21011028587E+02  0.21805125080E+02  0.71226124927E+03  0.71290463178E+03  0.00000000000E+00 0. -1.
         21    1    1    2  503  501  0.21011028587E+02 -0.21805125080E+02  0.55113447675E+02  0.62884170637E+02  0.00000000000E+00 0.  1.
</event>
<event>
 4    1  0.5696713E+002  0.2902670E+02  0.7546771E-02  0.1428247E+00
          2   -1    0    0  502    0  0.00000000000E+00  0.00000000000E+00  0.45935353992E+02  0.45935353992E+02  0.00000000000E+00 0. -1.
         -2   -1    0    0    0  501 -0.00000000000E+00 -0.00000000000E+00 -0.19778664928E+02  0.19778664928E+02  0.00000000000E+00 0.  1.
         21    1    1    2  502  503 -0.12532104062E+02 -0.26181971030E+02  0.21933526655E+02  0.36381710113E+02  0.00000000000E+00 0. -1.
         21    1    1    2  503  501  0.12532104062E+02  0.26181971030E+02  0.42231624095E+01  0.29332308807E+02  0.00000000000E+00 0.  1.
</event>
<event>
 4    1  0.5696713E+002  0.2249328E+02  0.7546771E-02  0.1498961E+00
          2   -1    0    0  502    0  0.00000000000E+00  0.00000000000E+00  0.98682384785E+03  0.98682384785E+03  0.00000000000E+00 0.  1.
         -2   -1    0    0    0  501 -0.00000000000E+00 -0.00000000000E+00 -0.56233316232E+00  0.56233316232E+00  0.00000000000E+00 0. -1.
         21    1    1    2  502  503 -0.22241095575E+02  0.33587877537E+01  0.63979761376E+03  0.64019288840E+03  0.00000000000E+00 0. -1.
         21    1    1    2  503  501  0.22241095575E+02 -0.33587877537E+01  0.34646390093E+03  0.34719329261E+03  0.00000000000E+00 0.  1.
</event>
<event>
 4    1  0.5696713E+002  0.3791827E+02  0.7546771E-02  0.1361136E+00
          2   -1    0    0  502    0  0.00000000000E+00  0.00000000000E+00  0.22476271376E+03  0.22476271376E+03  0.00000000000E+00 0.  1.
         -2   -1    0    0    0  501 -0.00000000000E+00 -0.00000000000E+00 -0.12388940210E+02  0.12388940210E+02  0.00000000000E+00 0. -1.
         21    1    1    2  502  503  0.24078944506E+02 -0.29291627237E+02  0.18865095723E+03  0.19242395552E+03  0.00000000000E+00 0.  1.
         21    1    1    2  503  501 -0.24078944506E+02  0.29291627237E+02  0.23722816327E+02  0.44727698456E+02  0.00000000000E+00 0. -1.
</event>
<event>
 4    1  0.5696713E+002  0.2352530E+02  0.7546771E-02  0.1486005E+00
          2   -1    0    0  503    0  0.00000000000E+00  0.00000000000E+00  0.27494042256E+02  0.27494042256E+02  0.00000000000E+00 0. -1.
         -2   -1    0    0    0  501 -0.00000000000E+00 -0.00000000000E+00 -0.21996461633E+02  0.21996461633E+02  0.00000000000E+00 0.  1.
         21    1    1    2  502  501 -0.16028735863E+02  0.17219735122E+02 -0.44604622302E+01  0.23944422615E+02  0.00000000000E+00 0.  1.
         21    1    1    2  503  502  0.16028735863E+02 -0.17219735122E+02  0.99580428532E+01  0.25546081275E+02  0.00000000000E+00 0. -1.
</event>
<event>
 4    1  0.5696713E+002  0.4105269E+02  0.7546771E-02  0.1342425E+00
          2   -1    0    0  502    0  0.00000000000E+00  0.00000000000E+00  0.64923283910E+02  0.64923283910E+02  0.00000000000E+00 0.  1.
         -2   -1    0    0    0  501 -0.00000000000E+00 -0.00000000000E+00 -0.98494366198E+02  0.98494366198E+02  0.00000000000E+00 0. -1.
         21    1    1    2  502  503  0.40995144385E+02 -0.21728176705E+01  0.53334008983E+02  0.67304082446E+02  0.00000000000E+00 0.  1.
         21    1    1    2  503  501 -0.40995144385E+02  0.21728176705E+01 -0.86905091271E+02  0.96113567661E+02  0.00000000000E+00 0. -1.
</event>
<event>
 4    1  0.5696713E+002  0.3751083E+02  0.7546771E-02  0.1363724E+00
          2   -1    0    0  503    0  0.00000000000E+00  0.00000000000E+00  0.19322992673E+01  0.19322992673E+01  0.00000000000E+00 0.  1.
         -2   -1    0    0    0  501 -0.00000000000E+00 -0.00000000000E+00 -0.86366485513E+03  0.86366485513E+03  0.00000000000E+00 0. -1.
         21    1    1    2  502  501 -0.63626118635E+01 -0.36967278439E+02 -0.60228485767E+03  0.60345183096E+03  0.00000000000E+00 0. -1.
         21    1    1    2  503  502  0.63626118635E+01  0.36967278439E+02 -0.25944769819E+03  0.26214532344E+03  0.00000000000E+00 0.  1.
</event>
<event>
 4    1  0.5696713E+002  0.1094515E+03  0.7546771E-02  0.1148366E+00
          2   -1    0    0  503    0  0.00000000000E+00  0.00000000000E+00  0.66321739859E+03  0.66321739859E+03  0.00000000000E+00 0. -1.
         -2   -1    0    0    0  501 -0.00000000000E+00 -0.00000000000E+00 -0.43968624531E+02  0.43968624531E+02  0.00000000000E+00 0.  1.
         21    1    1    2  502  501 -0.90306303285E+02  0.61841775213E+02  0.38211756785E+02  0.11593003032E+03  0.00000000000E+00 0.  1.
         21    1    1    2  503  502  0.90306303285E+02 -0.61841775213E+02  0.58103701727E+03  0.59125599279E+03  0.00000000000E+00 0. -1.
</event>
<event>
 4    1  0.5696713E+002  0.2206573E+02  0.7546771E-02  0.1504575E+00
          2   -1    0    0  502    0  0.00000000000E+00  0.00000000000E+00  0.24412635510E+01  0.24412635510E+01  0.00000000000E+00 0. -1.
         -2   -1    0    0    0  501 -0.00000000000E+00 -0.00000000000E+00 -0.29562352771E+03  0.29562352771E+03  0.00000000000E+00 0.  1.
         21    1    1    2  502  503  0.13197429190E+02 -0.17684009916E+02 -0.61584736401E+02  0.65418469116E+02  0.00000000000E+00 0. -1.
         21    1    1    2  503  501 -0.13197429190E+02  0.17684009916E+02 -0.23159752776E+03  0.23264632215E+03  0.00000000000E+00 0.  1.
</event>
<event>
 4    1  0.5696713E+002  0.5437321E+02  0.7546771E-02  0.1280249E+00
          2   -1    0    0  503    0  0.00000000000E+00  0.00000000000E+00  0.15883549853E+04  0.15883549853E+04  0.00000000000E+00 0.  1.
         -2   -1    0    0    0  501 -0.00000000000E+00 -0.00000000000E+00 -0.24711712800E+01  0.24711712800E+01  0.00000000000E+00 0. -1.
         21    1    1    2  502  501  0.33933613973E+02  0.42484775798E+02  0.39780175805E+03  0.40150054177E+03  0.00000000000E+00 0. -1.
         21    1    1    2  503  502 -0.33933613973E+02 -0.42484775798E+02  0.11880820560E+04  0.11893256148E+04  0.00000000000E+00 0.  1.
</event>
<event>
 4    1  0.5696713E+002  0.2140296E+02  0.7546771E-02  0.1513589E+00
          2   -1    0    0  502    0  0.00000000000E+00  0.00000000000E+00  0.31946586877E+02  0.31946586877E+02  0.00000000000E+00 0. -1.
         -2   -1    0    0    0  501 -0.00000000000E+00 -0.00000000000E+00 -0.16171160391E+02  0.16171160391E+02  0.00000000000E+00 0.  1.
         21    1    1    2  502  503 -0.20246568300E+02  0.69399612826E+01 -0.21013843305E+00  0.21403989084E+02  0.00000000000E+00 0.  1.
         21    1    1    2  503  501  0.20246568300E+02 -0.69399612826E+01  0.15985564920E+02  0.26713758184E+02  0.00000000000E+00 0. -1.
</event>
<event>
 4    1  0.5696713E+002  0.2270196E+02  0.7546771E-02  0.1496275E+00
          2   -1    0    0  502    0  0.00000000000E+00  0.00000000000E+00  0.72677210149E+03  0.72677210149E+03  0.00000000000E+00 0. -1.
         -2   -1    0    0    0  501 -0.00000000000E+00 -0.00000000000E+00 -0.89289270919E+00  0.89289270919E+00  0.00000000000E+00 0.  1.
         21    1    1    2  502  503 -0.17636951365E+01 -0.22633350663E+02  0.52799328155E+03  0.52848111087E+03  0.00000000000E+00 0.  1.
         21    1    1    2  503  501  0.17636951365E+01  0.22633350663E+02  0.19788592723E+03  0.19918388333E+03  0.00000000000E+00 0. -1.
</event>
<event>
 4    1  0.5696713E+002  0.2137825E+02  0.7546771E-02  0.1513932E+00
          2   -1    0    0  502    0  0.00000000000E+00  0.00000000000E+00  0.14881872844E+03  0.14881872844E+03  0.00000000000E+00 0.  1.
         -2   -1    0    0    0  501 -0.00000000000E+00 -0.00000000000E+00 -0.31873944792E+01  0.31873944792E+01  0.00000000000E+00 0. -1.
         21    1    1    2  502  503  0.40955110269E+01  0.20982284940E+02  0.87336428091E+02  0.89914855077E+02  0.00000000000E+00 0. -1.
         21    1    1    2  503  501 -0.40955110269E+01 -0.20982284940E+02  0.58294905868E+02  0.62091267840E+02  0.00000000000E+00 0.  1.
</event>
<event>
 4    1  0.5696713E+002  0.2515537E+02  0.7546771E-02  0.1467073E+00
          2   -1    0    0  503    0  0.00000000000E+00  0.00000000000E+00  0.74599058970E+02  0.74599058970E+02  0.00000000000E+00 0.  1.
         -2   -1    0    0    0  501 -0.00000000000E+00 -0.00000000000E+00 -0.18460078153E+02  0.18460078153E+02  0.00000000000E+00 0. -1.
         21    1    1    2  502  501 -0.24987973494E+02 -0.28971982863E+01 -0.61381453555E+01  0.25893423984E+02  0.00000000000E+00 0. -1.
         21    1    1    2  503  502  0.24987973494E+02  0.28971982863E+01  0.62277126172E+02  0.67165713139E+02  0.00000000000E+00 0.  1.
</event>
<event>
 4    1  0.5696713E+002  0.2890352E+02  0.7546771E-02  0.1429370E+00
          2   -1    0    0  502    0  0.00000000000E+00  0.00000000000E+00  0.36224221217E+03  0.36224221217E+03  0.00000000000E+00 0. -1.
         -2   -1    0    0    0  501 -0.00000000000E+00 -0.00000000000E+00 -0.89583585248E+01  0.89583585248E+01  0.00000000000E+00 0.  1.
         21    1    1    2  502  503 -0.74567903740E+01  0.27925069131E+02  0.33657739797E+03  0.33781616011E+03  0.00000000000E+00 0. -1.
         21    1    1    2  503  501  0.74567903740E+01 -0.27925069131E+02  0.16706455673E+02  0.33384410581E+02  0.00000000000E+00 0.  1.
</event>
<event>
 4    1  0.5696713E+002  0.2075039E+02  0.7546771E-02  0.1522859E+00
          2   -1    0    0  503    0  0.00000000000E+00  0.00000000000E+00  0.26960795491E+02  0.26960795491E+02  0.00000000000E+00 0. -1.
         -2   -1    0    0    0  501 -0.00000000000E+00 -0.00000000000E+00 -0.47466144257E+03  0.47466144257E+03  0.00000000000E+00 0.  1.
         21    1    1    2  502  501  0.19785958627E+02  0.62525583193E+01 -0.47040592213E+03  0.47086336682E+03  0.00000000000E+00 0.  1.
         21    1    1    2  503  502 -0.19785958627E+02 -0.62525583193E+01  0.22705275053E+02  0.30758871233E+02  0.00000000000E+00 0. -1.
</event>
<event>
 4    1  0.5696713E+002  0.2457548E+02  0.7546771E-02  0.1473609E+00
          2   -1    0    0  503    0  0.00000000000E+00  0.00000000000E+00  0.32072900069E+03  0.32072900069E+03  0.00000000000E+00 0.  1.
         -2   -1    0    0    0  501 -0.00000000000E+00 -0.00000000000E+00 -0.70953234880E+01  0.70953234880E+01  0.00000000000E+00 0. -1.
         21    1    1    2  502  501  0.45295216757E+01  0.24154451149E+02  0.16329241763E+02  0.29505901333E+02  0.00000000000E+00 0. -1.
         21    1    1    2  503  502 -0.45295216757E+01 -0.24154451149E+02  0.29730443544E+03  0.29831842285E+03  0.00000000000E+00 0.  1.
</event>
<event>
 4    1  0.5696713E+002  0.2503450E+02  0.7546771E-02  0.1468418E+00
          2   -1    0    0  503    0  0.00000000000E+00  0.00000000000E+00  0.16068996115E+02  0.16068996115E+02  0.00000000000E+00 0.  1.
         -2   -1    0    0    0  501 -0.00000000000E+00 -0.00000000000E+00 -0.39036874224E+02  0.39036874224E+02  0.00000000000E+00 0. -1.
         21    1    1    2  502  501 -0.22780491525E+02  0.10381485816E+02 -0.10662651102E+02  0.27210626057E+02  0.00000000000E+00 0. -1.
         21    1    1    2  503  502  0.22780491525E+02 -0.10381485816E+02 -0.12305227007E+02  0.27895244283E+02  0.00000000000E+00 0.  1.
</event>
<event>
 4    1  0.5696713E+002  0.2031994E+02  0.7546771E-02  0.1529200E+00
          2   -1    0    0  502    0  0.00000000000E+00  0.00000000000E+00  0.73388631310E+03  0.73388631310E+03  0.00000000000E+00 0. -1.
         -2   -1    0    0    0  501 -0.00000000000E+00 -0.00000000000E+00 -0.11857360558E+01  0.11857360558E+01  0.00000000000E+00 0.  1.
         21    1    1    2  502  503 -0.12621966706E+02 -0.15924379907E+02  0.63278450072E+03  0.63311067300E+03  0.00000000000E+00 0. -1.
         21    1    1    2  503  501  0.12621966706E+02  0.15924379907E+02  0.99916076327E+02  0.10196137616E+03  0.00000000000E+00 0.  1.
</event>
<event>
 4    1  0.5696713E+002  0.2041349E+02  0.7546771E-02  0.1527806E+00
          2   -1    0    0  502    0  0.00000000000E+00  0.00000000000E+00  0.56758592919E+02  0.56758592919E+02  0.00000000000E+00 0. -1.
         -2   -1    0    0    0  501 -0.00000000000E+00 -0.00000000000E+00 -0.77599760073E+01  0.77599760073E+01  0.00000000000E+00 0.  1.
         21    1    1    2  502  503 -0.46562725769E+01  0.19875359067E+02  0.17010733116E+02  0.26572087112E+02  0.00000000000E+00 0.  1.
         21    1    1    2  503  501  0.46562725769E+01 -0.19875359067E+02  0.31987883795E+02  0.37946481814E+02  0.00000000000E+00 0. -1.
</event>
<event>
 4    1  0.5696713E+002  0.2234648E+02  0.7546771E-02  0.1500872E+00
          2   -1    0    0  503    0  0.00000000000E+00  0.00000000000E+00  0.52801405482E+02  0.52801405482E+02  0.00000000000E+00 0.  1.
         -2   -1    0    0    0  501 -0.00000000000E+00 -0.00000000000E+00 -0.22608294270E+02  0.22608294270E+02  0.00000000000E+00 0. -1.
         21    1    1    2  502  501 -0.21131853680E+02 -0.72670402308E+01 -0.13660248298E+02  0.26190981219E+02  0.00000000000E+00 0. -1.
         21    1    1    2  503  502  0.21131853680E+02  0.72670402308E+01  0.43853359511E+02  0.49218718533E+02  0.00000000000E+00 0.  1.
</event>
<event>
 4    1  0.5696713E+002  0.2328749E+02  0.7546771E-02  0.1488919E+00
          2   -1    0    0  503    0  0.00000000000E+00  0.00000000000E+00  0.83717494655E+03  0.83717494655E+03  0.00000000000E+00 0.  1.
         -2   -1    0    0    0  501 -0.00000000000E+00 -0.00000000000E+00 -0.64780908337E+00  0.64780908337E+00  0.00000000000E+00 0. -1.
         21    1    1    2  502  501 -0.91151351461E+01  0.21429457619E+02  0.41558384155E+03  0.41623579459E+03  0.00000000000E+00 0. -1.
         21    1    1    2  503  502  0.91151351461E+01 -0.21429457619E+02  0.42094329592E+03  0.42158696104E+03  0.00000000000E+00 0.  1.
</event>
<event>
 4    1  0.5696713E+002  0.2191869E+02  0.7546771E-02  0.1506542E+00
          2   -1    0    0  503    0  0.00000000000E+00  0.00000000000E+00  0.67089291540E+03  0.67089291540E+03  0.00000000000E+00 0. -1.
         -2   -1    0    0    0  501 -0.00000000000E+00 -0.00000000000E+00 -0.12547846373E+02  0.12547846373E+02  0.00000000000E+00 0.  1.
         21    1    1    2  502  501 -0.13504100792E+02  0.17264654319E+02 -0.26536395401E+01  0.22078741580E+02  0.00000000000E+00 0.  1.
         21    1    1    2  503  502  0.13504100792E+02 -0.17264654319E+02  0.66099870856E+03  0.66136202019E+03  0.00000000000E+00 0. -1.
</event>
<event>
 4    1  0.5696713E+002  0.2176775E+02  0.7546771E-02  0.1508580E+00
          2   -1    0    0  502    0  0.00000000000E+00  0.00000000000E+00  0.50197134396E+03  0.50197134396E+03  0.00000000000E+00 0.  1.
         -2   -1    0    0    0  501 -0.00000000000E+00 -0.00000000000E+00 -0.17011620796E+01  0.17011620796E+01  0.00000000000E+00 0. -1.
         21    1    1    2  502  503 -0.12433271904E+02 -0.17867535318E+02  0.41815262856E+03  0.41871882671E+03  0.00000000000E+00 0.  1.
         21    1    1    2  503  501  0.12433271904E+02  0.17867535318E+02  0.82117553324E+02  0.84953679334E+02  0.00000000000E+00 0. -1.
</event>
<event>
 4    1  0.5696713E+002  0.2034424E+02  0.7546771E-02  0.1528837E+00
          2   -1    0    0  502    0  0.00000000000E+00  0.00000000000E+00  0.54802661348E+01  0.54802661348E+01  0.00000000000E+00 0. -1.
         -2   -1    0    0    0  501 -0.00000000000E+00 -0.00000000000E+00 -0.75581112938E+02  0.75581112938E+02  0.00000000000E+00 0.  1.
         21    1    1    2  502  503  0.54007348170E+01  0.19614284224E+02 -0.33929992745E+02  0.39561755394E+02  0.00000000000E+00 0. -1.
         21    1    1    2  503  501 -0.54007348170E+01 -0.19614284224E+02 -0.36170854059E+02  0.41499623679E+02  0.00000000000E+00 0.  1.
</event>
<event>
 4    1  0.5696713E+002  0.2137197E+02  0.7546771E-02  0.1514020E+00
          2   -1    0    0  503    0  0.00000000000E+00  0.00000000000E+00  0.50988044918E+02  0.50988044918E+02  0.00000000000E+00 0. -1.
         -2   -1    0    0    0  501 -0.00000000000E+00 -0.00000000000E+00 -0.53746462438E+02  0.53746462438E+02  0.00000000000E+00 0.  1.
         21    1    1    2  502  501 -0.96364196296E+01 -0.19076174493E+02 -0.49183509706E+02  0.53626286871E+02  0.00000000000E+00 0.  1.
         21    1    1    2  503  502  0.96364196296E+01  0.19076174493E+02  0.46425092187E+02  0.51108220485E+02  0.00000000000E+00 0. -1.
</event>
<event>
 4    1  0.5696713E+002  0.2278839E+02  0.7546771E-02  0.1495173E+00
          2   -1    0    0  502    0  0.00000000000E+00  0.00000000000E+00  0.17502488969E+02  0.17502488969E+02  0.00000000000E+00 0. -1.
         -2   -1    0    0    0  501 -0.00000000000E+00 -0.00000000000E+00 -0.13854375142E+03  0.13854375142E+03  0.00000000000E+00 0.  1.
         21    1    1    2  502  503 -0.10013663384E+02  0.20470396768E+02  0.86449605724E+01  0.24373057697E+02  0.00000000000E+00 0. -1.
         21    1    1    2  503  501  0.10013663384E+02 -0.20470396768E+02 -0.12968622302E+03  0.13167318269E+03  0.00000000000E+00 0.  1.
</event>
<event>
 4    1  0.5696713E+002  0.4976212E+02  0.7546771E-02  0.1299207E+00
          2   -1    0    0  502    0  0.00000000000E+00  0.00000000000E+00  0.29641266984E+04  0.29641266984E+04  0.00000000000E+00 0.  1.
         -2   -1    0    0    0  501 -0.00000000000E+00 -0.00000000000E+00 -0.11758484761E+01  0.11758484761E+01  0.00000000000E+00 0. -1.
         21    1    1    2  502  503  0.15001841048E+02  0.47446958060E+02  0.22792513690E+04  0.22797945241E+04  0.00000000000E+00 0.  1.
         21    1    1    2  503  501 -0.15001841048E+02 -0.47446958060E+02  0.68369948093E+03  0.68550802277E+03  0.00000000000E+00 0. -1.
</event>
<event>
 4    1  0.5696713E+002  0.3769262E+02  0.7546771E-02  0.1362564E+00
          2   -1    0    0  503    0  0.00000000000E+00  0.00000000000E+00  0.31630897866E+03  0.31630897866E+03  0.00000000000E+00 0. -1.
         -2   -1    0    0    0  501 -0.00000000000E+00 -0.00000000000E+00 -0.79519027645E+01  0.79519027645E+01  0.00000000000E+00 0.  1.
         21    1    1    2  502  501 -0.17197710492E+02 -0.33540611076E+02  0.47227255254E+02  0.60424725703E+02  0.00000000000E+00 0.  1.
         21    1    1    2  503  502  0.17197710492E+02  0.33540611076E+02  0.26112982064E+03  0.26383615572E+03  0.00000000000E+00 0. -1.
</event>
<event>
 4    1  0.5696713E+002  0.2048654E+02  0.7546771E-02  0.1526723E+00
          2   -1    0    0  503    0  0.00000000000E+00  0.00000000000E+00  0.72298144206E+03  0.72298144206E+03  0.00000000000E+00 0. -1.
         -2   -1    0    0    0  501 -0.00000000000E+00 -0.00000000000E+00 -0.10328608881E+01  0.10328608881E+01  0.00000000000E+00 0.  1.
         21    1    1    2  502  501 -0.82243454451E+01 -0.18763224196E+02  0.12140362644E+03  0.12312001849E+03  0.00000000000E+00 0.  1.
         21    1    1    2  503  502  0.82243454451E+01  0.18763224196E+02  0.60054495473E+03  0.60089428446E+03  0.00000000000E+00 0. -1.
</event>
<event>
 4    1  0.5696713E+002  0.2002135E+02  0.7546771E-02  0.1533710E+00
          2   -1    0    0  503    0  0.00000000000E+00  0.00000000000E+00  0.93797178655E+02  0.93797178655E+02  0.00000000000E+00 0. -1.
         -2   -1    0    0    0  501 -0.00000000000E+00 -0.00000000000E+00 -0.43230017760E+01  0.43230017760E+01  0.00000000000E+00 0.  1.
         21    1    1    2  502  501 -0.19954521665E+02 -0.16344349863E+01  0.39494076760E+02  0.44279074197E+02  0.00000000000E+00 0.  1.
         21    1    1    2  503  502  0.19954521665E+02  0.16344349863E+01  0.49980100119E+02  0.53841106234E+02  0.00000000000E+00 0. -1.
</event>
<event>
 4    1  0.5696713E+002  0.2277771E+02  0.7546771E-02  0.1495308E+00
          2   -1    0    0  502    0  0.00000000000E+00  0.00000000000E+00  0.84160537886E+03  0.84160537886E+03  0.00000000000E+00 0. -1.
         -2   -1    0    0    0  501 -0.00000000000E+00 -0.00000000000E+00 -0.84045437529E+00  0.84045437529E+00  0.00000000000E+00 0.  1.
         21    1    1    2  502  503  0.21605002064E+02 -0.72144339247E+01  0.20293010314E+03  0.20420443416E+03  0.00000000000E+00 0.  1.
         21    1    1    2  503  501 -0.21605002064E+02  0.72144339247E+01  0.63783482134E+03  0.63824139907E+03  0.00000000000E+00 0. -1.
</event>
<event>
 4    1  0.5696713E+002  0.4609593E+02  0.7546771E-02  0.1316049E+00
          2   -1    0    0  502    0  0.00000000000E+00  0.00000000000E+00  0.11289558827E+04  0.11289558827E+04  0.00000000000E+00 0.  1.
         -2   -1    0    0    0  501 -0.00000000000E+00 -0.00000000000E+00 -0.20439133605E+01  0.20439133605E+01  0.00000000000E+00 0. -1.
         21    1    1    2  502  503  0.13841348233E+02 -0.43968755356E+02  0.40435349548E+03  0.40697246058E+03  0.00000000000E+00 0. -1.
         21    1    1    2  503  501 -0.13841348233E+02  0.43968755356E+02  0.72255847387E+03  0.72402733548E+03  0.00000000000E+00 0.  1.
</event>
<event>
 4    1  0.5696713E+002  0.2652367E+02  0.7546771E-02  0.1452453E+00
          2   -1    0    0  502    0  0.00000000000E+00  0.00000000000E+00  0.11976703547E+04  0.11976703547E+04  0.00000000000E+00 0. -1.
         -2   -1    0    0    0  501 -0.00000000000E+00 -0.00000000000E+00 -0.12526526221E+01  0.12526526221E+01  0.00000000000E+00 0.  1.
         21    1    1    2  502  503  0.18971978999E+02 -0.18535613550E+02  0.10350676341E+04  0.10354074136E+04  0.00000000000E+00 0. -1.
         21    1    1    2  503  501 -0.18971978999E+02  0.18535613550E+02  0.16135006796E+03  0.16351559371E+03  0.00000000000E+00 0.  1.
</event>
<event>
 4    1  0.5696713E+002  0.2192534E+02  0.7546771E-02  0.1506452E+00
          2   -1    0    0  502    0  0.00000000000E+00  0.00000000000E+00  0.12320267213E+04  0.12320267213E+04  0.00000000000E+00 0.  1.
         -2   -1    0    0    0  501 -0.00000000000E+00 -0.00000000000E+00 -0.11396644691E+01  0.11396644691E+01  0.00000000000E+00 0. -1.
         21    1    1    2  502  503  0.21480762230E+02  0.43928749990E+01  0.11154579637E+04  0.11156734241E+04  0.00000000000E+00 0.  1.
         21    1    1    2  503  501 -0.21480762230E+02 -0.43928749990E+01  0.11542909306E+03  0.11749296158E+03  0.00000000000E+00 0. -1.
</event>
<event>
 4    1  0.5696713E+002  0.2148990E+02  0.7546771E-02  0.1512384E+00
          2   -1    0    0  503    0  0.00000000000E+00  0.00000000000E+00  0.19463706982E+03  0.19463706982E+03  0.00000000000E+00 0. -1.
         -2   -1    0    0    0  501 -0.00000000000E+00 -0.00000000000E+00 -0.39046301155E+01  0.39046301155E+01  0.00000000000E+00 0.  1.
         21    1    1    2  502  501 -0.11537641711E+01 -0.21458907720E+02  0.33186195013E+02  0.39536558167E+02  0.00000000000E+00 0.  1.
         21    1    1    2  503  502  0.11537641711E+01  0.21458907720E+02  0.15754624469E+03  0.15900514177E+03  0.00000000000E+00 0. -1.
</event>
<event>
 4    1  0.5696713E+002  0.2534649E+02  0.7546771E-02  0.1464964E+00
          2   -1    0    0  503    0  0.00000000000E+00  0.00000000000E+00  0.14137040062E+04  0.14137040062E+04  0.00000000000E+00 0.  1.
         -2   -1    0    0    0  501 -0.00000000000E+00 -0.00000000000E+00 -0.80676225190E+01  0.80676225190E+01  0.00000000000E+00 0. -1.
         21    1    1    2  502  501 -0.23736865949E+02 -0.88885210677E+01  0.12244284902E+02  0.28149016406E+02  0.00000000000E+00 0. -1.
         21    1    1    2  503  502  0.23736865949E+02  0.88885210677E+01  0.13933920988E+04  0.13936226123E+04  0.00000000000E+00 0.  1.
</event>
<event>
 4    1  0.5696713E+002  0.2683278E+02  0.7546771E-02  0.1449295E+00
          2   -1    0    0  502    0  0.00000000000E+00  0.00000000000E+00  0.47500553979E+03  0.47500553979E+03  0.00000000000E+00 0. -1.
         -2   -1    0    0    0  501 -0.00000000000E+00 -0.00000000000E+00 -0.15725148715E+01  0.15725148715E+01  0.00000000000E+00 0.  1.
         21    1    1    2  502  503 -0.25874036994E+02 -0.71086183702E+01  0.28198304573E+03  0.28325683809E+03  0.00000000000E+00 0. -1.
         21    1    1    2  503  501  0.25874036994E+02  0.71086183702E+01  0.19144997919E+03  0.19332121657E+03  0.00000000000E+00 0.  1.
</event>
<event>
 4    1  0.5696713E+002  0.2577301E+02  0.7546771E-02  0.1460339E+00
          2   -1    0    0  502    0  0.00000000000E+00  0.00000000000E+00  0.18994998418E+04  0.18994998418E+04  0.00000000000E+00 0. -1.
         -2   -1    0    0    0  501 -0.00000000000E+00 -0.00000000000E+00 -0.47546867076E+01  0.47546867076E+01  0.00000000000E+00 0.  1.
         21    1    1    2  502  503  0.36980216967E+01  0.25506329850E+02  0.18638178343E+04  0.18639960213E+04  0.00000000000E+00 0. -1.
         21    1    1    2  503  501 -0.36980216967E+01 -0.25506329850E+02  0.30927320863E+02  0.40258507209E+02  0.00000000000E+00 0.  1.
</event>
<event>
 4    1  0.5696713E+002  0.4540817E+02  0.7546771E-02  0.1319411E+00
          2   -1    0    0  503    0  0.00000000000E+00  0.00000000000E+00  0.12663978555E+04  0.12663978555E+04  0.00000000000E+00 0.  1.
         -2   -1    0    0    0  501 -0.00000000000E+00 -0.00000000000E+00 -0.20637214152E+01  0.20637214152E+01  0.00000000000E+00 0. -1.
         21    1    1    2  502  501 -0.31349999016E+02  0.32849342421E+02  0.34079685789E+03  0.34380866784E+03  0.00000000000E+00 0. -1.
         21    1    1    2  503  502  0.31349999016E+02 -0.32849342421E+02  0.92353727618E+03  0.92465290906E+03  0.00000000000E+00 0.  1.
</event>
<event>
 4    1  0.5696713E+002  0.2442235E+02  0.7546771E-02  0.1475370E+00
          2   -1    0    0  503    0  0.00000000000E+00  0.00000000000E+00  0.63553643755E+03  0.63553643755E+03  0.00000000000E+00 0. -1.
         -2   -1    0    0    0  501 -0.00000000000E+00 -0.00000000000E+00 -0.17526691195E+01  0.17526691195E+01  0.00000000000E+00 0.  1.
         21    1    1    2  502  501  0.26199811469E+01  0.24281405273E+02  0.99714875823E+02  0.10266210305E+03  0.00000000000E+00 0.  1.
         21    1    1    2  503  502 -0.26199811469E+01 -0.24281405273E+02  0.53406889260E+03  0.53462700361E+03  0.00000000000E+00 0. -1.
</event>
<event>
 4    1  0.5696713E+002  0.3711642E+02  0.7546771E-02  0.1366266E+00
          2   -1    0    0  503    0  0.00000000000E+00  0.00000000000E+00  0.82208048097E+03  0.82208048097E+03  0.00000000000E+00 0.  1.
         -2   -1    0    0    0  501 -0.00000000000E+00 -0.00000000000E+00 -0.39728703954E+01  0.39728703954E+01  0.00000000000E+00 0. -1.
         21    1    1    2  502  501  0.16909864432E+01 -0.37077880409E+02  0.94992345864E+02  0.10198614819E+03  0.00000000000E+00 0. -1.
         21    1    1    2  503  502 -0.16909864432E+01  0.37077880409E+02  0.72311526471E+03  0.72406720317E+03  0.00000000000E+00 0.  1.
</event>
<event>
 4    1  0.5696713E+002  0.2610289E+02  0.7546771E-02  0.1456834E+00
          2   -1    0    0  503    0  0.00000000000E+00  0.00000000000E+00  0.21055194163E+03  0.21055194163E+03  0.00000000000E+00 0.  1.
         -2   -1    0    0    0  501 -0.00000000000E+00 -0.00000000000E+00 -0.92852995359E+01  0.92852995359E+01  0.00000000000E+00 0. -1.
         21    1    1    2  502  501  0.79870665422E+01 -0.24850907300E+02  0.11912951565E+02  0.28692843020E+02  0.00000000000E+00 0. -1.
         21    1    1    2  503  502 -0.79870665422E+01  0.24850907300E+02  0.18935369053E+03  0.19114439815E+03  0.00000000000E+00 0.  1.
</event>
<event>
 4    1  0.5696713E+002  0.2132025E+02  0.7546771E-02  0.1514741E+00
          2   -1    0    0  502    0  0.00000000000E+00  0.00000000000E+00  0.79655548006E+03  0.79655548006E+03  0.00000000000E+00 0. -1.
         -2   -1    0    0    0  501 -0.00000000000E+00 -0.00000000000E+00 -0.57363911050E+00  0.57363911050E+00  0.00000000000E+00 0.  1.
         21    1    1    2  502  503  0.11936321973E+02 -0.17665704983E+02  0.36921135036E+03  0.36982641083E+03  0.00000000000E+00 0.  1.
         21    1    1    2  503  501 -0.11936321973E+02  0.17665704983E+02  0.42677049059E+03  0.42730270834E+03  0.00000000000E+00 0. -1.
</event>
<event>
 4    1  0.5696713E+002  0.2009735E+02  0.7546771E-02  0.1532553E+00
          2   -1    0    0  503    0  0.00000000000E+00  0.00000000000E+00  0.13642244957E+04  0.13642244957E+04  0.00000000000E+00 0. -1.
         -2   -1    0    0    0  501 -0.00000000000E+00 -0.00000000000E+00 -0.15379707411E+01  0.15379707411E+01  0.00000000000E+00 0.  1.
         21    1    1    2  502  501 -0.95569392126E+01 -0.17679607981E+02  0.67701538162E+02  0.70621539880E+02  0.00000000000E+00 0.  1.
         21    1    1    2  503  502  0.95569392126E+01  0.17679607981E+02  0.12949849868E+04  0.12951409265E+04  0.00000000000E+00 0. -1.
</event>
<event>
 4    1  0.5696713E+002  0.2191945E+02  0.7546771E-02  0.1506531E+00
          2   -1    0    0  502    0  0.00000000000E+00  0.00000000000E+00  0.24961941443E+03  0.24961941443E+03  0.00000000000E+00 0.  1.
         -2   -1    0    0    0  501 -0.00000000000E+00 -0.00000000000E+00 -0.64702403502E+01  0.64702403502E+01  0.00000000000E+00 0. -1.
         21    1    1    2  502  503 -0.11065513763E+02 -0.18921328987E+02  0.22889709225E+03  0.22994421307E+03  0.00000000000E+00 0.  1.
         21    1    1    2  503  501  0.11065513763E+02  0.18921328987E+02  0.14252081826E+02  0.26145441703E+02  0.00000000000E+00 0. -1.
</event>
<event>
 4    1  0.5696713E+002  0.2212708E+02  0.7546771E-02  0.1503760E+00
          2   -1    0    0  503    0  0.00000000000E+00  0.00000000000E+00  0.13059406858E+02  0.13059406858E+02  0.00000000000E+00 0. -1.
         -2   -1    0    0    0  501 -0.00000000000E+00 -0.00000000000E+00 -0.99923173805E+02  0.99923173805E+02  0.00000000000E+00 0.  1.
         21    1    1    2  502  501 -0.22122949280E+02 -0.42733014742E+00 -0.88085160786E+02  0.90821820323E+02  0.00000000000E+00 0.  1.
         21    1    1    2  503  502  0.22122949280E+02  0.42733014742E+00  0.12213938396E+01  0.22160760340E+02  0.00000000000E+00 0. -1.
</event>
<event>
 4    1  0.5696713E+002  0.2873897E+02  0.7546771E-02  0.1430881E+00
          2   -1    0    0  502    0  0.00000000000E+00  0.00000000000E+00  0.22556340971E+02  0.22556340971E+02  0.00000000000E+00 0. -1.
         -2   -1    0    0    0  501 -0.00000000000E+00 -0.00000000000E+00 -0.50191300760E+02  0.50191300760E+02  0.00000000000E+00 0.  1.
         21    1    1    2  502  503  0.23330282377E+02 -0.16781723576E+02  0.50992316151E+01  0.29187848242E+02  0.00000000000E+00 0. -1.
         21    1    1    2  503  501 -0.23330282377E+02  0.16781723576E+02 -0.32734191404E+02  0.43559793489E+02  0.00000000000E+00 0.  1.
</event>
<event>
 4    1  0.5696713E+002  0.2802561E+02  0.7546771E-02  0.1437569E+00
          2   -1    0    0  503    0  0.00000000000E+00  0.00000000000E+00  0.16167591821E+03  0.16167591821E+03  0.00000000000E+00 0. -1.
         -2   -1    0    0    0  501 -0.00000000000E+00 -0.00000000000E+00 -0.48864112977E+01  0.48864112977E+01  0.00000000000E+00 0.  1.
         21    1    1    2  502  501  0.66298152735E+01  0.27230137203E+02  0.72053547802E+02  0.77312020886E+02  0.00000000000E+00 0.  1.
         21    1    1    2  503  502 -0.66298152735E+01 -0.27230137203E+02  0.84735959105E+02  0.89250308616E+02  0.00000000000E+00 0. -1.
</event>
<event>
 4    1  0.5696713E+002  0.2500782E+02  0.7546771E-02  0.1468716E+00
          2   -1    0    0  503    0  0.00000000000E+00  0.00000000000E+00  0.11257473708E+04  0.11257473708E+04  0.00000000000E+00 0. -1.
         -2   -1    0    0    0  501 -0.00000000000E+00 -0.00000000000E+00 -0.18618472993E+01  0.18618472993E+01  0.00000000000E+00 0.  1.
         21    1    1    2  502  501  0.23120967186E+02  0.95295287790E+01  0.89683752877E+02  0.93105137197E+02  0.00000000000E+00 0.  1.
         21    1    1    2  503  502 -0.23120967186E+02 -0.95295287790E+01  0.10342017707E+04  0.10345040809E+04  0.00000000000E+00 0. -1.
</event>
<event>
 4    1  0.5696713E+002  0.4206284E+02  0.7546771E-02  0.1336804E+00
          2   -1    0    0  502    0  0.00000000000E+00  0.00000000000E+00  0.58038504636E+02  0.58038504636E+02  0.00000000000E+00 0.  1.
         -2   -1    0    0    0  501 -0.00000000000E+00 -0.00000000000E+00 -0.31200598352E+02  0.31200598352E+02  0.00000000000E+00 0. -1.
         21    1    1    2  502  503  0.10117638499E+01  0.42050669185E+02  0.20178072275E+02  0.46652299468E+02  0.00000000000E+00 0. -1.
         21    1    1    2  503  501 -0.10117638499E+01 -0.42050669185E+02  0.66598340095E+01  0.42586803519E+02  0.00000000000E+00 0.  1.
</event>
<event>
 4    1  0.5696713E+002  0.2073904E+02  0.7546771E-02  0.1523023E+00
          2   -1    0    0  503    0  0.00000000000E+00  0.00000000000E+00  0.12014571010E+02  0.12014571010E+02  0.00000000000E+00 0.  1.
         -2   -1    0    0    0  501 -0.00000000000E+00 -0.00000000000E+00 -0.40609680352E+02  0.40609680352E+02  0.00000000000E+00 0. -1.
         21    1    1    2  502  501  0.14575399216E+00 -0.20738530302E+02 -0.23353857849E+02  0.31233164421E+02  0.00000000000E+00 0. -1.
         21    1    1    2  503  502 -0.14575399216E+00  0.20738530302E+02 -0.52412514926E+01  0.21391086941E+02  0.00000000000E+00 0.  1.
</event>
<event>
 4    1  0.5696713E+002  0.2065743E+02  0.7546771E-02  0.1524213E+00
          2   -1    0    0  503    0  0.00000000000E+00  0.00000000000E+00  0.37111361855E+02  0.37111361855E+02  0.00000000000E+00 0.  1.
         -2   -1    0    0    0  501 -0.00000000000E+00 -0.00000000000E+00 -0.24156432524E+02  0.24156432524E+02  0.00000000000E+00 0. -1.
         21    1    1    2  502  501  0.20375881999E+02  0.33989271543E+01 -0.15697618750E+02  0.25945028569E+02  0.00000000000E+00 0. -1.
         21    1    1    2  503  502 -0.20375881999E+02 -0.33989271543E+01  0.28652548080E+02  0.35322765810E+02  0.00000000000E+00 0.  1.
</event>
<event>
 4    1  0.5696713E+002  0.2421513E+02  0.7546771E-02  0.1477779E+00
          2   -1    0    0  502    0  0.00000000000E+00  0.00000000000E+00  0.11389251355E+02  0.11389251355E+02  0.00000000000E+00 0. -1.
         -2   -1    0    0    0  501 -0.00000000000E+00 -0.00000000000E+00 -0.11767475956E+03  0.11767475956E+03  0.00000000000E+00 0.  1.
         21    1    1    2  502  503  0.22906032567E+02 -0.78540530964E+01 -0.47444878035E+01  0.24675547461E+02  0.00000000000E+00 0. -1.
         21    1    1    2  503  501 -0.22906032567E+02  0.78540530964E+01 -0.10154102040E+03  0.10438846345E+03  0.00000000000E+00 0.  1.
</event>
<event>
 4    1  0.5696713E+002  0.2825058E+02  0.7546771E-02  0.1435435E+00
          2   -1    0    0  502    0  0.00000000000E+00  0.00000000000E+00  0.16510018431E+02  0.16510018431E+02  0.00000000000E+00 0. -1.
         -2   -1    0    0    0  501 -0.00000000000E+00 -0.00000000000E+00 -0.13951724798E+03  0.13951724798E+03  0.00000000000E+00 0.  1.
         21    1    1    2  502  503  0.28241537392E+02  0.71485426550E+00  0.15630153998E+01  0.28293788506E+02  0.00000000000E+00 0. -1.
         21    1    1    2  503  501 -0.28241537392E+02 -0.71485426550E+00 -0.12457024495E+03  0.12773347790E+03  0.00000000000E+00 0.  1.
</event>
<event>
 4    1  0.5696713E+002  0.2279570E+02  0.7546771E-02  0.1495080E+00
          2   -1    0    0  503    0  0.00000000000E+00  0.00000000000E+00  0.37290812844E+01  0.37290812844E+01  0.00000000000E+00 0. -1.
         -2   -1    0    0    0  501 -0.00000000000E+00 -0.00000000000E+00 -0.19649566792E+03  0.19649566792E+03  0.00000000000E+00 0.  1.
         21    1    1    2  502  501 -0.22332438631E+02  0.45723301905E+01 -0.15037243874E+03  0.15209048081E+03  0.00000000000E+00 0. -1.
         21    1    1    2  503  502  0.22332438631E+02 -0.45723301905E+01 -0.42394147892E+02  0.48134268397E+02  0.00000000000E+00 0.  1.
</event>
<event>
 4    1  0.5696713E+002  0.2321851E+02  0.7546771E-02  0.1489772E+00
          2   -1    0    0  503    0  0.00000000000E+00  0.00000000000E+00  0.52894856419E+03  0.52894856419E+03  0.00000000000E+00 0. -1.
         -2   -1    0    0    0  501 -0.00000000000E+00 -0.00000000000E+00 -0.23179900140E+01  0.23179900140E+01  0.00000000000E+00 0.  1.
         21    1    1    2  502  501  0.17335706696E+02 -0.15445796447E+02  0.64478032697E+02  0.68531132013E+02  0.00000000000E+00 0.  1.
         21    1    1    2  503  502 -0.17335706696E+02  0.15445796447E+02  0.46215254148E+03  0.46273542219E+03  0.00000000000E+00 0. -1.
</event>
<event>
 4    1  0.5696713E+002  0.2150481E+02  0.7546771E-02  0.1512178E+00
          2   -1    0    0  502    0  0.00000000000E+00  0.00000000000E+00  0.58344990838E+02  0.58344990838E+02  0.00000000000E+00 0. -1.
         -2   -1    0    0    0  501 -0.00000000000E+00 -0.00000000000E+00 -0.16548374175E+02  0.16548374175E+02  0.00000000000E+00 0.  1.
         21    1    1    2  502  503 -0.99949195612E+01  0.19040963916E+02  0.47928114488E+02  0.52531522749E+02  0.00000000000E+00 0. -1.
         21    1    1    2  503  501  0.99949195612E+01 -0.19040963916E+02 -0.61314978247E+01  0.22361842265E+02  0.00000000000E+00 0.  1.
</event>
<event>
 4    1  0.5696713E+002  0.2436314E+02  0.7546771E-02  0.1476056E+00
          2   -1    0    0  503    0  0.00000000000E+00  0.00000000000E+00  0.85055325513E+02  0.85055325513E+02  0.00000000000E+00 0. -1.
         -2   -1    0    0    0  501 -0.00000000000E+00 -0.00000000000E+00 -0.12278044808E+02  0.12278044808E+02  0.00000000000E+00 0.  1.
         21    1    1    2  502  501  0.14333242066E+01 -0.24320937480E+02  0.44155511944E+01  0.24760038581E+02  0.00000000000E+00 0.  1.
         21    1    1    2  503  502 -0.14333242066E+01  0.24320937480E+02  0.68361729510E+02  0.72573331740E+02  0.00000000000E+00 0. -1.
</event>
<event>
 4    1  0.5696713E+002  0.2510775E+02  0.7546771E-02  0.1467602E+00
          2   -1    0    0  503    0  0.00000000000E+00  0.00000000000E+00  0.55365772825E+02  0.55365772825E+02  0.00000000000E+00 0.  1.
         -2   -1    0    0    0  501 -0.00000000000E+00 -0.00000000000E+00 -0.12169873004E+02  0.12169873004E+02  0.00000000000E+00 0. -1.
         21    1    1    2  502  501  0.13154429477E+02 -0.21385982783E+02  0.13028361768E+02  0.28286701554E+02  0.00000000000E+00 0. -1.
         21    1    1    2  503  502 -0.13154429477E+02  0.21385982783E+02  0.30167538053E+02  0.39248944274E+02  0.00000000000E+00 0.  1.
</event>
<event>
 4    1  0.5696713E+002  0.3467214E+02  0.7546771E-02  0.1382883E+00
          2   -1    0    0  502    0  0.00000000000E+00  0.00000000000E+00  0.19417375046E+01  0.19417375046E+01  0.00000000000E+00 0. -1.
         -2   -1    0    0    0  501 -0.00000000000E+00 -0.00000000000E+00 -0.68290182770E+03  0.68290182770E+03  0.00000000000E+00 0.  1.
         21    1    1    2  502  503 -0.28697735353E+01 -0.34553174364E+02 -0.23582742010E+03  0.23836260095E+03  0.00000000000E+00 0. -1.
         21    1    1    2  503  501  0.28697735353E+01  0.34553174364E+02 -0.44513267010E+03  0.44648096426E+03  0.00000000000E+00 0.  1.
</event>
<event>
 4    1  0.5696713E+002  0.6540735E+02  0.7546771E-02  0.1242490E+00
          2   -1    0    0  502    0  0.00000000000E+00  0.00000000000E+00  0.32460973063E+02  0.32460973063E+02  0.00000000000E+00 0.  1.
         -2   -1    0    0    0  501 -0.00000000000E+00 -0.00000000000E+00 -0.13236661884E+03  0.13236661884E+03  0.00000000000E+00 0. -1.
         21    1    1    2  502  503 -0.58372375132E+02 -0.29509099258E+02 -0.55379257242E+02  0.85702877724E+02  0.00000000000E+00 0. -1.
         21    1    1    2  503  501  0.58372375132E+02  0.29509099258E+02 -0.44526388534E+02  0.79124714176E+02  0.00000000000E+00 0.  1.
</event>
<event>
 4    1  0.5696713E+002  0.2336550E+02  0.7546771E-02  0.1487959E+00
          2   -1    0    0  503    0  0.00000000000E+00  0.00000000000E+00  0.26026361125E+02  0.26026361125E+02  0.00000000000E+00 0. -1.
         -2   -1    0    0    0  501 -0.00000000000E+00 -0.00000000000E+00 -0.53516469310E+02  0.53516469310E+02  0.00000000000E+00 0.  1.
         21    1    1    2  502  501  0.22219348521E+02 -0.72282281433E+01 -0.44757403301E+02  0.50489324426E+02  0.00000000000E+00 0.  1.
         21    1    1    2  503  502 -0.22219348521E+02  0.72282281433E+01  0.17267295115E+02  0.29053506009E+02  0.00000000000E+00 0. -1.
</event>
<event>
 4    1  0.5696713E+002  0.2132328E+02  0.7546771E-02  0.1514699E+00
          2   -1    0    0  502    0  0.00000000000E+00  0.00000000000E+00  0.86738849350E+02  0.86738849350E+02  0.00000000000E+00 0. -1.
         -2   -1    0    0    0  501 -0.00000000000E+00 -0.00000000000E+00 -0.70054631396E+01  0.70054631396E+01  0.00000000000E+00 0.  1.
         21    1    1    2  502  503  0.14361270563E+02 -0.15761861978E+02  0.63383777640E+02  0.66874402076E+02  0.00000000000E+00 0.  1.
         21    1    1    2  503  501 -0.14361270563E+02  0.15761861978E+02  0.16349608571E+02  0.26869910413E+02  0.00000000000E+00 0. -1.
</event>
<event>
 4    1  0.5696713E+002  0.2453890E+02  0.7546771E-02  0.1474028E+00
          2   -1    0    0  502    0  0.00000000000E+00  0.00000000000E+00  0.59088791894E+03  0.59088791894E+03  0.00000000000E+00 0.  1.
         -2   -1    0    0    0  501 -0.00000000000E+00 -0.00000000000E+00 -0.13172423277E+01  0.13172423277E+01  0.00000000000E+00 0. -1.
         21    1    1    2  502  503  0.15741743868E+02  0.18824322500E+02  0.15390797505E+03  0.15585192460E+03  0.00000000000E+00 0. -1.
         21    1    1    2  503  501 -0.15741743868E+02 -0.18824322500E+02  0.43566270156E+03  0.43635323667E+03  0.00000000000E+00 0.  1.
</event>
<event>
 4    1  0.5696713E+002  0.2022126E+02  0.7546771E-02  0.1530680E+00
          2   -1    0    0  502    0  0.00000000000E+00  0.00000000000E+00  0.14541013895E+01  0.14541013895E+01  0.00000000000E+00 0. -1.
         -2   -1    0    0    0  501 -0.00000000000E+00 -0.00000000000E+00 -0.33482431752E+03  0.33482431752E+03  0.00000000000E+00 0.  1.
         21    1    1    2  502  503 -0.18314032580E+02 -0.85729530711E+01 -0.99399113518E+02  0.10143511760E+03  0.00000000000E+00 0. -1.
         21    1    1    2  503  501  0.18314032580E+02  0.85729530711E+01 -0.23397110261E+03  0.23484330131E+03  0.00000000000E+00 0.  1.
</event>
<event>
 4    1  0.5696713E+002  0.4875837E+02  0.7546771E-02  0.1303647E+00
          2   -1    0    0  503    0  0.00000000000E+00  0.00000000000E+00  0.16994560159E+03  0.16994560159E+03  0.00000000000E+00 0.  1.
         -2   -1    0    0    0  501 -0.00000000000E+00 -0.00000000000E+00 -0.14223585864E+02  0.14223585864E+02  0.00000000000E+00 0. -1.
         21    1    1    2  502  501 -0.34639481719E+02 -0.34314501257E+02  0.66036565458E+02  0.82086580315E+02  0.00000000000E+00 0. -1.
         21    1    1    2  503  502  0.34639481719E+02  0.34314501257E+02  0.89685450268E+02  0.10208260714E+03  0.00000000000E+00 0.  1.
</event>
<event>
 4    1  0.5696713E+002  0.3446972E+02  0.7546771E-02  0.1384330E+00
          2   -1    0    0  502    0  0.00000000000E+00  0.00000000000E+00  0.21151934011E+04  0.21151934011E+04  0.00000000000E+00 0. -1.
         -2   -1    0    0    0  501 -0.00000000000E+00 -0.00000000000E+00 -0.10433331214E+01  0.10433331214E+01  0.00000000000E+00 0.  1.
         21    1    1    2  502  503  0.27753804851E+02  0.20442310536E+02  0.17759753066E+04  0.17763097847E+04  0.00000000000E+00 0. -1.
         21    1    1    2  503  501 -0.27753804851E+02 -0.20442310536E+02  0.33817476134E+03  0.33992694944E+03  0.00000000000E+00 0.  1.
</event>
<event>
 4    1  0.5696713E+002  0.2128494E+02  0.7546771E-02  0.1515235E+00
          2   -1    0    0  503    0  0.00000000000E+00  0.00000000000E+00  0.96273773401E+01  0.96273773401E+01  0.00000000000E+00 0. -1.
         -2   -1    0    0    0  501 -0.00000000000E+00 -0.00000000000E+00 -0.47865832059E+02  0.47865832059E+02  0.00000000000E+00 0.  1.
         21    1    1    2  502  501 -0.19544305659E+02  0.84302248840E+01 -0.22852914098E+02  0.31229861640E+02  0.00000000000E+00 0. -1.
         21    1    1    2  503  502  0.19544305659E+02 -0.84302248840E+01 -0.15385540621E+02  0.26263347759E+02  0.00000000000E+00 0.  1.
</event>
<event>
 4    1  0.5696713E+002  0.2000539E+02  0.7546771E-02  0.1533953E+00
          2   -1    0    0  503    0  0.00000000000E+00  0.00000000000E+00  0.12466167812E+04  0.12466167812E+04  0.00000000000E+00 0. -1.
         -2   -1    0    0    0  501 -0.00000000000E+00 -0.00000000000E+00 -0.10236783743E+01  0.10236783743E+01  0.00000000000E+00 0.  1.
         21    1    1    2  502  501 -0.40903387622E-01 -0.20005352196E+02  0.10597199333E+03  0.10784377200E+03  0.00000000000E+00 0.  1.
         21    1    1    2  503  502  0.40903387622E-01  0.20005352196E+02  0.11396211095E+04  0.11397966876E+04  0.00000000000E+00 0. -1.
</event>
<event>
 4    1  0.5696713E+002  0.4650825E+02  0.7546771E-02  0.1314065E+00
          2   -1    0    0  502    0  0.00000000000E+00  0.00000000000E+00  0.60654431849E+03  0.60654431849E+03  0.00000000000E+00 0. -1.
         -2   -1    0    0    0  501 -0.00000000000E+00 -0.00000000000E+00 -0.68185250701E+01  0.68185250701E+01  0.00000000000E+00 0.  1.
         21    1    1    2  502  503  0.32349887645E+01  0.46395605524E+02  0.51167156613E+03  0.51378089586E+03  0.00000000000E+00 0. -1.
         21    1    1    2  503  501 -0.32349887645E+01 -0.46395605524E+02  0.88054227292E+02  0.99581947702E+02  0.00000000000E+00 0.  1.
</event>
<event>
 4    1  0.5696713E+002  0.2780521E+02  0.7546771E-02  0.1439683E+00
          2   -1    0    0  502    0  0.00000000000E+00  0.00000000000E+00  0.23324882132E+01  0.23324882132E+01  0.00000000000E+00 0.  1.
         -2   -1    0    0    0  501 -0.00000000000E+00 -0.00000000000E+00 -0.47022830368E+03  0.47022830368E+03  0.00000000000E+00 0. -1.
         21    1    1    2  502  503  0.27212830241E+02 -0.57088913895E+01 -0.10559183655E+03  0.10919141686E+03  0.00000000000E+00 0.  1.
         21    1    1    2  503  501 -0.27212830241E+02  0.57088913895E+01 -0.36230397892E+03  0.36336937503E+03  0.00000000000E+00 0. -1.
</event>
<event>
 4    1  0.5696713E+002  0.3009827E+02  0.7546771E-02  0.1418744E+00
          2   -1    0    0  502    0  0.00000000000E+00  0.00000000000E+00  0.56702447634E+03  0.56702447634E+03  0.00000000000E+00 0.  1.
         -2   -1    0    0    0  501 -0.00000000000E+00 -0.00000000000E+00 -0.45474729386E+01  0.45474729386E+01  0.00000000000E+00 0. -1.
         21    1    1    2  502  503  0.46611540558E+01 -0.29735158475E+02  0.51141125253E+03  0.51229617919E+03  0.00000000000E+00 0.  1.
         21    1    1    2  503  501 -0.46611540558E+01  0.29735158475E+02  0.51065750879E+02  0.59275770088E+02  0.00000000000E+00 0. -1.
</event>
<event>
 4    1  0.5696713E+002  0.2127668E+02  0.7546771E-02  0.1515351E+00
          2   -1    0    0  502    0  0.00000000000E+00  0.00000000000E+00  0.50443031623E+03  0.50443031623E+03  0.00000000000E+00 0.  1.
         -2   -1    0    0    0  501 -0.00000000000E+00 -0.00000000000E+00 -0.14640106884E+01  0.14640106884E+01  0.00000000000E+00 0. -1.
         21    1    1    2  502  503  0.21235879058E+02  0.13170675834E+01  0.40883931900E+03  0.40939258174E+03  0.00000000000E+00 0.  1.
         21    1    1    2  503  501 -0.21235879058E+02 -0.13170675834E+01  0.94126986547E+02  0.96501745180E+02  0.00000000000E+00 0. -1.
</event>
<event>
 4    1  0.5696713E+002  0.2508390E+02  0.7546771E-02  0.1467867E+00
          2   -1    0    0  503    0  0.00000000000E+00  0.00000000000E+00  0.52987309889E+03  0.52987309889E+03  0.00000000000E+00 0. -1.
         -2   -1    0    0    0  501 -0.00000000000E+00 -0.00000000000E+00 -0.15579679468E+01  0.15579679468E+01  0.00000000000E+00 0.  1.
         21    1    1    2  502  501  0.25072568072E+02  0.75389871311E+00  0.39373746511E+03  0.39453566818E+03  0.00000000000E+00 0. -1.
         21    1    1    2  503  502 -0.25072568072E+02 -0.75389871311E+00  0.13457766584E+03  0.13689539866E+03  0.00000000000E+00 0.  1.
</event>
<event>
 4    1  0.5696713E+002  0.2464639E+02  0.7546771E-02  0.1472798E+00
          2   -1    0    0  502    0  0.00000000000E+00  0.00000000000E+00  0.16611571478E+03  0.16611571478E+03  0.00000000000E+00 0.  1.
         -2   -1    0    0    0  501 -0.00000000000E+00 -0.00000000000E+00 -0.15086952606E+02  0.15086952606E+02  0.00000000000E+00 0. -1.
         21    1    1    2  502  503  0.13993981679E+02  0.20288243515E+02  0.15437509621E+03  0.15633014641E+03  0.00000000000E+00 0.  1.
         21    1    1    2  503  501 -0.13993981679E+02 -0.20288243515E+02 -0.33463340322E+01  0.24872520974E+02  0.00000000000E+00 0. -1.
</event>
<event>
 4    1  0.5696713E+002  0.3002967E+02  0.7546771E-02  0.1419339E+00
          2   -1    0    0  502    0  0.00000000000E+00  0.00000000000E+00  0.26046226890E+03  0.26046226890E+03  0.00000000000E+00 0. -1.
         -2   -1    0    0    0  501 -0.00000000000E+00 -0.00000000000E+00 -0.53959187347E+01  0.53959187347E+01  0.00000000000E+00 0.  1.
         21    1    1    2  502  503  0.28952355240E+02  0.79713297027E+01  0.20710884988E+03  0.20927459633E+03  0.00000000000E+00 0. -1.
         21    1    1    2  503  501 -0.28952355240E+02 -0.79713297027E+01  0.47957500286E+02  0.56583591303E+02  0.00000000000E+00 0.  1.
</event>
<event>
 4    1  0.5696713E+002  0.2273817E+02  0.7546771E-02  0.1495812E+00
          2   -1    0    0  503    0  0.00000000000E+00  0.00000000000E+00  0.89174654987E+03  0.89174654987E+03  0.00000000000E+00 0.  1.
         -2   -1    0    0    0  501 -0.00000000000E+00 -0.00000000000E+00 -0.14154520469E+01  0.14154520469E+01  0.00000000000E+00 0. -1.
         21    1    1    2  502  501 -0.18380349083E+02  0.13386082546E+02  0.10202789422E+03  0.10453093149E+03  0.00000000000E+00 0. -1.
         21    1    1    2  503  502  0.18380349083E+02 -0.13386082546E+02  0.78830320360E+03  0.78863107043E+03  0.00000000000E+00 0.  1.
</event>
<event>
 4    1  0.5696713E+002  0.5809330E+02  0.7546771E-02  0.1266452E+00
          2   -1    0    0  503    0  0.00000000000E+00  0.00000000000E+00  0.59031760270E+02  0.59031760270E+02  0.00000000000E+00 0. -1.
         -2   -1    0    0    0  501 -0.00000000000E+00 -0.00000000000E+00 -0.72422566503E+02  0.72422566503E+02  0.00000000000E+00 0.  1.
         21    1    1    2  502  501 -0.16784509600E+02 -0.55615751136E+02 -0.36858978721E+02  0.68799824486E+02  0.00000000000E+00 0.  1.
         21    1    1    2  503  502  0.16784509600E+02  0.55615751136E+02  0.23468172489E+02  0.62654502287E+02  0.00000000000E+00 0. -1.
</event>
<event>
 4    1  0.5696713E+002  0.2679472E+02  0.7546771E-02  0.1449681E+00
          2   -1    0    0  503    0  0.00000000000E+00  0.00000000000E+00  0.20439944313E+02  0.20439944313E+02  0.00000000000E+00 0.  1.
         -2   -1    0    0    0  501 -0.00000000000E+00 -0.00000000000E+00 -0.65847739416E+02  0.65847739416E+02  0.00000000000E+00 0. -1.
         21    1    1    2  502  501 -0.15171141435E+02  0.22086049522E+02 -0.52173680761E+02  0.58651940122E+02  0.00000000000E+00 0.  1.
         21    1    1    2  503  502  0.15171141435E+02 -0.22086049522E+02  0.67658856589E+01  0.27635743607E+02  0.00000000000E+00 0. -1.
</event>
<event>
 4    1  0.5696713E+002  0.2776848E+02  0.7546771E-02  0.1440038E+00
          2   -1    0    0  503    0  0.00000000000E+00  0.00000000000E+00  0.12747799821E+04  0.12747799821E+04  0.00000000000E+00 0. -1.
         -2   -1    0    0    0  501 -0.00000000000E+00 -0.00000000000E+00 -0.61427584497E+00  0.61427584497E+00  0.00000000000E+00 0.  1.
         21    1    1    2  502  501  0.27204713570E+02  0.55670555130E+01  0.55821367100E+03  0.55890391933E+03  0.00000000000E+00 0.  1.
         21    1    1    2  503  502 -0.27204713570E+02 -0.55670555130E+01  0.71595203529E+03  0.71649033865E+03  0.00000000000E+00 0. -1.
</event>
<event>
 4    1  0.5696713E+002  0.3395051E+02  0.7546771E-02  0.1388095E+00
          2   -1    0    0  503    0  0.00000000000E+00  0.00000000000E+00  0.59168918743E+03  0.59168918743E+03  0.00000000000E+00 0.  1.
         -2   -1    0    0    0  501 -0.00000000000E+00 -0.00000000000E+00 -0.19508359222E+01  0.19508359222E+01  0.00000000000E+00 0. -1.
         21    1    1    2  502  501 -0.10904618989E+02  0.32151614974E+02  0.30609634156E+03  0.30797338745E+03  0.00000000000E+00 0. -1.
         21    1    1    2  503  502  0.10904618989E+02 -0.32151614974E+02  0.28364200995E+03  0.28566663590E+03  0.00000000000E+00 0.  1.
</event>
<event>
 4    1  0.5696713E+002  0.2525598E+02  0.7546771E-02  0.1465960E+00
          2   -1    0    0  502    0  0.00000000000E+00  0.00000000000E+00  0.19896692426E+02  0.19896692426E+02  0.00000000000E+00 0.  1.
         -2   -1    0    0    0  501 -0.00000000000E+00 -0.00000000000E+00 -0.17820678799E+03  0.17820678799E+03  0.00000000000E+00 0. -1.
         21    1    1    2  502  503  0.24632772823E+02  0.55759472078E+01  0.10545762102E+02  0.27369285386E+02  0.00000000000E+00 0.  1.
         21    1    1    2  503  501 -0.24632772823E+02 -0.55759472078E+01 -0.16885585767E+03  0.17073419503E+03  0.00000000000E+00 0. -1.
</event>
<event>
 4    1  0.5696713E+002  0.4085495E+02  0.7546771E-02  0.1343547E+00
          2   -1    0    0  503    0  0.00000000000E+00  0.00000000000E+00  0.52765746694E+03  0.52765746694E+03  0.00000000000E+00 0.  1.
         -2   -1    0    0    0  501 -0.00000000000E+00 -0.00000000000E+00 -0.35944205531E+01  0.35944205531E+01  0.00000000000E+00 0. -1.
         21    1    1    2  502  501  0.19715306686E+02 -0.35783143602E+02  0.17003592718E+03  0.17487522185E+03  0.00000000000E+00 0. -1.
         21    1    1    2  503  502 -0.19715306686E+02  0.35783143602E+02  0.35402711920E+03  0.35637666564E+03  0.00000000000E+00 0.  1.
</event>
<event>
 4    1  0.5696713E+002  0.2121430E+02  0.7546771E-02  0.1516227E+00
          2   -1    0    0  502    0  0.00000000000E+00  0.00000000000E+00  0.24514620236E+03  0.24514620236E+03  0.00000000000E+00 0. -1.
         -2   -1    0    0    0  501 -0.00000000000E+00 -0.00000000000E+00 -0.26063959228E+01  0.26063959228E+01  0.00000000000E+00 0.  1.
         21    1    1    2  502  503  0.17865889175E+01 -0.21138937956E+02  0.18862540964E+03  0.18981462472E+03  0.00000000000E+00 0. -1.
         21    1    1    2  503  501 -0.17865889175E+01  0.21138937956E+02  0.53914396795E+02  0.57937973555E+02  0.00000000000E+00 0.  1.
</event>
<event>
 4    1  0.5696713E+002  0.2727879E+02  0.7546771E-02  0.1444828E+00
          2   -1    0    0  503    0  0.00000000000E+00  0.00000000000E+00  0.93141759557E+02  0.93141759557E+02  0.00000000000E+00 0. -1.
         -2   -1    0    0    0  501 -0.00000000000E+00 -0.00000000000E+00 -0.10029688814E+02  0.10029688814E+02  0.00000000000E+00 0.  1.
         21    1    1    2  502  501  0.22187916316E+02 -0.15869118346E+02  0.64823436762E+02  0.70329300446E+02  0.00000000000E+00 0. -1.
         21    1    1    2  503  502 -0.22187916316E+02  0.15869118346E+02  0.18288633980E+02  0.32842147926E+02  0.00000000000E+00 0.  1.
</event>
<event>
 4    1  0.5696713E+002  0.2735358E+02  0.7546771E-02  0.1444088E+00
          2   -1    0    0  502    0  0.00000000000E+00  0.00000000000E+00  0.41981884654E+03  0.41981884654E+03  0.00000000000E+00 0.  1.
         -2   -1    0    0    0  501 -0.00000000000E+00 -0.00000000000E+00 -0.63125177659E+01  0.63125177659E+01  0.00000000000E+00 0. -1.
         21    1    1    2  502  503  0.25325000727E+02 -0.10337445294E+02  0.38725206329E+03  0.38821692256E+03  0.00000000000E+00 0.  1.
         21    1    1    2  503  501 -0.25325000727E+02  0.10337445294E+02  0.26254265484E+02  0.37914441749E+02  0.00000000000E+00 0. -1.
</event>
<event>
 4    1  0.5696713E+002  0.4649204E+02  0.7546771E-02  0.1314143E+00
          2   -1    0    0  502    0  0.00000000000E+00  0.00000000000E+00  0.55217233742E+03  0.55217233742E+03  0.00000000000E+00 0.  1.
         -2   -1    0    0    0  501 -0.00000000000E+00 -0.00000000000E+00 -0.19549893482E+02  0.19549893482E+02  0.00000000000E+00 0. -1.
         21    1    1    2  502  503  0.45698760816E+02 -0.85517964928E+01  0.52195575245E+03  0.52402224903E+03  0.00000000000E+00 0.  1.
         21    1    1    2  503  501 -0.45698760816E+02  0.85517964928E+01  0.10666691491E+02  0.47699981874E+02  0.00000000000E+00 0. -1.
</event>
<event>
 4    1  0.5696713E+002  0.2374345E+02  0.7546771E-02  0.1483368E+00
          2   -1    0    0  503    0  0.00000000000E+00  0.00000000000E+00  0.13081753128E+03  0.13081753128E+03  0.00000000000E+00 0.  1.
         -2   -1    0    0    0  501 -0.00000000000E+00 -0.00000000000E+00 -0.11864903282E+03  0.11864903282E+03  0.00000000000E+00 0. -1.
         21    1    1    2  502  501 -0.23073860638E+02  0.55989512625E+01 -0.11636286514E+03  0.11876054767E+03  0.00000000000E+00 0. -1.
         21    1    1    2  503  502  0.23073860638E+02 -0.55989512625E+01  0.12853136360E+03  0.13070601643E+03  0.00000000000E+00 0.  1.
</event>
<event>
 4    1  0.5696713E+002  0.2939785E+02  0.7546771E-02  0.1424902E+00
          2   -1    0    0  503    0  0.00000000000E+00  0.00000000000E+00  0.46739646785E+03  0.46739646785E+03  0.00000000000E+00 0.  1.
         -2   -1    0    0    0  501 -0.00000000000E+00 -0.00000000000E+00 -0.39372904944E+01  0.39372904944E+01  0.00000000000E+00 0. -1.
         21    1    1    2  502  501 -0.28238720605E+02  0.81736485671E+01  0.60100333980E+02  0.66905037305E+02  0.00000000000E+00 0. -1.
         21    1    1    2  503  502  0.28238720605E+02 -0.81736485671E+01  0.40335884338E+03  0.40442872104E+03  0.00000000000E+00 0.  1.
</event>
<event>
 4    1  0.5696713E+002  0.2011543E+02  0.7546771E-02  0.1532279E+00
          2   -1    0    0  503    0  0.00000000000E+00  0.00000000000E+00  0.31004927105E+03  0.31004927105E+03  0.00000000000E+00 0.  1.
         -2   -1    0    0    0  501 -0.00000000000E+00 -0.00000000000E+00 -0.24402005178E+01  0.24402005178E+01  0.00000000000E+00 0. -1.
         21    1    1    2  502  501  0.19263100869E+02  0.57933828034E+01  0.26037062497E+03  0.26114649660E+03  0.00000000000E+00 0.  1.
         21    1    1    2  503  502 -0.19263100869E+02 -0.57933828034E+01  0.47238445567E+02  0.51342974972E+02  0.00000000000E+00 0. -1.
</event>
<event>
 4    1  0.5696713E+002  0.3738902E+02  0.7546771E-02  0.1364505E+00
          2   -1    0    0  502    0  0.00000000000E+00  0.00000000000E+00  0.23579328619E+04  0.23579328619E+04  0.00000000000E+00 0.  1.
         -2   -1    0    0    0  501 -0.00000000000E+00 -0.00000000000E+00 -0.86396441782E+00  0.86396441782E+00  0.00000000000E+00 0. -1.
         21    1    1    2  502  503  0.33335891020E+02  0.16930955654E+02  0.18391911984E+04  0.18395712009E+04  0.00000000000E+00 0.  1.
         21    1    1    2  503  501 -0.33335891020E+02 -0.16930955654E+02  0.51787769915E+03  0.51922562549E+03  0.00000000000E+00 0. -1.
</event>
<event>
 4    1  0.5696713E+002  0.2151466E+02  0.7546771E-02  0.1512042E+00
          2   -1    0    0  502    0  0.00000000000E+00  0.00000000000E+00  0.21767587715E+02  0.21767587715E+02  0.00000000000E+00 0.  1.
         -2   -1    0    0    0  501 -0.00000000000E+00 -0.00000000000E+00 -0.35201960665E+02  0.35201960665E+02  0.00000000000E+00 0. -1.
         21    1    1    2  502  503  0.16039218069E+02  0.14339604179E+02  0.11206130839E+02  0.24258156003E+02  0.00000000000E+00 0.  1.
         21    1    1    2  503  501 -0.16039218069E+02 -0.14339604179E+02 -0.24640503789E+02  0.32711392377E+02  0.00000000000E+00 0. -1.
</event>
<event>
 4    1  0.5696713E+002  0.5275527E+02  0.7546771E-02  0.1286649E+00
          2   -1    0    0  502    0  0.00000000000E+00  0.00000000000E+00  0.14877448144E+03  0.14877448144E+03  0.00000000000E+00 0. -1.
         -2   -1    0    0    0  501 -0.00000000000E+00 -0.00000000000E+00 -0.78403451351E+02  0.78403451351E+02  0.00000000000E+00 0.  1.
         21    1    1    2  502  503 -0.38743920965E+02  0.35805406056E+02  0.13430132961E+03  0.14429125285E+03  0.00000000000E+00 0. -1.
         21    1    1    2  503  501  0.38743920965E+02 -0.35805406056E+02 -0.63930299521E+02  0.82886679940E+02  0.00000000000E+00 0.  1.
</event>
<event>
 4    1  0.5696713E+002  0.2191825E+02  0.7546771E-02  0.1506548E+00
          2   -1    0    0  503    0  0.00000000000E+00  0.00000000000E+00  0.37262094768E+02  0.37262094768E+02  0.00000000000E+00 0. -1.
         -2   -1    0    0    0  501 -0.00000000000E+00 -0.00000000000E+00 -0.51819473239E+02  0.51819473239E+02  0.00000000000E+00 0.  1.
         21    1    1    2  502  501 -0.20810456147E+02 -0.68800082234E+01 -0.45882970809E+02  0.50849352095E+02  0.00000000000E+00 0.  1.
         21    1    1    2  503  502  0.20810456147E+02  0.68800082234E+01  0.31325592338E+02  0.38232215912E+02  0.00000000000E+00 0. -1.
</event>
<event>
 4    1  0.5696713E+002  0.4462718E+02  0.7546771E-02  0.1323314E+00
          2   -1    0    0  502    0  0.00000000000E+00  0.00000000000E+00  0.70251480107E+02  0.70251480107E+02  0.00000000000E+00 0. -1.
         -2   -1    0    0    0  501 -0.00000000000E+00 -0.00000000000E+00 -0.39108790894E+02  0.39108790894E+02  0.00000000000E+00 0.  1.
         21    1    1    2  502  503 -0.30967427720E+02 -0.32134145674E+02  0.44251858154E+02  0.62847528574E+02  0.00000000000E+00 0. -1.
         21    1    1    2  503  501  0.30967427720E+02  0.32134145674E+02 -0.13109168941E+02  0.46512742427E+02  0.00000000000E+00 0.  1.
</event>
<event>
 4    1  0.5696713E+002  0.2099642E+02  0.7546771E-02  0.1519316E+00
          2   -1    0    0  503    0  0.00000000000E+00  0.00000000000E+00  0.14823125449E+03  0.14823125449E+03  0.00000000000E+00 0. -1.
         -2   -1    0    0    0  501 -0.00000000000E+00 -0.00000000000E+00 -0.37131385666E+01  0.37131385666E+01  0.00000000000E+00 0.  1.
         21    1    1    2  502  501 -0.14153023791E+02 -0.15509400439E+02  0.38364689513E+02  0.43734414205E+02  0.00000000000E+00 0.  1.
         21    1    1    2  503  502  0.14153023791E+02  0.15509400439E+02  0.10615342641E+03  0.10820997885E+03  0.00000000000E+00 0. -1.
</event>
<event>
 4    1  0.5696713E+002  0.2087942E+02  0.7546771E-02  0.1520993E+00
          2   -1    0    0  503    0  0.00000000000E+00  0.00000000000E+00  0.17269539842E+02  0.17269539842E+02  0.00000000000E+00 0. -1.
         -2   -1    0    0    0  501 -0.00000000000E+00 -0.00000000000E+00 -0.90620563344E+02  0.90620563344E+02  0.00000000000E+00 0.  1.
         21    1    1    2  502  501  0.88566859922E+01  0.18907916269E+02 -0.82494941257E+02  0.85096213296E+02  0.00000000000E+00 0.  1.
         21    1    1    2  503  502 -0.88566859922E+01 -0.18907916269E+02  0.91439177540E+01  0.22793889890E+02  0.00000000000E+00 0. -1.
</event>
<event>
 4    1  0.5696713E+002  0.2002606E+02  0.7546771E-02  0.1533638E+00
          2   -1    0    0  502    0  0.00000000000E+00  0.00000000000E+00  0.19356908767E+03  0.19356908767E+03  0.00000000000E+00 0. -1.
         -2   -1    0    0    0  501 -0.00000000000E+00 -0.00000000000E+00 -0.72152022233E+02  0.72152022233E+02  0.00000000000E+00 0.  1.
         21    1    1    2  502  503 -0.15216279982E+02  0.13019513356E+02  0.19164765937E+03  0.19269112135E+03  0.00000000000E+00 0. -1.
         21    1    1    2  503  501  0.15216279982E+02 -0.13019513356E+02 -0.70230593931E+02  0.73029988556E+02  0.00000000000E+00 0.  1.
</event>
<event>
 4    1  0.5696713E+002  0.2002788E+02  0.7546771E-02  0.1533610E+00
          2   -1    0    0  503    0  0.00000000000E+00  0.00000000000E+00  0.51730126733E+01  0.51730126733E+01  0.00000000000E+00 0.  1.
         -2   -1    0    0    0  501 -0.00000000000E+00 -0.00000000000E+00 -0.22342119929E+03  0.22342119929E+03  0.00000000000E+00 0. -1.
         21    1    1    2  502  501 -0.19328062626E+02  0.52480560922E+01 -0.20148166534E+03  0.20247463437E+03  0.00000000000E+00 0. -1.
         21    1    1    2  503  502  0.19328062626E+02 -0.52480560922E+01 -0.16766521277E+02  0.26119577587E+02  0.00000000000E+00 0.  1.
</event>
<event>
 4    1  0.5696713E+002  0.8258720E+02  0.7546771E-02  0.1197965E+00
          2   -1    0    0  503    0  0.00000000000E+00  0.00000000000E+00  0.78596411890E+03  0.78596411890E+03  0.00000000000E+00 0. -1.
         -2   -1    0    0    0  501 -0.00000000000E+00 -0.00000000000E+00 -0.20050810112E+02  0.20050810112E+02  0.00000000000E+00 0.  1.
         21    1    1    2  502  501 -0.82241388441E+02  0.75497714286E+01  0.79441872981E+02  0.11459343875E+03  0.00000000000E+00 0.  1.
         21    1    1    2  503  502  0.82241388441E+02 -0.75497714286E+01  0.68647143581E+03  0.69142149026E+03  0.00000000000E+00 0. -1.
</event>
<event>
 4    1  0.5696713E+002  0.5212840E+02  0.7546771E-02  0.1289199E+00
          2   -1    0    0  502    0  0.00000000000E+00  0.00000000000E+00  0.25622984790E+04  0.25622984790E+04  0.00000000000E+00 0. -1.
         -2   -1    0    0    0  501 -0.00000000000E+00 -0.00000000000E+00 -0.11010769990E+01  0.11010769990E+01  0.00000000000E+00 0.  1.
         21    1    1    2  502  503 -0.48778039311E+02 -0.18386747721E+02  0.10346136923E+04  0.10359260890E+04  0.00000000000E+00 0. -1.
         21    1    1    2  503  501  0.48778039311E+02  0.18386747721E+02  0.15265837097E+04  0.15274734670E+04  0.00000000000E+00 0.  1.
</event>
<event>
 4    1  0.5696713E+002  0.5251401E+02  0.7546771E-02  0.1287626E+00
          2   -1    0    0  502    0  0.00000000000E+00  0.00000000000E+00  0.14452205327E+02  0.14452205327E+02  0.00000000000E+00 0.  1.
         -2   -1    0    0    0  501 -0.00000000000E+00 -0.00000000000E+00 -0.22746210351E+03  0.22746210351E+03  0.00000000000E+00 0. -1.
         21    1    1    2  502  503  0.41453919192E+01  0.52350140386E+02 -0.57955192298E+02  0.78208220712E+02  0.00000000000E+00 0.  1.
         21    1    1    2  503  501 -0.41453919192E+01 -0.52350140386E+02 -0.15505470589E+03  0.16370608813E+03  0.00000000000E+00 0. -1.
</event>
<event>
 4    1  0.5696713E+002  0.2727942E+02  0.7546771E-02  0.1444821E+00
          2   -1    0    0  503    0  0.00000000000E+00  0.00000000000E+00  0.60004745475E+02  0.60004745475E+02  0.00000000000E+00 0.  1.
         -2   -1    0    0    0  501 -0.00000000000E+00 -0.00000000000E+00 -0.21904816704E+02  0.21904816704E+02  0.00000000000E+00 0. -1.
         21    1    1    2  502  501 -0.26919923133E+02 -0.44141357005E+01 -0.79252895916E+01  0.28407341843E+02  0.00000000000E+00 0. -1.
         21    1    1    2  503  502  0.26919923133E+02  0.44141357005E+01  0.46025218364E+02  0.53502220336E+02  0.00000000000E+00 0.  1.
</event>
<event>
 4    1  0.5696713E+002  0.2046661E+02  0.7546771E-02  0.1527018E+00
          2   -1    0    0  503    0  0.00000000000E+00  0.00000000000E+00  0.20639449596E+03  0.20639449596E+03  0.00000000000E+00 0. -1.
         -2   -1    0    0    0  501 -0.00000000000E+00 -0.00000000000E+00 -0.21885995326E+01  0.21885995326E+01  0.00000000000E+00 0.  1.
         21    1    1    2  502  501 -0.76870721066E+01  0.18968161330E+02  0.73985879418E+02  0.76764526801E+02  0.00000000000E+00 0.  1.
         21    1    1    2  503  502  0.76870721066E+01 -0.18968161330E+02  0.13022001701E+03  0.13181856869E+03  0.00000000000E+00 0. -1.
</event>
<event>
 4    1  0.5696713E+002  0.4504602E+02  0.7546771E-02  0.1321209E+00
          2   -1    0    0  502    0  0.00000000000E+00  0.00000000000E+00  0.16492032279E+04  0.16492032279E+04  0.00000000000E+00 0.  1.
         -2   -1    0    0    0  501 -0.00000000000E+00 -0.00000000000E+00 -0.12581595342E+01  0.12581595342E+01  0.00000000000E+00 0. -1.
         21    1    1    2  502  503 -0.40152414387E+02 -0.20418796986E+02  0.70134604599E+03  0.70279116377E+03  0.00000000000E+00 0. -1.
         21    1    1    2  503  501  0.40152414387E+02  0.20418796986E+02  0.94659902235E+03  0.94767022364E+03  0.00000000000E+00 0.  1.
</event>
<event>
 4    1  0.5696713E+002  0.2774516E+02  0.7546771E-02  0.1440263E+00
          2   -1    0    0  503    0  0.00000000000E+00  0.00000000000E+00  0.10072147446E+03  0.10072147446E+03  0.00000000000E+00 0. -1.
         -2   -1    0    0    0  501 -0.00000000000E+00 -0.00000000000E+00 -0.16417417057E+02  0.16417417057E+02  0.00000000000E+00 0.  1.
         21    1    1    2  502  501 -0.21951564450E+02 -0.16968293435E+02 -0.66660107975E+00  0.27753171367E+02  0.00000000000E+00 0.  1.
         21    1    1    2  503  502  0.21951564450E+02  0.16968293435E+02  0.84970658481E+02  0.89385720149E+02  0.00000000000E+00 0. -1.
</event>
<event>
 4    1  0.5696713E+002  0.2855547E+02  0.7546771E-02  0.1432579E+00
          2   -1    0    0  502    0  0.00000000000E+00  0.00000000000E+00  0.54279392206E+02  0.54279392206E+02  0.00000000000E+00 0. -1.
         -2   -1    0    0    0  501 -0.00000000000E+00 -0.00000000000E+00 -0.20985442651E+02  0.20985442651E+02  0.00000000000E+00 0.  1.
         21    1    1    2  502  503  0.22682313984E+02  0.17347263653E+02  0.36707002021E+02  0.46506117030E+02  0.00000000000E+00 0. -1.
         21    1    1    2  503  501 -0.22682313984E+02 -0.17347263653E+02 -0.34130524662E+01  0.28758717827E+02  0.00000000000E+00 0.  1.
</event>
<event>
 4    1  0.5696713E+002  0.3858330E+02  0.7546771E-02  0.1356994E+00
          2   -1    0    0  503    0  0.00000000000E+00  0.00000000000E+00  0.17331096204E+03  0.17331096204E+03  0.00000000000E+00 0.  1.
         -2   -1    0    0    0  501 -0.00000000000E+00 -0.00000000000E+00 -0.87819625089E+01  0.87819625089E+01  0.00000000000E+00 0. -1.
         21    1    1    2  502  501  0.62813968998E+01  0.38068560809E+02  0.68789423918E+02  0.78871136115E+02  0.00000000000E+00 0. -1.
         21    1    1    2  503  502 -0.62813968998E+01 -0.38068560809E+02  0.95739575617E+02  0.10322178844E+03  0.00000000000E+00 0.  1.
</event>
<event>
 4    1  0.5696713E+002  0.3211426E+02  0.7546771E-02  0.1402071E+00
          2   -1    0    0  503    0  0.00000000000E+00  0.00000000000E+00  0.99038046184E+01  0.99038046184E+01  0.00000000000E+00 0.  1.
         -2   -1    0    0    0  501 -0.00000000000E+00 -0.00000000000E+00 -0.45624281749E+03  0.45624281749E+03  0.00000000000E+00 0. -1.
         21    1    1    2  502  501 -0.87915687570E+01  0.30887441107E+02 -0.42792369505E+03  0.42912703770E+03  0.00000000000E+00 0. -1.
         21    1    1    2  503  502  0.87915687570E+01 -0.30887441107E+02 -0.18415317822E+02  0.37019584409E+02  0.00000000000E+00 0.  1.
</event>
<event>
 4    1  0.5696713E+002  0.2231843E+02  0.7546771E-02  0.1501239E+00
          2   -1    0    0  502    0  0.00000000000E+00  0.00000000000E+00  0.14317295415E+03  0.14317295415E+03  0.00000000000E+00 0. -1.
         -2   -1    0    0    0  501 -0.00000000000E+00 -0.00000000000E+00 -0.54809350241E+01  0.54809350241E+01  0.00000000000E+00 0.  1.
         21    1    1    2  502  503 -0.12233673165E+01 -0.22284872560E+02  0.11376538827E+03  0.11593392835E+03  0.00000000000E+00 0. -1.
         21    1    1    2  503  501  0.12233673165E+01  0.22284872560E+02  0.23926630847E+02  0.32719960823E+02  0.00000000000E+00 0.  1.
</event>
<event>
 4    1  0.5696713E+002  0.3020758E+02  0.7546771E-02  0.1417801E+00
          2   -1    0    0  503    0  0.00000000000E+00  0.00000000000E+00  0.30540346568E+03  0.30540346568E+03  0.00000000000E+00 0. -1.
         -2   -1    0    0    0  501 -0.00000000000E+00 -0.00000000000E+00 -0.43437461765E+01  0.43437461765E+01  0.00000000000E+00 0.  1.
         21    1    1    2  502  501  0.22202832537E+02 -0.20482481460E+02  0.64001311346E+02  0.70771927156E+02  0.00000000000E+00 0.  1.
         21    1    1    2  503  502 -0.22202832537E+02  0.20482481460E+02  0.23705840816E+03  0.23897528470E+03  0.00000000000E+00 0. -1.
</event>
<event>
 4    1  0.5696713E+002  0.2516951E+02  0.7546771E-02  0.1466916E+00
          2   -1    0    0  503    0  0.00000000000E+00  0.00000000000E+00  0.13430669973E+03  0.13430669973E+03  0.00000000000E+00 0. -1.
         -2   -1    0    0    0  501 -0.00000000000E+00 -0.00000000000E+00 -0.47685830110E+01  0.47685830110E+01  0.00000000000E+00 0.  1.
         21    1    1    2  502  501 -0.21749146155E+02  0.12668024476E+02  0.57526029358E+02  0.62791307172E+02  0.00000000000E+00 0.  1.
         21    1    1    2  503  502  0.21749146155E+02 -0.12668024476E+02  0.72012087362E+02  0.76283975570E+02  0.00000000000E+00 0. -1.
</event>
<event>
 4    1  0.5696713E+002  0.2049798E+02  0.7546771E-02  0.1526554E+00
          2   -1    0    0  503    0  0.00000000000E+00  0.00000000000E+00  0.13466229884E+03  0.13466229884E+03  0.00000000000E+00 0.  1.
         -2   -1    0    0    0  501 -0.00000000000E+00 -0.00000000000E+00 -0.39192973085E+01  0.39192973085E+01  0.00000000000E+00 0. -1.
         21    1    1    2  502  501 -0.15509505879E+01 -0.20439224168E+02  0.96659900012E+02  0.98809430737E+02  0.00000000000E+00 0.  1.
         21    1    1    2  503  502  0.15509505879E+01  0.20439224168E+02  0.34083101520E+02  0.39772165412E+02  0.00000000000E+00 0. -1.
</event>
<event>
 4    1  0.5696713E+002  0.3457780E+02  0.7546771E-02  0.1383556E+00
          2   -1    0    0  503    0  0.00000000000E+00  0.00000000000E+00  0.50909001107E+01  0.50909001107E+01  0.00000000000E+00 0. -1.
         -2   -1    0    0    0  501 -0.00000000000E+00 -0.00000000000E+00 -0.30098595634E+03  0.30098595634E+03  0.00000000000E+00 0.  1.
         21    1    1    2  502  501 -0.34514487489E+02 -0.20914273182E+01 -0.21968224933E+03  0.22238685794E+03  0.00000000000E+00 0.  1.
         21    1    1    2  503  502  0.34514487489E+02  0.20914273182E+01 -0.76212806902E+02  0.83689998511E+02  0.00000000000E+00 0. -1.
</event>
<event>
 4    1  0.5696713E+002  0.2189429E+02  0.7546771E-02  0.1506870E+00
          2   -1    0    0  502    0  0.00000000000E+00  0.00000000000E+00  0.21757444065E+03  0.21757444065E+03  0.00000000000E+00 0. -1.
         -2   -1    0    0    0  501 -0.00000000000E+00 -0.00000000000E+00 -0.67534469191E+01  0.67534469191E+01  0.00000000000E+00 0.  1.
         21    1    1    2  502  503  0.11935366824E+01 -0.21861737467E+02  0.19747834416E+03  0.19868834014E+03  0.00000000000E+00 0. -1.
         21    1    1    2  503  501 -0.11935366824E+01  0.21861737467E+02  0.13342649572E+02  0.25639547432E+02  0.00000000000E+00 0.  1.
</event>
<event>
 4    1  0.5696713E+002  0.2358254E+02  0.7546771E-02  0.1485310E+00
          2   -1    0    0  503    0  0.00000000000E+00  0.00000000000E+00  0.39166907021E+03  0.39166907021E+03  0.00000000000E+00 0. -1.
         -2   -1    0    0    0  501 -0.00000000000E+00 -0.00000000000E+00 -0.14950516776E+01  0.14950516776E+01  0.00000000000E+00 0.  1.
         21    1    1    2  502  501 -0.12400261202E+02  0.20059151185E+02  0.23915745167E+03  0.24031733753E+03  0.00000000000E+00 0. -1.
         21    1    1    2  503  502  0.12400261202E+02 -0.20059151185E+02  0.15101656686E+03  0.15284678437E+03  0.00000000000E+00 0.  1.
</event>
<event>
 4    1  0.5696713E+002  0.4514254E+02  0.7546771E-02  0.1320728E+00
          2   -1    0    0  503    0  0.00000000000E+00  0.00000000000E+00  0.24755691864E+02  0.24755691864E+02  0.00000000000E+00 0. -1.
         -2   -1    0    0    0  501 -0.00000000000E+00 -0.00000000000E+00 -0.11697669998E+03  0.11697669998E+03  0.00000000000E+00 0.  1.
         21    1    1    2  502  501  0.13335238676E+02 -0.43127953064E+02 -0.84684361483E+02  0.95965045750E+02  0.00000000000E+00 0.  1.
         21    1    1    2  503  502 -0.13335238676E+02  0.43127953064E+02 -0.75366466329E+01  0.45767346094E+02  0.00000000000E+00 0. -1.
</event>
<event>
 4    1  0.5696713E+002  0.2122717E+02  0.7546771E-02  0.1516046E+00
          2   -1    0    0  503    0  0.00000000000E+00  0.00000000000E+00  0.73739379143E+01  0.73739379143E+01  0.00000000000E+00 0. -1.
         -2   -1    0    0    0  501 -0.00000000000E+00 -0.00000000000E+00 -0.13369292212E+03  0.13369292212E+03  0.00000000000E+00 0.  1.
         21    1    1    2  502  501  0.19937556984E+02  0.72860622109E+01 -0.11513150872E+03  0.11707201708E+03  0.00000000000E+00 0.  1.
         21    1    1    2  503  502 -0.19937556984E+02 -0.72860622109E+01 -0.11187475483E+02  0.23994842961E+02  0.00000000000E+00 0. -1.
</event>
<event>
 4    1  0.5696713E+002  0.4076033E+02  0.7546771E-02  0.1344087E+00
          2   -1    0    0  502    0  0.00000000000E+00  0.00000000000E+00  0.89542127734E+01  0.89542127734E+01  0.00000000000E+00 0.  1.
         -2   -1    0    0    0  501 -0.00000000000E+00 -0.00000000000E+00 -0.18679824316E+03  0.18679824316E+03  0.00000000000E+00 0. -1.
         21    1    1    2  502  503 -0.17838197971E+02 -0.36649732354E+02 -0.80903213035E+02  0.90591026420E+02  0.00000000000E+00 0. -1.
         21    1    1    2  503  501  0.17838197971E+02  0.36649732354E+02 -0.96940817348E+02  0.10516142951E+03  0.00000000000E+00 0.  1.
</event>
<event>
 4    1  0.5696713E+002  0.2339664E+02  0.7546771E-02  0.1487577E+00
          2   -1    0    0  502    0  0.00000000000E+00  0.00000000000E+00  0.10802974137E+04  0.10802974137E+04  0.00000000000E+00 0. -1.
         -2   -1    0    0    0  501 -0.00000000000E+00 -0.00000000000E+00 -0.29585983900E+01  0.29585983900E+01  0.00000000000E+00 0.  1.
         21    1    1    2  502  503 -0.12500699522E+02  0.19777138536E+02  0.10317387803E+04  0.10320040278E+04  0.00000000000E+00 0. -1.
         21    1    1    2  503  501  0.12500699522E+02 -0.19777138536E+02  0.45600035034E+02  0.51251984277E+02  0.00000000000E+00 0.  1.
</event>
<event>
 4    1  0.5696713E+002  0.2844308E+02  0.7546771E-02  0.1433627E+00
          2   -1    0    0  502    0  0.00000000000E+00  0.00000000000E+00  0.23101253822E+03  0.23101253822E+03  0.00000000000E+00 0.  1.
         -2   -1    0    0    0  501 -0.00000000000E+00 -0.00000000000E+00 -0.76954237745E+01  0.76954237745E+01  0.00000000000E+00 0. -1.
         21    1    1    2  502  503  0.30887681056E+01 -0.28274868769E+02  0.19976433543E+03  0.20177908317E+03  0.00000000000E+00 0.  1.
         21    1    1    2  503  501 -0.30887681056E+01  0.28274868769E+02  0.23552779011E+02  0.36928878827E+02  0.00000000000E+00 0. -1.
</event>
<event>
 4    1  0.5696713E+002  0.2076392E+02  0.7546771E-02  0.1522662E+00
          2   -1    0    0  503    0  0.00000000000E+00  0.00000000000E+00  0.77500235147E+02  0.77500235147E+02  0.00000000000E+00 0. -1.
         -2   -1    0    0    0  501 -0.00000000000E+00 -0.00000000000E+00 -0.26667744235E+02  0.26667744235E+02  0.00000000000E+00 0.  1.
         21    1    1    2  502  501 -0.20670048154E+02 -0.19721762920E+01 -0.20917806270E+02  0.29473632100E+02  0.00000000000E+00 0.  1.
         21    1    1    2  503  502  0.20670048154E+02  0.19721762920E+01  0.71750297182E+02  0.74694347281E+02  0.00000000000E+00 0. -1.
</event>
<event>
 4    1  0.5696713E+002  0.3181049E+02  0.7546771E-02  0.1404490E+00
          2   -1    0    0  502    0  0.00000000000E+00  0.00000000000E+00  0.15168574234E+02  0.15168574234E+02  0.00000000000E+00 0.  1.
         -2   -1    0    0    0  501 -0.00000000000E+00 -0.00000000000E+00 -0.21775743473E+03  0.21775743473E+03  0.00000000000E+00 0. -1.
         21    1    1    2  502  503  0.29076741769E+02 -0.12901558333E+02 -0.42977037088E+01  0.32099491842E+02  0.00000000000E+00 0.  1.
         21    1    1    2  503  501 -0.29076741769E+02  0.12901558333E+02 -0.19829115679E+03  0.20082651713E+03  0.00000000000E+00 0. -1.
</event>
<event>
 4    1  0.5696713E+002  0.4335775E+02  0.7546771E-02  0.1329858E+00
          2   -1    0    0  502    0  0.00000000000E+00  0.00000000000E+00  0.13392846513E+03  0.13392846513E+03  0.00000000000E+00 0.  1.
         -2   -1    0    0    0  501 -0.00000000000E+00 -0.00000000000E+00 -0.17111866603E+02  0.17111866603E+02  0.00000000000E+00 0. -1.
         21    1    1    2  502  503  0.15253426717E+02  0.40586047750E+02  0.90423688685E+02  0.10028129324E+03  0.00000000000E+00 0.  1.
         21    1    1    2  503  501 -0.15253426717E+02 -0.40586047750E+02  0.26392909842E+02  0.50759038491E+02  0.00000000000E+00 0. -1.
</event>
<event>
 4    1  0.5696713E+002  0.5060259E+02  0.7546771E-02  0.1295581E+00
          2   -1    0    0  502    0  0.00000000000E+00  0.00000000000E+00  0.68888726622E+03  0.68888726622E+03  0.00000000000E+00 0.  1.
         -2   -1    0    0    0  501 -0.00000000000E+00 -0.00000000000E+00 -0.46355354696E+01  0.46355354696E+01  0.00000000000E+00 0. -1.
         21    1    1    2  502  503  0.50482402288E+02 -0.34855798007E+01  0.49648028505E+03  0.49905239770E+03  0.00000000000E+00 0.  1.
         21    1    1    2  503  501 -0.50482402288E+02  0.34855798007E+01  0.18777144571E+03  0.19447040399E+03  0.00000000000E+00 0. -1.
</event>
<event>
 4    1  0.5696713E+002  0.2090313E+02  0.7546771E-02  0.1520652E+00
          2   -1    0    0  503    0  0.00000000000E+00  0.00000000000E+00  0.21217730946E+03  0.21217730946E+03  0.00000000000E+00 0.  1.
         -2   -1    0    0    0  501 -0.00000000000E+00 -0.00000000000E+00 -0.63081411387E+01  0.63081411387E+01  0.00000000000E+00 0. -1.
         21    1    1    2  502  501  0.20417633941E+02 -0.44789784696E+01  0.13279269643E+02  0.24764491235E+02  0.00000000000E+00 0. -1.
         21    1    1    2  503  502 -0.20417633941E+02  0.44789784696E+01  0.19258989868E+03  0.19372095937E+03  0.00000000000E+00 0.  1.
</event>
<event>
 4    1  0.5696713E+002  0.2749800E+02  0.7546771E-02  0.1442669E+00
          2   -1    0    0  503    0  0.00000000000E+00  0.00000000000E+00  0.32065782031E+02  0.32065782031E+02  0.00000000000E+00 0.  1.
         -2   -1    0    0    0  501 -0.00000000000E+00 -0.00000000000E+00 -0.28308585918E+02  0.28308585918E+02  0.00000000000E+00 0. -1.
         21    1    1    2  502  501 -0.27501113826E+00 -0.27496624218E+02 -0.10457785328E+02  0.29419470568E+02  0.00000000000E+00 0. -1.
         21    1    1    2  503  502  0.27501113826E+00  0.27496624218E+02  0.14214981441E+02  0.30954897381E+02  0.00000000000E+00 0.  1.
</event>
<event>
 4    1  0.5696713E+002  0.2412608E+02  0.7546771E-02  0.1478822E+00
          2   -1    0    0  502    0  0.00000000000E+00  0.00000000000E+00  0.67157717962E+02  0.67157717962E+02  0.00000000000E+00 0.  1.
         -2   -1    0    0    0  501 -0.00000000000E+00 -0.00000000000E+00 -0.10119833207E+02  0.10119833207E+02  0.00000000000E+00 0. -1.
         21    1    1    2  502  503  0.19545830856E+02 -0.14143142173E+02  0.13879727826E+02  0.27833699339E+02  0.00000000000E+00 0. -1.
         21    1    1    2  503  501 -0.19545830856E+02  0.14143142173E+02  0.43158156929E+02  0.49443851831E+02  0.00000000000E+00 0.  1.
</event>
<event>
 4    1  0.5696713E+002  0.2348471E+02  0.7546771E-02  0.1486500E+00
          2   -1    0    0  503    0  0.00000000000E+00  0.00000000000E+00  0.11699569636E+04  0.11699569636E+04  0.00000000000E+00 0.  1.
         -2   -1    0    0    0  501 -0.00000000000E+00 -0.00000000000E+00 -0.75938536711E+01  0.75938536711E+01  0.00000000000E+00 0. -1.
         21    1    1    2  502  501 -0.70399635949E+01 -0.22404699457E+02  0.10973951902E+02  0.25922177098E+02  0.00000000000E+00 0. -1.
         21    1    1    2  503  502  0.70399635949E+01  0.22404699457E+02  0.11513891581E+04  0.11516286402E+04  0.00000000000E+00 0.  1.
</event>
<event>
 4    1  0.5696713E+002  0.2924285E+02  0.7546771E-02  0.1426292E+00
          2   -1    0    0  502    0  0.00000000000E+00  0.00000000000E+00  0.59069726492E+01  0.59069726492E+01  0.00000000000E+00 0. -1.
         -2   -1    0    0    0  501 -0.00000000000E+00 -0.00000000000E+00 -0.56836675945E+03  0.56836675945E+03  0.00000000000E+00 0.  1.
         21    1    1    2  502  503  0.16559125441E+02  0.24102686354E+02 -0.33344089498E+02  0.44350562897E+02  0.00000000000E+00 0. -1.
         21    1    1    2  503  501 -0.16559125441E+02 -0.24102686354E+02 -0.52911569730E+03  0.52992316920E+03  0.00000000000E+00 0.  1.
</event>
<event>
 4    1  0.5696713E+002  0.2324158E+02  0.7546771E-02  0.1489487E+00
          2   -1    0    0  503    0  0.00000000000E+00  0.00000000000E+00  0.42455843838E+01  0.42455843838E+01  0.00000000000E+00 0.  1.
         -2   -1    0    0    0  501 -0.00000000000E+00 -0.00000000000E+00 -0.91771215433E+03  0.91771215433E+03  0.00000000000E+00 0. -1.
         21    1    1    2  502  501 -0.99689021064E+01 -0.20995052691E+02 -0.88456547006E+03  0.88487074880E+03  0.00000000000E+00 0. -1.
         21    1    1    2  503  502  0.99689021064E+01  0.20995052691E+02 -0.28901099883E+02  0.37086989918E+02  0.00000000000E+00 0.  1.
</event>
<event>
 4    1  0.5696713E+002  0.2158746E+02  0.7546771E-02  0.1511040E+00
          2   -1    0    0  503    0  0.00000000000E+00  0.00000000000E+00  0.33237627406E+01  0.33237627406E+01  0.00000000000E+00 0. -1.
         -2   -1    0    0    0  501 -0.00000000000E+00 -0.00000000000E+00 -0.17328611432E+03  0.17328611432E+03  0.00000000000E+00 0.  1.
         21    1    1    2  502  501 -0.21564356605E+02  0.99845024871E+00 -0.46400219838E+02  0.51176154405E+02  0.00000000000E+00 0.  1.
         21    1    1    2  503  502  0.21564356605E+02 -0.99845024871E+00 -0.12356213174E+03  0.12543372265E+03  0.00000000000E+00 0. -1.
</event>
<event>
 4    1  0.5696713E+002  0.2449035E+02  0.7546771E-02  0.1474586E+00
          2   -1    0    0  503    0  0.00000000000E+00  0.00000000000E+00  0.17921526466E+03  0.17921526466E+03  0.00000000000E+00 0. -1.
         -2   -1    0    0    0  501 -0.00000000000E+00 -0.00000000000E+00 -0.15720032811E+02  0.15720032811E+02  0.00000000000E+00 0.  1.
         21    1    1    2  502  501  0.22836836983E+02  0.88462562331E+01 -0.47247502914E+01  0.24941945354E+02  0.00000000000E+00 0.  1.
         21    1    1    2  503  502 -0.22836836983E+02 -0.88462562331E+01  0.16821998214E+03  0.16999335212E+03  0.00000000000E+00 0. -1.
</event>
<event>
 4    1  0.5696713E+002  0.3564892E+02  0.7546771E-02  0.1376058E+00
          2   -1    0    0  503    0  0.00000000000E+00  0.00000000000E+00  0.98089745357E+02  0.98089745357E+02  0.00000000000E+00 0. -1.
         -2   -1    0    0    0  501 -0.00000000000E+00 -0.00000000000E+00 -0.11670631316E+03  0.11670631316E+03  0.00000000000E+00 0.  1.
         21    1    1    2  502  501 -0.34366858177E+02 -0.94744069849E+01 -0.11056969172E+03  0.11617444666E+03  0.00000000000E+00 0.  1.
         21    1    1    2  503  502  0.34366858177E+02  0.94744069849E+01  0.91953123915E+02  0.98621611863E+02  0.00000000000E+00 0. -1.
</event>
<event>
 4    1  0.5696713E+002  0.2332392E+02  0.7546771E-02  0.1488470E+00
          2   -1    0    0  503    0  0.00000000000E+00  0.00000000000E+00  0.15830265631E+04  0.15830265631E+04  0.00000000000E+00 0.  1.
         -2   -1    0    0    0  501 -0.00000000000E+00 -0.00000000000E+00 -0.50749091185E+00  0.50749091185E+00  0.00000000000E+00 0. -1.
         21    1    1    2  502  501 -0.21769333329E+02  0.83726435998E+01  0.34138007476E+03  0.34217592036E+03  0.00000000000E+00 0. -1.
         21    1    1    2  503  502  0.21769333329E+02 -0.83726435998E+01  0.12411389975E+04  0.12413581337E+04  0.00000000000E+00 0.  1.
</event>
<event>
 4    1  0.5696713E+002  0.2404343E+02  0.7546771E-02  0.1479796E+00
          2   -1    0    0  502    0  0.00000000000E+00  0.00000000000E+00  0.50435958056E+03  0.50435958056E+03  0.00000000000E+00 0. -1.
         -2   -1    0    0    0  501 -0.00000000000E+00 -0.00000000000E+00 -0.26609170195E+01  0.26609170195E+01  0.00000000000E+00 0.  1.
         21    1    1    2  502  503  0.48966290892E+01  0.23539529565E+02  0.44212009875E+03  0.44277338238E+03  0.00000000000E+00 0. -1.
         21    1    1    2  503  501 -0.48966290892E+01 -0.23539529565E+02  0.59578564795E+02  0.64247115201E+02  0.00000000000E+00 0.  1.
</event>
<event>
 4    1  0.5696713E+002  0.2131604E+02  0.7546771E-02  0.1514800E+00
          2   -1    0    0  502    0  0.00000000000E+00  0.00000000000E+00  0.63819294989E+01  0.63819294989E+01  0.00000000000E+00 0. -1.
         -2   -1    0    0    0  501 -0.00000000000E+00 -0.00000000000E+00 -0.78413278079E+02  0.78413278079E+02  0.00000000000E+00 0.  1.
         21    1    1    2  502  503  0.84992739563E+01 -0.19548296986E+02 -0.48877607707E+02  0.53323485520E+02  0.00000000000E+00 0.  1.
         21    1    1    2  503  501 -0.84992739563E+01  0.19548296986E+02 -0.23153740872E+02  0.31471722057E+02  0.00000000000E+00 0. -1.
</event>
<event>
 4    1  0.5696713E+002  0.4164723E+02  0.7546771E-02  0.1339094E+00
          2   -1    0    0  503    0  0.00000000000E+00  0.00000000000E+00  0.35341121772E+03  0.35341121772E+03  0.00000000000E+00 0. -1.
         -2   -1    0    0    0  501 -0.00000000000E+00 -0.00000000000E+00 -0.89647293841E+01  0.89647293841E+01  0.00000000000E+00 0.  1.
         21    1    1    2  502  501  0.39568904675E+02 -0.12992043689E+02  0.50336494849E+02  0.65331876830E+02  0.00000000000E+00 0.  1.
         21    1    1    2  503  502 -0.39568904675E+02  0.12992043689E+02  0.29410999349E+03  0.29704407028E+03  0.00000000000E+00 0. -1.
</event>
<event>
 4    1  0.5696713E+002  0.2718281E+02  0.7546771E-02  0.1445780E+00
          2   -1    0    0  503    0  0.00000000000E+00  0.00000000000E+00  0.13183303046E+04  0.13183303046E+04  0.00000000000E+00 0. -1.
         -2   -1    0    0    0  501 -0.00000000000E+00 -0.00000000000E+00 -0.78466087739E+00  0.78466087739E+00  0.00000000000E+00 0.  1.
         21    1    1    2  502  501  0.54963716709E+01 -0.26621329186E+02  0.30623523802E+03  0.30743930503E+03  0.00000000000E+00 0.  1.
         21    1    1    2  503  502 -0.54963716709E+01  0.26621329186E+02  0.10113104058E+04  0.10116756605E+04  0.00000000000E+00 0. -1.
</event>
<event>
 4    1  0.5696713E+002  0.2864456E+02  0.7546771E-02  0.1431753E+00
          2   -1    0    0  502    0  0.00000000000E+00  0.00000000000E+00  0.19222472589E+03  0.19222472589E+03  0.00000000000E+00 0. -1.
         -2   -1    0    0    0  501 -0.00000000000E+00 -0.00000000000E+00 -0.10694034752E+02  0.10694034752E+02  0.00000000000E+00 0.  1.
         21    1    1    2  502  503 -0.24085835357E+02  0.15504299584E+02  0.16941125364E+03  0.17181584220E+03  0.00000000000E+00 0. -1.
         21    1    1    2  503  501  0.24085835357E+02 -0.15504299584E+02  0.12119437497E+02  0.31102918443E+02  0.00000000000E+00 0.  1.
</event>
<event>
 4    1  0.5696713E+002  0.2957984E+02  0.7546771E-02  0.1423283E+00
          2   -1    0    0  502    0  0.00000000000E+00  0.00000000000E+00  0.14376652848E+03  0.14376652848E+03  0.00000000000E+00 0. -1.
         -2   -1    0    0    0  501 -0.00000000000E+00 -0.00000000000E+00 -0.61202672485E+01  0.61202672485E+01  0.00000000000E+00 0.  1.
         21    1    1    2  502  503 -0.22539909161E+02  0.19155133867E+02  0.74428839769E+02  0.80091315683E+02  0.00000000000E+00 0.  1.
         21    1    1    2  503  501  0.22539909161E+02 -0.19155133867E+02  0.63217421462E+02  0.69795480045E+02  0.00000000000E+00 0. -1.
</event>
<event>
 4    1  0.5696713E+002  0.2556086E+02  0.7546771E-02  0.1462626E+00
          2   -1    0    0  502    0  0.00000000000E+00  0.00000000000E+00  0.12298607228E+04  0.12298607228E+04  0.00000000000E+00 0. -1.
         -2   -1    0    0    0  501 -0.00000000000E+00 -0.00000000000E+00 -0.75536044919E+00  0.75536044919E+00  0.00000000000E+00 0.  1.
         21    1    1    2  502  503 -0.25390150944E+02 -0.29491928856E+01  0.94971196562E+03  0.95005588001E+03  0.00000000000E+00 0. -1.
         21    1    1    2  503  501  0.25390150944E+02  0.29491928856E+01  0.27939339670E+03  0.28056020321E+03  0.00000000000E+00 0.  1.
</event>
<event>
 4    1  0.5696713E+002  0.2424931E+02  0.7546771E-02  0.1477379E+00
          2   -1    0    0  502    0  0.00000000000E+00  0.00000000000E+00  0.13371170748E+04  0.13371170748E+04  0.00000000000E+00 0.  1.
         -2   -1    0    0    0  501 -0.00000000000E+00 -0.00000000000E+00 -0.45920745957E+00  0.45920745957E+00  0.00000000000E+00 0. -1.
         21    1    1    2  502  503 -0.76050096837E+01  0.23025912418E+02  0.80591150272E+03  0.80627624238E+03  0.00000000000E+00 0. -1.
         21    1    1    2  503  501  0.76050096837E+01 -0.23025912418E+02  0.53074636463E+03  0.53130003988E+03  0.00000000000E+00 0.  1.
</event>
<event>
 4    1  0.5696713E+002  0.2070509E+02  0.7546771E-02  0.1523517E+00
          2   -1    0    0  502    0  0.00000000000E+00  0.00000000000E+00  0.73409370255E+03  0.73409370255E+03  0.00000000000E+00 0. -1.
         -2   -1    0    0    0  501 -0.00000000000E+00 -0.00000000000E+00 -0.98574053901E+00  0.98574053901E+00  0.00000000000E+00 0.  1.
         21    1    1    2  502  503 -0.19962221402E+02 -0.54964147027E+01  0.60119452955E+03  0.60155096477E+03  0.00000000000E+00 0. -1.
         21    1    1    2  503  501  0.19962221402E+02  0.54964147027E+01  0.13191343246E+03  0.13352847832E+03  0.00000000000E+00 0.  1.
</event>
<event>
 4    1  0.5696713E+002  0.2264464E+02  0.7546771E-02  0.1497009E+00
          2   -1    0    0  502    0  0.00000000000E+00  0.00000000000E+00  0.12872027155E+02  0.12872027155E+02  0.00000000000E+00 0. -1.
         -2   -1    0    0    0  501 -0.00000000000E+00 -0.00000000000E+00 -0.42385405024E+02  0.42385405024E+02  0.00000000000E+00 0.  1.
         21    1    1    2  502  503  0.76026585736E+01  0.21330245553E+02 -0.79817149418E+01  0.24010155480E+02  0.00000000000E+00 0. -1.
         21    1    1    2  503  501 -0.76026585736E+01 -0.21330245553E+02 -0.21531662928E+02  0.31247276700E+02  0.00000000000E+00 0.  1.
</event>
<event>
 4    1  0.5696713E+002  0.9699147E+02  0.7546771E-02  0.1169126E+00
          2   -1    0    0  502    0  0.00000000000E+00  0.00000000000E+00  0.16853938004E+04  0.16853938004E+04  0.00000000000E+00 0. -1.
         -2   -1    0    0    0  501 -0.00000000000E+00 -0.00000000000E+00 -0.43522254575E+02  0.43522254575E+02  0.00000000000E+00 0.  1.
         21    1    1    2  502  503 -0.66727510079E+02 -0.70390231091E+02  0.16280595015E+04  0.16309460708E+04  0.00000000000E+00 0. -1.
         21    1    1    2  503  501  0.66727510079E+02  0.70390231091E+02  0.13812044276E+02  0.97969984186E+02  0.00000000000E+00 0.  1.
</event>
<event>
 4    1  0.5696713E+002  0.2089562E+02  0.7546771E-02  0.1520760E+00
          2   -1    0    0  502    0  0.00000000000E+00  0.00000000000E+00  0.15322789069E+04  0.15322789069E+04  0.00000000000E+00 0.  1.
         -2   -1    0    0    0  501 -0.00000000000E+00 -0.00000000000E+00 -0.10241587770E+01  0.10241587770E+01  0.00000000000E+00 0. -1.
         21    1    1    2  502  503  0.15351220098E+02  0.14176280456E+02  0.14169514786E+04  0.14171055429E+04  0.00000000000E+00 0.  1.
         21    1    1    2  503  501 -0.15351220098E+02 -0.14176280456E+02  0.11430326951E+03  0.11619752281E+03  0.00000000000E+00 0. -1.
</event>
<event>
 4    1  0.5696713E+002  0.2735822E+02  0.7546771E-02  0.1444043E+00
          2   -1    0    0  503    0  0.00000000000E+00  0.00000000000E+00  0.33885506710E+03  0.33885506710E+03  0.00000000000E+00 0. -1.
         -2   -1    0    0    0  501 -0.00000000000E+00 -0.00000000000E+00 -0.23457929127E+01  0.23457929127E+01  0.00000000000E+00 0.  1.
         21    1    1    2  502  501 -0.18121372406E+02  0.20496053229E+02  0.12703150379E+03  0.12994412372E+03  0.00000000000E+00 0.  1.
         21    1    1    2  503  502  0.18121372406E+02 -0.20496053229E+02  0.20947777040E+03  0.21125673629E+03  0.00000000000E+00 0. -1.
</event>
<event>
 4    1  0.5696713E+002  0.2824010E+02  0.7546771E-02  0.1435534E+00
          2   -1    0    0  503    0  0.00000000000E+00  0.00000000000E+00  0.83969357215E+03  0.83969357215E+03  0.00000000000E+00 0. -1.
         -2   -1    0    0    0  501 -0.00000000000E+00 -0.00000000000E+00 -0.98095569888E+00  0.98095569888E+00  0.00000000000E+00 0.  1.
         21    1    1    2  502  501  0.22143565698E+02 -0.17526137689E+02  0.34439162326E+03  0.34554752665E+03  0.00000000000E+00 0.  1.
         21    1    1    2  503  502 -0.22143565698E+02  0.17526137689E+02  0.49432099319E+03  0.49512700120E+03  0.00000000000E+00 0. -1.
</event>
<event>
 4    1  0.5696713E+002  0.2673468E+02  0.7546771E-02  0.1450292E+00
          2   -1    0    0  503    0  0.00000000000E+00  0.00000000000E+00  0.10689214978E+04  0.10689214978E+04  0.00000000000E+00 0.  1.
         -2   -1    0    0    0  501 -0.00000000000E+00 -0.00000000000E+00 -0.15038518574E+01  0.15038518574E+01  0.00000000000E+00 0. -1.
         21    1    1    2  502  501  0.26612977137E+02  0.25480349928E+01  0.13485158524E+03  0.13747615457E+03  0.00000000000E+00 0. -1.
         21    1    1    2  503  502 -0.26612977137E+02 -0.25480349928E+01  0.93256606072E+03  0.93294919511E+03  0.00000000000E+00 0.  1.
</event>
<event>
 4    1  0.5696713E+002  0.2645047E+02  0.7546771E-02  0.1453208E+00
          2   -1    0    0  503    0  0.00000000000E+00  0.00000000000E+00  0.24438941174E+02  0.24438941174E+02  0.00000000000E+00 0. -1.
         -2   -1    0    0    0  501 -0.00000000000E+00 -0.00000000000E+00 -0.33445307126E+02  0.33445307126E+02  0.00000000000E+00 0.  1.
         21    1    1    2  502  501  0.25852802176E+02 -0.55910457924E+01 -0.15487800976E+02  0.30651250423E+02  0.00000000000E+00 0.  1.
         21    1    1    2  503  502 -0.25852802176E+02  0.55910457924E+01  0.64814350238E+01  0.27232997877E+02  0.00000000000E+00 0. -1.
</event>
<event>
 4    1  0.5696713E+002  0.3229800E+02  0.7546771E-02  0.1400624E+00
          2   -1    0    0  502    0  0.00000000000E+00  0.00000000000E+00  0.80024460436E+03  0.80024460436E+03  0.00000000000E+00 0. -1.
         -2   -1    0    0    0  501 -0.00000000000E+00 -0.00000000000E+00 -0.18862274331E+01  0.18862274331E+01  0.00000000000E+00 0.  1.
         21    1    1    2  502  503 -0.40706586686E+01 -0.32040454648E+02  0.17626829772E+03  0.17920288440E+03  0.00000000000E+00 0.  1.
         21    1    1    2  503  501  0.40706586686E+01  0.32040454648E+02  0.62209007920E+03  0.62292794739E+03  0.00000000000E+00 0. -1.
</event>
<event>
 4    1  0.5696713E+002  0.2031405E+02  0.7546771E-02  0.1529288E+00
          2   -1    0    0  503    0  0.00000000000E+00  0.00000000000E+00  0.79690937114E+03  0.79690937114E+03  0.00000000000E+00 0.  1.
         -2   -1    0    0    0  501 -0.00000000000E+00 -0.00000000000E+00 -0.27829650910E+01  0.27829650910E+01  0.00000000000E+00 0. -1.
         21    1    1    2  502  501 -0.65120657142E+01 -0.19241972294E+02  0.36329696117E+02  0.41623398679E+02  0.00000000000E+00 0. -1.
         21    1    1    2  503  502  0.65120657142E+01  0.19241972294E+02  0.75779670994E+03  0.75806893756E+03  0.00000000000E+00 0.  1.
</event>
<event>
 4    1  0.5696713E+002  0.4042119E+02  0.7546771E-02  0.1346035E+00
          2   -1    0    0  502    0  0.00000000000E+00  0.00000000000E+00  0.17494255805E+04  0.17494255805E+04  0.00000000000E+00 0. -1.
         -2   -1    0    0    0  501 -0.00000000000E+00 -0.00000000000E+00 -0.93394865789E+00  0.93394865789E+00  0.00000000000E+00 0.  1.
         21    1    1    2  502  503  0.40346077827E+02 -0.24629752000E+01  0.87342703477E+03  0.87436185720E+03  0.00000000000E+00 0. -1.
         21    1    1    2  503  501 -0.40346077827E+02  0.24629752000E+01  0.87506459703E+03  0.87599767192E+03  0.00000000000E+00 0.  1.
</event>
<event>
 4    1  0.5696713E+002  0.4407766E+02  0.7546771E-02  0.1326116E+00
          2   -1    0    0  503    0  0.00000000000E+00  0.00000000000E+00  0.12469260982E+02  0.12469260982E+02  0.00000000000E+00 0. -1.
         -2   -1    0    0    0  501 -0.00000000000E+00 -0.00000000000E+00 -0.15587331247E+03  0.15587331247E+03  0.00000000000E+00 0.  1.
         21    1    1    2  502  501 -0.39084041601E+02 -0.20378365830E+02 -0.70010540992E+02  0.82730381069E+02  0.00000000000E+00 0.  1.
         21    1    1    2  503  502  0.39084041601E+02  0.20378365830E+02 -0.73393510493E+02  0.85612192381E+02  0.00000000000E+00 0. -1.
</event>
<event>
 4    1  0.5696713E+002  0.5053754E+02  0.7546771E-02  0.1295859E+00
          2   -1    0    0  503    0  0.00000000000E+00  0.00000000000E+00  0.41974773184E+04  0.41974773184E+04  0.00000000000E+00 0. -1.
         -2   -1    0    0    0  501 -0.00000000000E+00 -0.00000000000E+00 -0.15846442371E+01  0.15846442371E+01  0.00000000000E+00 0.  1.
         21    1    1    2  502  501 -0.49313324449E+02  0.11056182066E+02  0.45008807787E+03  0.45291646136E+03  0.00000000000E+00 0.  1.
         21    1    1    2  503  502  0.49313324449E+02 -0.11056182066E+02  0.37458045962E+04  0.37461455012E+04  0.00000000000E+00 0. -1.
</event>
<event>
 4    1  0.5696713E+002  0.7719451E+02  0.7546771E-02  0.1210515E+00
          2   -1    0    0  502    0  0.00000000000E+00  0.00000000000E+00  0.29355143868E+03  0.29355143868E+03  0.00000000000E+00 0. -1.
         -2   -1    0    0    0  501 -0.00000000000E+00 -0.00000000000E+00 -0.14630930779E+03  0.14630930779E+03  0.00000000000E+00 0.  1.
         21    1    1    2  502  503 -0.12500387049E+02 -0.76175671881E+02  0.27772488988E+03  0.28825354659E+03  0.00000000000E+00 0. -1.
         21    1    1    2  503  501  0.12500387049E+02  0.76175671881E+02 -0.13048275899E+03  0.15160719988E+03  0.00000000000E+00 0.  1.
</event>
<event>
 4    1  0.5696713E+002  0.2514326E+02  0.7546771E-02  0.1467207E+00
          2   -1    0    0  502    0  0.00000000000E+00  0.00000000000E+00  0.20120149400E+03  0.20120149400E+03  0.00000000000E+00 0.  1.
         -2   -1    0    0    0  501 -0.00000000000E+00 -0.00000000000E+00 -0.50772191610E+01  0.50772191610E+01  0.00000000000E+00 0. -1.
         21    1    1    2  502  503 -0.15488391074E+02  0.19806398300E+02  0.16173754839E+03  0.16368023165E+03  0.00000000000E+00 0.  1.
         21    1    1    2  503  501  0.15488391074E+02 -0.19806398300E+02  0.34386726445E+02  0.42598481513E+02  0.00000000000E+00 0. -1.
</event>
<event>
 4    1  0.5696713E+002  0.2004652E+02  0.7546771E-02  0.1533326E+00
          2   -1    0    0  503    0  0.00000000000E+00  0.00000000000E+00  0.20789754236E+04  0.20789754236E+04  0.00000000000E+00 0. -1.
         -2   -1    0    0    0  501 -0.00000000000E+00 -0.00000000000E+00 -0.19333370306E+00  0.19333370306E+00  0.00000000000E+00 0.  1.
         21    1    1    2  502  501  0.17589942558E+02  0.96154567957E+01  0.10533943429E+04  0.10535850724E+04  0.00000000000E+00 0. -1.
         21    1    1    2  503  502 -0.17589942558E+02 -0.96154567957E+01  0.10253877470E+04  0.10255836850E+04  0.00000000000E+00 0.  1.
</event>
<event>
 4    1  0.5696713E+002  0.2081099E+02  0.7546771E-02  0.1521981E+00
          2   -1    0    0  502    0  0.00000000000E+00  0.00000000000E+00  0.84616156562E+03  0.84616156562E+03  0.00000000000E+00 0.  1.
         -2   -1    0    0    0  501 -0.00000000000E+00 -0.00000000000E+00 -0.59457732550E+00  0.59457732550E+00  0.00000000000E+00 0. -1.
         21    1    1    2  502  503  0.18727951109E+02 -0.90752936730E+01  0.58071974979E+03  0.58109252697E+03  0.00000000000E+00 0.  1.
         21    1    1    2  503  501 -0.18727951109E+02  0.90752936730E+01  0.26484723851E+03  0.26566361598E+03  0.00000000000E+00 0. -1.
</event>
<event>
 4    1  0.5696713E+002  0.2432892E+02  0.7546771E-02  0.1476453E+00
          2   -1    0    0  502    0  0.00000000000E+00  0.00000000000E+00  0.16953998560E+02  0.16953998560E+02  0.00000000000E+00 0.  1.
         -2   -1    0    0    0  501 -0.00000000000E+00 -0.00000000000E+00 -0.50231561515E+02  0.50231561515E+02  0.00000000000E+00 0. -1.
         21    1    1    2  502  503  0.10971744870E+02 -0.21714446861E+02  0.19128504870E+01  0.24404003462E+02  0.00000000000E+00 0.  1.
         21    1    1    2  503  501 -0.10971744870E+02  0.21714446861E+02 -0.35190413442E+02  0.42781556613E+02  0.00000000000E+00 0. -1.
</event>
<event>
 4    1  0.5696713E+002  0.2003278E+02  0.7546771E-02  0.1533535E+00
          2   -1    0    0  503    0  0.00000000000E+00  0.00000000000E+00  0.22160136614E+03  0.22160136614E+03  0.00000000000E+00 0. -1.
         -2   -1    0    0    0  501 -0.00000000000E+00 -0.00000000000E+00 -0.12741031949E+02  0.12741031949E+02  0.00000000000E+00 0.  1.
         21    1    1    2  502  501  0.35444161445E+01  0.19716732107E+02 -0.40948778990E+01  0.20447015327E+02  0.00000000000E+00 0.  1.
         21    1    1    2  503  502 -0.35444161445E+01 -0.19716732107E+02  0.21295521209E+03  0.21389538276E+03  0.00000000000E+00 0. -1.
</event>
<event>
 4    1  0.5696713E+002  0.3180355E+02  0.7546771E-02  0.1404545E+00
          2   -1    0    0  503    0  0.00000000000E+00  0.00000000000E+00  0.12580182992E+04  0.12580182992E+04  0.00000000000E+00 0.  1.
         -2   -1    0    0    0  501 -0.00000000000E+00 -0.00000000000E+00 -0.21642844331E+01  0.21642844331E+01  0.00000000000E+00 0. -1.
         21    1    1    2  502  501  0.30683322663E+02 -0.83665745679E+01  0.12840026421E+03  0.13228036026E+03  0.00000000000E+00 0. -1.
         21    1    1    2  503  502 -0.30683322663E+02  0.83665745679E+01  0.11274537506E+04  0.11279022234E+04  0.00000000000E+00 0.  1.
</event>
<event>
 4    1  0.5696713E+002  0.2651678E+02  0.7546771E-02  0.1452523E+00
          2   -1    0    0  503    0  0.00000000000E+00  0.00000000000E+00  0.73113381438E+03  0.73113381438E+03  0.00000000000E+00 0. -1.
         -2   -1    0    0    0  501 -0.00000000000E+00 -0.00000000000E+00 -0.27312538031E+01  0.27312538031E+01  0.00000000000E+00 0.  1.
         21    1    1    2  502  501  0.25880233598E+02  0.57752282240E+01  0.68852165876E+02  0.73781843958E+02  0.00000000000E+00 0.  1.
         21    1    1    2  503  502 -0.25880233598E+02 -0.57752282240E+01  0.65955039470E+03  0.66008322422E+03  0.00000000000E+00 0. -1.
</event>
<event>
 4    1  0.5696713E+002  0.2477938E+02  0.7546771E-02  0.1471287E+00
          2   -1    0    0  502    0  0.00000000000E+00  0.00000000000E+00  0.69735403412E+03  0.69735403412E+03  0.00000000000E+00 0.  1.
         -2   -1    0    0    0  501 -0.00000000000E+00 -0.00000000000E+00 -0.79350591321E+01  0.79350591321E+01  0.00000000000E+00 0. -1.
         21    1    1    2  502  503 -0.21168299948E+02 -0.12881015582E+02  0.67721369755E+03  0.67766688693E+03  0.00000000000E+00 0.  1.
         21    1    1    2  503  501  0.21168299948E+02  0.12881015582E+02  0.12205277441E+02  0.27622206330E+02  0.00000000000E+00 0. -1.
</event>
<event>
 4    1  0.5696713E+002  0.2181687E+02  0.7546771E-02  0.1507914E+00
          2   -1    0    0  502    0  0.00000000000E+00  0.00000000000E+00  0.36072244940E+03  0.36072244940E+03  0.00000000000E+00 0.  1.
         -2   -1    0    0    0  501 -0.00000000000E+00 -0.00000000000E+00 -0.13294069353E+01  0.13294069353E+01  0.00000000000E+00 0. -1.
         21    1    1    2  502  503 -0.14983352791E+02  0.15857958787E+02  0.16407465864E+03  0.16551878843E+03  0.00000000000E+00 0.  1.
         21    1    1    2  503  501  0.14983352791E+02 -0.15857958787E+02  0.19531838383E+03  0.19653306790E+03  0.00000000000E+00 0. -1.
</event>
<event>
 4    1  0.5696713E+002  0.3253734E+02  0.7546771E-02  0.1398755E+00
          2   -1    0    0  503    0  0.00000000000E+00  0.00000000000E+00  0.26505735508E+03  0.26505735508E+03  0.00000000000E+00 0. -1.
         -2   -1    0    0    0  501 -0.00000000000E+00 -0.00000000000E+00 -0.58993909699E+01  0.58993909699E+01  0.00000000000E+00 0.  1.
         21    1    1    2  502  501 -0.28375904848E+02 -0.15921255215E+02  0.52587700247E+02  0.61839668182E+02  0.00000000000E+00 0.  1.
         21    1    1    2  503  502  0.28375904848E+02  0.15921255215E+02  0.20657026386E+03  0.20911707787E+03  0.00000000000E+00 0. -1.
</event>
<event>
 4    1  0.5696713E+002  0.2263473E+02  0.7546771E-02  0.1497137E+00
          2   -1    0    0  503    0  0.00000000000E+00  0.00000000000E+00  0.13805807450E+04  0.13805807450E+04  0.00000000000E+00 0. -1.
         -2   -1    0    0    0  501 -0.00000000000E+00 -0.00000000000E+00 -0.76921536275E+00  0.76921536275E+00  0.00000000000E+00 0.  1.
         21    1    1    2  502  501  0.89626016016E+01 -0.20784673621E+02  0.19302148561E+03  0.19434408864E+03  0.00000000000E+00 0.  1.
         21    1    1    2  503  502 -0.89626016016E+01  0.20784673621E+02  0.11867900440E+04  0.11870058717E+04  0.00000000000E+00 0. -1.
</event>
<event>
 4    1  0.5696713E+002  0.2627705E+02  0.7546771E-02  0.1455009E+00
          2   -1    0    0  502    0  0.00000000000E+00  0.00000000000E+00  0.63901036763E+03  0.63901036763E+03  0.00000000000E+00 0. -1.
         -2   -1    0    0    0  501 -0.00000000000E+00 -0.00000000000E+00 -0.29918947002E+01  0.29918947002E+01  0.00000000000E+00 0.  1.
         21    1    1    2  502  503  0.46281709380E+01 -0.25866263391E+02  0.57457739654E+03  0.57517794478E+03  0.00000000000E+00 0. -1.
         21    1    1    2  503  501 -0.46281709380E+01  0.25866263391E+02  0.61441076398E+02  0.66824317557E+02  0.00000000000E+00 0.  1.
</event>
<event>
 4    1  0.5696713E+002  0.2068713E+02  0.7546771E-02  0.1523779E+00
          2   -1    0    0  502    0  0.00000000000E+00  0.00000000000E+00  0.78223372939E+03  0.78223372939E+03  0.00000000000E+00 0. -1.
         -2   -1    0    0    0  501 -0.00000000000E+00 -0.00000000000E+00 -0.79571996724E+00  0.79571996724E+00  0.00000000000E+00 0.  1.
         21    1    1    2  502  503  0.13960678300E+01 -0.20639974359E+02  0.60956509667E+03  0.60991603080E+03  0.00000000000E+00 0. -1.
         21    1    1    2  503  501 -0.13960678300E+01  0.20639974359E+02  0.17187291276E+03  0.17311341856E+03  0.00000000000E+00 0.  1.
</event>
<event>
 4    1  0.5696713E+002  0.5128644E+02  0.7546771E-02  0.1292689E+00
          2   -1    0    0  503    0  0.00000000000E+00  0.00000000000E+00  0.16141272492E+04  0.16141272492E+04  0.00000000000E+00 0.  1.
         -2   -1    0    0    0  501 -0.00000000000E+00 -0.00000000000E+00 -0.35557491401E+01  0.35557491401E+01  0.00000000000E+00 0. -1.
         21    1    1    2  502  501 -0.42918305414E+02 -0.28077006559E+02  0.20996833377E+03  0.21614115856E+03  0.00000000000E+00 0. -1.
         21    1    1    2  503  502  0.42918305414E+02  0.28077006559E+02  0.14006031663E+04  0.14015418398E+04  0.00000000000E+00 0.  1.
</event>
<event>
 4    1  0.5696713E+002  0.2342815E+02  0.7546771E-02  0.1487191E+00
          2   -1    0    0  503    0  0.00000000000E+00  0.00000000000E+00  0.50177474606E+01  0.50177474606E+01  0.00000000000E+00 0.  1.
         -2   -1    0    0    0  501 -0.00000000000E+00 -0.00000000000E+00 -0.30447945920E+03  0.30447945920E+03  0.00000000000E+00 0. -1.
         21    1    1    2  502  501  0.21912051198E+02 -0.82909598529E+01 -0.27360127619E+03  0.27460250607E+03  0.00000000000E+00 0. -1.
         21    1    1    2  503  502 -0.21912051198E+02  0.82909598529E+01 -0.25860435546E+02  0.34894700595E+02  0.00000000000E+00 0.  1.
</event>
<event>
 4    1  0.5696713E+002  0.2025962E+02  0.7546771E-02  0.1530103E+00
          2   -1    0    0  503    0  0.00000000000E+00  0.00000000000E+00  0.48231261131E+02  0.48231261131E+02  0.00000000000E+00 0.  1.
         -2   -1    0    0    0  501 -0.00000000000E+00 -0.00000000000E+00 -0.63608788072E+02  0.63608788072E+02  0.00000000000E+00 0. -1.
         21    1    1    2  502  501 -0.16226330251E+02  0.12130880120E+02 -0.59733820467E+02  0.63075996651E+02  0.00000000000E+00 0. -1.
         21    1    1    2  503  502  0.16226330251E+02 -0.12130880120E+02  0.44356293527E+02  0.48764052552E+02  0.00000000000E+00 0.  1.
</event>
<event>
 4    1  0.5696713E+002  0.2764548E+02  0.7546771E-02  0.1441230E+00
          2   -1    0    0  502    0  0.00000000000E+00  0.00000000000E+00  0.23366153570E+04  0.23366153570E+04  0.00000000000E+00 0.  1.
         -2   -1    0    0    0  501 -0.00000000000E+00 -0.00000000000E+00 -0.46295972681E+00  0.46295972681E+00  0.00000000000E+00 0. -1.
         21    1    1    2  502  503 -0.27060004835E+02 -0.56593746584E+01  0.18011300135E+04  0.18013421657E+04  0.00000000000E+00 0.  1.
         21    1    1    2  503  501  0.27060004835E+02  0.56593746584E+01  0.53502238380E+03  0.53573615106E+03  0.00000000000E+00 0. -1.
</event>
<event>
 4    1  0.5696713E+002  0.2946384E+02  0.7546771E-02  0.1424314E+00
          2   -1    0    0  502    0  0.00000000000E+00  0.00000000000E+00  0.38894465827E+02  0.38894465827E+02  0.00000000000E+00 0. -1.
         -2   -1    0    0    0  501 -0.00000000000E+00 -0.00000000000E+00 -0.23614470795E+02  0.23614470795E+02  0.00000000000E+00 0.  1.
         21    1    1    2  502  503  0.17896252030E+02  0.23406031504E+02  0.14958065392E+02  0.33043333181E+02  0.00000000000E+00 0. -1.
         21    1    1    2  503  501 -0.17896252030E+02 -0.23406031504E+02  0.32192964051E+00  0.29465603441E+02  0.00000000000E+00 0.  1.
</event>
<event>
 4    1  0.5696713E+002  0.3476427E+02  0.7546771E-02  0.1382228E+00
          2   -1    0    0  503    0  0.00000000000E+00  0.00000000000E+00  0.76663194990E+03  0.76663194990E+03  0.00000000000E+00 0. -1.
         -2   -1    0    0    0  501 -0.00000000000E+00 -0.00000000000E+00 -0.20505932653E+01  0.20505932653E+01  0.00000000000E+00 0.  1.
         21    1    1    2  502  501  0.11664087911E+02  0.32749094374E+02  0.19747716201E+03  0.20051379914E+03  0.00000000000E+00 0.  1.
         21    1    1    2  503  502 -0.11664087911E+02 -0.32749094374E+02  0.56710419462E+03  0.56816874403E+03  0.00000000000E+00 0. -1.
</event>
<event>
 4    1  0.5696713E+002  0.2007382E+02  0.7546771E-02  0.1532910E+00
          2   -1    0    0  502    0  0.00000000000E+00  0.00000000000E+00  0.39922843762E+01  0.39922843762E+01  0.00000000000E+00 0. -1.
         -2   -1    0    0    0  501 -0.00000000000E+00 -0.00000000000E+00 -0.21826812257E+03  0.21826812257E+03  0.00000000000E+00 0.  1.
         21    1    1    2  502  503 -0.14702498621E+02 -0.13667286920E+02 -0.25658360019E+02  0.32577747564E+02  0.00000000000E+00 0. -1.
         21    1    1    2  503  501  0.14702498621E+02  0.13667286920E+02 -0.18861747817E+03  0.18968265938E+03  0.00000000000E+00 0.  1.
</event>
<event>
 4    1  0.5696713E+002  0.4459923E+02  0.7546771E-02  0.1323456E+00
          2   -1    0    0  503    0  0.00000000000E+00  0.00000000000E+00  0.76647792122E+03  0.76647792122E+03  0.00000000000E+00 0.  1.
         -2   -1    0    0    0  501 -0.00000000000E+00 -0.00000000000E+00 -0.31992932836E+01  0.31992932836E+01  0.00000000000E+00 0. -1.
         21    1    1    2  502  501 -0.32982329864E+02 -0.30020943867E+02  0.21440032353E+03  0.21898993101E+03  0.00000000000E+00 0. -1.
         21    1    1    2  503  502  0.32982329864E+02  0.30020943867E+02  0.54887830441E+03  0.55068728349E+03  0.00000000000E+00 0.  1.
</event>
<event>
 4    1  0.5696713E+002  0.2241928E+02  0.7546771E-02  0.1499922E+00
          2   -1    0    0  503    0  0.00000000000E+00  0.00000000000E+00  0.12689374946E+04  0.12689374946E+04  0.00000000000E+00 0.  1.
         -2   -1    0    0    0  501 -0.00000000000E+00 -0.00000000000E+00 -0.45970896676E+00  0.45970896676E+00  0.00000000000E+00 0. -1.
         21    1    1    2  502  501 -0.21501005496E+02  0.63506526362E+01  0.39814164990E+03  0.39877236290E+03  0.00000000000E+00 0. -1.
         21    1    1    2  503  502  0.21501005496E+02 -0.63506526362E+01  0.87033613578E+03  0.87062484072E+03  0.00000000000E+00 0.  1.
</event>
<event>
 4    1  0.5696713E+002  0.2777034E+02  0.7546771E-02  0.1440020E+00
          2   -1    0    0  502    0  0.00000000000E+00  0.00000000000E+00  0.13187114435E+04  0.13187114435E+04  0.00000000000E+00 0. -1.
         -2   -1    0    0    0  501 -0.00000000000E+00 -0.00000000000E+00 -0.13178639865E+01  0.13178639865E+01  0.00000000000E+00 0.  1.
         21    1    1    2  502  503 -0.26796734406E+02  0.72888237704E+01  0.11509483448E+04  0.11512833206E+04  0.00000000000E+00 0. -1.
         21    1    1    2  503  501  0.26796734406E+02 -0.72888237704E+01  0.16644523474E+03  0.16874598690E+03  0.00000000000E+00 0.  1.
</event>
<event>
 4    1  0.5696713E+002  0.2439604E+02  0.7546771E-02  0.1475675E+00
          2   -1    0    0  503    0  0.00000000000E+00  0.00000000000E+00  0.10072602991E+03  0.10072602991E+03  0.00000000000E+00 0.  1.
         -2   -1    0    0    0  501 -0.00000000000E+00 -0.00000000000E+00 -0.22684227775E+02  0.22684227775E+02  0.00000000000E+00 0. -1.
         21    1    1    2  502  501  0.23769504745E+02 -0.54933914915E+01 -0.14042671304E+02  0.28148948884E+02  0.00000000000E+00 0. -1.
         21    1    1    2  503  502 -0.23769504745E+02  0.54933914915E+01  0.92084473437E+02  0.95261308799E+02  0.00000000000E+00 0.  1.
</event>
<event>
 4    1  0.5696713E+002  0.2370081E+02  0.7546771E-02  0.1483881E+00
          2   -1    0    0  503    0  0.00000000000E+00  0.00000000000E+00  0.65119191219E+02  0.65119191219E+02  0.00000000000E+00 0.  1.
         -2   -1    0    0    0  501 -0.00000000000E+00 -0.00000000000E+00 -0.13547195893E+02  0.13547195893E+02  0.00000000000E+00 0. -1.
         21    1    1    2  502  501 -0.22529821698E+02  0.73576881294E+01  0.20797480461E+01  0.23791885009E+02  0.00000000000E+00 0. -1.
         21    1    1    2  503  502  0.22529821698E+02 -0.73576881294E+01  0.49492247280E+02  0.54874502104E+02  0.00000000000E+00 0.  1.
</event>
<event>
 4    1  0.5696713E+002  0.2018969E+02  0.7546771E-02  0.1531155E+00
          2   -1    0    0  503    0  0.00000000000E+00  0.00000000000E+00  0.23091827259E+01  0.23091827259E+01  0.00000000000E+00 0.  1.
         -2   -1    0    0    0  501 -0.00000000000E+00 -0.00000000000E+00 -0.18074810474E+03  0.18074810474E+03  0.00000000000E+00 0. -1.
         21    1    1    2  502  501  0.12454413864E+02  0.15890605008E+02 -0.10321344400E+03  0.10516957153E+03  0.00000000000E+00 0. -1.
         21    1    1    2  503  502 -0.12454413864E+02 -0.15890605008E+02 -0.75225478014E+02  0.77887715942E+02  0.00000000000E+00 0.  1.
</event>
<event>
 4    1  0.5696713E+002  0.2989727E+02  0.7546771E-02  0.1420491E+00
          2   -1    0    0  503    0  0.00000000000E+00  0.00000000000E+00  0.12646862475E+03  0.12646862475E+03  0.00000000000E+00 0. -1.
         -2   -1    0    0    0  501 -0.00000000000E+00 -0.00000000000E+00 -0.75244420553E+01  0.75244420553E+01  0.00000000000E+00 0.  1.
         21    1    1    2  502  501 -0.18286004608E+02 -0.23653093804E+02  0.42966400001E+02  0.52344611375E+02  0.00000000000E+00 0.  1.
         21    1    1    2  503  502  0.18286004608E+02  0.23653093804E+02  0.75977782693E+02  0.81648455429E+02  0.00000000000E+00 0. -1.
</event>
<event>
 4    1  0.5696713E+002  0.2121974E+02  0.7546771E-02  0.1516150E+00
          2   -1    0    0  503    0  0.00000000000E+00  0.00000000000E+00  0.11022781128E+03  0.11022781128E+03  0.00000000000E+00 0.  1.
         -2   -1    0    0    0  501 -0.00000000000E+00 -0.00000000000E+00 -0.68816290144E+01  0.68816290144E+01  0.00000000000E+00 0. -1.
         21    1    1    2  502  501  0.15969682078E+02  0.13973073394E+02  0.14344991298E+02  0.25613596020E+02  0.00000000000E+00 0. -1.
         21    1    1    2  503  502 -0.15969682078E+02 -0.13973073394E+02  0.89001190965E+02  0.91495844271E+02  0.00000000000E+00 0.  1.
</event>
<event>
 4    1  0.5696713E+002  0.2182844E+02  0.7546771E-02  0.1507758E+00
          2   -1    0    0  502    0  0.00000000000E+00  0.00000000000E+00  0.56316616979E+02  0.56316616979E+02  0.00000000000E+00 0.  1.
         -2   -1    0    0    0  501 -0.00000000000E+00 -0.00000000000E+00 -0.88154958503E+01  0.88154958503E+01  0.00000000000E+00 0. -1.
         21    1    1    2  502  503 -0.89244102639E+01 -0.19920737072E+02  0.30283369396E+02  0.37330461101E+02  0.00000000000E+00 0. -1.
         21    1    1    2  503  501  0.89244102639E+01  0.19920737072E+02  0.17217751733E+02  0.27801651728E+02  0.00000000000E+00 0.  1.
</event>
<event>
 4    1  0.5696713E+002  0.2535228E+02  0.7546771E-02  0.1464901E+00
          2   -1    0    0  503    0  0.00000000000E+00  0.00000000000E+00  0.10696376804E+02  0.10696376804E+02  0.00000000000E+00 0.  1.
         -2   -1    0    0    0  501 -0.00000000000E+00 -0.00000000000E+00 -0.12855859419E+03  0.12855859419E+03  0.00000000000E+00 0. -1.
         21    1    1    2  502  501 -0.20806667171E+02 -0.14485195808E+02 -0.10974447075E+03  0.11263475111E+03  0.00000000000E+00 0. -1.
         21    1    1    2  503  502  0.20806667171E+02  0.14485195808E+02 -0.81177466327E+01  0.26620219886E+02  0.00000000000E+00 0.  1.
</event>
<event>
 4    1  0.5696713E+002  0.2207799E+02  0.7546771E-02  0.1504412E+00
          2   -1    0    0  502    0  0.00000000000E+00  0.00000000000E+00  0.93339086017E+03  0.93339086017E+03  0.00000000000E+00 0. -1.
         -2   -1    0    0    0  501 -0.00000000000E+00 -0.00000000000E+00 -0.46678458860E+01  0.46678458860E+01  0.00000000000E+00 0.  1.
         21    1    1    2  502  503  0.61782430904E+01 -0.21195921662E+02  0.90637618080E+03  0.90664503468E+03  0.00000000000E+00 0. -1.
         21    1    1    2  503  501 -0.61782430904E+01  0.21195921662E+02  0.22346833487E+02  0.31413671382E+02  0.00000000000E+00 0.  1.
</event>
<event>
 4    1  0.5696713E+002  0.2145766E+02  0.7546771E-02  0.1512830E+00
          2   -1    0    0  503    0  0.00000000000E+00  0.00000000000E+00  0.13109879469E+02  0.13109879469E+02  0.00000000000E+00 0. -1.
         -2   -1    0    0    0  501 -0.00000000000E+00 -0.00000000000E+00 -0.47240049281E+02  0.47240049281E+02  0.00000000000E+00 0.  1.
         21    1    1    2  502  501 -0.18932345643E+02 -0.10099379347E+02 -0.17814341994E+01  0.21531481197E+02  0.00000000000E+00 0.  1.
         21    1    1    2  503  502  0.18932345643E+02  0.10099379347E+02 -0.32348735612E+02  0.38818447553E+02  0.00000000000E+00 0. -1.
</event>
<event>
 4    1  0.5696713E+002  0.2011233E+02  0.7546771E-02  0.1532325E+00
          2   -1    0    0  502    0  0.00000000000E+00  0.00000000000E+00  0.64758107443E+02  0.64758107443E+02  0.00000000000E+00 0.  1.
         -2   -1    0    0    0  501 -0.00000000000E+00 -0.00000000000E+00 -0.14125275501E+02  0.14125275501E+02  0.00000000000E+00 0. -1.
         21    1    1    2  502  503  0.12179814052E+02 -0.16004938304E+02  0.54773436218E+02  0.58349252228E+02  0.00000000000E+00 0.  1.
         21    1    1    2  503  501 -0.12179814052E+02  0.16004938304E+02 -0.41406042767E+01  0.20534130715E+02  0.00000000000E+00 0. -1.
</event>
<event>
 4    1  0.5696713E+002  0.2306961E+02  0.7546771E-02  0.1491626E+00
          2   -1    0    0  503    0  0.00000000000E+00  0.00000000000E+00  0.11871386098E+04  0.11871386098E+04  0.00000000000E+00 0.  1.
         -2   -1    0    0    0  501 -0.00000000000E+00 -0.00000000000E+00 -0.83200994699E+00  0.83200994699E+00  0.00000000000E+00 0. -1.
         21    1    1    2  502  501  0.75554045868E+01 -0.21797316169E+02  0.18978029700E+03  0.19117732151E+03  0.00000000000E+00 0. -1.
         21    1    1    2  503  502 -0.75554045868E+01  0.21797316169E+02  0.99652630290E+03  0.99679329828E+03  0.00000000000E+00 0.  1.
</event>
<event>
 4    1  0.5696713E+002  0.4937459E+02  0.7546771E-02  0.1300907E+00
          2   -1    0    0  503    0  0.00000000000E+00  0.00000000000E+00  0.24840807469E+04  0.24840807469E+04  0.00000000000E+00 0.  1.
         -2   -1    0    0    0  501 -0.00000000000E+00 -0.00000000000E+00 -0.18135817989E+01  0.18135817989E+01  0.00000000000E+00 0. -1.
         21    1    1    2  502  501 -0.38605202035E+02 -0.30781306581E+02  0.20831023305E+04  0.20836873973E+04  0.00000000000E+00 0.  1.
         21    1    1    2  503  502  0.38605202035E+02  0.30781306581E+02  0.39916483463E+03  0.40220693140E+03  0.00000000000E+00 0. -1.
</event>
<event>
 4    1  0.5696713E+002  0.2089803E+02  0.7546771E-02  0.1520726E+00
          2   -1    0    0  502    0  0.00000000000E+00  0.00000000000E+00  0.21396118758E+03  0.21396118758E+03  0.00000000000E+00 0.  1.
         -2   -1    0    0    0  501 -0.00000000000E+00 -0.00000000000E+00 -0.21778310217E+01  0.21778310217E+01  0.00000000000E+00 0. -1.
         21    1    1    2  502  503  0.13935417646E+02 -0.15573427097E+02  0.13296494148E+03  0.13459718853E+03  0.00000000000E+00 0. -1.
         21    1    1    2  503  501 -0.13935417646E+02  0.15573427097E+02  0.78818415079E+02  0.81541830075E+02  0.00000000000E+00 0.  1.
</event>
<event>
 4    1  0.5696713E+002  0.2009038E+02  0.7546771E-02  0.1532658E+00
          2   -1    0    0  502    0  0.00000000000E+00  0.00000000000E+00  0.15212873799E+02  0.15212873799E+02  0.00000000000E+00 0. -1.
         -2   -1    0    0    0  501 -0.00000000000E+00 -0.00000000000E+00 -0.68962010106E+02  0.68962010106E+02  0.00000000000E+00 0.  1.
         21    1    1    2  502  503 -0.19877731364E+02 -0.29153661083E+01  0.61384798673E+01  0.21007248720E+02  0.00000000000E+00 0. -1.
         21    1    1    2  503  501  0.19877731364E+02  0.29153661083E+01 -0.59887616175E+02  0.63167635185E+02  0.00000000000E+00 0.  1.
</event>
<event>
 4    1  0.5696713E+002  0.2826416E+02  0.7546771E-02  0.1435307E+00
          2   -1    0    0  503    0  0.00000000000E+00  0.00000000000E+00  0.17590626297E+02  0.17590626297E+02  0.00000000000E+00 0.  1.
         -2   -1    0    0    0  501 -0.00000000000E+00 -0.00000000000E+00 -0.46381309837E+02  0.46381309837E+02  0.00000000000E+00 0. -1.
         21    1    1    2  502  501  0.31154270854E+01  0.28091934817E+02 -0.19014315187E+02  0.34064745261E+02  0.00000000000E+00 0. -1.
         21    1    1    2  503  502 -0.31154270854E+01 -0.28091934817E+02 -0.97763683528E+01  0.29907190872E+02  0.00000000000E+00 0.  1.
</event>
<event>
 4    1  0.5696713E+002  0.2113494E+02  0.7546771E-02  0.1517347E+00
          2   -1    0    0  503    0  0.00000000000E+00  0.00000000000E+00  0.50726352263E+02  0.50726352263E+02  0.00000000000E+00 0. -1.
         -2   -1    0    0    0  501 -0.00000000000E+00 -0.00000000000E+00 -0.24305840365E+02  0.24305840365E+02  0.00000000000E+00 0.  1.
         21    1    1    2  502  501 -0.27511214768E+01 -0.20955122486E+02 -0.16748847652E+02  0.26966826388E+02  0.00000000000E+00 0.  1.
         21    1    1    2  503  502  0.27511214768E+01  0.20955122486E+02  0.43169359551E+02  0.48065366240E+02  0.00000000000E+00 0. -1.
</event>
<event>
 4    1  0.5696713E+002  0.2129048E+02  0.7546771E-02  0.1515158E+00
          2   -1    0    0  503    0  0.00000000000E+00  0.00000000000E+00  0.10821362434E+04  0.10821362434E+04  0.00000000000E+00 0.  1.
         -2   -1    0    0    0  501 -0.00000000000E+00 -0.00000000000E+00 -0.42012795601E+00  0.42012795601E+00  0.00000000000E+00 0. -1.
         21    1    1    2  502  501 -0.53456549542E+01 -0.20608461548E+02  0.51135192957E+03  0.51179495952E+03  0.00000000000E+00 0. -1.
         21    1    1    2  503  502  0.53456549542E+01  0.20608461548E+02  0.57036418588E+03  0.57076141184E+03  0.00000000000E+00 0.  1.
</event>
<event>
 4    1  0.5696713E+002  0.4214924E+02  0.7546771E-02  0.1336332E+00
          2   -1    0    0  502    0  0.00000000000E+00  0.00000000000E+00  0.92474449595E+02  0.92474449595E+02  0.00000000000E+00 0. -1.
         -2   -1    0    0    0  501 -0.00000000000E+00 -0.00000000000E+00 -0.63642345898E+02  0.63642345898E+02  0.00000000000E+00 0.  1.
         21    1    1    2  502  503 -0.40594324620E+02  0.11342799945E+02  0.79637374899E+02  0.90103661317E+02  0.00000000000E+00 0. -1.
         21    1    1    2  503  501  0.40594324620E+02 -0.11342799945E+02 -0.50805271201E+02  0.66013134176E+02  0.00000000000E+00 0.  1.
</event>
<event>
 4    1  0.5696713E+002  0.2601120E+02  0.7546771E-02  0.1457802E+00
          2   -1    0    0  502    0  0.00000000000E+00  0.00000000000E+00  0.60272121060E+02  0.60272121060E+02  0.00000000000E+00 0.  1.
         -2   -1    0    0    0  501 -0.00000000000E+00 -0.00000000000E+00 -0.18326979788E+02  0.18326979788E+02  0.00000000000E+00 0. -1.
         21    1    1    2  502  503 -0.40441814267E+01 -0.25694881083E+02  0.45436024102E+02  0.52354699918E+02  0.00000000000E+00 0.  1.
         21    1    1    2  503  501  0.40441814267E+01  0.25694881083E+02 -0.34908828296E+01  0.26244400930E+02  0.00000000000E+00 0. -1.
</event>
<event>
 4    1  0.5696713E+002  0.6459634E+02  0.7546771E-02  0.1244968E+00
          2   -1    0    0  503    0  0.00000000000E+00  0.00000000000E+00  0.54169137129E+03  0.54169137129E+03  0.00000000000E+00 0.  1.
         -2   -1    0    0    0  501 -0.00000000000E+00 -0.00000000000E+00 -0.83179596705E+01  0.83179596705E+01  0.00000000000E+00 0. -1.
         21    1    1    2  502  501  0.42315943053E+02  0.48806232196E+02  0.19191629914E+03  0.20249581036E+03  0.00000000000E+00 0.  1.
         21    1    1    2  503  502 -0.42315943053E+02 -0.48806232196E+02  0.34145711248E+03  0.34751352060E+03  0.00000000000E+00 0. -1.
</event>
<event>
 4    1  0.5696713E+002  0.4071743E+02  0.7546771E-02  0.1344332E+00
          2   -1    0    0  502    0  0.00000000000E+00  0.00000000000E+00  0.28770126316E+03  0.28770126316E+03  0.00000000000E+00 0.  1.
         -2   -1    0    0    0  501 -0.00000000000E+00 -0.00000000000E+00 -0.10726715920E+02  0.10726715920E+02  0.00000000000E+00 0. -1.
         21    1    1    2  502  503  0.34684158921E+02  0.21328806237E+02  0.23999447946E+03  0.24342403133E+03  0.00000000000E+00 0.  1.
         21    1    1    2  503  501 -0.34684158921E+02 -0.21328806237E+02  0.36980067781E+02  0.55003947755E+02  0.00000000000E+00 0. -1.
</event>
<event>
 4    1  0.5696713E+002  0.3212513E+02  0.7546771E-02  0.1401985E+00
          2   -1    0    0  502    0  0.00000000000E+00  0.00000000000E+00  0.42291260875E+02  0.42291260875E+02  0.00000000000E+00 0. -1.
         -2   -1    0    0    0  501 -0.00000000000E+00 -0.00000000000E+00 -0.25609029646E+02  0.25609029646E+02  0.00000000000E+00 0.  1.
         21    1    1    2  502  503  0.31338788978E+02 -0.70643069492E+01  0.15709369116E+02  0.35760430721E+02  0.00000000000E+00 0. -1.
         21    1    1    2  503  501 -0.31338788978E+02  0.70643069492E+01  0.97286211286E+00  0.32139859800E+02  0.00000000000E+00 0.  1.
</event>
<event>
 4    1  0.5696713E+002  0.2088760E+02  0.7546771E-02  0.1520876E+00
          2   -1    0    0  502    0  0.00000000000E+00  0.00000000000E+00  0.69496520628E+00  0.69496520628E+00  0.00000000000E+00 0. -1.
         -2   -1    0    0    0  501 -0.00000000000E+00 -0.00000000000E+00 -0.74773172410E+03  0.74773172410E+03  0.00000000000E+00 0.  1.
         21    1    1    2  502  503  0.17840441110E+02  0.10863272457E+02 -0.22364241939E+03  0.22461572469E+03  0.00000000000E+00 0. -1.
         21    1    1    2  503  501 -0.17840441110E+02 -0.10863272457E+02 -0.52339433951E+03  0.52381096462E+03  0.00000000000E+00 0.  1.
</event>
<event>
 4    1  0.5696713E+002  0.3258403E+02  0.7546771E-02  0.1398393E+00
          2   -1    0    0  502    0  0.00000000000E+00  0.00000000000E+00  0.16131221787E+03  0.16131221787E+03  0.00000000000E+00 0.  1.
         -2   -1    0    0    0  501 -0.00000000000E+00 -0.00000000000E+00 -0.10801954461E+02  0.10801954461E+02  0.00000000000E+00 0. -1.
         21    1    1    2  502  503  0.31606337194E+02  0.79220135984E+01  0.12904512908E+03  0.13309531994E+03  0.00000000000E+00 0.  1.
         21    1    1    2  503  501 -0.31606337194E+02 -0.79220135984E+01  0.21465134329E+02  0.39018852392E+02  0.00000000000E+00 0. -1.
</event>
<event>
 4    1  0.5696713E+002  0.2462122E+02  0.7546771E-02  0.1473086E+00
          2   -1    0    0  503    0  0.00000000000E+00  0.00000000000E+00  0.52547430420E+00  0.52547430420E+00  0.00000000000E+00 0.  1.
         -2   -1    0    0    0  501 -0.00000000000E+00 -0.00000000000E+00 -0.12718771586E+04  0.12718771586E+04  0.00000000000E+00 0. -1.
         21    1    1    2  502  501  0.98528564047E+01  0.22563816000E+02 -0.82965790308E+03  0.83002315673E+03  0.00000000000E+00 0. -1.
         21    1    1    2  503  502 -0.98528564047E+01 -0.22563816000E+02 -0.44169378124E+03  0.44237947619E+03  0.00000000000E+00 0.  1.
</event>
<event>
 4    1  0.5696713E+002  0.2064728E+02  0.7546771E-02  0.1524361E+00
          2   -1    0    0  503    0  0.00000000000E+00  0.00000000000E+00  0.17897983646E+01  0.17897983646E+01  0.00000000000E+00 0. -1.
         -2   -1    0    0    0  501 -0.00000000000E+00 -0.00000000000E+00 -0.60488033626E+03  0.60488033626E+03  0.00000000000E+00 0.  1.
         21    1    1    2  502  501 -0.17690290216E+02  0.10647250577E+02 -0.53772259512E+03  0.53811885269E+03  0.00000000000E+00 0.  1.
         21    1    1    2  503  502  0.17690290216E+02 -0.10647250577E+02 -0.65367942767E+02  0.68551281931E+02  0.00000000000E+00 0. -1.
</event>
<event>
 4    1  0.5696713E+002  0.2263937E+02  0.7546771E-02  0.1497077E+00
          2   -1    0    0  502    0  0.00000000000E+00  0.00000000000E+00  0.12271037553E+04  0.12271037553E+04  0.00000000000E+00 0.  1.
         -2   -1    0    0    0  501 -0.00000000000E+00 -0.00000000000E+00 -0.68532517274E+00  0.68532517274E+00  0.00000000000E+00 0. -1.
         21    1    1    2  502  503  0.17350612004E+02 -0.14542944071E+02  0.99684783307E+03  0.99710488077E+03  0.00000000000E+00 0.  1.
         21    1    1    2  503  501 -0.17350612004E+02  0.14542944071E+02  0.22957059702E+03  0.23068419967E+03  0.00000000000E+00 0. -1.
</event>
<event>
 4    1  0.5696713E+002  0.2428083E+02  0.7546771E-02  0.1477012E+00
          2   -1    0    0  503    0  0.00000000000E+00  0.00000000000E+00  0.12811356572E+01  0.12811356572E+01  0.00000000000E+00 0.  1.
         -2   -1    0    0    0  501 -0.00000000000E+00 -0.00000000000E+00 -0.49834361261E+03  0.49834361261E+03  0.00000000000E+00 0. -1.
         21    1    1    2  502  501 -0.24269163918E+02  0.75266526135E+00 -0.31765834966E+03  0.31858497443E+03  0.00000000000E+00 0. -1.
         21    1    1    2  503  502  0.24269163918E+02 -0.75266526135E+00 -0.17940412729E+03  0.18103977384E+03  0.00000000000E+00 0.  1.
</event>
<event>
 4    1  0.5696713E+002  0.2660659E+02  0.7546771E-02  0.1451601E+00
          2   -1    0    0  502    0  0.00000000000E+00  0.00000000000E+00  0.83682270646E+02  0.83682270646E+02  0.00000000000E+00 0.  1.
         -2   -1    0    0    0  501 -0.00000000000E+00 -0.00000000000E+00 -0.46727408335E+02  0.46727408335E+02  0.00000000000E+00 0. -1.
         21    1    1    2  502  503 -0.18402690248E+02  0.19215921457E+02  0.77485487974E+02  0.81926256428E+02  0.00000000000E+00 0.  1.
         21    1    1    2  503  501  0.18402690248E+02 -0.19215921457E+02 -0.40530625662E+02  0.48483422552E+02  0.00000000000E+00 0. -1.
</event>
<event>
 4    1  0.5696713E+002  0.2535118E+02  0.7546771E-02  0.1464913E+00
          2   -1    0    0  502    0  0.00000000000E+00  0.00000000000E+00  0.89505608266E+03  0.89505608266E+03  0.00000000000E+00 0.  1.
         -2   -1    0    0    0  501 -0.00000000000E+00 -0.00000000000E+00 -0.78648251855E+00  0.78648251855E+00  0.00000000000E+00 0. -1.
         21    1    1    2  502  503 -0.61524820737E+00 -0.25343713384E+02  0.57927451868E+03  0.57982898369E+03  0.00000000000E+00 0.  1.
         21    1    1    2  503  501  0.61524820737E+00  0.25343713384E+02  0.31499508146E+03  0.31601358148E+03  0.00000000000E+00 0. -1.
</event>
<event>
 4    1  0.5696713E+002  0.2199464E+02  0.7546771E-02  0.1505524E+00
          2   -1    0    0  502    0  0.00000000000E+00  0.00000000000E+00  0.10504477383E+01  0.10504477383E+01  0.00000000000E+00 0. -1.
         -2   -1    0    0    0  501 -0.00000000000E+00 -0.00000000000E+00 -0.47734952004E+03  0.47734952004E+03  0.00000000000E+00 0.  1.
         21    1    1    2  502  503  0.16357793355E+02 -0.14703286644E+02 -0.19325089750E+03  0.19449851780E+03  0.00000000000E+00 0. -1.
         21    1    1    2  503  501 -0.16357793355E+02  0.14703286644E+02 -0.28304817480E+03  0.28390144998E+03  0.00000000000E+00 0.  1.
</event>
<event>
 4    1  0.5696713E+002  0.3376259E+02  0.7546771E-02  0.1389478E+00
          2   -1    0    0  502    0  0.00000000000E+00  0.00000000000E+00  0.99431445069E+03  0.99431445069E+03  0.00000000000E+00 0.  1.
         -2   -1    0    0    0  501 -0.00000000000E+00 -0.00000000000E+00 -0.13546049752E+01  0.13546049752E+01  0.00000000000E+00 0. -1.
         21    1    1    2  502  503  0.23436116228E+02  0.24303521032E+02  0.69164052155E+03  0.69246409563E+03  0.00000000000E+00 0. -1.
         21    1    1    2  503  501 -0.23436116228E+02 -0.24303521032E+02  0.30131932417E+03  0.30320496004E+03  0.00000000000E+00 0.  1.
</event>
<event>
 4    1  0.5696713E+002  0.2833521E+02  0.7546771E-02  0.1434638E+00
          2   -1    0    0  502    0  0.00000000000E+00  0.00000000000E+00  0.26620268069E+04  0.26620268069E+04  0.00000000000E+00 0.  1.
         -2   -1    0    0    0  501 -0.00000000000E+00 -0.00000000000E+00 -0.36219710128E+00  0.36219710128E+00  0.00000000000E+00 0. -1.
         21    1    1    2  502  503  0.24260652428E+02  0.14639148178E+02  0.18753005639E+04  0.18755146198E+04  0.00000000000E+00 0.  1.
         21    1    1    2  503  501 -0.24260652428E+02 -0.14639148178E+02  0.78636404591E+03  0.78687438427E+03  0.00000000000E+00 0. -1.
</event>
<event>
 4    1  0.5696713E+002  0.2922489E+02  0.7546771E-02  0.1426454E+00
          2   -1    0    0  502    0  0.00000000000E+00  0.00000000000E+00  0.43515980850E+03  0.43515980850E+03  0.00000000000E+00 0. -1.
         -2   -1    0    0    0  501 -0.00000000000E+00 -0.00000000000E+00 -0.29365557485E+01  0.29365557485E+01  0.00000000000E+00 0.  1.
         21    1    1    2  502  503 -0.78076242422E+01 -0.28162654234E+02  0.34225510520E+03  0.34350058388E+03  0.00000000000E+00 0. -1.
         21    1    1    2  503  501  0.78076242422E+01  0.28162654234E+02  0.89968147552E+02  0.94595780370E+02  0.00000000000E+00 0.  1.
</event>
<event>
 4    1  0.5696713E+002  0.2630883E+02  0.7546771E-02  0.1454677E+00
          2   -1    0    0  503    0  0.00000000000E+00  0.00000000000E+00  0.13987501782E+02  0.13987501782E+02  0.00000000000E+00 0.  1.
         -2   -1    0    0    0  501 -0.00000000000E+00 -0.00000000000E+00 -0.64204901237E+02  0.64204901237E+02  0.00000000000E+00 0. -1.
         21    1    1    2  502  501  0.11369798939E+02  0.23725141914E+02 -0.43829339213E+02  0.51119132060E+02  0.00000000000E+00 0. -1.
         21    1    1    2  503  502 -0.11369798939E+02 -0.23725141914E+02 -0.63880602417E+01  0.27073270959E+02  0.00000000000E+00 0.  1.
</event>
<event>
 4    1  0.5696713E+002  0.2925313E+02  0.7546771E-02  0.1426200E+00
          2   -1    0    0  503    0  0.00000000000E+00  0.00000000000E+00  0.10246237751E+03  0.10246237751E+03  0.00000000000E+00 0.  1.
         -2   -1    0    0    0  501 -0.00000000000E+00 -0.00000000000E+00 -0.12515589774E+02  0.12515589774E+02  0.00000000000E+00 0. -1.
         21    1    1    2  502  501  0.16274342432E+02 -0.24308263686E+02  0.11814269610E+02  0.31548738032E+02  0.00000000000E+00 0. -1.
         21    1    1    2  503  502 -0.16274342432E+02  0.24308263686E+02  0.78132518130E+02  0.83429229257E+02  0.00000000000E+00 0.  1.
</event>
<event>
 4    1  0.5696713E+002  0.2544721E+02  0.7546771E-02  0.1463862E+00
          2   -1    0    0  503    0  0.00000000000E+00  0.00000000000E+00  0.99936996811E+03  0.99936996811E+03  0.00000000000E+00 0. -1.
         -2   -1    0    0    0  501 -0.00000000000E+00 -0.00000000000E+00 -0.39338724067E+02  0.39338724067E+02  0.00000000000E+00 0.  1.
         21    1    1    2  502  501 -0.75012196454E+01 -0.24316499302E+02 -0.35043685798E+02  0.43308432767E+02  0.00000000000E+00 0.  1.
         21    1    1    2  503  502  0.75012196454E+01  0.24316499302E+02  0.99507492984E+03  0.99540025941E+03  0.00000000000E+00 0. -1.
</event>
