<event>
 4    1  0.3555026E+003  0.3901160E+02  0.7546771E-02  0.1354377E+00
          2   -1    0    0  502    0  0.00000000000E+00  0.00000000000E+00  0.15090399155E+02  0.15090399155E+02  0.00000000000E+00 0. -1.
          1   -1    0    0  501    0 -0.00000000000E+00 -0.00000000000E+00 -0.27201430997E+03  0.27201430997E+03  0.00000000000E+00 0. -1.
          2    1    1    2  501    0 -0.35115608572E+01  0.38853235645E+02 -0.14589722283E+02  0.41650509913E+02  0.00000000000E+00 0. -1.
          1    1    1    2  502    0  0.35115608572E+01 -0.38853235645E+02 -0.24233418853E+03  0.24545419921E+03  0.00000000000E+00 0. -1.
</event>
<event>
 4    1  0.3555026E+003  0.2342194E+02  0.7546771E-02  0.1487267E+00
          2   -1    0    0  502    0  0.00000000000E+00  0.00000000000E+00  0.67891251926E+02  0.67891251926E+02  0.00000000000E+00 0.  1.
          1   -1    0    0  501    0 -0.00000000000E+00 -0.00000000000E+00 -0.28404875424E+03  0.28404875424E+03  0.00000000000E+00 0.  1.
          2    1    1    2  501    0  0.16345956764E+02 -0.16774884471E+02  0.65370270871E+02  0.69439609484E+02  0.00000000000E+00 0.  1.
          1    1    1    2  502    0 -0.16345956764E+02  0.16774884471E+02 -0.28152777318E+03  0.28250039668E+03  0.00000000000E+00 0.  1.
</event>
<event>
 4    1  0.3555026E+003  0.2262565E+02  0.7546771E-02  0.1497253E+00
          2   -1    0    0  502    0  0.00000000000E+00  0.00000000000E+00  0.21085205425E+02  0.21085205425E+02  0.00000000000E+00 0.  1.
          1   -1    0    0  501    0 -0.00000000000E+00 -0.00000000000E+00 -0.46544192559E+03  0.46544192559E+03  0.00000000000E+00 0.  1.
          2    1    1    2  501    0  0.22550352778E+02 -0.18443792766E+01  0.14655611559E+02  0.26957505365E+02  0.00000000000E+00 0.  1.
          1    1    1    2  502    0 -0.22550352778E+02  0.18443792766E+01 -0.45901233172E+03  0.45956962565E+03  0.00000000000E+00 0.  1.
</event>
<event>
 4    1  0.3555026E+003  0.2580981E+02  0.7546771E-02  0.1459945E+00
          2   -1    0    0  502    0  0.00000000000E+00  0.00000000000E+00  0.49184536835E+03  0.49184536835E+03  0.00000000000E+00 0. -1.
          1   -1    0    0  501    0 -0.00000000000E+00 -0.00000000000E+00 -0.12841742528E+03  0.12841742528E+03  0.00000000000E+00 0.  1.
          2    1    1    2  501    0 -0.86396159288E+01 -0.24320839676E+02  0.49020560036E+03  0.49088458606E+03  0.00000000000E+00 0. -1.
          1    1    1    2  502    0  0.86396159288E+01  0.24320839676E+02 -0.12677765729E+03  0.12937820757E+03  0.00000000000E+00 0.  1.
</event>
<event>
 4    1  0.3555026E+003  0.6187165E+02  0.7546771E-02  0.1253603E+00
          2   -1    0    0  502    0  0.00000000000E+00  0.00000000000E+00  0.91159854726E+01  0.91159854726E+01  0.00000000000E+00 0. -1.
          1   -1    0    0  501    0 -0.00000000000E+00 -0.00000000000E+00 -0.84871065007E+03  0.84871065007E+03  0.00000000000E+00 0. -1.
          2    1    1    2  501    0 -0.12044140412E+02  0.60688047924E+02 -0.11493348757E+03  0.13052895098E+03  0.00000000000E+00 0. -1.
          1    1    1    2  502    0  0.12044140412E+02 -0.60688047924E+02 -0.72466117702E+03  0.72729768456E+03  0.00000000000E+00 0. -1.
</event>
<event>
 4    1  0.3555026E+003  0.2031504E+02  0.7546771E-02  0.1529273E+00
          2   -1    0    0  502    0  0.00000000000E+00  0.00000000000E+00  0.11195571941E+04  0.11195571941E+04  0.00000000000E+00 0.  1.
          1   -1    0    0  501    0 -0.00000000000E+00 -0.00000000000E+00 -0.37191624345E+00  0.37191624345E+00  0.00000000000E+00 0.  1.
          2    1    1    2  501    0  0.59806053046E+01 -0.19414752845E+02  0.50694101422E+03  0.50734790053E+03  0.00000000000E+00 0.  1.
          1    1    1    2  502    0 -0.59806053046E+01  0.19414752845E+02  0.61224426367E+03  0.61258120985E+03  0.00000000000E+00 0.  1.
</event>
<event>
 4    1  0.3555026E+003  0.2390211E+02  0.7546771E-02  0.1481471E+00
          2   -1    0    0  502    0  0.00000000000E+00  0.00000000000E+00  0.15262326175E+04  0.15262326175E+04  0.00000000000E+00 0.  1.
          1   -1    0    0  501    0 -0.00000000000E+00 -0.00000000000E+00 -0.14224573357E+02  0.14224573357E+02  0.00000000000E+00 0. -1.
          2    1    1    2  501    0 -0.22165359717E+02  0.89447033005E+01  0.15160305556E+04  0.15162189672E+04  0.00000000000E+00 0.  1.
          1    1    1    2  502    0  0.22165359717E+02 -0.89447033005E+01 -0.40225114686E+01  0.24238223677E+02  0.00000000000E+00 0. -1.
</event>
<event>
 4    1  0.3555026E+003  0.2173818E+02  0.7546771E-02  0.1508981E+00
          2   -1    0    0  502    0  0.00000000000E+00  0.00000000000E+00  0.16237059931E+01  0.16237059931E+01  0.00000000000E+00 0.  1.
          1   -1    0    0  501    0 -0.00000000000E+00 -0.00000000000E+00 -0.29208786624E+03  0.29208786624E+03  0.00000000000E+00 0.  1.
          2    1    1    2  501    0  0.11867178546E+02 -0.18213129068E+02 -0.15406782614E+03  0.15559384001E+03  0.00000000000E+00 0.  1.
          1    1    1    2  502    0 -0.11867178546E+02  0.18213129068E+02 -0.13639633411E+03  0.13811773223E+03  0.00000000000E+00 0.  1.
</event>
<event>
 4    1  0.4529853E+003  0.2835966E+02  0.7546771E-02  0.1434408E+00
          2   -1    0    0  502    0  0.00000000000E+00  0.00000000000E+00  0.11072679909E+04  0.11072679909E+04  0.00000000000E+00 0. -1.
          1   -1    0    0  501    0 -0.00000000000E+00 -0.00000000000E+00 -0.16777259725E+04  0.16777259725E+04  0.00000000000E+00 0.  1.
          2    1    1    2  501    0 -0.21858436866E+02  0.18068734193E+02  0.11069665240E+04  0.11073297412E+04  0.00000000000E+00 0. -1.
          1    1    1    2  502    0  0.21858436866E+02 -0.18068734193E+02 -0.16774245056E+04  0.16776642222E+04  0.00000000000E+00 0.  1.
</event>
<event>
 4    1  0.3555026E+003  0.5759434E+02  0.7546771E-02  0.1268233E+00
          2   -1    0    0  502    0  0.00000000000E+00  0.00000000000E+00  0.71191880939E+02  0.71191880939E+02  0.00000000000E+00 0.  1.
          1   -1    0    0  501    0 -0.00000000000E+00 -0.00000000000E+00 -0.16175392498E+04  0.16175392498E+04  0.00000000000E+00 0. -1.
          2    1    1    2  501    0  0.15436704878E+02 -0.55487080937E+02  0.58941864266E+02  0.82409049088E+02  0.00000000000E+00 0.  1.
          1    1    1    2  502    0 -0.15436704878E+02  0.55487080937E+02 -0.16052892332E+04  0.16063220817E+04  0.00000000000E+00 0. -1.
</event>
<event>
 4    1  0.3555026E+003  0.2500778E+02  0.7546771E-02  0.1468716E+00
          2   -1    0    0  502    0  0.00000000000E+00  0.00000000000E+00  0.39836645971E+03  0.39836645971E+03  0.00000000000E+00 0.  1.
          1   -1    0    0  501    0 -0.00000000000E+00 -0.00000000000E+00 -0.23470313184E+01  0.23470313184E+01  0.00000000000E+00 0. -1.
          2    1    1    2  501    0  0.18784086526E+02 -0.16508996782E+02  0.31330097217E+03  0.31429745154E+03  0.00000000000E+00 0.  1.
          1    1    1    2  502    0 -0.18784086526E+02  0.16508996782E+02  0.82718456228E+02  0.86416039496E+02  0.00000000000E+00 0. -1.
</event>
<event>
 4    1  0.3555026E+003  0.2315949E+02  0.7546771E-02  0.1490505E+00
          2   -1    0    0  502    0  0.00000000000E+00  0.00000000000E+00  0.43503447510E+03  0.43503447510E+03  0.00000000000E+00 0. -1.
          1   -1    0    0  501    0 -0.00000000000E+00 -0.00000000000E+00 -0.75289937150E+01  0.75289937150E+01  0.00000000000E+00 0.  1.
          2    1    1    2  501    0  0.41767280999E+00  0.23155722271E+02  0.41610686639E+03  0.41675086825E+03  0.00000000000E+00 0. -1.
          1    1    1    2  502    0 -0.41767280999E+00 -0.23155722271E+02  0.11398614995E+02  0.25812600572E+02  0.00000000000E+00 0.  1.
</event>
<event>
 4    1  0.3555026E+003  0.2651875E+02  0.7546771E-02  0.1452503E+00
          2   -1    0    0  502    0  0.00000000000E+00  0.00000000000E+00  0.84837922343E+02  0.84837922343E+02  0.00000000000E+00 0.  1.
          1   -1    0    0  501    0 -0.00000000000E+00 -0.00000000000E+00 -0.11801516939E+02  0.11801516939E+02  0.00000000000E+00 0.  1.
          2    1    1    2  501    0 -0.93909119919E+01 -0.24800297834E+02  0.62878380397E+02  0.68241737390E+02  0.00000000000E+00 0.  1.
          1    1    1    2  502    0  0.93909119919E+01  0.24800297834E+02  0.10158025007E+02  0.28397701892E+02  0.00000000000E+00 0.  1.
</event>
<event>
 4    1  0.3555026E+003  0.2094617E+02  0.7546771E-02  0.1520035E+00
          2   -1    0    0  502    0  0.00000000000E+00  0.00000000000E+00  0.11276050610E+04  0.11276050610E+04  0.00000000000E+00 0. -1.
          1   -1    0    0  501    0 -0.00000000000E+00 -0.00000000000E+00 -0.59578519817E+00  0.59578519817E+00  0.00000000000E+00 0.  1.
          2    1    1    2  501    0  0.15581573673E+02  0.13998446818E+02  0.89576215063E+03  0.89600701585E+03  0.00000000000E+00 0. -1.
          1    1    1    2  502    0 -0.15581573673E+02 -0.13998446818E+02  0.23124712518E+03  0.23219383035E+03  0.00000000000E+00 0.  1.
</event>
<event>
 4    1  0.3555026E+003  0.2224919E+02  0.7546771E-02  0.1502148E+00
          2   -1    0    0  502    0  0.00000000000E+00  0.00000000000E+00  0.76333953155E+02  0.76333953155E+02  0.00000000000E+00 0. -1.
          1   -1    0    0  501    0 -0.00000000000E+00 -0.00000000000E+00 -0.33617213548E+02  0.33617213548E+02  0.00000000000E+00 0. -1.
          2    1    1    2  501    0 -0.20671060128E+02 -0.82300377030E+01  0.70747518948E+02  0.74163587323E+02  0.00000000000E+00 0. -1.
          1    1    1    2  502    0  0.20671060128E+02  0.82300377030E+01 -0.28030779341E+02  0.35787579380E+02  0.00000000000E+00 0. -1.
</event>
<event>
 4    1  0.3555026E+003  0.3084854E+02  0.7546771E-02  0.1412363E+00
          2   -1    0    0  502    0  0.00000000000E+00  0.00000000000E+00  0.82893738431E+01  0.82893738431E+01  0.00000000000E+00 0. -1.
          1   -1    0    0  501    0 -0.00000000000E+00 -0.00000000000E+00 -0.98716731398E+03  0.98716731398E+03  0.00000000000E+00 0. -1.
          2    1    1    2  501    0 -0.12238255667E+02  0.28317091370E+02 -0.21546228317E+02  0.37628081536E+02  0.00000000000E+00 0. -1.
          1    1    1    2  502    0  0.12238255667E+02 -0.28317091370E+02 -0.95733171182E+03  0.95782860629E+03  0.00000000000E+00 0. -1.
</event>
<event>
 4    1  0.3555026E+003  0.2655952E+02  0.7546771E-02  0.1452084E+00
          2   -1    0    0  502    0  0.00000000000E+00  0.00000000000E+00  0.69771923312E+01  0.69771923312E+01  0.00000000000E+00 0.  1.
          1   -1    0    0  501    0 -0.00000000000E+00 -0.00000000000E+00 -0.12806851609E+03  0.12806851609E+03  0.00000000000E+00 0. -1.
          2    1    1    2  501    0 -0.22945152430E+02 -0.13376391114E+02 -0.29561318235E+02  0.39740148403E+02  0.00000000000E+00 0.  1.
          1    1    1    2  502    0  0.22945152430E+02  0.13376391114E+02 -0.91530005524E+02  0.95305560019E+02  0.00000000000E+00 0. -1.
</event>
<event>
 4    1  0.3555026E+003  0.2049904E+02  0.7546771E-02  0.1526539E+00
          2   -1    0    0  502    0  0.00000000000E+00  0.00000000000E+00  0.20759036081E+03  0.20759036081E+03  0.00000000000E+00 0.  1.
          1   -1    0    0  501    0 -0.00000000000E+00 -0.00000000000E+00 -0.49543304409E+02  0.49543304409E+02  0.00000000000E+00 0. -1.
          2    1    1    2  501    0 -0.50483119702E+01  0.19867696199E+02  0.20493649080E+03  0.20595916117E+03  0.00000000000E+00 0.  1.
          1    1    1    2  502    0  0.50483119702E+01 -0.19867696199E+02 -0.46889434404E+02  0.51174504049E+02  0.00000000000E+00 0. -1.
</event>
<event>
 4    1  0.3555026E+003  0.3268870E+02  0.7546771E-02  0.1397584E+00
          2   -1    0    0  502    0  0.00000000000E+00  0.00000000000E+00  0.68438741408E+01  0.68438741408E+01  0.00000000000E+00 0.  1.
          1   -1    0    0  501    0 -0.00000000000E+00 -0.00000000000E+00 -0.23633638372E+03  0.23633638372E+03  0.00000000000E+00 0. -1.
          2    1    1    2  501    0 -0.21611430015E+02  0.24525441940E+02 -0.43914057655E+02  0.54744823220E+02  0.00000000000E+00 0.  1.
          1    1    1    2  502    0  0.21611430015E+02 -0.24525441940E+02 -0.18557845192E+03  0.18843543464E+03  0.00000000000E+00 0. -1.
</event>
<event>
 4    1  0.3555026E+003  0.2010502E+02  0.7546771E-02  0.1532436E+00
          2   -1    0    0  502    0  0.00000000000E+00  0.00000000000E+00  0.13046560903E+04  0.13046560903E+04  0.00000000000E+00 0. -1.
          1   -1    0    0  501    0 -0.00000000000E+00 -0.00000000000E+00 -0.91746577643E+01  0.91746577643E+01  0.00000000000E+00 0.  1.
          2    1    1    2  501    0 -0.19193012373E+02 -0.59866576911E+01  0.12934690223E+04  0.12936252639E+04  0.00000000000E+00 0. -1.
          1    1    1    2  502    0  0.19193012373E+02  0.59866576911E+01  0.20124102240E+01  0.20205484136E+02  0.00000000000E+00 0.  1.
</event>
<event>
 4    1  0.3555026E+003  0.2123189E+02  0.7546771E-02  0.1515980E+00
          2   -1    0    0  502    0  0.00000000000E+00  0.00000000000E+00  0.38442555257E+01  0.38442555257E+01  0.00000000000E+00 0.  1.
          1   -1    0    0  501    0 -0.00000000000E+00 -0.00000000000E+00 -0.38020905877E+03  0.38020905877E+03  0.00000000000E+00 0. -1.
          2    1    1    2  501    0 -0.21070137760E+02 -0.26158175851E+01 -0.28490568241E+02  0.35531756015E+02  0.00000000000E+00 0.  1.
          1    1    1    2  502    0  0.21070137760E+02  0.26158175851E+01 -0.34787423500E+03  0.34852155828E+03  0.00000000000E+00 0. -1.
</event>
<event>
 4    1  0.3555026E+003  0.4277863E+02  0.7546771E-02  0.1332930E+00
          2   -1    0    0  502    0  0.00000000000E+00  0.00000000000E+00  0.22224422753E+03  0.22224422753E+03  0.00000000000E+00 0. -1.
          1   -1    0    0  501    0 -0.00000000000E+00 -0.00000000000E+00 -0.27583451524E+02  0.27583451524E+02  0.00000000000E+00 0.  1.
          2    1    1    2  501    0 -0.21846252545E+01  0.42722815304E+02  0.20195116197E+03  0.20643227305E+03  0.00000000000E+00 0. -1.
          1    1    1    2  502    0  0.21846252545E+01 -0.42722815304E+02 -0.72903859624E+01  0.43395406007E+02  0.00000000000E+00 0.  1.
</event>
<event>
 4    1  0.3555026E+003  0.3430656E+02  0.7546771E-02  0.1385505E+00
          2   -1    0    0  502    0  0.00000000000E+00  0.00000000000E+00  0.55038513782E+03  0.55038513782E+03  0.00000000000E+00 0.  1.
          1   -1    0    0  501    0 -0.00000000000E+00 -0.00000000000E+00 -0.57193042022E+01  0.57193042022E+01  0.00000000000E+00 0. -1.
          2    1    1    2  501    0  0.33377271630E+02  0.79308155074E+01  0.49234751882E+03  0.49354130463E+03  0.00000000000E+00 0.  1.
          1    1    1    2  502    0 -0.33377271630E+02 -0.79308155074E+01  0.52318314802E+02  0.62563137388E+02  0.00000000000E+00 0. -1.
</event>
<event>
 4    1  0.3555026E+003  0.2219651E+02  0.7546771E-02  0.1502842E+00
          2   -1    0    0  502    0  0.00000000000E+00  0.00000000000E+00  0.10521894598E+04  0.10521894598E+04  0.00000000000E+00 0.  1.
          1   -1    0    0  501    0 -0.00000000000E+00 -0.00000000000E+00 -0.35623561021E+02  0.35623561021E+02  0.00000000000E+00 0.  1.
          2    1    1    2  501    0  0.13757477706E+02 -0.17418862206E+02  0.10486029956E+04  0.10488378937E+04  0.00000000000E+00 0.  1.
          1    1    1    2  502    0 -0.13757477706E+02  0.17418862206E+02 -0.32037096858E+02  0.38975127049E+02  0.00000000000E+00 0.  1.
</event>
<event>
 4    1  0.3555026E+003  0.2182870E+02  0.7546771E-02  0.1507754E+00
          2   -1    0    0  502    0  0.00000000000E+00  0.00000000000E+00  0.56116100700E+03  0.56116100700E+03  0.00000000000E+00 0. -1.
          1   -1    0    0  501    0 -0.00000000000E+00 -0.00000000000E+00 -0.14548498849E+01  0.14548498849E+01  0.00000000000E+00 0. -1.
          2    1    1    2  501    0 -0.64486342547E+01 -0.20854427243E+02  0.46136829147E+03  0.46188439288E+03  0.00000000000E+00 0. -1.
          1    1    1    2  502    0  0.64486342547E+01  0.20854427243E+02  0.98337865650E+02  0.10073146400E+03  0.00000000000E+00 0. -1.
</event>
<event>
 4    1  0.3555026E+003  0.2090280E+02  0.7546771E-02  0.1520657E+00
          2   -1    0    0  502    0  0.00000000000E+00  0.00000000000E+00  0.32584198425E+03  0.32584198425E+03  0.00000000000E+00 0.  1.
          1   -1    0    0  501    0 -0.00000000000E+00 -0.00000000000E+00 -0.67874774324E+01  0.67874774324E+01  0.00000000000E+00 0. -1.
          2    1    1    2  501    0 -0.35963428422E+01  0.20591098769E+02  0.30851058591E+03  0.30921789833E+03  0.00000000000E+00 0.  1.
          1    1    1    2  502    0  0.35963428422E+01 -0.20591098769E+02  0.10543920905E+02  0.23411563348E+02  0.00000000000E+00 0. -1.
</event>
<event>
 4    1  0.3555026E+003  0.2483020E+02  0.7546771E-02  0.1470712E+00
          2   -1    0    0  502    0  0.00000000000E+00  0.00000000000E+00  0.82143437848E+02  0.82143437848E+02  0.00000000000E+00 0. -1.
          1   -1    0    0  501    0 -0.00000000000E+00 -0.00000000000E+00 -0.12883359751E+04  0.12883359751E+04  0.00000000000E+00 0.  1.
          2    1    1    2  501    0  0.23886182090E+02  0.67815383387E+01  0.80144473916E+02  0.83902775022E+02  0.00000000000E+00 0. -1.
          1    1    1    2  502    0 -0.23886182090E+02 -0.67815383387E+01 -0.12863370112E+04  0.12865766379E+04  0.00000000000E+00 0.  1.
</event>
<event>
 4    1  0.3555026E+003  0.3343858E+02  0.7546771E-02  0.1391886E+00
          2   -1    0    0  502    0  0.00000000000E+00  0.00000000000E+00  0.88242543449E+02  0.88242543449E+02  0.00000000000E+00 0. -1.
          1   -1    0    0  501    0 -0.00000000000E+00 -0.00000000000E+00 -0.47085976892E+02  0.47085976892E+02  0.00000000000E+00 0.  1.
          2    1    1    2  501    0  0.33438562247E+02  0.31581574704E-01  0.78425978207E+02  0.85257096481E+02  0.00000000000E+00 0. -1.
          1    1    1    2  502    0 -0.33438562247E+02 -0.31581574704E-01 -0.37269411651E+02  0.50071423860E+02  0.00000000000E+00 0.  1.
</event>
<event>
 4    1  0.3555026E+003  0.2105708E+02  0.7546771E-02  0.1518451E+00
          2   -1    0    0  502    0  0.00000000000E+00  0.00000000000E+00  0.56767964526E+03  0.56767964526E+03  0.00000000000E+00 0.  1.
          1   -1    0    0  501    0 -0.00000000000E+00 -0.00000000000E+00 -0.54629910340E+01  0.54629910340E+01  0.00000000000E+00 0.  1.
          2    1    1    2  501    0 -0.15476668624E+02  0.14278427292E+02  0.54640344437E+03  0.54680903868E+03  0.00000000000E+00 0.  1.
          1    1    1    2  502    0  0.15476668624E+02 -0.14278427292E+02  0.15813209858E+02  0.26333597621E+02  0.00000000000E+00 0.  1.
</event>
<event>
 4    1  0.3555026E+003  0.2170271E+02  0.7546771E-02  0.1509464E+00
          2   -1    0    0  502    0  0.00000000000E+00  0.00000000000E+00  0.12572347820E+03  0.12572347820E+03  0.00000000000E+00 0.  1.
          1   -1    0    0  501    0 -0.00000000000E+00 -0.00000000000E+00 -0.25577994277E+03  0.25577994277E+03  0.00000000000E+00 0. -1.
          2    1    1    2  501    0  0.13427667131E+02 -0.17050080708E+02  0.12432136699E+03  0.12620146507E+03  0.00000000000E+00 0.  1.
          1    1    1    2  502    0 -0.13427667131E+02  0.17050080708E+02 -0.25437783156E+03  0.25530195590E+03  0.00000000000E+00 0. -1.
</event>
<event>
 4    1  0.3555026E+003  0.5193528E+02  0.7546771E-02  0.1289993E+00
          2   -1    0    0  502    0  0.00000000000E+00  0.00000000000E+00  0.13316467179E+03  0.13316467179E+03  0.00000000000E+00 0.  1.
          1   -1    0    0  501    0 -0.00000000000E+00 -0.00000000000E+00 -0.69904233444E+02  0.69904233444E+02  0.00000000000E+00 0. -1.
          2    1    1    2  501    0  0.43064715324E+02 -0.29029351380E+02  0.11719937099E+03  0.12819112882E+03  0.00000000000E+00 0.  1.
          1    1    1    2  502    0 -0.43064715324E+02  0.29029351380E+02 -0.53938932638E+02  0.74877776420E+02  0.00000000000E+00 0. -1.
</event>
<event>
 4    1  0.3555026E+003  0.2263073E+02  0.7546771E-02  0.1497188E+00
          2   -1    0    0  502    0  0.00000000000E+00  0.00000000000E+00  0.56863196650E+03  0.56863196650E+03  0.00000000000E+00 0. -1.
          1   -1    0    0  501    0 -0.00000000000E+00 -0.00000000000E+00 -0.13073948093E+01  0.13073948093E+01  0.00000000000E+00 0. -1.
          2    1    1    2  501    0 -0.16061780887E+02  0.15942689727E+02  0.44260668422E+03  0.44318486783E+03  0.00000000000E+00 0. -1.
          1    1    1    2  502    0  0.16061780887E+02 -0.15942689727E+02  0.12471788748E+03  0.12675449348E+03  0.00000000000E+00 0. -1.
</event>
<event>
 4    1  0.3555026E+003  0.2188473E+02  0.7546771E-02  0.1506998E+00
          2   -1    0    0  502    0  0.00000000000E+00  0.00000000000E+00  0.10113391626E+02  0.10113391626E+02  0.00000000000E+00 0. -1.
          1   -1    0    0  501    0 -0.00000000000E+00 -0.00000000000E+00 -0.75960517325E+02  0.75960517325E+02  0.00000000000E+00 0.  1.
          2    1    1    2  501    0  0.56818695184E+01  0.21134277423E+02 -0.65143038242E+01  0.22833691724E+02  0.00000000000E+00 0. -1.
          1    1    1    2  502    0 -0.56818695184E+01 -0.21134277423E+02 -0.59332821875E+02  0.63240217228E+02  0.00000000000E+00 0.  1.
</event>
<event>
 4    1  0.3555026E+003  0.5578458E+02  0.7546771E-02  0.1274869E+00
          2   -1    0    0  502    0  0.00000000000E+00  0.00000000000E+00  0.12812937726E+03  0.12812937726E+03  0.00000000000E+00 0. -1.
          1   -1    0    0  501    0 -0.00000000000E+00 -0.00000000000E+00 -0.24486438643E+02  0.24486438643E+02  0.00000000000E+00 0. -1.
          2    1    1    2  501    0 -0.21299780475E+02  0.51558075020E+02  0.44939829091E+02  0.71634516728E+02  0.00000000000E+00 0. -1.
          1    1    1    2  502    0  0.21299780475E+02 -0.51558075020E+02  0.58703109525E+02  0.80981299174E+02  0.00000000000E+00 0. -1.
</event>
<event>
 4    1  0.3555026E+003  0.3266684E+02  0.7546771E-02  0.1397752E+00
          2   -1    0    0  502    0  0.00000000000E+00  0.00000000000E+00  0.46036420096E+03  0.46036420096E+03  0.00000000000E+00 0.  1.
          1   -1    0    0  501    0 -0.00000000000E+00 -0.00000000000E+00 -0.71498390817E+01  0.71498390817E+01  0.00000000000E+00 0.  1.
          2    1    1    2  501    0 -0.26969129956E+02 -0.18433360248E+02  0.41877156745E+03  0.42004374587E+03  0.00000000000E+00 0.  1.
          1    1    1    2  502    0  0.26969129956E+02  0.18433360248E+02  0.34442794427E+02  0.47470294170E+02  0.00000000000E+00 0.  1.
</event>
<event>
 4    1  0.3555026E+003  0.3034759E+02  0.7546771E-02  0.1416599E+00
          2   -1    0    0  502    0  0.00000000000E+00  0.00000000000E+00  0.13773147641E+04  0.13773147641E+04  0.00000000000E+00 0.  1.
          1   -1    0    0  501    0 -0.00000000000E+00 -0.00000000000E+00 -0.93507001513E+01  0.93507001513E+01  0.00000000000E+00 0. -1.
          2    1    1    2  501    0 -0.19423415334E+02  0.23317533884E+02  0.13520646138E+04  0.13524051524E+04  0.00000000000E+00 0.  1.
          1    1    1    2  502    0  0.19423415334E+02 -0.23317533884E+02  0.15899450125E+02  0.34260311790E+02  0.00000000000E+00 0. -1.
</event>
<event>
 4    1  0.3716609E+003  0.2802482E+02  0.7546771E-02  0.1437577E+00
          2   -1    0    0  502    0  0.00000000000E+00  0.00000000000E+00  0.72048589447E+03  0.72048589447E+03  0.00000000000E+00 0. -1.
          1   -1    0    0  501    0 -0.00000000000E+00 -0.00000000000E+00 -0.56696012732E+03  0.56696012732E+03  0.00000000000E+00 0. -1.
          2    1    1    2  501    0 -0.23497436073E+02  0.15272881352E+02  0.71986675921E+03  0.72041206363E+03  0.00000000000E+00 0. -1.
          1    1    1    2  502    0  0.23497436073E+02 -0.15272881352E+02 -0.56634099206E+03  0.56703395815E+03  0.00000000000E+00 0. -1.
</event>
<event>
 4    1  0.3555026E+003  0.2343070E+02  0.7546771E-02  0.1487159E+00
          2   -1    0    0  502    0  0.00000000000E+00  0.00000000000E+00  0.40961889573E+01  0.40961889573E+01  0.00000000000E+00 0.  1.
          1   -1    0    0  501    0 -0.00000000000E+00 -0.00000000000E+00 -0.15319623259E+03  0.15319623259E+03  0.00000000000E+00 0.  1.
          2    1    1    2  501    0  0.44874821328E+01 -0.22996951499E+02 -0.10237042587E+03  0.10501762408E+03  0.00000000000E+00 0.  1.
          1    1    1    2  502    0 -0.44874821328E+01  0.22996951499E+02 -0.46729617755E+02  0.52274797462E+02  0.00000000000E+00 0.  1.
</event>
<event>
 4    1  0.3555026E+003  0.2068861E+02  0.7546771E-02  0.1523757E+00
          2   -1    0    0  502    0  0.00000000000E+00  0.00000000000E+00  0.48793519913E+03  0.48793519913E+03  0.00000000000E+00 0.  1.
          1   -1    0    0  501    0 -0.00000000000E+00 -0.00000000000E+00 -0.12076306148E+02  0.12076306148E+02  0.00000000000E+00 0. -1.
          2    1    1    2  501    0 -0.14456383992E+02 -0.14799711678E+02  0.47868402546E+03  0.47913089520E+03  0.00000000000E+00 0.  1.
          1    1    1    2  502    0  0.14456383992E+02  0.14799711678E+02 -0.28251324750E+01  0.20880610082E+02  0.00000000000E+00 0. -1.
</event>
<event>
 4    1  0.3555026E+003  0.6877422E+02  0.7546771E-02  0.1232620E+00
          2   -1    0    0  502    0  0.00000000000E+00  0.00000000000E+00  0.24127174394E+03  0.24127174394E+03  0.00000000000E+00 0. -1.
          1   -1    0    0  501    0 -0.00000000000E+00 -0.00000000000E+00 -0.48583215726E+03  0.48583215726E+03  0.00000000000E+00 0.  1.
          2    1    1    2  501    0  0.44568962753E+02  0.52378432951E+02  0.23386130442E+03  0.24376423524E+03  0.00000000000E+00 0. -1.
          1    1    1    2  502    0 -0.44568962753E+02 -0.52378432951E+02 -0.47842171774E+03  0.48333966596E+03  0.00000000000E+00 0.  1.
</event>
<event>
 4    1  0.3555026E+003  0.2109889E+02  0.7546771E-02  0.1517858E+00
          2   -1    0    0  502    0  0.00000000000E+00  0.00000000000E+00  0.23812123924E+03  0.23812123924E+03  0.00000000000E+00 0. -1.
          1   -1    0    0  501    0 -0.00000000000E+00 -0.00000000000E+00 -0.22499790686E+01  0.22499790686E+01  0.00000000000E+00 0. -1.
          2    1    1    2  501    0  0.20123481456E+02  0.63410365450E+01  0.16735977631E+03  0.16868449240E+03  0.00000000000E+00 0. -1.
          1    1    1    2  502    0 -0.20123481456E+02 -0.63410365450E+01  0.68511483865E+02  0.71686725910E+02  0.00000000000E+00 0. -1.
</event>
<event>
 4    1  0.3555026E+003  0.2799013E+02  0.7546771E-02  0.1437908E+00
          2   -1    0    0  502    0  0.00000000000E+00  0.00000000000E+00  0.71108793075E+03  0.71108793075E+03  0.00000000000E+00 0.  1.
          1   -1    0    0  501    0 -0.00000000000E+00 -0.00000000000E+00 -0.16768429615E+01  0.16768429615E+01  0.00000000000E+00 0.  1.
          2    1    1    2  501    0 -0.83303648359E+01 -0.26721739489E+02  0.14599889029E+03  0.14865773544E+03  0.00000000000E+00 0.  1.
          1    1    1    2  502    0  0.83303648359E+01  0.26721739489E+02  0.56341219750E+03  0.56410703828E+03  0.00000000000E+00 0.  1.
</event>
<event>
 4    1  0.3555026E+003  0.2536781E+02  0.7546771E-02  0.1464730E+00
          2   -1    0    0  502    0  0.00000000000E+00  0.00000000000E+00  0.31652519970E+02  0.31652519970E+02  0.00000000000E+00 0.  1.
          1   -1    0    0  501    0 -0.00000000000E+00 -0.00000000000E+00 -0.28426018704E+02  0.28426018704E+02  0.00000000000E+00 0. -1.
          2    1    1    2  501    0  0.18671190482E+02 -0.17173020702E+02  0.17643543320E+02  0.30900171762E+02  0.00000000000E+00 0.  1.
          1    1    1    2  502    0 -0.18671190482E+02  0.17173020702E+02 -0.14417042054E+02  0.29178366912E+02  0.00000000000E+00 0. -1.
</event>
<event>
 4    1  0.3555026E+003  0.2968365E+02  0.7546771E-02  0.1422366E+00
          2   -1    0    0  502    0  0.00000000000E+00  0.00000000000E+00  0.48976780964E+02  0.48976780964E+02  0.00000000000E+00 0. -1.
          1   -1    0    0  501    0 -0.00000000000E+00 -0.00000000000E+00 -0.22838926955E+03  0.22838926955E+03  0.00000000000E+00 0.  1.
          2    1    1    2  501    0 -0.27231364965E+02 -0.11814041888E+02  0.43402630987E+02  0.52582384885E+02  0.00000000000E+00 0. -1.
          1    1    1    2  502    0  0.27231364965E+02  0.11814041888E+02 -0.22281511957E+03  0.22478366563E+03  0.00000000000E+00 0.  1.
</event>
<event>
 4    1  0.3555026E+003  0.4737882E+02  0.7546771E-02  0.1309955E+00
          2   -1    0    0  502    0  0.00000000000E+00  0.00000000000E+00  0.16624052437E+02  0.16624052437E+02  0.00000000000E+00 0.  1.
          1   -1    0    0  501    0 -0.00000000000E+00 -0.00000000000E+00 -0.16461846197E+03  0.16461846197E+03  0.00000000000E+00 0. -1.
          2    1    1    2  501    0 -0.16413337168E+02  0.44444962685E+02 -0.35577933828E+02  0.59249824646E+02  0.00000000000E+00 0.  1.
          1    1    1    2  502    0  0.16413337168E+02 -0.44444962685E+02 -0.11241647570E+03  0.12199268976E+03  0.00000000000E+00 0. -1.
</event>
<event>
 4    1  0.3555026E+003  0.2877617E+02  0.7546771E-02  0.1430538E+00
          2   -1    0    0  502    0  0.00000000000E+00  0.00000000000E+00  0.45875268893E+03  0.45875268893E+03  0.00000000000E+00 0. -1.
          1   -1    0    0  501    0 -0.00000000000E+00 -0.00000000000E+00 -0.63263034046E+01  0.63263034046E+01  0.00000000000E+00 0. -1.
          2    1    1    2  501    0  0.72638855841E+01 -0.27844283034E+02  0.42279870130E+03  0.42377683980E+03  0.00000000000E+00 0. -1.
          1    1    1    2  502    0 -0.72638855841E+01  0.27844283034E+02  0.29627684234E+02  0.41302152541E+02  0.00000000000E+00 0. -1.
</event>
<event>
 4    1  0.3555026E+003  0.2439886E+02  0.7546771E-02  0.1475642E+00
          2   -1    0    0  502    0  0.00000000000E+00  0.00000000000E+00  0.66052268028E+03  0.66052268028E+03  0.00000000000E+00 0.  1.
          1   -1    0    0  501    0 -0.00000000000E+00 -0.00000000000E+00 -0.90307589711E+00  0.90307589711E+00  0.00000000000E+00 0.  1.
          2    1    1    2  501    0 -0.22842541320E+02 -0.85745273204E+01  0.34463004339E+03  0.34549264973E+03  0.00000000000E+00 0.  1.
          1    1    1    2  502    0  0.22842541320E+02  0.85745273204E+01  0.31498956099E+03  0.31593310644E+03  0.00000000000E+00 0.  1.
</event>
<event>
 4    1  0.3555026E+003  0.2213818E+02  0.7546771E-02  0.1503613E+00
          2   -1    0    0  502    0  0.00000000000E+00  0.00000000000E+00  0.12221113628E+02  0.12221113628E+02  0.00000000000E+00 0.  1.
          1   -1    0    0  501    0 -0.00000000000E+00 -0.00000000000E+00 -0.19555506922E+03  0.19555506922E+03  0.00000000000E+00 0.  1.
          2    1    1    2  501    0 -0.10405790549E+02 -0.19540176889E+02  0.95839675056E+00  0.22158915004E+02  0.00000000000E+00 0.  1.
          1    1    1    2  502    0  0.10405790549E+02  0.19540176889E+02 -0.18429235234E+03  0.18561726784E+03  0.00000000000E+00 0.  1.
</event>
<event>
 4    1  0.3555026E+003  0.5284965E+02  0.7546771E-02  0.1286269E+00
          2   -1    0    0  502    0  0.00000000000E+00  0.00000000000E+00  0.32172992164E+01  0.32172992164E+01  0.00000000000E+00 0. -1.
          1   -1    0    0  501    0 -0.00000000000E+00 -0.00000000000E+00 -0.96562255487E+03  0.96562255487E+03  0.00000000000E+00 0. -1.
          2    1    1    2  501    0  0.39080012733E+02  0.35578619686E+02 -0.32729211117E+03  0.33153161480E+03  0.00000000000E+00 0. -1.
          1    1    1    2  502    0 -0.39080012733E+02 -0.35578619686E+02 -0.63511314448E+03  0.63730823929E+03  0.00000000000E+00 0. -1.
</event>
<event>
 4    1  0.3555026E+003  0.2514002E+02  0.7546771E-02  0.1467243E+00
          2   -1    0    0  502    0  0.00000000000E+00  0.00000000000E+00  0.42527149267E+03  0.42527149267E+03  0.00000000000E+00 0.  1.
          1   -1    0    0  501    0 -0.00000000000E+00 -0.00000000000E+00 -0.15359291765E+01  0.15359291765E+01  0.00000000000E+00 0.  1.
          2    1    1    2  501    0 -0.14224449324E+02  0.20728860124E+02  0.25028320631E+03  0.25154264839E+03  0.00000000000E+00 0.  1.
          1    1    1    2  502    0  0.14224449324E+02 -0.20728860124E+02  0.17345235719E+03  0.17526477346E+03  0.00000000000E+00 0.  1.
</event>
<event>
 4    1  0.3555026E+003  0.2235916E+02  0.7546771E-02  0.1500706E+00
          2   -1    0    0  502    0  0.00000000000E+00  0.00000000000E+00  0.51895371839E+03  0.51895371839E+03  0.00000000000E+00 0. -1.
          1   -1    0    0  501    0 -0.00000000000E+00 -0.00000000000E+00 -0.42840294382E+02  0.42840294382E+02  0.00000000000E+00 0.  1.
          2    1    1    2  501    0 -0.18835882804E+02  0.12047468569E+02  0.51577750777E+03  0.51626191948E+03  0.00000000000E+00 0. -1.
          1    1    1    2  502    0  0.18835882804E+02 -0.12047468569E+02 -0.39664083758E+02  0.45532093300E+02  0.00000000000E+00 0.  1.
</event>
<event>
 4    1  0.3555026E+003  0.2159538E+02  0.7546771E-02  0.1510932E+00
          2   -1    0    0  502    0  0.00000000000E+00  0.00000000000E+00  0.60373968454E+01  0.60373968454E+01  0.00000000000E+00 0. -1.
          1   -1    0    0  501    0 -0.00000000000E+00 -0.00000000000E+00 -0.30014276205E+03  0.30014276205E+03  0.00000000000E+00 0.  1.
          2    1    1    2  501    0  0.20561088098E+02  0.66031718353E+01 -0.15125064169E+02  0.26365276182E+02  0.00000000000E+00 0. -1.
          1    1    1    2  502    0 -0.20561088098E+02 -0.66031718353E+01 -0.27898030103E+03  0.27981488271E+03  0.00000000000E+00 0.  1.
</event>
<event>
 4    1  0.3555026E+003  0.2046269E+02  0.7546771E-02  0.1527076E+00
          2   -1    0    0  502    0  0.00000000000E+00  0.00000000000E+00  0.63577106983E+01  0.63577106983E+01  0.00000000000E+00 0. -1.
          1   -1    0    0  501    0 -0.00000000000E+00 -0.00000000000E+00 -0.65862105127E+02  0.65862105127E+02  0.00000000000E+00 0.  1.
          2    1    1    2  501    0  0.10723663411E+02  0.17427687349E+02 -0.29936997840E+02  0.36262171515E+02  0.00000000000E+00 0. -1.
          1    1    1    2  502    0 -0.10723663411E+02 -0.17427687349E+02 -0.29567396589E+02  0.35957644311E+02  0.00000000000E+00 0.  1.
</event>
<event>
 4    1  0.3555026E+003  0.2380898E+02  0.7546771E-02  0.1482582E+00
          2   -1    0    0  502    0  0.00000000000E+00  0.00000000000E+00  0.56232998451E+03  0.56232998451E+03  0.00000000000E+00 0.  1.
          1   -1    0    0  501    0 -0.00000000000E+00 -0.00000000000E+00 -0.24316381313E+02  0.24316381313E+02  0.00000000000E+00 0. -1.
          2    1    1    2  501    0  0.21440504275E+02  0.10352411693E+02  0.55618556892E+03  0.55669493865E+03  0.00000000000E+00 0.  1.
          1    1    1    2  502    0 -0.21440504275E+02 -0.10352411693E+02 -0.18171965719E+02  0.29951427170E+02  0.00000000000E+00 0. -1.
</event>
<event>
 4    1  0.3555026E+003  0.2043551E+02  0.7546771E-02  0.1527479E+00
          2   -1    0    0  502    0  0.00000000000E+00  0.00000000000E+00  0.66224842012E+03  0.66224842012E+03  0.00000000000E+00 0.  1.
          1   -1    0    0  501    0 -0.00000000000E+00 -0.00000000000E+00 -0.44476305038E+01  0.44476305038E+01  0.00000000000E+00 0. -1.
          2    1    1    2  501    0 -0.12787932142E+02 -0.15939850749E+02  0.63771418008E+03  0.63804152335E+03  0.00000000000E+00 0.  1.
          1    1    1    2  502    0  0.12787932142E+02  0.15939850749E+02  0.20086609539E+02  0.28654527271E+02  0.00000000000E+00 0. -1.
</event>
<event>
 4    1  0.3555026E+003  0.2580301E+02  0.7546771E-02  0.1460017E+00
          2   -1    0    0  502    0  0.00000000000E+00  0.00000000000E+00  0.61288941635E+03  0.61288941635E+03  0.00000000000E+00 0. -1.
          1   -1    0    0  501    0 -0.00000000000E+00 -0.00000000000E+00 -0.41615555556E+02  0.41615555556E+02  0.00000000000E+00 0.  1.
          2    1    1    2  501    0  0.23989328986E+02 -0.95030283936E+01  0.60858991294E+03  0.60913666577E+03  0.00000000000E+00 0. -1.
          1    1    1    2  502    0 -0.23989328986E+02  0.95030283936E+01 -0.37316052146E+02  0.45368306136E+02  0.00000000000E+00 0.  1.
</event>
<event>
 4    1  0.3555026E+003  0.2781628E+02  0.7546771E-02  0.1439576E+00
          2   -1    0    0  502    0  0.00000000000E+00  0.00000000000E+00  0.70963652688E+03  0.70963652688E+03  0.00000000000E+00 0.  1.
          1   -1    0    0  501    0 -0.00000000000E+00 -0.00000000000E+00 -0.14401798118E+03  0.14401798118E+03  0.00000000000E+00 0. -1.
          2    1    1    2  501    0  0.23831899573E+02  0.14345242755E+02  0.70801773170E+03  0.70856393771E+03  0.00000000000E+00 0.  1.
          1    1    1    2  502    0 -0.23831899573E+02 -0.14345242755E+02 -0.14239918600E+03  0.14509057034E+03  0.00000000000E+00 0. -1.
</event>
<event>
 4    1  0.3555026E+003  0.2580840E+02  0.7546771E-02  0.1459960E+00
          2   -1    0    0  502    0  0.00000000000E+00  0.00000000000E+00  0.60699318708E+03  0.60699318708E+03  0.00000000000E+00 0.  1.
          1   -1    0    0  501    0 -0.00000000000E+00 -0.00000000000E+00 -0.46542142709E+02  0.46542142709E+02  0.00000000000E+00 0. -1.
          2    1    1    2  501    0  0.15349928721E+02  0.20747370066E+02  0.60311807780E+03  0.60367001702E+03  0.00000000000E+00 0.  1.
          1    1    1    2  502    0 -0.15349928721E+02 -0.20747370066E+02 -0.42667033428E+02  0.49865312773E+02  0.00000000000E+00 0. -1.
</event>
<event>
 4    1  0.3555026E+003  0.3118622E+02  0.7546771E-02  0.1409561E+00
          2   -1    0    0  502    0  0.00000000000E+00  0.00000000000E+00  0.51115538039E+02  0.51115538039E+02  0.00000000000E+00 0. -1.
          1   -1    0    0  501    0 -0.00000000000E+00 -0.00000000000E+00 -0.35440868929E+02  0.35440868929E+02  0.00000000000E+00 0. -1.
          2    1    1    2  501    0  0.14206862013E+02  0.27762306974E+02  0.37289766376E+02  0.48611801994E+02  0.00000000000E+00 0. -1.
          1    1    1    2  502    0 -0.14206862013E+02 -0.27762306974E+02 -0.21615097266E+02  0.37944604973E+02  0.00000000000E+00 0. -1.
</event>
<event>
 4    1  0.3555026E+003  0.2601258E+02  0.7546771E-02  0.1457787E+00
          2   -1    0    0  502    0  0.00000000000E+00  0.00000000000E+00  0.37028400047E+02  0.37028400047E+02  0.00000000000E+00 0. -1.
          1   -1    0    0  501    0 -0.00000000000E+00 -0.00000000000E+00 -0.26446537266E+02  0.26446537266E+02  0.00000000000E+00 0. -1.
          2    1    1    2  501    0 -0.45718446777E+01 -0.25607670503E+02  0.22933754316E+02  0.34678691431E+02  0.00000000000E+00 0. -1.
          1    1    1    2  502    0  0.45718446777E+01  0.25607670503E+02 -0.12351891535E+02  0.28796245881E+02  0.00000000000E+00 0. -1.
</event>
<event>
 4    1  0.3555026E+003  0.2008025E+02  0.7546771E-02  0.1532812E+00
          2   -1    0    0  502    0  0.00000000000E+00  0.00000000000E+00  0.37051059408E+03  0.37051059408E+03  0.00000000000E+00 0. -1.
          1   -1    0    0  501    0 -0.00000000000E+00 -0.00000000000E+00 -0.80588740371E+01  0.80588740371E+01  0.00000000000E+00 0. -1.
          2    1    1    2  501    0  0.19212169218E+02  0.58402969438E+01  0.35726674059E+03  0.35783060300E+03  0.00000000000E+00 0. -1.
          1    1    1    2  502    0 -0.19212169218E+02 -0.58402969438E+01  0.51849794590E+01  0.20738865119E+02  0.00000000000E+00 0. -1.
</event>
<event>
 4    1  0.3555026E+003  0.3184354E+02  0.7546771E-02  0.1404225E+00
          2   -1    0    0  502    0  0.00000000000E+00  0.00000000000E+00  0.83735217642E+03  0.83735217642E+03  0.00000000000E+00 0. -1.
          1   -1    0    0  501    0 -0.00000000000E+00 -0.00000000000E+00 -0.17576029761E+01  0.17576029761E+01  0.00000000000E+00 0.  1.
          2    1    1    2  501    0 -0.28646914676E+02 -0.13905580773E+02  0.65177533272E+03  0.65255275284E+03  0.00000000000E+00 0. -1.
          1    1    1    2  502    0  0.28646914676E+02  0.13905580773E+02  0.18381924072E+03  0.18655702655E+03  0.00000000000E+00 0.  1.
</event>
<event>
 4    1  0.3555026E+003  0.2362040E+02  0.7546771E-02  0.1484851E+00
          2   -1    0    0  502    0  0.00000000000E+00  0.00000000000E+00  0.16451014688E+03  0.16451014688E+03  0.00000000000E+00 0.  1.
          1   -1    0    0  501    0 -0.00000000000E+00 -0.00000000000E+00 -0.12887091794E+02  0.12887091794E+02  0.00000000000E+00 0.  1.
          2    1    1    2  501    0 -0.21247661594E+02  0.10317953600E+02  0.15194965761E+03  0.15377458092E+03  0.00000000000E+00 0.  1.
          1    1    1    2  502    0  0.21247661594E+02 -0.10317953600E+02 -0.32660253162E+00  0.23622657744E+02  0.00000000000E+00 0.  1.
</event>
<event>
 4    1  0.3555026E+003  0.4883524E+02  0.7546771E-02  0.1303303E+00
          2   -1    0    0  502    0  0.00000000000E+00  0.00000000000E+00  0.66129459651E+03  0.66129459651E+03  0.00000000000E+00 0.  1.
          1   -1    0    0  501    0 -0.00000000000E+00 -0.00000000000E+00 -0.33149820422E+02  0.33149820422E+02  0.00000000000E+00 0. -1.
          2    1    1    2  501    0  0.42458715137E+02  0.24127536581E+02  0.64186369307E+03  0.64371879031E+03  0.00000000000E+00 0.  1.
          1    1    1    2  502    0 -0.42458715137E+02 -0.24127536581E+02 -0.13718916988E+02  0.50725626619E+02  0.00000000000E+00 0. -1.
</event>
<event>
 4    1  0.3555026E+003  0.2606778E+02  0.7546771E-02  0.1457204E+00
          2   -1    0    0  502    0  0.00000000000E+00  0.00000000000E+00  0.10231185371E+03  0.10231185371E+03  0.00000000000E+00 0. -1.
          1   -1    0    0  501    0 -0.00000000000E+00 -0.00000000000E+00 -0.29271834579E+02  0.29271834579E+02  0.00000000000E+00 0. -1.
          2    1    1    2  501    0  0.23826543749E+02 -0.10574742924E+02  0.94368257897E+02  0.97902489618E+02  0.00000000000E+00 0. -1.
          1    1    1    2  502    0 -0.23826543749E+02  0.10574742924E+02 -0.21328238767E+02  0.33681198670E+02  0.00000000000E+00 0. -1.
</event>
<event>
 4    1  0.3555026E+003  0.4417762E+02  0.7546771E-02  0.1325603E+00
          2   -1    0    0  502    0  0.00000000000E+00  0.00000000000E+00  0.40340941196E+03  0.40340941196E+03  0.00000000000E+00 0. -1.
          1   -1    0    0  501    0 -0.00000000000E+00 -0.00000000000E+00 -0.18874366008E+02  0.18874366008E+02  0.00000000000E+00 0. -1.
          2    1    1    2  501    0 -0.40087253752E+02 -0.18565403250E+02  0.37434943682E+03  0.37694716203E+03  0.00000000000E+00 0. -1.
          1    1    1    2  502    0  0.40087253752E+02  0.18565403250E+02  0.10185609125E+02  0.45336615935E+02  0.00000000000E+00 0. -1.
</event>
<event>
 4    1  0.3555026E+003  0.3123893E+02  0.7546771E-02  0.1409127E+00
          2   -1    0    0  502    0  0.00000000000E+00  0.00000000000E+00  0.42631509043E+03  0.42631509043E+03  0.00000000000E+00 0.  1.
          1   -1    0    0  501    0 -0.00000000000E+00 -0.00000000000E+00 -0.12742438926E+02  0.12742438926E+02  0.00000000000E+00 0.  1.
          2    1    1    2  501    0 -0.14329847271E+02 -0.27758349924E+02  0.40562141459E+03  0.40682256880E+03  0.00000000000E+00 0.  1.
          1    1    1    2  502    0  0.14329847271E+02  0.27758349924E+02  0.79512369139E+01  0.32234960552E+02  0.00000000000E+00 0.  1.
</event>
<event>
 4    1  0.3555026E+003  0.7942339E+02  0.7546771E-02  0.1205193E+00
          2   -1    0    0  502    0  0.00000000000E+00  0.00000000000E+00  0.12371043624E+02  0.12371043624E+02  0.00000000000E+00 0. -1.
          1   -1    0    0  501    0 -0.00000000000E+00 -0.00000000000E+00 -0.54439574665E+03  0.54439574665E+03  0.00000000000E+00 0.  1.
          2    1    1    2  501    0 -0.16462826872E+02  0.77698459262E+02 -0.19594301906E+03  0.21142786467E+03  0.00000000000E+00 0. -1.
          1    1    1    2  502    0  0.16462826872E+02 -0.77698459262E+02 -0.33608168397E+03  0.34533892561E+03  0.00000000000E+00 0.  1.
</event>
<event>
 4    1  0.3555026E+003  0.2413085E+02  0.7546771E-02  0.1478766E+00
          2   -1    0    0  502    0  0.00000000000E+00  0.00000000000E+00  0.25613070889E+02  0.25613070889E+02  0.00000000000E+00 0.  1.
          1   -1    0    0  501    0 -0.00000000000E+00 -0.00000000000E+00 -0.66394599690E+03  0.66394599690E+03  0.00000000000E+00 0. -1.
          2    1    1    2  501    0  0.79856395844E+01  0.22771193249E+02  0.19658801125E+02  0.31125008325E+02  0.00000000000E+00 0.  1.
          1    1    1    2  502    0 -0.79856395844E+01 -0.22771193249E+02 -0.65799172714E+03  0.65843405947E+03  0.00000000000E+00 0. -1.
</event>
<event>
 4    1  0.3555026E+003  0.2120286E+02  0.7546771E-02  0.1516388E+00
          2   -1    0    0  502    0  0.00000000000E+00  0.00000000000E+00  0.85157861643E+03  0.85157861643E+03  0.00000000000E+00 0.  1.
          1   -1    0    0  501    0 -0.00000000000E+00 -0.00000000000E+00 -0.55372074846E+00  0.55372074846E+00  0.00000000000E+00 0. -1.
          2    1    1    2  501    0 -0.20252441137E+02  0.62769306069E+01  0.51749148280E+03  0.51792566648E+03  0.00000000000E+00 0.  1.
          1    1    1    2  502    0  0.20252441137E+02 -0.62769306069E+01  0.33353341288E+03  0.33420667070E+03  0.00000000000E+00 0. -1.
</event>
<event>
 4    1  0.3555026E+003  0.2062547E+02  0.7546771E-02  0.1524680E+00
          2   -1    0    0  502    0  0.00000000000E+00  0.00000000000E+00  0.14010043300E+04  0.14010043300E+04  0.00000000000E+00 0. -1.
          1   -1    0    0  501    0 -0.00000000000E+00 -0.00000000000E+00 -0.18217480300E+02  0.18217480300E+02  0.00000000000E+00 0. -1.
          2    1    1    2  501    0  0.11870884963E+02  0.16866899468E+02  0.13950656282E+04  0.13952180895E+04  0.00000000000E+00 0. -1.
          1    1    1    2  502    0 -0.11870884963E+02 -0.16866899468E+02 -0.12278778564E+02  0.24003720763E+02  0.00000000000E+00 0. -1.
</event>
<event>
 4    1  0.3555026E+003  0.2155810E+02  0.7546771E-02  0.1511444E+00
          2   -1    0    0  502    0  0.00000000000E+00  0.00000000000E+00  0.45373266627E+03  0.45373266627E+03  0.00000000000E+00 0.  1.
          1   -1    0    0  501    0 -0.00000000000E+00 -0.00000000000E+00 -0.36040000449E+03  0.36040000449E+03  0.00000000000E+00 0. -1.
          2    1    1    2  501    0  0.21055711642E+02  0.46269540862E+01  0.45315379734E+03  0.45366630439E+03  0.00000000000E+00 0.  1.
          1    1    1    2  502    0 -0.21055711642E+02 -0.46269540862E+01 -0.35982113555E+03  0.36046636637E+03  0.00000000000E+00 0. -1.
</event>
<event>
 4    1  0.3555026E+003  0.2350267E+02  0.7546771E-02  0.1486281E+00
          2   -1    0    0  502    0  0.00000000000E+00  0.00000000000E+00  0.96636257688E+03  0.96636257688E+03  0.00000000000E+00 0. -1.
          1   -1    0    0  501    0 -0.00000000000E+00 -0.00000000000E+00 -0.31792113168E+01  0.31792113168E+01  0.00000000000E+00 0.  1.
          2    1    1    2  501    0  0.88244841150E+01 -0.21783115558E+02  0.92062555350E+03  0.92092550480E+03  0.00000000000E+00 0. -1.
          1    1    1    2  502    0 -0.88244841150E+01  0.21783115558E+02  0.42557812070E+02  0.48616283398E+02  0.00000000000E+00 0.  1.
</event>
<event>
 4    1  0.3555026E+003  0.2855563E+02  0.7546771E-02  0.1432578E+00
          2   -1    0    0  502    0  0.00000000000E+00  0.00000000000E+00  0.51347199698E+01  0.51347199698E+01  0.00000000000E+00 0. -1.
          1   -1    0    0  501    0 -0.00000000000E+00 -0.00000000000E+00 -0.29764493397E+03  0.29764493397E+03  0.00000000000E+00 0.  1.
          2    1    1    2  501    0  0.25405239068E+02  0.13038311464E+02 -0.42859219935E+02  0.51500839521E+02  0.00000000000E+00 0. -1.
          1    1    1    2  502    0 -0.25405239068E+02 -0.13038311464E+02 -0.24965099407E+03  0.25127881442E+03  0.00000000000E+00 0.  1.
</event>
<event>
 4    1  0.3555026E+003  0.6019334E+02  0.7546771E-02  0.1259177E+00
          2   -1    0    0  502    0  0.00000000000E+00  0.00000000000E+00  0.25640080782E+02  0.25640080782E+02  0.00000000000E+00 0.  1.
          1   -1    0    0  501    0 -0.00000000000E+00 -0.00000000000E+00 -0.17112918659E+03  0.17112918659E+03  0.00000000000E+00 0.  1.
          2    1    1    2  501    0  0.37624136979E+02  0.46985765782E+02 -0.31676669719E+02  0.68019477167E+02  0.00000000000E+00 0.  1.
          1    1    1    2  502    0 -0.37624136979E+02 -0.46985765782E+02 -0.11381243609E+03  0.12874979021E+03  0.00000000000E+00 0.  1.
</event>
<event>
 4    1  0.3555026E+003  0.2453762E+02  0.7546771E-02  0.1474043E+00
          2   -1    0    0  502    0  0.00000000000E+00  0.00000000000E+00  0.40953025910E+02  0.40953025910E+02  0.00000000000E+00 0.  1.
          1   -1    0    0  501    0 -0.00000000000E+00 -0.00000000000E+00 -0.16709927679E+04  0.16709927679E+04  0.00000000000E+00 0. -1.
          2    1    1    2  501    0  0.12896873456E+02  0.20874998673E+02  0.37179104486E+02  0.44546388461E+02  0.00000000000E+00 0.  1.
          1    1    1    2  502    0 -0.12896873456E+02 -0.20874998673E+02 -0.16672188465E+04  0.16673994054E+04  0.00000000000E+00 0. -1.
</event>
<event>
 4    1  0.3555026E+003  0.2511767E+02  0.7546771E-02  0.1467491E+00
          2   -1    0    0  502    0  0.00000000000E+00  0.00000000000E+00  0.14259231960E+03  0.14259231960E+03  0.00000000000E+00 0.  1.
          1   -1    0    0  501    0 -0.00000000000E+00 -0.00000000000E+00 -0.23773371342E+03  0.23773371342E+03  0.00000000000E+00 0.  1.
          2    1    1    2  501    0 -0.21076798243E+02 -0.13662574316E+02  0.14081443819E+03  0.14303706989E+03  0.00000000000E+00 0.  1.
          1    1    1    2  502    0  0.21076798243E+02  0.13662574316E+02 -0.23595583202E+03  0.23728896313E+03  0.00000000000E+00 0.  1.
</event>
<event>
 4    1  0.3555026E+003  0.2837955E+02  0.7546771E-02  0.1434222E+00
          2   -1    0    0  502    0  0.00000000000E+00  0.00000000000E+00  0.29335281202E+03  0.29335281202E+03  0.00000000000E+00 0. -1.
          1   -1    0    0  501    0 -0.00000000000E+00 -0.00000000000E+00 -0.30938277820E+02  0.30938277820E+02  0.00000000000E+00 0. -1.
          2    1    1    2  501    0  0.22773920441E+02  0.16933610094E+02  0.28599121801E+03  0.28739585137E+03  0.00000000000E+00 0. -1.
          1    1    1    2  502    0 -0.22773920441E+02 -0.16933610094E+02 -0.23576683807E+02  0.36895238479E+02  0.00000000000E+00 0. -1.
</event>
<event>
 4    1  0.5389597E+003  0.2095966E+02  0.7546771E-02  0.1519841E+00
          2   -1    0    0  502    0  0.00000000000E+00  0.00000000000E+00  0.14584749141E+04  0.14584749141E+04  0.00000000000E+00 0. -1.
          1   -1    0    0  501    0 -0.00000000000E+00 -0.00000000000E+00 -0.13226675936E+04  0.13226675936E+04  0.00000000000E+00 0. -1.
          2    1    1    2  501    0 -0.20840056609E+02 -0.22359465829E+01  0.14583165682E+04  0.14584671818E+04  0.00000000000E+00 0. -1.
          1    1    1    2  502    0  0.20840056609E+02  0.22359465829E+01 -0.13225092477E+04  0.13226753259E+04  0.00000000000E+00 0. -1.
</event>
<event>
 4    1  0.3555026E+003  0.2020681E+02  0.7546771E-02  0.1530897E+00
          2   -1    0    0  502    0  0.00000000000E+00  0.00000000000E+00  0.75711209655E+01  0.75711209655E+01  0.00000000000E+00 0. -1.
          1   -1    0    0  501    0 -0.00000000000E+00 -0.00000000000E+00 -0.46706620000E+03  0.46706620000E+03  0.00000000000E+00 0. -1.
          2    1    1    2  501    0  0.88566212156E+01 -0.18162473924E+02 -0.65502217777E+01  0.21241953859E+02  0.00000000000E+00 0. -1.
          1    1    1    2  502    0 -0.88566212156E+01  0.18162473924E+02 -0.45294485726E+03  0.45339536711E+03  0.00000000000E+00 0. -1.
</event>
<event>
 4    1  0.3555026E+003  0.2198212E+02  0.7546771E-02  0.1505691E+00
          2   -1    0    0  502    0  0.00000000000E+00  0.00000000000E+00  0.12004237990E+03  0.12004237990E+03  0.00000000000E+00 0. -1.
          1   -1    0    0  501    0 -0.00000000000E+00 -0.00000000000E+00 -0.63419247200E+02  0.63419247200E+02  0.00000000000E+00 0. -1.
          2    1    1    2  501    0 -0.18755550979E+02 -0.11464861138E+02  0.11708347973E+03  0.11912915243E+03  0.00000000000E+00 0. -1.
          1    1    1    2  502    0  0.18755550979E+02  0.11464861138E+02 -0.60460347031E+02  0.64332474666E+02  0.00000000000E+00 0. -1.
</event>
<event>
 4    1  0.3555026E+003  0.2545024E+02  0.7546771E-02  0.1463829E+00
          2   -1    0    0  502    0  0.00000000000E+00  0.00000000000E+00  0.93473093985E+01  0.93473093985E+01  0.00000000000E+00 0.  1.
          1   -1    0    0  501    0 -0.00000000000E+00 -0.00000000000E+00 -0.15514945400E+03  0.15514945400E+03  0.00000000000E+00 0. -1.
          2    1    1    2  501    0  0.13240071868E+01 -0.25415772080E+02 -0.11717386353E+02  0.28018058612E+02  0.00000000000E+00 0.  1.
          1    1    1    2  502    0 -0.13240071868E+01  0.25415772080E+02 -0.13408475825E+03  0.13647870479E+03  0.00000000000E+00 0. -1.
</event>
<event>
 4    1  0.3555026E+003  0.1863921E+03  0.7546771E-02  0.1065227E+00
          2   -1    0    0  502    0  0.00000000000E+00  0.00000000000E+00  0.79344119384E+03  0.79344119384E+03  0.00000000000E+00 0. -1.
          1   -1    0    0  501    0 -0.00000000000E+00 -0.00000000000E+00 -0.17121051304E+03  0.17121051304E+03  0.00000000000E+00 0.  1.
          2    1    1    2  501    0  0.14764640252E+03 -0.11376528323E+03  0.72721848150E+03  0.75072546226E+03  0.00000000000E+00 0. -1.
          1    1    1    2  502    0 -0.14764640252E+03  0.11376528323E+03 -0.10498780069E+03  0.21392624463E+03  0.00000000000E+00 0.  1.
</event>
<event>
 4    1  0.3555026E+003  0.4229803E+02  0.7546771E-02  0.1335521E+00
          2   -1    0    0  502    0  0.00000000000E+00  0.00000000000E+00  0.80988585394E+03  0.80988585394E+03  0.00000000000E+00 0.  1.
          1   -1    0    0  501    0 -0.00000000000E+00 -0.00000000000E+00 -0.92918593128E+01  0.92918593128E+01  0.00000000000E+00 0. -1.
          2    1    1    2  501    0  0.27757482964E+02 -0.31916222327E+02  0.75789731847E+03  0.75907672106E+03  0.00000000000E+00 0.  1.
          1    1    1    2  502    0 -0.27757482964E+02  0.31916222327E+02  0.42696676163E+02  0.60100992200E+02  0.00000000000E+00 0. -1.
</event>
<event>
 4    1  0.3555026E+003  0.3446258E+02  0.7546771E-02  0.1384381E+00
          2   -1    0    0  502    0  0.00000000000E+00  0.00000000000E+00  0.89331825678E+01  0.89331825678E+01  0.00000000000E+00 0. -1.
          1   -1    0    0  501    0 -0.00000000000E+00 -0.00000000000E+00 -0.49933582047E+03  0.49933582047E+03  0.00000000000E+00 0. -1.
          2    1    1    2  501    0 -0.12766777064E+02 -0.32010600172E+02 -0.27512345461E+02  0.44097599399E+02  0.00000000000E+00 0. -1.
          1    1    1    2  502    0  0.12766777064E+02  0.32010600172E+02 -0.46289029244E+03  0.46417140364E+03  0.00000000000E+00 0. -1.
</event>
<event>
 4    1  0.3555026E+003  0.2346408E+02  0.7546771E-02  0.1486751E+00
          2   -1    0    0  502    0  0.00000000000E+00  0.00000000000E+00  0.41750676881E+02  0.41750676881E+02  0.00000000000E+00 0. -1.
          1   -1    0    0  501    0 -0.00000000000E+00 -0.00000000000E+00 -0.15142389552E+04  0.15142389552E+04  0.00000000000E+00 0. -1.
          2    1    1    2  501    0 -0.15250357998E+02 -0.17832262270E+02  0.38355640599E+02  0.44963520352E+02  0.00000000000E+00 0. -1.
          1    1    1    2  502    0  0.15250357998E+02  0.17832262270E+02 -0.15108439190E+04  0.15110261118E+04  0.00000000000E+00 0. -1.
</event>
<event>
 4    1  0.3555026E+003  0.2667973E+02  0.7546771E-02  0.1450852E+00
          2   -1    0    0  502    0  0.00000000000E+00  0.00000000000E+00  0.11544327629E+02  0.11544327629E+02  0.00000000000E+00 0.  1.
          1   -1    0    0  501    0 -0.00000000000E+00 -0.00000000000E+00 -0.28711620558E+03  0.28711620558E+03  0.00000000000E+00 0.  1.
          2    1    1    2  501    0 -0.26187052181E+02  0.51035582433E+01 -0.54580588622E+01  0.27232304626E+02  0.00000000000E+00 0.  1.
          1    1    1    2  502    0  0.26187052181E+02 -0.51035582433E+01 -0.27011381909E+03  0.27142822858E+03  0.00000000000E+00 0.  1.
</event>
<event>
 4    1  0.3555026E+003  0.2253572E+02  0.7546771E-02  0.1498412E+00
          2   -1    0    0  502    0  0.00000000000E+00  0.00000000000E+00  0.85146691271E+01  0.85146691271E+01  0.00000000000E+00 0.  1.
          1   -1    0    0  501    0 -0.00000000000E+00 -0.00000000000E+00 -0.11239188070E+03  0.11239188070E+03  0.00000000000E+00 0. -1.
          2    1    1    2  501    0 -0.18926507420E+01 -0.22456100215E+02 -0.10524316663E+02  0.24872068770E+02  0.00000000000E+00 0.  1.
          1    1    1    2  502    0  0.18926507420E+01  0.22456100215E+02 -0.93352894906E+02  0.96034481052E+02  0.00000000000E+00 0. -1.
</event>
<event>
 4    1  0.3555026E+003  0.2597469E+02  0.7546771E-02  0.1458189E+00
          2   -1    0    0  502    0  0.00000000000E+00  0.00000000000E+00  0.86193297585E+01  0.86193297585E+01  0.00000000000E+00 0. -1.
          1   -1    0    0  501    0 -0.00000000000E+00 -0.00000000000E+00 -0.85687032806E+02  0.85687032806E+02  0.00000000000E+00 0.  1.
          2    1    1    2  501    0  0.10549438468E+02 -0.23735921867E+02 -0.24666303715E+02  0.35820541284E+02  0.00000000000E+00 0. -1.
          1    1    1    2  502    0 -0.10549438468E+02  0.23735921867E+02 -0.52401399333E+02  0.58485821281E+02  0.00000000000E+00 0.  1.
</event>
<event>
 4    1  0.3555026E+003  0.2052815E+02  0.7546771E-02  0.1526109E+00
          2   -1    0    0  502    0  0.00000000000E+00  0.00000000000E+00  0.10255073033E+03  0.10255073033E+03  0.00000000000E+00 0.  1.
          1   -1    0    0  501    0 -0.00000000000E+00 -0.00000000000E+00 -0.41776743925E+01  0.41776743925E+01  0.00000000000E+00 0.  1.
          2    1    1    2  501    0 -0.89578494997E+01  0.18470563572E+02  0.56016893881E+02  0.59659845678E+02  0.00000000000E+00 0.  1.
          1    1    1    2  502    0  0.89578494997E+01 -0.18470563572E+02  0.42356162059E+02  0.47068559046E+02  0.00000000000E+00 0.  1.
</event>
<event>
 4    1  0.3555026E+003  0.2497461E+02  0.7546771E-02  0.1469088E+00
          2   -1    0    0  502    0  0.00000000000E+00  0.00000000000E+00  0.97700864827E+03  0.97700864827E+03  0.00000000000E+00 0.  1.
          1   -1    0    0  501    0 -0.00000000000E+00 -0.00000000000E+00 -0.49603519548E+02  0.49603519548E+02  0.00000000000E+00 0. -1.
          2    1    1    2  501    0  0.23073656792E+02  0.95570623668E+01  0.97369476611E+03  0.97401500432E+03  0.00000000000E+00 0.  1.
          1    1    1    2  502    0 -0.23073656792E+02 -0.95570623668E+01 -0.46289637390E+02  0.52597163502E+02  0.00000000000E+00 0. -1.
</event>
<event>
 4    1  0.3555026E+003  0.2089909E+02  0.7546771E-02  0.1520710E+00
          2   -1    0    0  502    0  0.00000000000E+00  0.00000000000E+00  0.10772757001E+04  0.10772757001E+04  0.00000000000E+00 0. -1.
          1   -1    0    0  501    0 -0.00000000000E+00 -0.00000000000E+00 -0.22894663325E+01  0.22894663325E+01  0.00000000000E+00 0.  1.
          2    1    1    2  501    0  0.20431124765E+02 -0.43978662770E+01  0.10271536129E+04  0.10273662038E+04  0.00000000000E+00 0. -1.
          1    1    1    2  502    0 -0.20431124765E+02  0.43978662770E+01  0.47832620810E+02  0.52198962638E+02  0.00000000000E+00 0.  1.
</event>
<event>
 4    1  0.3555026E+003  0.2306752E+02  0.7546771E-02  0.1491652E+00
          2   -1    0    0  502    0  0.00000000000E+00  0.00000000000E+00  0.26079551155E+01  0.26079551155E+01  0.00000000000E+00 0.  1.
          1   -1    0    0  501    0 -0.00000000000E+00 -0.00000000000E+00 -0.46732640003E+03  0.46732640003E+03  0.00000000000E+00 0.  1.
          2    1    1    2  501    0 -0.60991806157E+00 -0.23059450399E+02 -0.55992516795E+02  0.60558006818E+02  0.00000000000E+00 0.  1.
          1    1    1    2  502    0  0.60991806157E+00  0.23059450399E+02 -0.40872592812E+03  0.40937634833E+03  0.00000000000E+00 0.  1.
</event>
<event>
 4    1  0.3555026E+003  0.2356904E+02  0.7546771E-02  0.1485474E+00
          2   -1    0    0  502    0  0.00000000000E+00  0.00000000000E+00  0.28162653378E+04  0.28162653378E+04  0.00000000000E+00 0.  1.
          1   -1    0    0  501    0 -0.00000000000E+00 -0.00000000000E+00 -0.20244079926E+00  0.20244079926E+00  0.00000000000E+00 0.  1.
          2    1    1    2  501    0 -0.22607234414E+01  0.23460363241E+02  0.16335975945E+04  0.16337676091E+04  0.00000000000E+00 0.  1.
          1    1    1    2  502    0  0.22607234414E+01 -0.23460363241E+02  0.11824653024E+04  0.11827001695E+04  0.00000000000E+00 0.  1.
</event>
<event>
 4    1  0.3968432E+003  0.2373728E+02  0.7546771E-02  0.1483442E+00
          2   -1    0    0  502    0  0.00000000000E+00  0.00000000000E+00  0.46887062981E+03  0.46887062981E+03  0.00000000000E+00 0.  1.
          1   -1    0    0  501    0 -0.00000000000E+00 -0.00000000000E+00 -0.14540718983E+04  0.14540718983E+04  0.00000000000E+00 0.  1.
          2    1    1    2  501    0  0.23462124559E+02 -0.36037495493E+01  0.46847323797E+03  0.46907422972E+03  0.00000000000E+00 0.  1.
          1    1    1    2  502    0 -0.23462124559E+02  0.36037495493E+01 -0.14536745065E+04  0.14538682984E+04  0.00000000000E+00 0.  1.
</event>
<event>
 4    1  0.3555026E+003  0.2542014E+02  0.7546771E-02  0.1464158E+00
          2   -1    0    0  502    0  0.00000000000E+00  0.00000000000E+00  0.21134878205E+02  0.21134878205E+02  0.00000000000E+00 0.  1.
          1   -1    0    0  501    0 -0.00000000000E+00 -0.00000000000E+00 -0.40007558622E+02  0.40007558622E+02  0.00000000000E+00 0. -1.
          2    1    1    2  501    0  0.79349973327E+01 -0.24149935602E+02  0.54084196127E+01  0.25989124167E+02  0.00000000000E+00 0.  1.
          1    1    1    2  502    0 -0.79349973327E+01  0.24149935602E+02 -0.24281100030E+02  0.35153312659E+02  0.00000000000E+00 0. -1.
</event>
<event>
 4    1  0.3555026E+003  0.2122476E+02  0.7546771E-02  0.1516080E+00
          2   -1    0    0  502    0  0.00000000000E+00  0.00000000000E+00  0.67816718977E+02  0.67816718977E+02  0.00000000000E+00 0. -1.
          1   -1    0    0  501    0 -0.00000000000E+00 -0.00000000000E+00 -0.67692088666E+01  0.67692088666E+01  0.00000000000E+00 0. -1.
          2    1    1    2  501    0  0.84363150563E+01  0.19476110814E+02  0.35620729739E+02  0.41464764455E+02  0.00000000000E+00 0. -1.
          1    1    1    2  502    0 -0.84363150563E+01 -0.19476110814E+02  0.25426780371E+02  0.33121163388E+02  0.00000000000E+00 0. -1.
</event>
<event>
 4    1  0.3555026E+003  0.2764682E+02  0.7546771E-02  0.1441217E+00
          2   -1    0    0  502    0  0.00000000000E+00  0.00000000000E+00  0.91678241905E+00  0.91678241905E+00  0.00000000000E+00 0. -1.
          1   -1    0    0  501    0 -0.00000000000E+00 -0.00000000000E+00 -0.15891001176E+04  0.15891001176E+04  0.00000000000E+00 0. -1.
          2    1    1    2  501    0 -0.24276971857E+02 -0.13227827610E+02 -0.24597032713E+03  0.24751918838E+03  0.00000000000E+00 0. -1.
          1    1    1    2  502    0  0.24276971857E+02  0.13227827610E+02 -0.13422130080E+04  0.13424977116E+04  0.00000000000E+00 0. -1.
</event>
<event>
 4    1  0.3555026E+003  0.2694870E+02  0.7546771E-02  0.1448124E+00
          2   -1    0    0  502    0  0.00000000000E+00  0.00000000000E+00  0.34265429026E+03  0.34265429026E+03  0.00000000000E+00 0. -1.
          1   -1    0    0  501    0 -0.00000000000E+00 -0.00000000000E+00 -0.36821368648E+01  0.36821368648E+01  0.00000000000E+00 0.  1.
          2    1    1    2  501    0  0.83823296243E+01  0.25611895688E+02  0.28229842017E+03  0.28358178834E+03  0.00000000000E+00 0. -1.
          1    1    1    2  502    0 -0.83823296243E+01 -0.25611895688E+02  0.56673733226E+02  0.62754638780E+02  0.00000000000E+00 0.  1.
</event>
<event>
 4    1  0.3555026E+003  0.2210824E+02  0.7546771E-02  0.1504010E+00
          2   -1    0    0  502    0  0.00000000000E+00  0.00000000000E+00  0.52571642696E+03  0.52571642696E+03  0.00000000000E+00 0. -1.
          1   -1    0    0  501    0 -0.00000000000E+00 -0.00000000000E+00 -0.10202669708E+02  0.10202669708E+02  0.00000000000E+00 0. -1.
          2    1    1    2  501    0  0.60276601799E+01  0.21270673276E+02  0.51321578350E+03  0.51369175063E+03  0.00000000000E+00 0. -1.
          1    1    1    2  502    0 -0.60276601799E+01 -0.21270673276E+02  0.22979737563E+01  0.22227346046E+02  0.00000000000E+00 0. -1.
</event>
<event>
 4    1  0.3555026E+003  0.6625518E+02  0.7546771E-02  0.1239943E+00
          2   -1    0    0  502    0  0.00000000000E+00  0.00000000000E+00  0.10731455364E+03  0.10731455364E+03  0.00000000000E+00 0. -1.
          1   -1    0    0  501    0 -0.00000000000E+00 -0.00000000000E+00 -0.14636001928E+03  0.14636001928E+03  0.00000000000E+00 0. -1.
          2    1    1    2  501    0  0.42211520913E+02 -0.51067954719E+02  0.88140755073E+02  0.11026577530E+03  0.00000000000E+00 0. -1.
          1    1    1    2  502    0 -0.42211520913E+02  0.51067954719E+02 -0.12718622072E+03  0.14340879763E+03  0.00000000000E+00 0. -1.
</event>
<event>
 4    1  0.3555026E+003  0.2409854E+02  0.7546771E-02  0.1479146E+00
          2   -1    0    0  502    0  0.00000000000E+00  0.00000000000E+00  0.54529030692E+03  0.54529030692E+03  0.00000000000E+00 0. -1.
          1   -1    0    0  501    0 -0.00000000000E+00 -0.00000000000E+00 -0.91188152324E+02  0.91188152324E+02  0.00000000000E+00 0. -1.
          2    1    1    2  501    0  0.23231392185E+02 -0.64063888727E+01  0.54342645044E+03  0.54396051920E+03  0.00000000000E+00 0. -1.
          1    1    1    2  502    0 -0.23231392185E+02  0.64063888727E+01 -0.89324295850E+02  0.92517940046E+02  0.00000000000E+00 0. -1.
</event>
<event>
 4    1  0.3555026E+003  0.2114576E+02  0.7546771E-02  0.1517194E+00
          2   -1    0    0  502    0  0.00000000000E+00  0.00000000000E+00  0.15683318389E+02  0.15683318389E+02  0.00000000000E+00 0.  1.
          1   -1    0    0  501    0 -0.00000000000E+00 -0.00000000000E+00 -0.28984443319E+02  0.28984443319E+02  0.00000000000E+00 0.  1.
          2    1    1    2  501    0 -0.91107578605E+01 -0.19082373213E+02 -0.95057781645E+01  0.23184104355E+02  0.00000000000E+00 0.  1.
          1    1    1    2  502    0  0.91107578605E+01  0.19082373213E+02 -0.37953467652E+01  0.21483657354E+02  0.00000000000E+00 0.  1.
</event>
<event>
 4    1  0.3555026E+003  0.2312779E+02  0.7546771E-02  0.1490900E+00
          2   -1    0    0  502    0  0.00000000000E+00  0.00000000000E+00  0.40951175558E+02  0.40951175558E+02  0.00000000000E+00 0.  1.
          1   -1    0    0  501    0 -0.00000000000E+00 -0.00000000000E+00 -0.14626117337E+02  0.14626117337E+02  0.00000000000E+00 0.  1.
          2    1    1    2  501    0  0.23074992456E+02 -0.15616245900E+01  0.40744422160E+01  0.23483931263E+02  0.00000000000E+00 0.  1.
          1    1    1    2  502    0 -0.23074992456E+02  0.15616245900E+01  0.22250616005E+02  0.32093361631E+02  0.00000000000E+00 0.  1.
</event>
<event>
 4    1  0.3555026E+003  0.3614347E+02  0.7546771E-02  0.1372698E+00
          2   -1    0    0  502    0  0.00000000000E+00  0.00000000000E+00  0.96427220469E+03  0.96427220469E+03  0.00000000000E+00 0.  1.
          1   -1    0    0  501    0 -0.00000000000E+00 -0.00000000000E+00 -0.18865313378E+01  0.18865313378E+01  0.00000000000E+00 0.  1.
          2    1    1    2  501    0 -0.86602405931E+01  0.35090602125E+02  0.73767196338E+03  0.73855688723E+03  0.00000000000E+00 0.  1.
          1    1    1    2  502    0  0.86602405931E+01 -0.35090602125E+02  0.22471370997E+03  0.22760184879E+03  0.00000000000E+00 0.  1.
</event>
<event>
 4    1  0.3555026E+003  0.2485648E+02  0.7546771E-02  0.1470415E+00
          2   -1    0    0  502    0  0.00000000000E+00  0.00000000000E+00  0.12266993916E+04  0.12266993916E+04  0.00000000000E+00 0.  1.
          1   -1    0    0  501    0 -0.00000000000E+00 -0.00000000000E+00 -0.52981384897E+01  0.52981384897E+01  0.00000000000E+00 0. -1.
          2    1    1    2  501    0 -0.18335047256E+02 -0.16783041751E+02  0.11966885824E+04  0.11969467021E+04  0.00000000000E+00 0.  1.
          1    1    1    2  502    0  0.18335047256E+02  0.16783041751E+02  0.24712670706E+02  0.35050827975E+02  0.00000000000E+00 0. -1.
</event>
<event>
 4    1  0.3555026E+003  0.2947402E+02  0.7546771E-02  0.1424223E+00
          2   -1    0    0  502    0  0.00000000000E+00  0.00000000000E+00  0.14976617477E+04  0.14976617477E+04  0.00000000000E+00 0. -1.
          1   -1    0    0  501    0 -0.00000000000E+00 -0.00000000000E+00 -0.81235973945E+01  0.81235973945E+01  0.00000000000E+00 0.  1.
          2    1    1    2  501    0  0.28888410204E+02 -0.58461739002E+01  0.14702845828E+04  0.14705799783E+04  0.00000000000E+00 0. -1.
          1    1    1    2  502    0 -0.28888410204E+02  0.58461739002E+01  0.19253567506E+02  0.35205366851E+02  0.00000000000E+00 0.  1.
</event>
<event>
 4    1  0.3555026E+003  0.2130438E+02  0.7546771E-02  0.1514963E+00
          2   -1    0    0  502    0  0.00000000000E+00  0.00000000000E+00  0.24235112785E+01  0.24235112785E+01  0.00000000000E+00 0. -1.
          1   -1    0    0  501    0 -0.00000000000E+00 -0.00000000000E+00 -0.34898733027E+03  0.34898733027E+03  0.00000000000E+00 0. -1.
          2    1    1    2  501    0 -0.45594356342E+00  0.21299504081E+02 -0.53678291906E+02  0.57751500245E+02  0.00000000000E+00 0. -1.
          1    1    1    2  502    0  0.45594356342E+00 -0.21299504081E+02 -0.29288552708E+03  0.29365934130E+03  0.00000000000E+00 0. -1.
</event>
<event>
 4    1  0.3555026E+003  0.3242544E+02  0.7546771E-02  0.1399627E+00
          2   -1    0    0  502    0  0.00000000000E+00  0.00000000000E+00  0.15389714297E+01  0.15389714297E+01  0.00000000000E+00 0. -1.
          1   -1    0    0  501    0 -0.00000000000E+00 -0.00000000000E+00 -0.14425452224E+04  0.14425452224E+04  0.00000000000E+00 0. -1.
          2    1    1    2  501    0 -0.92396528240E+01 -0.31081147784E+02 -0.19663681432E+03  0.19929236232E+03  0.00000000000E+00 0. -1.
          1    1    1    2  502    0  0.92396528240E+01  0.31081147784E+02 -0.12443694366E+04  0.12447918315E+04  0.00000000000E+00 0. -1.
</event>
<event>
 4    1  0.3555026E+003  0.3643622E+02  0.7546771E-02  0.1370738E+00
          2   -1    0    0  502    0  0.00000000000E+00  0.00000000000E+00  0.93783288190E+03  0.93783288190E+03  0.00000000000E+00 0. -1.
          1   -1    0    0  501    0 -0.00000000000E+00 -0.00000000000E+00 -0.32702347326E+02  0.32702347326E+02  0.00000000000E+00 0.  1.
          2    1    1    2  501    0  0.28277519581E+02  0.22977811483E+02  0.92721368787E+03  0.92792931892E+03  0.00000000000E+00 0. -1.
          1    1    1    2  502    0 -0.28277519581E+02 -0.22977811483E+02 -0.22083153291E+02  0.42605910312E+02  0.00000000000E+00 0.  1.
</event>
<event>
 4    1  0.3555026E+003  0.6901844E+02  0.7546771E-02  0.1231929E+00
          2   -1    0    0  502    0  0.00000000000E+00  0.00000000000E+00  0.54944629984E+03  0.54944629984E+03  0.00000000000E+00 0.  1.
          1   -1    0    0  501    0 -0.00000000000E+00 -0.00000000000E+00 -0.19360057820E+03  0.19360057820E+03  0.00000000000E+00 0.  1.
          2    1    1    2  501    0 -0.64012752518E+02  0.25805292649E+02  0.54103233918E+03  0.54541684761E+03  0.00000000000E+00 0.  1.
          1    1    1    2  502    0  0.64012752518E+02 -0.25805292649E+02 -0.18518661754E+03  0.19763003043E+03  0.00000000000E+00 0.  1.
</event>
<event>
 4    1  0.3555026E+003  0.2242695E+02  0.7546771E-02  0.1499822E+00
          2   -1    0    0  502    0  0.00000000000E+00  0.00000000000E+00  0.20159642344E+03  0.20159642344E+03  0.00000000000E+00 0.  1.
          1   -1    0    0  501    0 -0.00000000000E+00 -0.00000000000E+00 -0.30066512465E+01  0.30066512465E+01  0.00000000000E+00 0.  1.
          2    1    1    2  501    0  0.21953533266E+02 -0.45837394672E+01  0.14149938775E+03  0.14326564496E+03  0.00000000000E+00 0.  1.
          1    1    1    2  502    0 -0.21953533266E+02  0.45837394672E+01  0.57090384445E+02  0.61337429735E+02  0.00000000000E+00 0.  1.
</event>
<event>
 4    1  0.3555026E+003  0.3249862E+02  0.7546771E-02  0.1399056E+00
          2   -1    0    0  502    0  0.00000000000E+00  0.00000000000E+00  0.12097671204E+04  0.12097671204E+04  0.00000000000E+00 0. -1.
          1   -1    0    0  501    0 -0.00000000000E+00 -0.00000000000E+00 -0.36133485615E+02  0.36133485615E+02  0.00000000000E+00 0.  1.
          2    1    1    2  501    0 -0.79224371525E+01  0.31518170158E+02  0.12021954993E+04  0.12026346821E+04  0.00000000000E+00 0. -1.
          1    1    1    2  502    0  0.79224371525E+01 -0.31518170158E+02 -0.28561864562E+02  0.43265923864E+02  0.00000000000E+00 0.  1.
</event>
<event>
 4    1  0.3555026E+003  0.4103746E+02  0.7546771E-02  0.1342511E+00
          2   -1    0    0  502    0  0.00000000000E+00  0.00000000000E+00  0.11566129863E+04  0.11566129863E+04  0.00000000000E+00 0. -1.
          1   -1    0    0  501    0 -0.00000000000E+00 -0.00000000000E+00 -0.38647841557E+02  0.38647841557E+02  0.00000000000E+00 0.  1.
          2    1    1    2  501    0 -0.40070002105E+02  0.88582165151E+01  0.11452471916E+04  0.11459822001E+04  0.00000000000E+00 0. -1.
          1    1    1    2  502    0  0.40070002105E+02 -0.88582165151E+01 -0.27282046888E+02  0.49278627730E+02  0.00000000000E+00 0.  1.
</event>
<event>
 4    1  0.3555026E+003  0.6384892E+02  0.7546771E-02  0.1247288E+00
          2   -1    0    0  502    0  0.00000000000E+00  0.00000000000E+00  0.17655953461E+03  0.17655953461E+03  0.00000000000E+00 0. -1.
          1   -1    0    0  501    0 -0.00000000000E+00 -0.00000000000E+00 -0.37786381284E+03  0.37786381284E+03  0.00000000000E+00 0.  1.
          2    1    1    2  501    0 -0.46048926044E+02 -0.44228738461E+02  0.16795645306E+03  0.17968320740E+03  0.00000000000E+00 0. -1.
          1    1    1    2  502    0  0.46048926044E+02  0.44228738461E+02 -0.36926073129E+03  0.37474014005E+03  0.00000000000E+00 0.  1.
</event>
<event>
 4    1  0.3555026E+003  0.2994683E+02  0.7546771E-02  0.1420059E+00
          2   -1    0    0  502    0  0.00000000000E+00  0.00000000000E+00  0.10831615467E+03  0.10831615467E+03  0.00000000000E+00 0. -1.
          1   -1    0    0  501    0 -0.00000000000E+00 -0.00000000000E+00 -0.17892141647E+02  0.17892141647E+02  0.00000000000E+00 0. -1.
          2    1    1    2  501    0 -0.28399379394E+02 -0.95019776959E+01  0.91465687504E+02  0.96243359879E+02  0.00000000000E+00 0. -1.
          1    1    1    2  502    0  0.28399379394E+02  0.95019776959E+01 -0.10416744798E+01  0.29964936440E+02  0.00000000000E+00 0. -1.
</event>
<event>
 4    1  0.3555026E+003  0.2613134E+02  0.7546771E-02  0.1456535E+00
          2   -1    0    0  502    0  0.00000000000E+00  0.00000000000E+00  0.34449859571E+01  0.34449859571E+01  0.00000000000E+00 0. -1.
          1   -1    0    0  501    0 -0.00000000000E+00 -0.00000000000E+00 -0.19943201257E+03  0.19943201257E+03  0.00000000000E+00 0. -1.
          2    1    1    2  501    0  0.59037014079E+01  0.25455695358E+02 -0.10591934464E+03  0.10909515886E+03  0.00000000000E+00 0. -1.
          1    1    1    2  502    0 -0.59037014079E+01 -0.25455695358E+02 -0.90067681967E+02  0.93781839667E+02  0.00000000000E+00 0. -1.
</event>
<event>
 4    1  0.3555026E+003  0.1068429E+03  0.7546771E-02  0.1152451E+00
          2   -1    0    0  502    0  0.00000000000E+00  0.00000000000E+00  0.10253481555E+04  0.10253481555E+04  0.00000000000E+00 0.  1.
          1   -1    0    0  501    0 -0.00000000000E+00 -0.00000000000E+00 -0.11283961425E+02  0.11283961425E+02  0.00000000000E+00 0.  1.
          2    1    1    2  501    0 -0.10015367640E+03 -0.37210792803E+02  0.56694422249E+03  0.57692387142E+03  0.00000000000E+00 0.  1.
          1    1    1    2  502    0  0.10015367640E+03  0.37210792803E+02  0.44711997160E+03  0.45970824553E+03  0.00000000000E+00 0.  1.
</event>
<event>
 4    1  0.3555026E+003  0.1009430E+03  0.7546771E-02  0.1162184E+00
          2   -1    0    0  502    0  0.00000000000E+00  0.00000000000E+00  0.11866369488E+04  0.11866369488E+04  0.00000000000E+00 0.  1.
          1   -1    0    0  501    0 -0.00000000000E+00 -0.00000000000E+00 -0.44036987299E+02  0.44036987299E+02  0.00000000000E+00 0.  1.
          2    1    1    2  501    0 -0.95257368423E+02  0.33399330260E+02  0.11233941071E+04  0.11279201219E+04  0.00000000000E+00 0.  1.
          1    1    1    2  502    0  0.95257368423E+02 -0.33399330260E+02  0.19205854459E+02  0.10275381427E+03  0.00000000000E+00 0.  1.
</event>
<event>
 4    1  0.3555026E+003  0.3024290E+02  0.7546771E-02  0.1417497E+00
          2   -1    0    0  502    0  0.00000000000E+00  0.00000000000E+00  0.43341950326E+01  0.43341950326E+01  0.00000000000E+00 0.  1.
          1   -1    0    0  501    0 -0.00000000000E+00 -0.00000000000E+00 -0.27549638520E+03  0.27549638520E+03  0.00000000000E+00 0.  1.
          2    1    1    2  501    0 -0.26333527338E+02  0.14872062809E+02 -0.67897500587E+02  0.74328349236E+02  0.00000000000E+00 0.  1.
          1    1    1    2  502    0  0.26333527338E+02 -0.14872062809E+02 -0.20326468958E+03  0.20550223099E+03  0.00000000000E+00 0.  1.
</event>
<event>
 4    1  0.3555026E+003  0.2169899E+02  0.7546771E-02  0.1509515E+00
          2   -1    0    0  502    0  0.00000000000E+00  0.00000000000E+00  0.41332055737E+01  0.41332055737E+01  0.00000000000E+00 0. -1.
          1   -1    0    0  501    0 -0.00000000000E+00 -0.00000000000E+00 -0.64834535638E+03  0.64834535638E+03  0.00000000000E+00 0. -1.
          2    1    1    2  501    0  0.20099525736E+02  0.81765034711E+01 -0.25911278266E+02  0.33797048469E+02  0.00000000000E+00 0. -1.
          1    1    1    2  502    0 -0.20099525736E+02 -0.81765034711E+01 -0.61830087254E+03  0.61868151348E+03  0.00000000000E+00 0. -1.
</event>
<event>
 4    1  0.3555026E+003  0.3452646E+02  0.7546771E-02  0.1383923E+00
          2   -1    0    0  502    0  0.00000000000E+00  0.00000000000E+00  0.43399018120E+02  0.43399018120E+02  0.00000000000E+00 0. -1.
          1   -1    0    0  501    0 -0.00000000000E+00 -0.00000000000E+00 -0.79410579006E+03  0.79410579006E+03  0.00000000000E+00 0.  1.
          2    1    1    2  501    0  0.15464049185E+01 -0.34491810254E+02  0.36093040930E+02  0.49947812228E+02  0.00000000000E+00 0. -1.
          1    1    1    2  502    0 -0.15464049185E+01  0.34491810254E+02 -0.78679981287E+03  0.78755699595E+03  0.00000000000E+00 0.  1.
</event>
<event>
 4    1  0.3555026E+003  0.2051544E+02  0.7546771E-02  0.1526297E+00
          2   -1    0    0  502    0  0.00000000000E+00  0.00000000000E+00  0.53278114267E+02  0.53278114267E+02  0.00000000000E+00 0. -1.
          1   -1    0    0  501    0 -0.00000000000E+00 -0.00000000000E+00 -0.16025812884E+02  0.16025812884E+02  0.00000000000E+00 0. -1.
          2    1    1    2  501    0 -0.20017063298E+02 -0.44944801413E+01  0.43301210268E+02  0.47915320989E+02  0.00000000000E+00 0. -1.
          1    1    1    2  502    0  0.20017063298E+02  0.44944801413E+01 -0.60489088846E+01  0.21388606161E+02  0.00000000000E+00 0. -1.
</event>
<event>
 4    1  0.3555026E+003  0.3489946E+02  0.7546771E-02  0.1381271E+00
          2   -1    0    0  502    0  0.00000000000E+00  0.00000000000E+00  0.21990053271E+04  0.21990053271E+04  0.00000000000E+00 0. -1.
          1   -1    0    0  501    0 -0.00000000000E+00 -0.00000000000E+00 -0.13070270263E+03  0.13070270263E+03  0.00000000000E+00 0.  1.
          2    1    1    2  501    0 -0.15528104946E+02 -0.31254603506E+02  0.21965345766E+04  0.21968118077E+04  0.00000000000E+00 0. -1.
          1    1    1    2  502    0  0.15528104946E+02  0.31254603506E+02 -0.12823195212E+03  0.13289622202E+03  0.00000000000E+00 0.  1.
</event>
<event>
 4    1  0.3555026E+003  0.2016742E+02  0.7546771E-02  0.1531492E+00
          2   -1    0    0  502    0  0.00000000000E+00  0.00000000000E+00  0.13878325019E+03  0.13878325019E+03  0.00000000000E+00 0.  1.
          1   -1    0    0  501    0 -0.00000000000E+00 -0.00000000000E+00 -0.81358206173E+02  0.81358206173E+02  0.00000000000E+00 0. -1.
          2    1    1    2  501    0 -0.19299385195E+02  0.58530789021E+01  0.13678261003E+03  0.13826137279E+03  0.00000000000E+00 0.  1.
          1    1    1    2  502    0  0.19299385195E+02 -0.58530789021E+01 -0.79357566011E+02  0.81880083566E+02  0.00000000000E+00 0. -1.
</event>
<event>
 4    1  0.3555026E+003  0.2218628E+02  0.7546771E-02  0.1502977E+00
          2   -1    0    0  502    0  0.00000000000E+00  0.00000000000E+00  0.49838252464E+03  0.49838252464E+03  0.00000000000E+00 0.  1.
          1   -1    0    0  501    0 -0.00000000000E+00 -0.00000000000E+00 -0.15839422878E+01  0.15839422878E+01  0.00000000000E+00 0.  1.
          2    1    1    2  501    0  0.94063837538E+01  0.20093556453E+02  0.40177910105E+03  0.40239119909E+03  0.00000000000E+00 0.  1.
          1    1    1    2  502    0 -0.94063837538E+01 -0.20093556453E+02  0.95019481295E+02  0.97575267828E+02  0.00000000000E+00 0.  1.
</event>
<event>
 4    1  0.3555026E+003  0.2180156E+02  0.7546771E-02  0.1508121E+00
          2   -1    0    0  502    0  0.00000000000E+00  0.00000000000E+00  0.82633086585E+01  0.82633086585E+01  0.00000000000E+00 0. -1.
          1   -1    0    0  501    0 -0.00000000000E+00 -0.00000000000E+00 -0.61505319938E+03  0.61505319938E+03  0.00000000000E+00 0. -1.
          2    1    1    2  501    0  0.21920372140E+01 -0.21691082296E+02 -0.66676225850E+01  0.22798361109E+02  0.00000000000E+00 0. -1.
          1    1    1    2  502    0 -0.21920372140E+01  0.21691082296E+02 -0.60012226814E+03  0.60051814693E+03  0.00000000000E+00 0. -1.
</event>
<event>
 4    1  0.3555026E+003  0.2283330E+02  0.7546771E-02  0.1494602E+00
          2   -1    0    0  502    0  0.00000000000E+00  0.00000000000E+00  0.11989383433E+01  0.11989383433E+01  0.00000000000E+00 0.  1.
          1   -1    0    0  501    0 -0.00000000000E+00 -0.00000000000E+00 -0.80715916660E+03  0.80715916660E+03  0.00000000000E+00 0. -1.
          2    1    1    2  501    0 -0.70616180328E+01  0.21713888741E+02 -0.12847808986E+03  0.13049129851E+03  0.00000000000E+00 0.  1.
          1    1    1    2  502    0  0.70616180328E+01 -0.21713888741E+02 -0.67748213840E+03  0.67786680643E+03  0.00000000000E+00 0. -1.
</event>
<event>
 4    1  0.3555026E+003  0.2481000E+02  0.7546771E-02  0.1470940E+00
          2   -1    0    0  502    0  0.00000000000E+00  0.00000000000E+00  0.12800039752E+01  0.12800039752E+01  0.00000000000E+00 0. -1.
          1   -1    0    0  501    0 -0.00000000000E+00 -0.00000000000E+00 -0.99724297238E+03  0.99724297238E+03  0.00000000000E+00 0.  1.
          2    1    1    2  501    0  0.60574590333E+01  0.24059164218E+02 -0.13872672394E+03  0.14092778338E+03  0.00000000000E+00 0. -1.
          1    1    1    2  502    0 -0.60574590333E+01 -0.24059164218E+02 -0.85723624446E+03  0.85759519298E+03  0.00000000000E+00 0.  1.
</event>
<event>
 4    1  0.3555026E+003  0.2265319E+02  0.7546771E-02  0.1496900E+00
          2   -1    0    0  502    0  0.00000000000E+00  0.00000000000E+00  0.16567722871E+01  0.16567722871E+01  0.00000000000E+00 0.  1.
          1   -1    0    0  501    0 -0.00000000000E+00 -0.00000000000E+00 -0.57376092760E+03  0.57376092760E+03  0.00000000000E+00 0. -1.
          2    1    1    2  501    0 -0.16848191010E+02  0.15142835187E+02 -0.90884473164E+02  0.93665118695E+02  0.00000000000E+00 0.  1.
          1    1    1    2  502    0  0.16848191010E+02 -0.15142835187E+02 -0.48121968215E+03  0.48175258119E+03  0.00000000000E+00 0. -1.
</event>
<event>
 4    1  0.3555026E+003  0.2035335E+02  0.7546771E-02  0.1528701E+00
          2   -1    0    0  502    0  0.00000000000E+00  0.00000000000E+00  0.95540530195E+03  0.95540530195E+03  0.00000000000E+00 0.  1.
          1   -1    0    0  501    0 -0.00000000000E+00 -0.00000000000E+00 -0.57625597141E+01  0.57625597141E+01  0.00000000000E+00 0.  1.
          2    1    1    2  501    0 -0.17034245981E+02 -0.11139716320E+02  0.93697136799E+03  0.93719240461E+03  0.00000000000E+00 0.  1.
          1    1    1    2  502    0  0.17034245981E+02  0.11139716320E+02  0.12671374242E+02  0.23975457055E+02  0.00000000000E+00 0.  1.
</event>
<event>
 4    1  0.3555026E+003  0.2016884E+02  0.7546771E-02  0.1531470E+00
          2   -1    0    0  502    0  0.00000000000E+00  0.00000000000E+00  0.12354582857E+03  0.12354582857E+03  0.00000000000E+00 0. -1.
          1   -1    0    0  501    0 -0.00000000000E+00 -0.00000000000E+00 -0.24232205983E+03  0.24232205983E+03  0.00000000000E+00 0. -1.
          2    1    1    2  501    0 -0.19779697010E+02  0.39428182926E+01  0.12229876653E+03  0.12395067779E+03  0.00000000000E+00 0. -1.
          1    1    1    2  502    0  0.19779697010E+02 -0.39428182926E+01 -0.24107499779E+03  0.24191721061E+03  0.00000000000E+00 0. -1.
</event>
<event>
 4    1  0.3555026E+003  0.2278895E+02  0.7546771E-02  0.1495165E+00
          2   -1    0    0  502    0  0.00000000000E+00  0.00000000000E+00  0.81514343175E+03  0.81514343175E+03  0.00000000000E+00 0.  1.
          1   -1    0    0  501    0 -0.00000000000E+00 -0.00000000000E+00 -0.38381051321E+01  0.38381051321E+01  0.00000000000E+00 0.  1.
          2    1    1    2  501    0 -0.11434840749E+02 -0.19712447336E+02  0.77961526978E+03  0.77994827075E+03  0.00000000000E+00 0.  1.
          1    1    1    2  502    0  0.11434840749E+02  0.19712447336E+02  0.31690056834E+02  0.39033266134E+02  0.00000000000E+00 0.  1.
</event>
<event>
 4    1  0.3555026E+003  0.4245322E+02  0.7546771E-02  0.1334680E+00
          2   -1    0    0  502    0  0.00000000000E+00  0.00000000000E+00  0.45307479455E+03  0.45307479455E+03  0.00000000000E+00 0.  1.
          1   -1    0    0  501    0 -0.00000000000E+00 -0.00000000000E+00 -0.39788844321E+01  0.39788844321E+01  0.00000000000E+00 0.  1.
          2    1    1    2  501    0  0.13313533384E+01 -0.42432316439E+02  0.22090435529E+03  0.22494667849E+03  0.00000000000E+00 0.  1.
          1    1    1    2  502    0 -0.13313533384E+01  0.42432316439E+02  0.22819155483E+03  0.23210700049E+03  0.00000000000E+00 0.  1.
</event>
<event>
 4    1  0.3555026E+003  0.2452496E+02  0.7546771E-02  0.1474188E+00
          2   -1    0    0  502    0  0.00000000000E+00  0.00000000000E+00  0.25197377971E+03  0.25197377971E+03  0.00000000000E+00 0. -1.
          1   -1    0    0  501    0 -0.00000000000E+00 -0.00000000000E+00 -0.46808499519E+03  0.46808499519E+03  0.00000000000E+00 0.  1.
          2    1    1    2  501    0 -0.22143548027E+02 -0.10542155938E+02  0.25105460234E+03  0.25224965238E+03  0.00000000000E+00 0. -1.
          1    1    1    2  502    0  0.22143548027E+02  0.10542155938E+02 -0.46716581782E+03  0.46780912252E+03  0.00000000000E+00 0.  1.
</event>
<event>
 4    1  0.3555026E+003  0.2604379E+02  0.7546771E-02  0.1457457E+00
          2   -1    0    0  502    0  0.00000000000E+00  0.00000000000E+00  0.22829743629E+02  0.22829743629E+02  0.00000000000E+00 0. -1.
          1   -1    0    0  501    0 -0.00000000000E+00 -0.00000000000E+00 -0.34616178587E+02  0.34616178587E+02  0.00000000000E+00 0. -1.
          2    1    1    2  501    0 -0.45343822816E+01  0.25646016039E+02  0.49198173626E+01  0.26504402733E+02  0.00000000000E+00 0. -1.
          1    1    1    2  502    0  0.45343822816E+01 -0.25646016039E+02 -0.16706252321E+02  0.30941519483E+02  0.00000000000E+00 0. -1.
</event>
<event>
 4    1  0.3555026E+003  0.2040276E+02  0.7546771E-02  0.1527965E+00
          2   -1    0    0  502    0  0.00000000000E+00  0.00000000000E+00  0.12150978394E+03  0.12150978394E+03  0.00000000000E+00 0. -1.
          1   -1    0    0  501    0 -0.00000000000E+00 -0.00000000000E+00 -0.70982514766E+03  0.70982514766E+03  0.00000000000E+00 0. -1.
          2    1    1    2  501    0 -0.17422030647E+02 -0.10618168853E+02  0.12050550060E+03  0.12222049065E+03  0.00000000000E+00 0. -1.
          1    1    1    2  502    0  0.17422030647E+02  0.10618168853E+02 -0.70882086432E+03  0.70911444094E+03  0.00000000000E+00 0. -1.
</event>
<event>
 4    1  0.3555026E+003  0.2304550E+02  0.7546771E-02  0.1491928E+00
          2   -1    0    0  502    0  0.00000000000E+00  0.00000000000E+00  0.26624663157E+02  0.26624663157E+02  0.00000000000E+00 0. -1.
          1   -1    0    0  501    0 -0.00000000000E+00 -0.00000000000E+00 -0.21963684498E+02  0.21963684498E+02  0.00000000000E+00 0.  1.
          2    1    1    2  501    0  0.18716849892E+02  0.13445243037E+02  0.96911440210E+01  0.25000266051E+02  0.00000000000E+00 0. -1.
          1    1    1    2  502    0 -0.18716849892E+02 -0.13445243037E+02 -0.50301653612E+01  0.23588081604E+02  0.00000000000E+00 0.  1.
</event>
<event>
 4    1  0.3555026E+003  0.2188480E+02  0.7546771E-02  0.1506997E+00
          2   -1    0    0  502    0  0.00000000000E+00  0.00000000000E+00  0.44750715883E+02  0.44750715883E+02  0.00000000000E+00 0.  1.
          1   -1    0    0  501    0 -0.00000000000E+00 -0.00000000000E+00 -0.13182432775E+03  0.13182432775E+03  0.00000000000E+00 0. -1.
          2    1    1    2  501    0 -0.13095682663E+02  0.17534183143E+02  0.41090936185E+02  0.46555445647E+02  0.00000000000E+00 0.  1.
          1    1    1    2  502    0  0.13095682663E+02 -0.17534183143E+02 -0.12816454806E+03  0.13001959799E+03  0.00000000000E+00 0. -1.
</event>
<event>
 4    1  0.3555026E+003  0.3218940E+02  0.7546771E-02  0.1401478E+00
          2   -1    0    0  502    0  0.00000000000E+00  0.00000000000E+00  0.22437407280E+03  0.22437407280E+03  0.00000000000E+00 0.  1.
          1   -1    0    0  501    0 -0.00000000000E+00 -0.00000000000E+00 -0.87114287264E+01  0.87114287264E+01  0.00000000000E+00 0.  1.
          2    1    1    2  501    0  0.17953001479E+02  0.26717921994E+02  0.18771988785E+03  0.19045974355E+03  0.00000000000E+00 0.  1.
          1    1    1    2  502    0 -0.17953001479E+02 -0.26717921994E+02  0.27942756219E+02  0.42625757974E+02  0.00000000000E+00 0.  1.
</event>
<event>
 4    1  0.3555026E+003  0.2629775E+02  0.7546771E-02  0.1454793E+00
          2   -1    0    0  502    0  0.00000000000E+00  0.00000000000E+00  0.88315641514E+03  0.88315641514E+03  0.00000000000E+00 0. -1.
          1   -1    0    0  501    0 -0.00000000000E+00 -0.00000000000E+00 -0.11198429413E+02  0.11198429413E+02  0.00000000000E+00 0.  1.
          2    1    1    2  501    0 -0.26192962818E+02 -0.23452461331E+01  0.86723830229E+03  0.86763693123E+03  0.00000000000E+00 0. -1.
          1    1    1    2  502    0  0.26192962818E+02  0.23452461331E+01  0.47196834407E+01  0.26717913324E+02  0.00000000000E+00 0.  1.
</event>
<event>
 4    1  0.3555026E+003  0.2969583E+02  0.7546771E-02  0.1422258E+00
          2   -1    0    0  502    0  0.00000000000E+00  0.00000000000E+00  0.44286107460E+03  0.44286107460E+03  0.00000000000E+00 0.  1.
          1   -1    0    0  501    0 -0.00000000000E+00 -0.00000000000E+00 -0.23042026308E+03  0.23042026308E+03  0.00000000000E+00 0.  1.
          2    1    1    2  501    0  0.29167738630E+02 -0.55754344119E+01  0.44140333239E+03  0.44240111244E+03  0.00000000000E+00 0.  1.
          1    1    1    2  502    0 -0.29167738630E+02  0.55754344119E+01 -0.22896252087E+03  0.23088022524E+03  0.00000000000E+00 0.  1.
</event>
<event>
 4    1  0.3555026E+003  0.2428741E+02  0.7546771E-02  0.1476935E+00
          2   -1    0    0  502    0  0.00000000000E+00  0.00000000000E+00  0.17293135834E+04  0.17293135834E+04  0.00000000000E+00 0. -1.
          1   -1    0    0  501    0 -0.00000000000E+00 -0.00000000000E+00 -0.36974546841E+00  0.36974546841E+00  0.00000000000E+00 0. -1.
          2    1    1    2  501    0 -0.23967284837E+02  0.39303239700E+01  0.11051697932E+04  0.11054366332E+04  0.00000000000E+00 0. -1.
          1    1    1    2  502    0  0.23967284837E+02 -0.39303239700E+01  0.62377404475E+03  0.62424669570E+03  0.00000000000E+00 0. -1.
</event>
<event>
 4    1  0.3555026E+003  0.2547548E+02  0.7546771E-02  0.1463554E+00
          2   -1    0    0  502    0  0.00000000000E+00  0.00000000000E+00  0.31179424107E+03  0.31179424107E+03  0.00000000000E+00 0. -1.
          1   -1    0    0  501    0 -0.00000000000E+00 -0.00000000000E+00 -0.93985298641E+01  0.93985298641E+01  0.00000000000E+00 0. -1.
          2    1    1    2  501    0  0.24150394175E+02 -0.81091505544E+01  0.29289894959E+03  0.29400475257E+03  0.00000000000E+00 0. -1.
          1    1    1    2  502    0 -0.24150394175E+02  0.81091505544E+01  0.94967616165E+01  0.27188018367E+02  0.00000000000E+00 0. -1.
</event>
<event>
 4    1  0.3555026E+003  0.2170041E+02  0.7546771E-02  0.1509495E+00
          2   -1    0    0  502    0  0.00000000000E+00  0.00000000000E+00  0.13298058643E+03  0.13298058643E+03  0.00000000000E+00 0.  1.
          1   -1    0    0  501    0 -0.00000000000E+00 -0.00000000000E+00 -0.44233950722E+01  0.44233950722E+01  0.00000000000E+00 0.  1.
          2    1    1    2  501    0  0.27532574818E+01  0.21525033282E+02  0.33596854308E+02  0.39995701068E+02  0.00000000000E+00 0.  1.
          1    1    1    2  502    0 -0.27532574818E+01 -0.21525033282E+02  0.94960337049E+02  0.97408280434E+02  0.00000000000E+00 0.  1.
</event>
<event>
 4    1  0.3555026E+003  0.2205270E+02  0.7546771E-02  0.1504749E+00
          2   -1    0    0  502    0  0.00000000000E+00  0.00000000000E+00  0.82473878773E+03  0.82473878773E+03  0.00000000000E+00 0. -1.
          1   -1    0    0  501    0 -0.00000000000E+00 -0.00000000000E+00 -0.87491657849E+00  0.87491657849E+00  0.00000000000E+00 0. -1.
          2    1    1    2  501    0 -0.13629701182E+02 -0.17336460413E+02  0.64764070540E+03  0.64801605297E+03  0.00000000000E+00 0. -1.
          1    1    1    2  502    0  0.13629701182E+02  0.17336460413E+02  0.17622316574E+03  0.17759765133E+03  0.00000000000E+00 0. -1.
</event>
<event>
 4    1  0.3555026E+003  0.2555123E+02  0.7546771E-02  0.1462730E+00
          2   -1    0    0  502    0  0.00000000000E+00  0.00000000000E+00  0.27818608897E+03  0.27818608897E+03  0.00000000000E+00 0.  1.
          1   -1    0    0  501    0 -0.00000000000E+00 -0.00000000000E+00 -0.23468779789E+01  0.23468779789E+01  0.00000000000E+00 0.  1.
          2    1    1    2  501    0 -0.25307553473E+02  0.35203574859E+01  0.13825019715E+03  0.14059154381E+03  0.00000000000E+00 0.  1.
          1    1    1    2  502    0  0.25307553473E+02 -0.35203574859E+01  0.13758901385E+03  0.13994142314E+03  0.00000000000E+00 0.  1.
</event>
<event>
 4    1  0.3555026E+003  0.2980867E+02  0.7546771E-02  0.1421267E+00
          2   -1    0    0  502    0  0.00000000000E+00  0.00000000000E+00  0.64098544282E+03  0.64098544282E+03  0.00000000000E+00 0. -1.
          1   -1    0    0  501    0 -0.00000000000E+00 -0.00000000000E+00 -0.69886557083E+01  0.69886557083E+01  0.00000000000E+00 0. -1.
          2    1    1    2  501    0  0.24812390606E+02 -0.16519741866E+02  0.60707898902E+03  0.60781037792E+03  0.00000000000E+00 0. -1.
          1    1    1    2  502    0 -0.24812390606E+02  0.16519741866E+02  0.26917798092E+02  0.40163720607E+02  0.00000000000E+00 0. -1.
</event>
<event>
 4    1  0.3555026E+003  0.3630194E+02  0.7546771E-02  0.1371634E+00
          2   -1    0    0  502    0  0.00000000000E+00  0.00000000000E+00  0.13468288939E+04  0.13468288939E+04  0.00000000000E+00 0. -1.
          1   -1    0    0  501    0 -0.00000000000E+00 -0.00000000000E+00 -0.14662903172E+02  0.14662903172E+02  0.00000000000E+00 0.  1.
          2    1    1    2  501    0  0.24668339039E+02  0.26632760530E+02  0.13237233666E+04  0.13242210473E+04  0.00000000000E+00 0. -1.
          1    1    1    2  502    0 -0.24668339039E+02 -0.26632760530E+02  0.84426241191E+01  0.37270749743E+02  0.00000000000E+00 0.  1.
</event>
<event>
 4    1  0.3555026E+003  0.2347368E+02  0.7546771E-02  0.1486634E+00
          2   -1    0    0  502    0  0.00000000000E+00  0.00000000000E+00  0.31888582523E+03  0.31888582523E+03  0.00000000000E+00 0.  1.
          1   -1    0    0  501    0 -0.00000000000E+00 -0.00000000000E+00 -0.46792619384E+03  0.46792619384E+03  0.00000000000E+00 0. -1.
          2    1    1    2  501    0  0.61877339769E+01  0.22643442416E+02  0.31815877874E+03  0.31902354463E+03  0.00000000000E+00 0.  1.
          1    1    1    2  502    0 -0.61877339769E+01 -0.22643442416E+02 -0.46719914735E+03  0.46778847444E+03  0.00000000000E+00 0. -1.
</event>
<event>
 4    1  0.3555026E+003  0.2690960E+02  0.7546771E-02  0.1448518E+00
          2   -1    0    0  502    0  0.00000000000E+00  0.00000000000E+00  0.12359544026E+01  0.12359544026E+01  0.00000000000E+00 0.  1.
          1   -1    0    0  501    0 -0.00000000000E+00 -0.00000000000E+00 -0.58588459960E+03  0.58588459960E+03  0.00000000000E+00 0.  1.
          2    1    1    2  501    0  0.26441171735E+02 -0.49990414720E+01 -0.29260709368E+03  0.29384185755E+03  0.00000000000E+00 0.  1.
          1    1    1    2  502    0 -0.26441171735E+02  0.49990414720E+01 -0.29204155151E+03  0.29327869644E+03  0.00000000000E+00 0.  1.
</event>
<event>
 4    1  0.3555026E+003  0.2825470E+02  0.7546771E-02  0.1435396E+00
          2   -1    0    0  502    0  0.00000000000E+00  0.00000000000E+00  0.16168861402E+04  0.16168861402E+04  0.00000000000E+00 0. -1.
          1   -1    0    0  501    0 -0.00000000000E+00 -0.00000000000E+00 -0.76531448592E+00  0.76531448592E+00  0.00000000000E+00 0.  1.
          2    1    1    2  501    0  0.21522780949E+02  0.18305676744E+02  0.12898708903E+04  0.12901803136E+04  0.00000000000E+00 0. -1.
          1    1    1    2  502    0 -0.21522780949E+02 -0.18305676744E+02  0.32624993540E+03  0.32747114109E+03  0.00000000000E+00 0.  1.
</event>
<event>
 4    1  0.3555026E+003  0.2736408E+02  0.7546771E-02  0.1443985E+00
          2   -1    0    0  502    0  0.00000000000E+00  0.00000000000E+00  0.11630543420E+04  0.11630543420E+04  0.00000000000E+00 0.  1.
          1   -1    0    0  501    0 -0.00000000000E+00 -0.00000000000E+00 -0.68146280997E+00  0.68146280997E+00  0.00000000000E+00 0.  1.
          2    1    1    2  501    0  0.25237430656E+02  0.10576611449E+02  0.71794965051E+03  0.71847094115E+03  0.00000000000E+00 0.  1.
          1    1    1    2  502    0 -0.25237430656E+02 -0.10576611449E+02  0.44442322870E+03  0.44526486368E+03  0.00000000000E+00 0.  1.
</event>
<event>
 4    1  0.3555026E+003  0.2783124E+02  0.7546771E-02  0.1439432E+00
          2   -1    0    0  502    0  0.00000000000E+00  0.00000000000E+00  0.84038071164E+03  0.84038071164E+03  0.00000000000E+00 0. -1.
          1   -1    0    0  501    0 -0.00000000000E+00 -0.00000000000E+00 -0.95719566979E+00  0.95719566979E+00  0.00000000000E+00 0.  1.
          2    1    1    2  501    0  0.27656926361E+02 -0.31100490008E+01  0.50072098598E+03  0.50149385219E+03  0.00000000000E+00 0. -1.
          1    1    1    2  502    0 -0.27656926361E+02  0.31100490008E+01  0.33870252999E+03  0.33984405512E+03  0.00000000000E+00 0.  1.
</event>
<event>
 4    1  0.3555026E+003  0.2028942E+02  0.7546771E-02  0.1529656E+00
          2   -1    0    0  502    0  0.00000000000E+00  0.00000000000E+00  0.19516889706E+00  0.19516889706E+00  0.00000000000E+00 0.  1.
          1   -1    0    0  501    0 -0.00000000000E+00 -0.00000000000E+00 -0.22204021109E+04  0.22204021109E+04  0.00000000000E+00 0.  1.
          2    1    1    2  501    0 -0.10119610599E+02  0.17585623318E+02 -0.86168942838E+03  0.86192826363E+03  0.00000000000E+00 0.  1.
          1    1    1    2  502    0  0.10119610599E+02 -0.17585623318E+02 -0.13585175136E+04  0.13586690162E+04  0.00000000000E+00 0.  1.
</event>
<event>
 4    1  0.3555026E+003  0.3578716E+02  0.7546771E-02  0.1375112E+00
          2   -1    0    0  502    0  0.00000000000E+00  0.00000000000E+00  0.44808261203E+01  0.44808261203E+01  0.00000000000E+00 0.  1.
          1   -1    0    0  501    0 -0.00000000000E+00 -0.00000000000E+00 -0.31176668817E+03  0.31176668817E+03  0.00000000000E+00 0.  1.
          2    1    1    2  501    0  0.92941542015E+01 -0.34559221190E+02 -0.10802852365E+03  0.11380194635E+03  0.00000000000E+00 0.  1.
          1    1    1    2  502    0 -0.92941542015E+01  0.34559221190E+02 -0.19925733839E+03  0.20244556793E+03  0.00000000000E+00 0.  1.
</event>
<event>
 4    1  0.3555026E+003  0.4580961E+02  0.7546771E-02  0.1317440E+00
          2   -1    0    0  502    0  0.00000000000E+00  0.00000000000E+00  0.11326275340E+04  0.11326275340E+04  0.00000000000E+00 0. -1.
          1   -1    0    0  501    0 -0.00000000000E+00 -0.00000000000E+00 -0.22483435148E+01  0.22483435148E+01  0.00000000000E+00 0. -1.
          2    1    1    2  501    0 -0.44785049023E+02  0.96343132954E+01  0.80319665249E+03  0.80450194728E+03  0.00000000000E+00 0. -1.
          1    1    1    2  502    0  0.44785049023E+02 -0.96343132954E+01  0.32718253799E+03  0.33037393023E+03  0.00000000000E+00 0. -1.
</event>
<event>
 4    1  0.3964483E+003  0.3064441E+02  0.7546771E-02  0.1414078E+00
          2   -1    0    0  502    0  0.00000000000E+00  0.00000000000E+00  0.72533697195E+03  0.72533697195E+03  0.00000000000E+00 0. -1.
          1   -1    0    0  501    0 -0.00000000000E+00 -0.00000000000E+00 -0.13112917910E+04  0.13112917910E+04  0.00000000000E+00 0.  1.
          2    1    1    2  501    0  0.22046075160E+02  0.21284982025E+02  0.72483414042E+03  0.72548164071E+03  0.00000000000E+00 0. -1.
          1    1    1    2  502    0 -0.22046075160E+02 -0.21284982025E+02 -0.13107889595E+04  0.13111471223E+04  0.00000000000E+00 0.  1.
</event>
<event>
 4    1  0.3555026E+003  0.2606015E+02  0.7546771E-02  0.1457285E+00
          2   -1    0    0  502    0  0.00000000000E+00  0.00000000000E+00  0.31820435754E+03  0.31820435754E+03  0.00000000000E+00 0.  1.
          1   -1    0    0  501    0 -0.00000000000E+00 -0.00000000000E+00 -0.18961650247E+03  0.18961650247E+03  0.00000000000E+00 0. -1.
          2    1    1    2  501    0  0.13451893311E+02 -0.22319897510E+02  0.31677134737E+03  0.31784149788E+03  0.00000000000E+00 0.  1.
          1    1    1    2  502    0 -0.13451893311E+02  0.22319897510E+02 -0.18818349231E+03  0.18997936213E+03  0.00000000000E+00 0. -1.
</event>
<event>
 4    1  0.3555026E+003  0.2518327E+02  0.7546771E-02  0.1466764E+00
          2   -1    0    0  502    0  0.00000000000E+00  0.00000000000E+00  0.60213709621E+03  0.60213709621E+03  0.00000000000E+00 0. -1.
          1   -1    0    0  501    0 -0.00000000000E+00 -0.00000000000E+00 -0.24374606675E+01  0.24374606675E+01  0.00000000000E+00 0. -1.
          2    1    1    2  501    0  0.10557899165E+02 -0.22863242884E+02  0.52764951621E+03  0.52825013873E+03  0.00000000000E+00 0. -1.
          1    1    1    2  502    0 -0.10557899165E+02  0.22863242884E+02  0.72050119330E+02  0.76324418146E+02  0.00000000000E+00 0. -1.
</event>
<event>
 4    1  0.3555026E+003  0.2271963E+02  0.7546771E-02  0.1496049E+00
          2   -1    0    0  502    0  0.00000000000E+00  0.00000000000E+00  0.41380439292E+03  0.41380439292E+03  0.00000000000E+00 0.  1.
          1   -1    0    0  501    0 -0.00000000000E+00 -0.00000000000E+00 -0.12687503190E+01  0.12687503190E+01  0.00000000000E+00 0.  1.
          2    1    1    2  501    0 -0.15245786968E+02 -0.16844812231E+02  0.23318667955E+03  0.23429086461E+03  0.00000000000E+00 0.  1.
          1    1    1    2  502    0  0.15245786968E+02  0.16844812231E+02  0.17934896304E+03  0.18078227862E+03  0.00000000000E+00 0.  1.
</event>
<event>
 4    1  0.3555026E+003  0.2580902E+02  0.7546771E-02  0.1459953E+00
          2   -1    0    0  502    0  0.00000000000E+00  0.00000000000E+00  0.15946365377E+04  0.15946365377E+04  0.00000000000E+00 0. -1.
          1   -1    0    0  501    0 -0.00000000000E+00 -0.00000000000E+00 -0.72907080637E+02  0.72907080637E+02  0.00000000000E+00 0. -1.
          2    1    1    2  501    0  0.76412912032E+01  0.24651895026E+02  0.15922445879E+04  0.15924537459E+04  0.00000000000E+00 0. -1.
          1    1    1    2  502    0 -0.76412912032E+01 -0.24651895026E+02 -0.70515130837E+02  0.75089872397E+02  0.00000000000E+00 0. -1.
</event>
<event>
 4    1  0.3555026E+003  0.2251296E+02  0.7546771E-02  0.1498706E+00
          2   -1    0    0  502    0  0.00000000000E+00  0.00000000000E+00  0.22187214792E+01  0.22187214792E+01  0.00000000000E+00 0.  1.
          1   -1    0    0  501    0 -0.00000000000E+00 -0.00000000000E+00 -0.36349959489E+03  0.36349959489E+03  0.00000000000E+00 0.  1.
          2    1    1    2  501    0 -0.12559390519E+02 -0.18684085850E+02 -0.69176155818E+02  0.72747329078E+02  0.00000000000E+00 0.  1.
          1    1    1    2  502    0  0.12559390519E+02  0.18684085850E+02 -0.29210471759E+03  0.29297098729E+03  0.00000000000E+00 0.  1.
</event>
<event>
 4    1  0.3555026E+003  0.3103697E+02  0.7546771E-02  0.1410794E+00
          2   -1    0    0  502    0  0.00000000000E+00  0.00000000000E+00  0.18552111471E+04  0.18552111471E+04  0.00000000000E+00 0.  1.
          1   -1    0    0  501    0 -0.00000000000E+00 -0.00000000000E+00 -0.29073710825E+02  0.29073710825E+02  0.00000000000E+00 0.  1.
          2    1    1    2  501    0 -0.30143542298E+02  0.73932549652E+01  0.18467602369E+04  0.18470210248E+04  0.00000000000E+00 0.  1.
          1    1    1    2  502    0  0.30143542298E+02 -0.73932549652E+01 -0.20622800576E+02  0.37263833201E+02  0.00000000000E+00 0.  1.
</event>
<event>
 4    1  0.3555026E+003  0.2197228E+02  0.7546771E-02  0.1505823E+00
          2   -1    0    0  502    0  0.00000000000E+00  0.00000000000E+00  0.33561731694E+03  0.33561731694E+03  0.00000000000E+00 0. -1.
          1   -1    0    0  501    0 -0.00000000000E+00 -0.00000000000E+00 -0.44041199262E+01  0.44041199262E+01  0.00000000000E+00 0. -1.
          2    1    1    2  501    0  0.61725098980E+01 -0.21087465821E+02  0.30511663220E+03  0.30590675105E+03  0.00000000000E+00 0. -1.
          1    1    1    2  502    0 -0.61725098980E+01  0.21087465821E+02  0.26096564811E+02  0.34114685813E+02  0.00000000000E+00 0. -1.
</event>
<event>
 4    1  0.3555026E+003  0.2394044E+02  0.7546771E-02  0.1481015E+00
          2   -1    0    0  502    0  0.00000000000E+00  0.00000000000E+00  0.22333983696E+03  0.22333983696E+03  0.00000000000E+00 0. -1.
          1   -1    0    0  501    0 -0.00000000000E+00 -0.00000000000E+00 -0.16836579348E+03  0.16836579348E+03  0.00000000000E+00 0. -1.
          2    1    1    2  501    0 -0.20744932284E+02 -0.11949572788E+02  0.22184150402E+03  0.22312955298E+03  0.00000000000E+00 0. -1.
          1    1    1    2  502    0  0.20744932284E+02  0.11949572788E+02 -0.16686746054E+03  0.16857607746E+03  0.00000000000E+00 0. -1.
</event>
<event>
 4    1  0.3555026E+003  0.2910759E+02  0.7546771E-02  0.1427513E+00
          2   -1    0    0  502    0  0.00000000000E+00  0.00000000000E+00  0.64511230123E+03  0.64511230123E+03  0.00000000000E+00 0.  1.
          1   -1    0    0  501    0 -0.00000000000E+00 -0.00000000000E+00 -0.16302069570E+01  0.16302069570E+01  0.00000000000E+00 0.  1.
          2    1    1    2  501    0 -0.15735023582E+02 -0.24487975060E+02  0.46430784994E+03  0.46521933687E+03  0.00000000000E+00 0.  1.
          1    1    1    2  502    0  0.15735023582E+02  0.24487975060E+02  0.17917424434E+03  0.18152317131E+03  0.00000000000E+00 0.  1.
</event>
<event>
 4    1  0.3555026E+003  0.2222110E+02  0.7546771E-02  0.1502517E+00
          2   -1    0    0  502    0  0.00000000000E+00  0.00000000000E+00  0.44174593193E+03  0.44174593193E+03  0.00000000000E+00 0. -1.
          1   -1    0    0  501    0 -0.00000000000E+00 -0.00000000000E+00 -0.83817100665E+01  0.83817100665E+01  0.00000000000E+00 0. -1.
          2    1    1    2  501    0 -0.22177825672E+02  0.13861313038E+01  0.42620188921E+03  0.42678077239E+03  0.00000000000E+00 0. -1.
          1    1    1    2  502    0  0.22177825672E+02 -0.13861313038E+01  0.71623326518E+01  0.23346869610E+02  0.00000000000E+00 0. -1.
</event>
<event>
 4    1  0.3555026E+003  0.2223926E+02  0.7546771E-02  0.1502278E+00
          2   -1    0    0  502    0  0.00000000000E+00  0.00000000000E+00  0.13440141791E+02  0.13440141791E+02  0.00000000000E+00 0. -1.
          1   -1    0    0  501    0 -0.00000000000E+00 -0.00000000000E+00 -0.42321483212E+02  0.42321483212E+02  0.00000000000E+00 0. -1.
          2    1    1    2  501    0  0.36971314952E+01 -0.21929788250E+02 -0.24512083240E+02  0.33097229775E+02  0.00000000000E+00 0. -1.
          1    1    1    2  502    0 -0.36971314952E+01  0.21929788250E+02 -0.43692581819E+01  0.22664395228E+02  0.00000000000E+00 0. -1.
</event>
<event>
 4    1  0.3555026E+003  0.3386125E+02  0.7546771E-02  0.1388751E+00
          2   -1    0    0  502    0  0.00000000000E+00  0.00000000000E+00  0.34071264864E+03  0.34071264864E+03  0.00000000000E+00 0.  1.
          1   -1    0    0  501    0 -0.00000000000E+00 -0.00000000000E+00 -0.22192433606E+03  0.22192433606E+03  0.00000000000E+00 0.  1.
          2    1    1    2  501    0  0.31811312715E+02  0.11602790883E+02  0.33857154856E+03  0.34026060288E+03  0.00000000000E+00 0.  1.
          1    1    1    2  502    0 -0.31811312715E+02 -0.11602790883E+02 -0.21978323599E+03  0.22237638183E+03  0.00000000000E+00 0.  1.
</event>
<event>
 4    1  0.3555026E+003  0.2050963E+02  0.7546771E-02  0.1526383E+00
          2   -1    0    0  502    0  0.00000000000E+00  0.00000000000E+00  0.62142047894E+00  0.62142047894E+00  0.00000000000E+00 0.  1.
          1   -1    0    0  501    0 -0.00000000000E+00 -0.00000000000E+00 -0.71000172105E+03  0.71000172105E+03  0.00000000000E+00 0.  1.
          2    1    1    2  501    0  0.19955788958E+02 -0.47340708763E+01 -0.27798090026E+03  0.27873648102E+03  0.00000000000E+00 0.  1.
          1    1    1    2  502    0 -0.19955788958E+02  0.47340708763E+01 -0.43139940031E+03  0.43188666051E+03  0.00000000000E+00 0.  1.
</event>
<event>
 4    1  0.3555026E+003  0.2142040E+02  0.7546771E-02  0.1513347E+00
          2   -1    0    0  502    0  0.00000000000E+00  0.00000000000E+00  0.14668765121E+02  0.14668765121E+02  0.00000000000E+00 0. -1.
          1   -1    0    0  501    0 -0.00000000000E+00 -0.00000000000E+00 -0.35149926393E+02  0.35149926393E+02  0.00000000000E+00 0. -1.
          2    1    1    2  501    0  0.21419808997E+02  0.15893190688E+00 -0.19750167597E+01  0.21511256775E+02  0.00000000000E+00 0. -1.
          1    1    1    2  502    0 -0.21419808997E+02 -0.15893190688E+00 -0.18506144512E+02  0.28307434739E+02  0.00000000000E+00 0. -1.
</event>
<event>
 4    1  0.3555026E+003  0.2905886E+02  0.7546771E-02  0.1427955E+00
          2   -1    0    0  502    0  0.00000000000E+00  0.00000000000E+00  0.26483503511E+03  0.26483503511E+03  0.00000000000E+00 0. -1.
          1   -1    0    0  501    0 -0.00000000000E+00 -0.00000000000E+00 -0.82972657320E+01  0.82972657320E+01  0.00000000000E+00 0.  1.
          2    1    1    2  501    0 -0.20586270294E+02 -0.20509096805E+02  0.23542944991E+03  0.23721602699E+03  0.00000000000E+00 0. -1.
          1    1    1    2  502    0  0.20586270294E+02  0.20509096805E+02  0.21108319461E+02  0.35916273844E+02  0.00000000000E+00 0.  1.
</event>
<event>
 4    1  0.3555026E+003  0.5552313E+02  0.7546771E-02  0.1275852E+00
          2   -1    0    0  502    0  0.00000000000E+00  0.00000000000E+00  0.59841293508E+03  0.59841293508E+03  0.00000000000E+00 0.  1.
          1   -1    0    0  501    0 -0.00000000000E+00 -0.00000000000E+00 -0.60482367799E+03  0.60482367799E+03  0.00000000000E+00 0.  1.
          2    1    1    2  501    0  0.48222108206E+02  0.27521742824E+02  0.59584527849E+03  0.59842661534E+03  0.00000000000E+00 0.  1.
          1    1    1    2  502    0 -0.48222108206E+02 -0.27521742824E+02 -0.60225602140E+03  0.60480999774E+03  0.00000000000E+00 0.  1.
</event>
<event>
 4    1  0.3555026E+003  0.4147780E+02  0.7546771E-02  0.1340037E+00
          2   -1    0    0  502    0  0.00000000000E+00  0.00000000000E+00  0.20177599633E+04  0.20177599633E+04  0.00000000000E+00 0.  1.
          1   -1    0    0  501    0 -0.00000000000E+00 -0.00000000000E+00 -0.21241700649E+03  0.21241700649E+03  0.00000000000E+00 0. -1.
          2    1    1    2  501    0 -0.41398326313E+02 -0.25663950655E+01  0.20155197549E+04  0.20159464999E+04  0.00000000000E+00 0.  1.
          1    1    1    2  502    0  0.41398326313E+02  0.25663950655E+01 -0.21017679809E+03  0.21423046996E+03  0.00000000000E+00 0. -1.
</event>
<event>
 4    1  0.3555026E+003  0.3976825E+02  0.7546771E-02  0.1349849E+00
          2   -1    0    0  502    0  0.00000000000E+00  0.00000000000E+00  0.76855080981E+03  0.76855080981E+03  0.00000000000E+00 0. -1.
          1   -1    0    0  501    0 -0.00000000000E+00 -0.00000000000E+00 -0.50846454404E+01  0.50846454404E+01  0.00000000000E+00 0.  1.
          2    1    1    2  501    0  0.92410165554E+01 -0.38679680917E+02  0.68018341339E+03  0.68134498601E+03  0.00000000000E+00 0. -1.
          1    1    1    2  502    0 -0.92410165554E+01  0.38679680917E+02  0.83282750976E+02  0.92290469242E+02  0.00000000000E+00 0.  1.
</event>
<event>
 4    1  0.3555026E+003  0.4298391E+02  0.7546771E-02  0.1331835E+00
          2   -1    0    0  502    0  0.00000000000E+00  0.00000000000E+00  0.12744592644E+04  0.12744592644E+04  0.00000000000E+00 0. -1.
          1   -1    0    0  501    0 -0.00000000000E+00 -0.00000000000E+00 -0.47736451822E+01  0.47736451822E+01  0.00000000000E+00 0.  1.
          2    1    1    2  501    0  0.42789512504E+02 -0.40834357786E+01  0.11685705590E+04  0.11693608375E+04  0.00000000000E+00 0. -1.
          1    1    1    2  502    0 -0.42789512504E+02  0.40834357786E+01  0.10111506016E+03  0.10987207206E+03  0.00000000000E+00 0.  1.
</event>
<event>
 4    1  0.3555026E+003  0.2029584E+02  0.7546771E-02  0.1529560E+00
          2   -1    0    0  502    0  0.00000000000E+00  0.00000000000E+00  0.22997815320E+03  0.22997815320E+03  0.00000000000E+00 0. -1.
          1   -1    0    0  501    0 -0.00000000000E+00 -0.00000000000E+00 -0.11065437199E+02  0.11065437199E+02  0.00000000000E+00 0.  1.
          2    1    1    2  501    0  0.20040613221E+02 -0.32085700515E+01  0.21979357053E+03  0.22072864505E+03  0.00000000000E+00 0. -1.
          1    1    1    2  502    0 -0.20040613221E+02  0.32085700515E+01 -0.88085452236E+00  0.20314945354E+02  0.00000000000E+00 0.  1.
</event>
<event>
 4    1  0.3555026E+003  0.2297198E+02  0.7546771E-02  0.1492850E+00
          2   -1    0    0  502    0  0.00000000000E+00  0.00000000000E+00  0.14968299972E+03  0.14968299972E+03  0.00000000000E+00 0. -1.
          1   -1    0    0  501    0 -0.00000000000E+00 -0.00000000000E+00 -0.31364749945E+02  0.31364749945E+02  0.00000000000E+00 0.  1.
          2    1    1    2  501    0  0.20021923615E+02  0.11262082651E+02  0.14444375113E+03  0.14625904817E+03  0.00000000000E+00 0. -1.
          1    1    1    2  502    0 -0.20021923615E+02 -0.11262082651E+02 -0.26125501353E+02  0.34788701497E+02  0.00000000000E+00 0.  1.
</event>
<event>
 4    1  0.3555026E+003  0.2910611E+02  0.7546771E-02  0.1427527E+00
          2   -1    0    0  502    0  0.00000000000E+00  0.00000000000E+00  0.25030080470E+03  0.25030080470E+03  0.00000000000E+00 0. -1.
          1   -1    0    0  501    0 -0.00000000000E+00 -0.00000000000E+00 -0.21189367444E+02  0.21189367444E+02  0.00000000000E+00 0. -1.
          2    1    1    2  501    0  0.74676689420E+00  0.29096525628E+02  0.23898809709E+03  0.24075397404E+03  0.00000000000E+00 0. -1.
          1    1    1    2  502    0 -0.74676689420E+00 -0.29096525628E+02 -0.98766598352E+01  0.30736198105E+02  0.00000000000E+00 0. -1.
</event>
<event>
 4    1  0.3555026E+003  0.2307531E+02  0.7546771E-02  0.1491555E+00
          2   -1    0    0  502    0  0.00000000000E+00  0.00000000000E+00  0.12257737119E+03  0.12257737119E+03  0.00000000000E+00 0.  1.
          1   -1    0    0  501    0 -0.00000000000E+00 -0.00000000000E+00 -0.25703915366E+02  0.25703915366E+02  0.00000000000E+00 0. -1.
          2    1    1    2  501    0  0.20561275029E+02 -0.10473955113E+02  0.11602276739E+03  0.11829519145E+03  0.00000000000E+00 0.  1.
          1    1    1    2  502    0 -0.20561275029E+02  0.10473955113E+02 -0.19149311565E+02  0.29986095110E+02  0.00000000000E+00 0. -1.
</event>
<event>
 4    1  0.3555026E+003  0.2024798E+02  0.7546771E-02  0.1530278E+00
          2   -1    0    0  502    0  0.00000000000E+00  0.00000000000E+00  0.63696435863E+03  0.63696435863E+03  0.00000000000E+00 0. -1.
          1   -1    0    0  501    0 -0.00000000000E+00 -0.00000000000E+00 -0.35678425335E+03  0.35678425335E+03  0.00000000000E+00 0.  1.
          2    1    1    2  501    0 -0.15700093900E+01 -0.20187018112E+02  0.63651596951E+03  0.63683793862E+03  0.00000000000E+00 0. -1.
          1    1    1    2  502    0  0.15700093900E+01  0.20187018112E+02 -0.35633586422E+03  0.35691067336E+03  0.00000000000E+00 0.  1.
</event>
<event>
 4    1  0.3555026E+003  0.3221965E+02  0.7546771E-02  0.1401240E+00
          2   -1    0    0  502    0  0.00000000000E+00  0.00000000000E+00  0.55847400262E+01  0.55847400262E+01  0.00000000000E+00 0.  1.
          1   -1    0    0  501    0 -0.00000000000E+00 -0.00000000000E+00 -0.75347492930E+03  0.75347492930E+03  0.00000000000E+00 0.  1.
          2    1    1    2  501    0 -0.21343784131E+02 -0.24136051580E+02 -0.44540411471E+02  0.54972305399E+02  0.00000000000E+00 0.  1.
          1    1    1    2  502    0  0.21343784131E+02  0.24136051580E+02 -0.70334977780E+03  0.70408736393E+03  0.00000000000E+00 0.  1.
</event>
<event>
 4    1  0.3555026E+003  0.4409226E+02  0.7546771E-02  0.1326041E+00
          2   -1    0    0  502    0  0.00000000000E+00  0.00000000000E+00  0.31929297174E+01  0.31929297174E+01  0.00000000000E+00 0. -1.
          1   -1    0    0  501    0 -0.00000000000E+00 -0.00000000000E+00 -0.60936652899E+03  0.60936652899E+03  0.00000000000E+00 0. -1.
          2    1    1    2  501    0 -0.41852373292E+02 -0.13874598140E+02 -0.31170042567E+03  0.31480355937E+03  0.00000000000E+00 0. -1.
          1    1    1    2  502    0  0.41852373292E+02  0.13874598140E+02 -0.29447317360E+03  0.29775589934E+03  0.00000000000E+00 0. -1.
</event>
<event>
 4    1  0.3555026E+003  0.2606712E+02  0.7546771E-02  0.1457211E+00
          2   -1    0    0  502    0  0.00000000000E+00  0.00000000000E+00  0.73261931441E+03  0.73261931441E+03  0.00000000000E+00 0.  1.
          1   -1    0    0  501    0 -0.00000000000E+00 -0.00000000000E+00 -0.30409279484E+02  0.30409279484E+02  0.00000000000E+00 0. -1.
          2    1    1    2  501    0  0.23490109989E+02 -0.11300863497E+02  0.72675614431E+03  0.72722347878E+03  0.00000000000E+00 0.  1.
          1    1    1    2  502    0 -0.23490109989E+02  0.11300863497E+02 -0.24546109384E+02  0.35805115123E+02  0.00000000000E+00 0. -1.
</event>
<event>
 4    1  0.3555026E+003  0.2191794E+02  0.7546771E-02  0.1506552E+00
          2   -1    0    0  502    0  0.00000000000E+00  0.00000000000E+00  0.30225593969E+03  0.30225593969E+03  0.00000000000E+00 0. -1.
          1   -1    0    0  501    0 -0.00000000000E+00 -0.00000000000E+00 -0.18297576622E+02  0.18297576622E+02  0.00000000000E+00 0. -1.
          2    1    1    2  501    0  0.19801274694E+02 -0.93970976142E+01  0.29513683603E+03  0.29594956987E+03  0.00000000000E+00 0. -1.
          1    1    1    2  502    0 -0.19801274694E+02  0.93970976142E+01 -0.11178472959E+02  0.24603946447E+02  0.00000000000E+00 0. -1.
</event>
<event>
 4    1  0.3555026E+003  0.2230191E+02  0.7546771E-02  0.1501455E+00
          2   -1    0    0  502    0  0.00000000000E+00  0.00000000000E+00  0.26962676400E+03  0.26962676400E+03  0.00000000000E+00 0. -1.
          1   -1    0    0  501    0 -0.00000000000E+00 -0.00000000000E+00 -0.18480606025E+03  0.18480606025E+03  0.00000000000E+00 0. -1.
          2    1    1    2  501    0  0.22018863941E+02  0.35418851988E+01  0.26848991559E+03  0.26941456920E+03  0.00000000000E+00 0. -1.
          1    1    1    2  502    0 -0.22018863941E+02 -0.35418851988E+01 -0.18366921185E+03  0.18501825505E+03  0.00000000000E+00 0. -1.
</event>
<event>
 4    1  0.3555026E+003  0.2429681E+02  0.7546771E-02  0.1476826E+00
          2   -1    0    0  502    0  0.00000000000E+00  0.00000000000E+00  0.67831666871E+03  0.67831666871E+03  0.00000000000E+00 0.  1.
          1   -1    0    0  501    0 -0.00000000000E+00 -0.00000000000E+00 -0.21892314741E+03  0.21892314741E+03  0.00000000000E+00 0. -1.
          2    1    1    2  501    0  0.37979744748E+01 -0.23998130661E+02  0.67742407241E+03  0.67785965271E+03  0.00000000000E+00 0.  1.
          1    1    1    2  502    0 -0.37979744748E+01  0.23998130661E+02 -0.21803055111E+03  0.21938016342E+03  0.00000000000E+00 0. -1.
</event>
<event>
 4    1  0.3555026E+003  0.2255739E+02  0.7546771E-02  0.1498132E+00
          2   -1    0    0  502    0  0.00000000000E+00  0.00000000000E+00  0.37974465607E+01  0.37974465607E+01  0.00000000000E+00 0.  1.
          1   -1    0    0  501    0 -0.00000000000E+00 -0.00000000000E+00 -0.68355722423E+03  0.68355722423E+03  0.00000000000E+00 0. -1.
          2    1    1    2  501    0  0.16885172544E+02 -0.14957501253E+02 -0.31722775189E+02  0.38925189290E+02  0.00000000000E+00 0.  1.
          1    1    1    2  502    0 -0.16885172544E+02  0.14957501253E+02 -0.64803700248E+03  0.64842948150E+03  0.00000000000E+00 0. -1.
</event>
<event>
 4    1  0.4084205E+003  0.2749617E+02  0.7546771E-02  0.1442687E+00
          2   -1    0    0  502    0  0.00000000000E+00  0.00000000000E+00  0.52918040763E+03  0.52918040763E+03  0.00000000000E+00 0.  1.
          1   -1    0    0  501    0 -0.00000000000E+00 -0.00000000000E+00 -0.83604703668E+03  0.83604703668E+03  0.00000000000E+00 0. -1.
          2    1    1    2  501    0  0.18939232576E+02 -0.19933514948E+02  0.52859690781E+03  0.52931156279E+03  0.00000000000E+00 0.  1.
          1    1    1    2  502    0 -0.18939232576E+02  0.19933514948E+02 -0.83546353686E+03  0.83591588152E+03  0.00000000000E+00 0. -1.
</event>
<event>
 4    1  0.3555026E+003  0.2495037E+02  0.7546771E-02  0.1469359E+00
          2   -1    0    0  502    0  0.00000000000E+00  0.00000000000E+00  0.99394625547E+01  0.99394625547E+01  0.00000000000E+00 0. -1.
          1   -1    0    0  501    0 -0.00000000000E+00 -0.00000000000E+00 -0.95956209334E+03  0.95956209334E+03  0.00000000000E+00 0.  1.
          2    1    1    2  501    0  0.16900982691E+02  0.18354224350E+02 -0.61474639213E+01  0.25696538290E+02  0.00000000000E+00 0. -1.
          1    1    1    2  502    0 -0.16900982691E+02 -0.18354224350E+02 -0.94347516686E+03  0.94380501760E+03  0.00000000000E+00 0.  1.
</event>
<event>
 4    1  0.3555026E+003  0.3183446E+02  0.7546771E-02  0.1404298E+00
          2   -1    0    0  502    0  0.00000000000E+00  0.00000000000E+00  0.23343752956E+04  0.23343752956E+04  0.00000000000E+00 0. -1.
          1   -1    0    0  501    0 -0.00000000000E+00 -0.00000000000E+00 -0.14360112986E+02  0.14360112986E+02  0.00000000000E+00 0. -1.
          2    1    1    2  501    0  0.48570461707E+01 -0.31461753746E+02  0.23164873367E+04  0.23167060698E+04  0.00000000000E+00 0. -1.
          1    1    1    2  502    0 -0.48570461707E+01  0.31461753746E+02  0.35278459371E+01  0.32029338789E+02  0.00000000000E+00 0. -1.
</event>
<event>
 4    1  0.3555026E+003  0.3018454E+02  0.7546771E-02  0.1417999E+00
          2   -1    0    0  502    0  0.00000000000E+00  0.00000000000E+00  0.54589928040E+03  0.54589928040E+03  0.00000000000E+00 0. -1.
          1   -1    0    0  501    0 -0.00000000000E+00 -0.00000000000E+00 -0.21335508557E+01  0.21335508557E+01  0.00000000000E+00 0. -1.
          2    1    1    2  501    0  0.29385642879E+02  0.68985758476E+01  0.39974481439E+03  0.40088280456E+03  0.00000000000E+00 0. -1.
          1    1    1    2  502    0 -0.29385642879E+02 -0.68985758476E+01  0.14402091515E+03  0.14715002670E+03  0.00000000000E+00 0. -1.
</event>
<event>
 4    1  0.3555026E+003  0.2208371E+02  0.7546771E-02  0.1504336E+00
          2   -1    0    0  502    0  0.00000000000E+00  0.00000000000E+00  0.82015963625E+02  0.82015963625E+02  0.00000000000E+00 0. -1.
          1   -1    0    0  501    0 -0.00000000000E+00 -0.00000000000E+00 -0.18730994140E+02  0.18730994140E+02  0.00000000000E+00 0. -1.
          2    1    1    2  501    0 -0.17259286602E+02  0.13777051838E+02  0.73259122549E+02  0.76515287152E+02  0.00000000000E+00 0. -1.
          1    1    1    2  502    0  0.17259286602E+02 -0.13777051838E+02 -0.99741530642E+01  0.24231670613E+02  0.00000000000E+00 0. -1.
</event>
<event>
 4    1  0.3555026E+003  0.2279404E+02  0.7546771E-02  0.1495101E+00
          2   -1    0    0  502    0  0.00000000000E+00  0.00000000000E+00  0.31871038741E+02  0.31871038741E+02  0.00000000000E+00 0. -1.
          1   -1    0    0  501    0 -0.00000000000E+00 -0.00000000000E+00 -0.90436191022E+03  0.90436191022E+03  0.00000000000E+00 0.  1.
          2    1    1    2  501    0  0.22380681020E+02  0.43212458210E+01  0.27632673124E+02  0.35820841313E+02  0.00000000000E+00 0. -1.
          1    1    1    2  502    0 -0.22380681020E+02 -0.43212458210E+01 -0.90012354460E+03  0.90041210765E+03  0.00000000000E+00 0.  1.
</event>
<event>
 4    1  0.3555026E+003  0.8963132E+02  0.7546771E-02  0.1183099E+00
          2   -1    0    0  502    0  0.00000000000E+00  0.00000000000E+00  0.34380320667E+03  0.34380320667E+03  0.00000000000E+00 0. -1.
          1   -1    0    0  501    0 -0.00000000000E+00 -0.00000000000E+00 -0.16327987213E+03  0.16327987213E+03  0.00000000000E+00 0.  1.
          2    1    1    2  501    0 -0.89164335229E+02  0.91375952803E+01  0.32496057565E+03  0.33709516468E+03  0.00000000000E+00 0. -1.
          1    1    1    2  502    0  0.89164335229E+02 -0.91375952803E+01 -0.14443724111E+03  0.16998791411E+03  0.00000000000E+00 0.  1.
</event>
<event>
 4    1  0.3555026E+003  0.3501626E+02  0.7546771E-02  0.1380449E+00
          2   -1    0    0  502    0  0.00000000000E+00  0.00000000000E+00  0.16887401504E+02  0.16887401504E+02  0.00000000000E+00 0.  1.
          1   -1    0    0  501    0 -0.00000000000E+00 -0.00000000000E+00 -0.83015619825E+02  0.83015619825E+02  0.00000000000E+00 0. -1.
          2    1    1    2  501    0 -0.82510122212E+01 -0.34030267872E+02 -0.15376393435E+02  0.38243585203E+02  0.00000000000E+00 0.  1.
          1    1    1    2  502    0  0.82510122212E+01  0.34030267872E+02 -0.50751824886E+02  0.61659436126E+02  0.00000000000E+00 0. -1.
</event>
<event>
 4    1  0.3555026E+003  0.2131236E+02  0.7546771E-02  0.1514852E+00
          2   -1    0    0  502    0  0.00000000000E+00  0.00000000000E+00  0.26547151553E+03  0.26547151553E+03  0.00000000000E+00 0. -1.
          1   -1    0    0  501    0 -0.00000000000E+00 -0.00000000000E+00 -0.23099001305E+01  0.23099001305E+01  0.00000000000E+00 0.  1.
          2    1    1    2  501    0  0.20620876778E+02  0.53847872427E+01  0.19975786274E+03  0.20089156334E+03  0.00000000000E+00 0. -1.
          1    1    1    2  502    0 -0.20620876778E+02 -0.53847872427E+01  0.63403752651E+02  0.66889852317E+02  0.00000000000E+00 0.  1.
</event>
<event>
 4    1  0.3555026E+003  0.3754880E+02  0.7546771E-02  0.1363481E+00
          2   -1    0    0  502    0  0.00000000000E+00  0.00000000000E+00  0.12529203857E+03  0.12529203857E+03  0.00000000000E+00 0.  1.
          1   -1    0    0  501    0 -0.00000000000E+00 -0.00000000000E+00 -0.11364795605E+02  0.11364795605E+02  0.00000000000E+00 0.  1.
          2    1    1    2  501    0  0.14377502681E+02 -0.34687170074E+02  0.63740298232E+02  0.73977955972E+02  0.00000000000E+00 0.  1.
          1    1    1    2  502    0 -0.14377502681E+02  0.34687170074E+02  0.50186944735E+02  0.62678878204E+02  0.00000000000E+00 0.  1.
</event>
<event>
 4    1  0.3555026E+003  0.2323253E+02  0.7546771E-02  0.1489599E+00
          2   -1    0    0  502    0  0.00000000000E+00  0.00000000000E+00  0.85592223992E+03  0.85592223992E+03  0.00000000000E+00 0.  1.
          1   -1    0    0  501    0 -0.00000000000E+00 -0.00000000000E+00 -0.17041467487E+01  0.17041467487E+01  0.00000000000E+00 0. -1.
          2    1    1    2  501    0  0.17847851322E+02  0.14872957023E+02  0.76745742573E+03  0.76780899380E+03  0.00000000000E+00 0.  1.
          1    1    1    2  502    0 -0.17847851322E+02 -0.14872957023E+02  0.86760667441E+02  0.89817392871E+02  0.00000000000E+00 0. -1.
</event>
<event>
 4    1  0.3555026E+003  0.2009385E+02  0.7546771E-02  0.1532606E+00
          2   -1    0    0  502    0  0.00000000000E+00  0.00000000000E+00  0.35924835109E+02  0.35924835109E+02  0.00000000000E+00 0. -1.
          1   -1    0    0  501    0 -0.00000000000E+00 -0.00000000000E+00 -0.96112534780E+03  0.96112534780E+03  0.00000000000E+00 0. -1.
          2    1    1    2  501    0  0.20046419377E+02  0.13798497320E+01  0.33001464548E+02  0.38637541037E+02  0.00000000000E+00 0. -1.
          1    1    1    2  502    0 -0.20046419377E+02 -0.13798497320E+01 -0.95820197724E+03  0.95841264187E+03  0.00000000000E+00 0. -1.
</event>
<event>
 4    1  0.3555026E+003  0.2231835E+02  0.7546771E-02  0.1501240E+00
          2   -1    0    0  502    0  0.00000000000E+00  0.00000000000E+00  0.78668438497E+03  0.78668438497E+03  0.00000000000E+00 0.  1.
          1   -1    0    0  501    0 -0.00000000000E+00 -0.00000000000E+00 -0.10162332980E+02  0.10162332980E+02  0.00000000000E+00 0.  1.
          2    1    1    2  501    0 -0.21137984251E+02 -0.71619951349E+01  0.77407269174E+03  0.77439437023E+03  0.00000000000E+00 0.  1.
          1    1    1    2  502    0  0.21137984251E+02  0.71619951349E+01  0.24493602551E+01  0.22452347721E+02  0.00000000000E+00 0.  1.
</event>
<event>
 4    1  0.3555026E+003  0.2507726E+02  0.7546771E-02  0.1467941E+00
          2   -1    0    0  502    0  0.00000000000E+00  0.00000000000E+00  0.12824069057E+02  0.12824069057E+02  0.00000000000E+00 0. -1.
          1   -1    0    0  501    0 -0.00000000000E+00 -0.00000000000E+00 -0.65263286945E+02  0.65263286945E+02  0.00000000000E+00 0. -1.
          2    1    1    2  501    0  0.72515478428E+01  0.24005912787E+02 -0.67521056842E+01  0.25970362455E+02  0.00000000000E+00 0. -1.
          1    1    1    2  502    0 -0.72515478428E+01 -0.24005912787E+02 -0.45687112204E+02  0.52116993547E+02  0.00000000000E+00 0. -1.
</event>
<event>
 4    1  0.3555026E+003  0.3730486E+02  0.7546771E-02  0.1365047E+00
          2   -1    0    0  502    0  0.00000000000E+00  0.00000000000E+00  0.39270619285E+03  0.39270619285E+03  0.00000000000E+00 0.  1.
          1   -1    0    0  501    0 -0.00000000000E+00 -0.00000000000E+00 -0.35444167193E+01  0.35444167193E+01  0.00000000000E+00 0. -1.
          2    1    1    2  501    0 -0.28155175745E+02 -0.24473191595E+02  0.19185558465E+03  0.19544875643E+03  0.00000000000E+00 0.  1.
          1    1    1    2  502    0  0.28155175745E+02  0.24473191595E+02  0.19730619148E+03  0.20080185314E+03  0.00000000000E+00 0. -1.
</event>
<event>
 4    1  0.3555026E+003  0.2369102E+02  0.7546771E-02  0.1483999E+00
          2   -1    0    0  502    0  0.00000000000E+00  0.00000000000E+00  0.16015738417E+04  0.16015738417E+04  0.00000000000E+00 0.  1.
          1   -1    0    0  501    0 -0.00000000000E+00 -0.00000000000E+00 -0.13030844404E+02  0.13030844404E+02  0.00000000000E+00 0. -1.
          2    1    1    2  501    0 -0.19077850683E+02  0.14046350346E+02  0.15906442492E+04  0.15908206661E+04  0.00000000000E+00 0.  1.
          1    1    1    2  502    0  0.19077850683E+02 -0.14046350346E+02 -0.21012519192E+01  0.23784019937E+02  0.00000000000E+00 0. -1.
</event>
<event>
 4    1  0.3555026E+003  0.2083938E+02  0.7546771E-02  0.1521571E+00
          2   -1    0    0  502    0  0.00000000000E+00  0.00000000000E+00  0.14839473222E+04  0.14839473222E+04  0.00000000000E+00 0. -1.
          1   -1    0    0  501    0 -0.00000000000E+00 -0.00000000000E+00 -0.44487623275E+01  0.44487623275E+01  0.00000000000E+00 0. -1.
          2    1    1    2  501    0 -0.86259134694E+01 -0.18970323746E+02  0.14590532801E+04  0.14592020949E+04  0.00000000000E+00 0. -1.
          1    1    1    2  502    0  0.86259134694E+01  0.18970323746E+02  0.20445279792E+02  0.29193989655E+02  0.00000000000E+00 0. -1.
</event>
<event>
 4    1  0.3555026E+003  0.3742694E+02  0.7546771E-02  0.1364261E+00
          2   -1    0    0  502    0  0.00000000000E+00  0.00000000000E+00  0.14849960108E+04  0.14849960108E+04  0.00000000000E+00 0.  1.
          1   -1    0    0  501    0 -0.00000000000E+00 -0.00000000000E+00 -0.20118691835E+01  0.20118691835E+01  0.00000000000E+00 0.  1.
          2    1    1    2  501    0 -0.49238813668E+01  0.37101635864E+02  0.12833526622E+04  0.12838982949E+04  0.00000000000E+00 0.  1.
          1    1    1    2  502    0  0.49238813668E+01 -0.37101635864E+02  0.19963147942E+03  0.20310958512E+03  0.00000000000E+00 0.  1.
</event>
<event>
 4    1  0.3555026E+003  0.3362677E+02  0.7546771E-02  0.1390483E+00
          2   -1    0    0  502    0  0.00000000000E+00  0.00000000000E+00  0.35146377807E+02  0.35146377807E+02  0.00000000000E+00 0.  1.
          1   -1    0    0  501    0 -0.00000000000E+00 -0.00000000000E+00 -0.18782221996E+03  0.18782221996E+03  0.00000000000E+00 0. -1.
          2    1    1    2  501    0 -0.33101530268E+02  0.59201622838E+01  0.25149890210E+02  0.41991387273E+02  0.00000000000E+00 0.  1.
          1    1    1    2  502    0  0.33101530268E+02 -0.59201622838E+01 -0.17782573236E+03  0.18097721049E+03  0.00000000000E+00 0. -1.
</event>
<event>
 4    1  0.3555026E+003  0.2324469E+02  0.7546771E-02  0.1489448E+00
          2   -1    0    0  502    0  0.00000000000E+00  0.00000000000E+00  0.23399352684E+02  0.23399352684E+02  0.00000000000E+00 0. -1.
          1   -1    0    0  501    0 -0.00000000000E+00 -0.00000000000E+00 -0.23159226300E+02  0.23159226300E+02  0.00000000000E+00 0. -1.
          2    1    1    2  501    0  0.21067085438E+02 -0.98230915340E+01 -0.11431590307E+01  0.23272774409E+02  0.00000000000E+00 0. -1.
          1    1    1    2  502    0 -0.21067085438E+02  0.98230915340E+01  0.13832854156E+01  0.23285804575E+02  0.00000000000E+00 0. -1.
</event>
<event>
 4    1  0.3555026E+003  0.2050148E+02  0.7546771E-02  0.1526503E+00
          2   -1    0    0  502    0  0.00000000000E+00  0.00000000000E+00  0.76215055499E+03  0.76215055499E+03  0.00000000000E+00 0.  1.
          1   -1    0    0  501    0 -0.00000000000E+00 -0.00000000000E+00 -0.21508592458E+01  0.21508592458E+01  0.00000000000E+00 0.  1.
          2    1    1    2  501    0  0.19486519127E+02 -0.63707182193E+01  0.70953705405E+03  0.70983317867E+03  0.00000000000E+00 0.  1.
          1    1    1    2  502    0 -0.19486519127E+02  0.63707182193E+01  0.50462641693E+02  0.54468235559E+02  0.00000000000E+00 0.  1.
</event>
<event>
 4    1  0.3555026E+003  0.2446761E+02  0.7546771E-02  0.1474848E+00
          2   -1    0    0  502    0  0.00000000000E+00  0.00000000000E+00  0.30812278921E+02  0.30812278921E+02  0.00000000000E+00 0. -1.
          1   -1    0    0  501    0 -0.00000000000E+00 -0.00000000000E+00 -0.44106676056E+02  0.44106676056E+02  0.00000000000E+00 0.  1.
          2    1    1    2  501    0 -0.24071199524E+02 -0.43864931620E+01  0.21372160400E+02  0.32487431553E+02  0.00000000000E+00 0. -1.
          1    1    1    2  502    0  0.24071199524E+02  0.43864931620E+01 -0.34666557535E+02  0.42431523424E+02  0.00000000000E+00 0.  1.
</event>
<event>
 4    1  0.3555026E+003  0.2026278E+02  0.7546771E-02  0.1530056E+00
          2   -1    0    0  502    0  0.00000000000E+00  0.00000000000E+00  0.29931795748E+03  0.29931795748E+03  0.00000000000E+00 0.  1.
          1   -1    0    0  501    0 -0.00000000000E+00 -0.00000000000E+00 -0.12200510278E+03  0.12200510278E+03  0.00000000000E+00 0.  1.
          2    1    1    2  501    0  0.70848299870E+01 -0.18983816271E+02  0.29813036279E+03  0.29881816094E+03  0.00000000000E+00 0.  1.
          1    1    1    2  502    0 -0.70848299870E+01  0.18983816271E+02 -0.12081750809E+03  0.12250489932E+03  0.00000000000E+00 0.  1.
</event>
<event>
 4    1  0.3555026E+003  0.2596813E+02  0.7546771E-02  0.1458258E+00
          2   -1    0    0  502    0  0.00000000000E+00  0.00000000000E+00  0.91772957213E+03  0.91772957213E+03  0.00000000000E+00 0.  1.
          1   -1    0    0  501    0 -0.00000000000E+00 -0.00000000000E+00 -0.15814381890E+01  0.15814381890E+01  0.00000000000E+00 0.  1.
          2    1    1    2  501    0 -0.20620095358E+02  0.15784657141E+02  0.79439692700E+03  0.79482125120E+03  0.00000000000E+00 0.  1.
          1    1    1    2  502    0  0.20620095358E+02 -0.15784657141E+02  0.12175120694E+03  0.12448975911E+03  0.00000000000E+00 0.  1.
</event>
<event>
 4    1  0.3555026E+003  0.1354692E+03  0.7546771E-02  0.1113519E+00
          2   -1    0    0  502    0  0.00000000000E+00  0.00000000000E+00  0.13189166549E+04  0.13189166549E+04  0.00000000000E+00 0. -1.
          1   -1    0    0  501    0 -0.00000000000E+00 -0.00000000000E+00 -0.65773065109E+03  0.65773065109E+03  0.00000000000E+00 0. -1.
          2    1    1    2  501    0 -0.92897957736E+02  0.98599530627E+02  0.13084067189E+04  0.13154010947E+04  0.00000000000E+00 0. -1.
          1    1    1    2  502    0  0.92897957736E+02 -0.98599530627E+02 -0.64722071504E+03  0.66124621130E+03  0.00000000000E+00 0. -1.
</event>
<event>
 4    1  0.3555026E+003  0.2279740E+02  0.7546771E-02  0.1495058E+00
          2   -1    0    0  502    0  0.00000000000E+00  0.00000000000E+00  0.29278356491E+01  0.29278356491E+01  0.00000000000E+00 0. -1.
          1   -1    0    0  501    0 -0.00000000000E+00 -0.00000000000E+00 -0.44139674421E+03  0.44139674421E+03  0.00000000000E+00 0. -1.
          2    1    1    2  501    0  0.16311528300E+02 -0.15926563969E+02 -0.47457773912E+02  0.52649422599E+02  0.00000000000E+00 0. -1.
          1    1    1    2  502    0 -0.16311528300E+02  0.15926563969E+02 -0.39101113465E+03  0.39167515726E+03  0.00000000000E+00 0. -1.
</event>
<event>
 4    1  0.3555026E+003  0.2081944E+02  0.7546771E-02  0.1521859E+00
          2   -1    0    0  502    0  0.00000000000E+00  0.00000000000E+00  0.11092750198E+02  0.11092750198E+02  0.00000000000E+00 0.  1.
          1   -1    0    0  501    0 -0.00000000000E+00 -0.00000000000E+00 -0.44865792204E+03  0.44865792204E+03  0.00000000000E+00 0. -1.
          2    1    1    2  501    0  0.19590543821E+02  0.70469511202E+01  0.85448366349E+00  0.20836964021E+02  0.00000000000E+00 0.  1.
          1    1    1    2  502    0 -0.19590543821E+02 -0.70469511202E+01 -0.43841965550E+03  0.43891370821E+03  0.00000000000E+00 0. -1.
</event>
<event>
 4    1  0.3555026E+003  0.2684095E+02  0.7546771E-02  0.1449212E+00
          2   -1    0    0  502    0  0.00000000000E+00  0.00000000000E+00  0.97188603811E+03  0.97188603811E+03  0.00000000000E+00 0.  1.
          1   -1    0    0  501    0 -0.00000000000E+00 -0.00000000000E+00 -0.18366017343E+03  0.18366017343E+03  0.00000000000E+00 0.  1.
          2    1    1    2  501    0 -0.23982688629E+02  0.12052683045E+02  0.97071887488E+03  0.97108988800E+03  0.00000000000E+00 0.  1.
          1    1    1    2  502    0  0.23982688629E+02 -0.12052683045E+02 -0.18249301020E+03  0.18445632354E+03  0.00000000000E+00 0.  1.
</event>
<event>
 4    1  0.3555026E+003  0.3420334E+02  0.7546771E-02  0.1386252E+00
          2   -1    0    0  502    0  0.00000000000E+00  0.00000000000E+00  0.93461325639E+02  0.93461325639E+02  0.00000000000E+00 0. -1.
          1   -1    0    0  501    0 -0.00000000000E+00 -0.00000000000E+00 -0.15566224987E+02  0.15566224987E+02  0.00000000000E+00 0. -1.
          2    1    1    2  501    0 -0.73909645395E+01 -0.33395244230E+02  0.63074322508E+02  0.71751228936E+02  0.00000000000E+00 0. -1.
          1    1    1    2  502    0  0.73909645395E+01  0.33395244230E+02  0.14820778144E+02  0.37276321690E+02  0.00000000000E+00 0. -1.
</event>
<event>
 4    1  0.3555026E+003  0.2421181E+02  0.7546771E-02  0.1477817E+00
          2   -1    0    0  502    0  0.00000000000E+00  0.00000000000E+00  0.15026431079E+04  0.15026431079E+04  0.00000000000E+00 0. -1.
          1   -1    0    0  501    0 -0.00000000000E+00 -0.00000000000E+00 -0.39692792672E+02  0.39692792672E+02  0.00000000000E+00 0. -1.
          2    1    1    2  501    0 -0.18629202034E+02  0.15464954078E+02  0.14988440385E+04  0.14990395804E+04  0.00000000000E+00 0. -1.
          1    1    1    2  502    0  0.18629202034E+02 -0.15464954078E+02 -0.35893723233E+02  0.43296320174E+02  0.00000000000E+00 0. -1.
</event>
<event>
 4    1  0.3555026E+003  0.3861287E+02  0.7546771E-02  0.1356812E+00
          2   -1    0    0  502    0  0.00000000000E+00  0.00000000000E+00  0.81209088073E+02  0.81209088073E+02  0.00000000000E+00 0.  1.
          1   -1    0    0  501    0 -0.00000000000E+00 -0.00000000000E+00 -0.40089110171E+03  0.40089110171E+03  0.00000000000E+00 0.  1.
          2    1    1    2  501    0 -0.20571694058E+02 -0.32676588266E+02  0.75624766160E+02  0.84912067893E+02  0.00000000000E+00 0.  1.
          1    1    1    2  502    0  0.20571694058E+02  0.32676588266E+02 -0.39530677980E+03  0.39718812189E+03  0.00000000000E+00 0.  1.
</event>
<event>
 4    1  0.3555026E+003  0.2333149E+02  0.7546771E-02  0.1488377E+00
          2   -1    0    0  502    0  0.00000000000E+00  0.00000000000E+00  0.78882507482E+02  0.78882507482E+02  0.00000000000E+00 0. -1.
          1   -1    0    0  501    0 -0.00000000000E+00 -0.00000000000E+00 -0.55820418378E+02  0.55820418378E+02  0.00000000000E+00 0. -1.
          2    1    1    2  501    0  0.33797543513E+01 -0.23085397833E+02  0.74582002108E+02  0.78146230690E+02  0.00000000000E+00 0. -1.
          1    1    1    2  502    0 -0.33797543513E+01  0.23085397833E+02 -0.51519913004E+02  0.56556695170E+02  0.00000000000E+00 0. -1.
</event>
<event>
 4    1  0.3555026E+003  0.2264548E+02  0.7546771E-02  0.1496999E+00
          2   -1    0    0  502    0  0.00000000000E+00  0.00000000000E+00  0.51427750946E+00  0.51427750946E+00  0.00000000000E+00 0.  1.
          1   -1    0    0  501    0 -0.00000000000E+00 -0.00000000000E+00 -0.18043622466E+04  0.18043622466E+04  0.00000000000E+00 0.  1.
          2    1    1    2  501    0 -0.12076336209E+02 -0.19156715476E+02 -0.29832783798E+03  0.29918609018E+03  0.00000000000E+00 0.  1.
          1    1    1    2  502    0  0.12076336209E+02  0.19156715476E+02 -0.15055201311E+04  0.15056904339E+04  0.00000000000E+00 0.  1.
</event>
<event>
 4    1  0.3555026E+003  0.2112039E+02  0.7546771E-02  0.1517553E+00
          2   -1    0    0  502    0  0.00000000000E+00  0.00000000000E+00  0.87052348495E+02  0.87052348495E+02  0.00000000000E+00 0. -1.
          1   -1    0    0  501    0 -0.00000000000E+00 -0.00000000000E+00 -0.89441982863E+01  0.89441982863E+01  0.00000000000E+00 0.  1.
          2    1    1    2  501    0  0.10569835633E+02  0.18285220396E+02  0.70422188960E+02  0.73521122190E+02  0.00000000000E+00 0. -1.
          1    1    1    2  502    0 -0.10569835633E+02 -0.18285220396E+02  0.76859612489E+01  0.22475424591E+02  0.00000000000E+00 0.  1.
</event>
<event>
 4    1  0.3555026E+003  0.2006485E+02  0.7546771E-02  0.1533047E+00
          2   -1    0    0  502    0  0.00000000000E+00  0.00000000000E+00  0.13289850149E+04  0.13289850149E+04  0.00000000000E+00 0. -1.
          1   -1    0    0  501    0 -0.00000000000E+00 -0.00000000000E+00 -0.38160935097E+00  0.38160935097E+00  0.00000000000E+00 0. -1.
          2    1    1    2  501    0 -0.14157697028E+02  0.14218216141E+02  0.96610066619E+03  0.96630900610E+03  0.00000000000E+00 0. -1.
          1    1    1    2  502    0  0.14157697028E+02 -0.14218216141E+02  0.36250273937E+03  0.36305761816E+03  0.00000000000E+00 0. -1.
</event>
<event>
 4    1  0.3555026E+003  0.4218082E+02  0.7546771E-02  0.1336159E+00
          2   -1    0    0  502    0  0.00000000000E+00  0.00000000000E+00  0.54687548122E+02  0.54687548122E+02  0.00000000000E+00 0. -1.
          1   -1    0    0  501    0 -0.00000000000E+00 -0.00000000000E+00 -0.56512331798E+02  0.56512331798E+02  0.00000000000E+00 0. -1.
          2    1    1    2  501    0  0.14307752716E+02  0.39680088440E+02  0.35304356613E+02  0.55005625188E+02  0.00000000000E+00 0. -1.
          1    1    1    2  502    0 -0.14307752716E+02 -0.39680088440E+02 -0.37129140289E+02  0.56194254733E+02  0.00000000000E+00 0. -1.
</event>
<event>
 4    1  0.3555026E+003  0.2088314E+02  0.7546771E-02  0.1520940E+00
          2   -1    0    0  502    0  0.00000000000E+00  0.00000000000E+00  0.11675457090E+02  0.11675457090E+02  0.00000000000E+00 0. -1.
          1   -1    0    0  501    0 -0.00000000000E+00 -0.00000000000E+00 -0.13615277380E+03  0.13615277380E+03  0.00000000000E+00 0.  1.
          2    1    1    2  501    0 -0.16689115260E+02  0.12553053618E+02  0.72552105798E+00  0.20895743683E+02  0.00000000000E+00 0. -1.
          1    1    1    2  502    0  0.16689115260E+02 -0.12553053618E+02 -0.12520283777E+03  0.12693248721E+03  0.00000000000E+00 0.  1.
</event>
<event>
 4    1  0.3555026E+003  0.3411530E+02  0.7546771E-02  0.1386892E+00
          2   -1    0    0  502    0  0.00000000000E+00  0.00000000000E+00  0.36929161557E+03  0.36929161557E+03  0.00000000000E+00 0.  1.
          1   -1    0    0  501    0 -0.00000000000E+00 -0.00000000000E+00 -0.40361278217E+01  0.40361278217E+01  0.00000000000E+00 0.  1.
          2    1    1    2  501    0 -0.11576573876E+02 -0.32091065979E+02  0.27001286037E+03  0.27215950901E+03  0.00000000000E+00 0.  1.
          1    1    1    2  502    0  0.11576573876E+02  0.32091065979E+02  0.95242627379E+02  0.10116823438E+03  0.00000000000E+00 0.  1.
</event>
<event>
 4    1  0.3555026E+003  0.3139381E+02  0.7546771E-02  0.1407859E+00
          2   -1    0    0  502    0  0.00000000000E+00  0.00000000000E+00  0.49449069979E+03  0.49449069979E+03  0.00000000000E+00 0. -1.
          1   -1    0    0  501    0 -0.00000000000E+00 -0.00000000000E+00 -0.41243842802E+01  0.41243842802E+01  0.00000000000E+00 0. -1.
          2    1    1    2  501    0  0.28107425570E+01 -0.31267735519E+02  0.42439887905E+03  0.42555843323E+03  0.00000000000E+00 0. -1.
          1    1    1    2  502    0 -0.28107425570E+01  0.31267735519E+02  0.65967436460E+02  0.73056650835E+02  0.00000000000E+00 0. -1.
</event>
<event>
 4    1  0.3555026E+003  0.2082605E+02  0.7546771E-02  0.1521763E+00
          2   -1    0    0  502    0  0.00000000000E+00  0.00000000000E+00  0.17623011755E+01  0.17623011755E+01  0.00000000000E+00 0.  1.
          1   -1    0    0  501    0 -0.00000000000E+00 -0.00000000000E+00 -0.43303389407E+03  0.43303389407E+03  0.00000000000E+00 0. -1.
          2    1    1    2  501    0  0.79114052891E+01 -0.19264841286E+02 -0.72804217558E+02  0.75724358945E+02  0.00000000000E+00 0.  1.
          1    1    1    2  502    0 -0.79114052891E+01  0.19264841286E+02 -0.35846737534E+03  0.35907183630E+03  0.00000000000E+00 0. -1.
</event>
<event>
 4    1  0.3555026E+003  0.5428540E+02  0.7546771E-02  0.1280590E+00
          2   -1    0    0  502    0  0.00000000000E+00  0.00000000000E+00  0.20533115580E+04  0.20533115580E+04  0.00000000000E+00 0. -1.
          1   -1    0    0  501    0 -0.00000000000E+00 -0.00000000000E+00 -0.21169845233E+01  0.21169845233E+01  0.00000000000E+00 0. -1.
          2    1    1    2  501    0 -0.53421220622E+02  0.96477130967E+01  0.16088251835E+04  0.16097407792E+04  0.00000000000E+00 0. -1.
          1    1    1    2  502    0  0.53421220622E+02 -0.96477130967E+01  0.44236938997E+03  0.44568776331E+03  0.00000000000E+00 0. -1.
</event>
<event>
 4    1  0.3555026E+003  0.2131711E+02  0.7546771E-02  0.1514785E+00
          2   -1    0    0  502    0  0.00000000000E+00  0.00000000000E+00  0.20839423409E+03  0.20839423409E+03  0.00000000000E+00 0.  1.
          1   -1    0    0  501    0 -0.00000000000E+00 -0.00000000000E+00 -0.44719266051E+01  0.44719266051E+01  0.00000000000E+00 0.  1.
          2    1    1    2  501    0  0.20103719848E+02 -0.70894068256E+01  0.17814715393E+03  0.17941802499E+03  0.00000000000E+00 0.  1.
          1    1    1    2  502    0 -0.20103719848E+02  0.70894068256E+01  0.25775153558E+02  0.33448135700E+02  0.00000000000E+00 0.  1.
</event>
<event>
 4    1  0.3555026E+003  0.4788223E+02  0.7546771E-02  0.1307625E+00
          2   -1    0    0  502    0  0.00000000000E+00  0.00000000000E+00  0.64555549614E+01  0.64555549614E+01  0.00000000000E+00 0. -1.
          1   -1    0    0  501    0 -0.00000000000E+00 -0.00000000000E+00 -0.47704059283E+03  0.47704059283E+03  0.00000000000E+00 0.  1.
          2    1    1    2  501    0 -0.37711879063E+02 -0.29504614850E+02 -0.11309411210E+03  0.12281281005E+03  0.00000000000E+00 0. -1.
          1    1    1    2  502    0  0.37711879063E+02  0.29504614850E+02 -0.35749092576E+03  0.36068333774E+03  0.00000000000E+00 0.  1.
</event>
<event>
 4    1  0.3555026E+003  0.3759287E+02  0.7546771E-02  0.1363200E+00
          2   -1    0    0  502    0  0.00000000000E+00  0.00000000000E+00  0.17171534576E+03  0.17171534576E+03  0.00000000000E+00 0. -1.
          1   -1    0    0  501    0 -0.00000000000E+00 -0.00000000000E+00 -0.24862532694E+02  0.24862532694E+02  0.00000000000E+00 0.  1.
          2    1    1    2  501    0  0.35347508701E+02  0.12797572988E+02  0.15381799849E+03  0.15834519540E+03  0.00000000000E+00 0. -1.
          1    1    1    2  502    0 -0.35347508701E+02 -0.12797572988E+02 -0.69651854244E+01  0.38232683057E+02  0.00000000000E+00 0.  1.
</event>
<event>
 4    1  0.3555026E+003  0.2328471E+02  0.7546771E-02  0.1488954E+00
          2   -1    0    0  502    0  0.00000000000E+00  0.00000000000E+00  0.12359017863E+04  0.12359017863E+04  0.00000000000E+00 0.  1.
          1   -1    0    0  501    0 -0.00000000000E+00 -0.00000000000E+00 -0.39019523753E+02  0.39019523753E+02  0.00000000000E+00 0. -1.
          2    1    1    2  501    0  0.33116757628E+01  0.23048009525E+02  0.12323082241E+04  0.12325281892E+04  0.00000000000E+00 0.  1.
          1    1    1    2  502    0 -0.33116757628E+01 -0.23048009525E+02 -0.35425961591E+02  0.42393120834E+02  0.00000000000E+00 0. -1.
</event>
<event>
 4    1  0.3555026E+003  0.3430807E+02  0.7546771E-02  0.1385494E+00
          2   -1    0    0  502    0  0.00000000000E+00  0.00000000000E+00  0.15347511152E+04  0.15347511152E+04  0.00000000000E+00 0.  1.
          1   -1    0    0  501    0 -0.00000000000E+00 -0.00000000000E+00 -0.77703587029E+00  0.77703587029E+00  0.00000000000E+00 0.  1.
          2    1    1    2  501    0  0.25638093745E+02 -0.22797631755E+02  0.85455261918E+03  0.85524103199E+03  0.00000000000E+00 0.  1.
          1    1    1    2  502    0 -0.25638093745E+02  0.22797631755E+02  0.67942146011E+03  0.68028711904E+03  0.00000000000E+00 0.  1.
</event>
<event>
 4    1  0.3555026E+003  0.2542935E+02  0.7546771E-02  0.1464057E+00
          2   -1    0    0  502    0  0.00000000000E+00  0.00000000000E+00  0.55239217691E+02  0.55239217691E+02  0.00000000000E+00 0. -1.
          1   -1    0    0  501    0 -0.00000000000E+00 -0.00000000000E+00 -0.10814208500E+04  0.10814208500E+04  0.00000000000E+00 0.  1.
          2    1    1    2  501    0 -0.14106291073E+01  0.25390190599E+02  0.52154759728E+02  0.58023879699E+02  0.00000000000E+00 0. -1.
          1    1    1    2  502    0  0.14106291073E+01 -0.25390190599E+02 -0.10783363920E+04  0.10786361880E+04  0.00000000000E+00 0.  1.
</event>
<event>
 4    1  0.3555026E+003  0.2723542E+02  0.7546771E-02  0.1445258E+00
          2   -1    0    0  502    0  0.00000000000E+00  0.00000000000E+00  0.36366785058E+02  0.36366785058E+02  0.00000000000E+00 0. -1.
          1   -1    0    0  501    0 -0.00000000000E+00 -0.00000000000E+00 -0.22279954587E+02  0.22279954587E+02  0.00000000000E+00 0. -1.
          2    1    1    2  501    0 -0.24506816950E+02 -0.11882053289E+02 -0.14816129994E+01  0.27275674959E+02  0.00000000000E+00 0. -1.
          1    1    1    2  502    0  0.24506816950E+02  0.11882053289E+02  0.15568443471E+02  0.31371064685E+02  0.00000000000E+00 0. -1.
</event>
<event>
 4    1  0.3555026E+003  0.2058503E+02  0.7546771E-02  0.1525273E+00
          2   -1    0    0  502    0  0.00000000000E+00  0.00000000000E+00  0.31955735019E+03  0.31955735019E+03  0.00000000000E+00 0.  1.
          1   -1    0    0  501    0 -0.00000000000E+00 -0.00000000000E+00 -0.34563079365E+03  0.34563079365E+03  0.00000000000E+00 0.  1.
          2    1    1    2  501    0  0.36182644146E+01 -0.20264542602E+02  0.31891872876E+03  0.31958238230E+03  0.00000000000E+00 0.  1.
          1    1    1    2  502    0 -0.36182644146E+01  0.20264542602E+02 -0.34499217222E+03  0.34560576155E+03  0.00000000000E+00 0.  1.
</event>
<event>
 4    1  0.3555026E+003  0.2372157E+02  0.7546771E-02  0.1483631E+00
          2   -1    0    0  502    0  0.00000000000E+00  0.00000000000E+00  0.35038947208E+03  0.35038947208E+03  0.00000000000E+00 0.  1.
          1   -1    0    0  501    0 -0.00000000000E+00 -0.00000000000E+00 -0.80690357642E+01  0.80690357642E+01  0.00000000000E+00 0.  1.
          2    1    1    2  501    0  0.18940479285E+02 -0.14281841775E+02  0.33156509835E+03  0.33241258581E+03  0.00000000000E+00 0.  1.
          1    1    1    2  502    0 -0.18940479285E+02  0.14281841775E+02  0.10755337968E+02  0.26045922038E+02  0.00000000000E+00 0.  1.
</event>
<event>
 4    1  0.3555026E+003  0.2925132E+02  0.7546771E-02  0.1426216E+00
          2   -1    0    0  502    0  0.00000000000E+00  0.00000000000E+00  0.12906484532E+02  0.12906484532E+02  0.00000000000E+00 0. -1.
          1   -1    0    0  501    0 -0.00000000000E+00 -0.00000000000E+00 -0.71095985044E+03  0.71095985044E+03  0.00000000000E+00 0.  1.
          2    1    1    2  501    0  0.14067127496E+02 -0.25646746926E+02 -0.43810904444E+01  0.29577587078E+02  0.00000000000E+00 0. -1.
          1    1    1    2  502    0 -0.14067127496E+02  0.25646746926E+02 -0.69367227546E+03  0.69428874789E+03  0.00000000000E+00 0.  1.
</event>
<event>
 4    1  0.3555026E+003  0.2046594E+02  0.7546771E-02  0.1527028E+00
          2   -1    0    0  502    0  0.00000000000E+00  0.00000000000E+00  0.15529621405E+04  0.15529621405E+04  0.00000000000E+00 0.  1.
          1   -1    0    0  501    0 -0.00000000000E+00 -0.00000000000E+00 -0.48419278542E+00  0.48419278542E+00  0.00000000000E+00 0.  1.
          2    1    1    2  501    0 -0.82621169840E+01  0.18724109400E+02  0.12931904521E+04  0.12933523883E+04  0.00000000000E+00 0.  1.
          1    1    1    2  502    0  0.82621169840E+01 -0.18724109400E+02  0.25928749563E+03  0.26009394503E+03  0.00000000000E+00 0.  1.
</event>
<event>
 4    1  0.3555026E+003  0.3711798E+02  0.7546771E-02  0.1366255E+00
          2   -1    0    0  502    0  0.00000000000E+00  0.00000000000E+00  0.63108724036E+03  0.63108724036E+03  0.00000000000E+00 0. -1.
          1   -1    0    0  501    0 -0.00000000000E+00 -0.00000000000E+00 -0.47037305673E+02  0.47037305673E+02  0.00000000000E+00 0.  1.
          2    1    1    2  501    0  0.15186698159E+02  0.33868995962E+02  0.62312536056E+03  0.62422989327E+03  0.00000000000E+00 0. -1.
          1    1    1    2  502    0 -0.15186698159E+02 -0.33868995962E+02 -0.39075425872E+02  0.53894652755E+02  0.00000000000E+00 0.  1.
</event>
<event>
 4    1  0.3555026E+003  0.2528086E+02  0.7546771E-02  0.1465686E+00
          2   -1    0    0  502    0  0.00000000000E+00  0.00000000000E+00  0.28415117293E+02  0.28415117293E+02  0.00000000000E+00 0.  1.
          1   -1    0    0  501    0 -0.00000000000E+00 -0.00000000000E+00 -0.48642232532E+03  0.48642232532E+03  0.00000000000E+00 0. -1.
          2    1    1    2  501    0  0.24220080230E+02 -0.72463422176E+01  0.22393119044E+02  0.33772378394E+02  0.00000000000E+00 0.  1.
          1    1    1    2  502    0 -0.24220080230E+02  0.72463422176E+01 -0.48040032707E+03  0.48106506421E+03  0.00000000000E+00 0. -1.
</event>
<event>
 4    1  0.3555026E+003  0.2127196E+02  0.7546771E-02  0.1515417E+00
          2   -1    0    0  502    0  0.00000000000E+00  0.00000000000E+00  0.51574512042E+02  0.51574512042E+02  0.00000000000E+00 0.  1.
          1   -1    0    0  501    0 -0.00000000000E+00 -0.00000000000E+00 -0.42722576396E+03  0.42722576396E+03  0.00000000000E+00 0.  1.
          2    1    1    2  501    0  0.16137944320E+02  0.13858676047E+02  0.49103562961E+02  0.53513138986E+02  0.00000000000E+00 0.  1.
          1    1    1    2  502    0 -0.16137944320E+02 -0.13858676047E+02 -0.42475481488E+03  0.42528713701E+03  0.00000000000E+00 0.  1.
</event>
<event>
 4    1  0.3555026E+003  0.2036646E+02  0.7546771E-02  0.1528505E+00
          2   -1    0    0  502    0  0.00000000000E+00  0.00000000000E+00  0.53471672141E+01  0.53471672141E+01  0.00000000000E+00 0. -1.
          1   -1    0    0  501    0 -0.00000000000E+00 -0.00000000000E+00 -0.19654126114E+03  0.19654126114E+03  0.00000000000E+00 0.  1.
          2    1    1    2  501    0 -0.10844946594E+02  0.17238904318E+02 -0.17060612216E+02  0.26567972785E+02  0.00000000000E+00 0. -1.
          1    1    1    2  502    0  0.10844946594E+02 -0.17238904318E+02 -0.17413348171E+03  0.17532045557E+03  0.00000000000E+00 0.  1.
</event>
<event>
 4    1  0.3555026E+003  0.2076705E+02  0.7546771E-02  0.1522617E+00
          2   -1    0    0  502    0  0.00000000000E+00  0.00000000000E+00  0.46605967995E+03  0.46605967995E+03  0.00000000000E+00 0.  1.
          1   -1    0    0  501    0 -0.00000000000E+00 -0.00000000000E+00 -0.33107174891E+01  0.33107174891E+01  0.00000000000E+00 0. -1.
          2    1    1    2  501    0  0.13389862023E+02 -0.15873942239E+02  0.43058023212E+03  0.43108074271E+03  0.00000000000E+00 0.  1.
          1    1    1    2  502    0 -0.13389862023E+02  0.15873942239E+02  0.32168730344E+02  0.38289654727E+02  0.00000000000E+00 0. -1.
</event>
<event>
 4    1  0.3555026E+003  0.2022673E+02  0.7546771E-02  0.1530597E+00
          2   -1    0    0  502    0  0.00000000000E+00  0.00000000000E+00  0.13905638134E+04  0.13905638134E+04  0.00000000000E+00 0.  1.
          1   -1    0    0  501    0 -0.00000000000E+00 -0.00000000000E+00 -0.34873022107E+01  0.34873022107E+01  0.00000000000E+00 0. -1.
          2    1    1    2  501    0  0.88853011089E+01 -0.18170641009E+02  0.13605131608E+04  0.13606635078E+04  0.00000000000E+00 0.  1.
          1    1    1    2  502    0 -0.88853011089E+01  0.18170641009E+02  0.26563350360E+02  0.33387607773E+02  0.00000000000E+00 0. -1.
</event>
<event>
 4    1  0.3555026E+003  0.2696454E+02  0.7546771E-02  0.1447965E+00
          2   -1    0    0  502    0  0.00000000000E+00  0.00000000000E+00  0.47446957034E+02  0.47446957034E+02  0.00000000000E+00 0. -1.
          1   -1    0    0  501    0 -0.00000000000E+00 -0.00000000000E+00 -0.13672338808E+03  0.13672338808E+03  0.00000000000E+00 0. -1.
          2    1    1    2  501    0 -0.26071727636E+02  0.68812497466E+01  0.42133102521E+02  0.50022843862E+02  0.00000000000E+00 0. -1.
          1    1    1    2  502    0  0.26071727636E+02 -0.68812497466E+01 -0.13140953356E+03  0.13414750125E+03  0.00000000000E+00 0. -1.
</event>
<event>
 4    1  0.3555026E+003  0.2840935E+02  0.7546771E-02  0.1433942E+00
          2   -1    0    0  502    0  0.00000000000E+00  0.00000000000E+00  0.26691454485E+03  0.26691454485E+03  0.00000000000E+00 0. -1.
          1   -1    0    0  501    0 -0.00000000000E+00 -0.00000000000E+00 -0.19347966280E+02  0.19347966280E+02  0.00000000000E+00 0.  1.
          2    1    1    2  501    0  0.99943569136E+01 -0.26593302583E+02  0.25525508311E+03  0.25683116705E+03  0.00000000000E+00 0. -1.
          1    1    1    2  502    0 -0.99943569136E+01  0.26593302583E+02 -0.76885045421E+01  0.29431344082E+02  0.00000000000E+00 0.  1.
</event>
<event>
 4    1  0.3555026E+003  0.3479502E+02  0.7546771E-02  0.1382010E+00
          2   -1    0    0  502    0  0.00000000000E+00  0.00000000000E+00  0.30043804214E+01  0.30043804214E+01  0.00000000000E+00 0. -1.
          1   -1    0    0  501    0 -0.00000000000E+00 -0.00000000000E+00 -0.65226612080E+03  0.65226612080E+03  0.00000000000E+00 0. -1.
          2    1    1    2  501    0  0.38631576368E+00 -0.34792871821E+02 -0.12208156615E+03  0.12694330216E+03  0.00000000000E+00 0. -1.
          1    1    1    2  502    0 -0.38631576368E+00  0.34792871821E+02 -0.52718017423E+03  0.52832719906E+03  0.00000000000E+00 0. -1.
</event>
<event>
 4    1  0.3555026E+003  0.3394150E+02  0.7546771E-02  0.1388161E+00
          2   -1    0    0  502    0  0.00000000000E+00  0.00000000000E+00  0.80054114540E+02  0.80054114540E+02  0.00000000000E+00 0. -1.
          1   -1    0    0  501    0 -0.00000000000E+00 -0.00000000000E+00 -0.62065057366E+03  0.62065057366E+03  0.00000000000E+00 0.  1.
          2    1    1    2  501    0  0.28372603000E+02 -0.18628498958E+02  0.75968607836E+02  0.83206099241E+02  0.00000000000E+00 0. -1.
          1    1    1    2  502    0 -0.28372603000E+02  0.18628498958E+02 -0.61656506696E+03  0.61749858896E+03  0.00000000000E+00 0.  1.
</event>
<event>
 4    1  0.3555026E+003  0.3612922E+02  0.7546771E-02  0.1372794E+00
          2   -1    0    0  502    0  0.00000000000E+00  0.00000000000E+00  0.26673310741E+04  0.26673310741E+04  0.00000000000E+00 0.  1.
          1   -1    0    0  501    0 -0.00000000000E+00 -0.00000000000E+00 -0.19562069154E+01  0.19562069154E+01  0.00000000000E+00 0. -1.
          2    1    1    2  501    0 -0.22546587298E+02 -0.28230686084E+02  0.24883961116E+04  0.24886583793E+04  0.00000000000E+00 0.  1.
          1    1    1    2  502    0  0.22546587298E+02  0.28230686084E+02  0.17697875559E+03  0.18062890180E+03  0.00000000000E+00 0. -1.
</event>
<event>
 4    1  0.3555026E+003  0.5855238E+02  0.7546771E-02  0.1264832E+00
          2   -1    0    0  502    0  0.00000000000E+00  0.00000000000E+00  0.52970292064E+01  0.52970292064E+01  0.00000000000E+00 0. -1.
          1   -1    0    0  501    0 -0.00000000000E+00 -0.00000000000E+00 -0.99001836053E+03  0.99001836053E+03  0.00000000000E+00 0.  1.
          2    1    1    2  501    0  0.51448393117E+02 -0.27954318080E+02 -0.19952501660E+03  0.20793896533E+03  0.00000000000E+00 0. -1.
          1    1    1    2  502    0 -0.51448393117E+02  0.27954318080E+02 -0.78519631472E+03  0.78737642440E+03  0.00000000000E+00 0.  1.
</event>
<event>
 4    1  0.3555026E+003  0.2082390E+02  0.7546771E-02  0.1521794E+00
          2   -1    0    0  502    0  0.00000000000E+00  0.00000000000E+00  0.11419566770E+04  0.11419566770E+04  0.00000000000E+00 0.  1.
          1   -1    0    0  501    0 -0.00000000000E+00 -0.00000000000E+00 -0.20691397271E+01  0.20691397271E+01  0.00000000000E+00 0. -1.
          2    1    1    2  501    0 -0.19600268390E+02  0.70330984850E+01  0.10868103331E+04  0.10870098137E+04  0.00000000000E+00 0.  1.
          1    1    1    2  502    0  0.19600268390E+02 -0.70330984850E+01  0.53077204100E+02  0.57016002932E+02  0.00000000000E+00 0. -1.
</event>
<event>
 4    1  0.3555026E+003  0.2224436E+02  0.7546771E-02  0.1502211E+00
          2   -1    0    0  502    0  0.00000000000E+00  0.00000000000E+00  0.11208983735E+02  0.11208983735E+02  0.00000000000E+00 0.  1.
          1   -1    0    0  501    0 -0.00000000000E+00 -0.00000000000E+00 -0.38506820768E+03  0.38506820768E+03  0.00000000000E+00 0.  1.
          2    1    1    2  501    0 -0.21117529827E+02  0.69900907226E+01 -0.49392302224E+00  0.22249840319E+02  0.00000000000E+00 0.  1.
          1    1    1    2  502    0  0.21117529827E+02 -0.69900907226E+01 -0.37336530093E+03  0.37402735110E+03  0.00000000000E+00 0.  1.
</event>
<event>
 4    1  0.3555026E+003  0.3422759E+02  0.7546771E-02  0.1386076E+00
          2   -1    0    0  502    0  0.00000000000E+00  0.00000000000E+00  0.21823423954E+03  0.21823423954E+03  0.00000000000E+00 0. -1.
          1   -1    0    0  501    0 -0.00000000000E+00 -0.00000000000E+00 -0.36121940230E+02  0.36121940230E+02  0.00000000000E+00 0. -1.
          2    1    1    2  501    0 -0.55896430688E+01 -0.33768083863E+02  0.20840413862E+03  0.21119614719E+03  0.00000000000E+00 0. -1.
          1    1    1    2  502    0  0.55896430688E+01  0.33768083863E+02 -0.26291839310E+02  0.43160032573E+02  0.00000000000E+00 0. -1.
</event>
<event>
 4    1  0.3555026E+003  0.2087735E+02  0.7546771E-02  0.1521023E+00
          2   -1    0    0  502    0  0.00000000000E+00  0.00000000000E+00  0.38211623113E+02  0.38211623113E+02  0.00000000000E+00 0.  1.
          1   -1    0    0  501    0 -0.00000000000E+00 -0.00000000000E+00 -0.28327259039E+03  0.28327259039E+03  0.00000000000E+00 0. -1.
          2    1    1    2  501    0  0.17667526217E+02  0.11123050099E+02  0.34942059206E+02  0.40703946095E+02  0.00000000000E+00 0.  1.
          1    1    1    2  502    0 -0.17667526217E+02 -0.11123050099E+02 -0.28000302648E+03  0.28078026741E+03  0.00000000000E+00 0. -1.
</event>
<event>
 4    1  0.3555026E+003  0.3938725E+02  0.7546771E-02  0.1352114E+00
          2   -1    0    0  502    0  0.00000000000E+00  0.00000000000E+00  0.15421512310E+02  0.15421512310E+02  0.00000000000E+00 0.  1.
          1   -1    0    0  501    0 -0.00000000000E+00 -0.00000000000E+00 -0.12592218291E+03  0.12592218291E+03  0.00000000000E+00 0.  1.
          2    1    1    2  501    0 -0.11598877015E+01 -0.39370170734E+02 -0.23556643018E+02  0.45894129399E+02  0.00000000000E+00 0.  1.
          1    1    1    2  502    0  0.11598877015E+01  0.39370170734E+02 -0.86944027587E+02  0.95449565825E+02  0.00000000000E+00 0.  1.
</event>
<event>
 4    1  0.3555026E+003  0.2585118E+02  0.7546771E-02  0.1459502E+00
          2   -1    0    0  502    0  0.00000000000E+00  0.00000000000E+00  0.17727583059E+04  0.17727583059E+04  0.00000000000E+00 0. -1.
          1   -1    0    0  501    0 -0.00000000000E+00 -0.00000000000E+00 -0.66291605230E+00  0.66291605230E+00  0.00000000000E+00 0.  1.
          2    1    1    2  501    0  0.13750589185E+02  0.21890744110E+02  0.14684080846E+04  0.14686356207E+04  0.00000000000E+00 0. -1.
          1    1    1    2  502    0 -0.13750589185E+02 -0.21890744110E+02  0.30368730519E+03  0.30478560122E+03  0.00000000000E+00 0.  1.
</event>
<event>
 4    1  0.3555026E+003  0.2277153E+02  0.7546771E-02  0.1495387E+00
          2   -1    0    0  502    0  0.00000000000E+00  0.00000000000E+00  0.89299482241E+03  0.89299482241E+03  0.00000000000E+00 0.  1.
          1   -1    0    0  501    0 -0.00000000000E+00 -0.00000000000E+00 -0.84692094558E+01  0.84692094558E+01  0.00000000000E+00 0.  1.
          2    1    1    2  501    0  0.16767473881E+02 -0.15407608993E+02  0.87726860590E+03  0.87756409993E+03  0.00000000000E+00 0.  1.
          1    1    1    2  502    0 -0.16767473881E+02  0.15407608993E+02  0.72570070616E+01  0.23899931939E+02  0.00000000000E+00 0.  1.
</event>
<event>
 4    1  0.3555026E+003  0.2082420E+02  0.7546771E-02  0.1521790E+00
          2   -1    0    0  502    0  0.00000000000E+00  0.00000000000E+00  0.49887043090E+02  0.49887043090E+02  0.00000000000E+00 0. -1.
          1   -1    0    0  501    0 -0.00000000000E+00 -0.00000000000E+00 -0.28187119321E+03  0.28187119321E+03  0.00000000000E+00 0.  1.
          2    1    1    2  501    0 -0.15780789285E+02 -0.13587279820E+02  0.47309251626E+02  0.51689580892E+02  0.00000000000E+00 0. -1.
          1    1    1    2  502    0  0.15780789285E+02  0.13587279820E+02 -0.27929340175E+03  0.28006865541E+03  0.00000000000E+00 0.  1.
</event>
<event>
 4    1  0.3555026E+003  0.2181840E+02  0.7546771E-02  0.1507894E+00
          2   -1    0    0  502    0  0.00000000000E+00  0.00000000000E+00  0.63305509224E+03  0.63305509224E+03  0.00000000000E+00 0.  1.
          1   -1    0    0  501    0 -0.00000000000E+00 -0.00000000000E+00 -0.40202802259E+01  0.40202802259E+01  0.00000000000E+00 0. -1.
          2    1    1    2  501    0  0.13265986067E+02 -0.17322129787E+02  0.60172363932E+03  0.60211907517E+03  0.00000000000E+00 0.  1.
          1    1    1    2  502    0 -0.13265986067E+02  0.17322129787E+02  0.27311172691E+02  0.34956297293E+02  0.00000000000E+00 0. -1.
</event>
<event>
 4    1  0.3555026E+003  0.2025367E+02  0.7546771E-02  0.1530193E+00
          2   -1    0    0  502    0  0.00000000000E+00  0.00000000000E+00  0.24424581995E+02  0.24424581995E+02  0.00000000000E+00 0. -1.
          1   -1    0    0  501    0 -0.00000000000E+00 -0.00000000000E+00 -0.18849315031E+02  0.18849315031E+02  0.00000000000E+00 0.  1.
          2    1    1    2  501    0  0.35991908795E+01 -0.19931304068E+02  0.99306371279E+01  0.22557229675E+02  0.00000000000E+00 0. -1.
          1    1    1    2  502    0 -0.35991908795E+01  0.19931304068E+02 -0.43553701643E+01  0.20716667351E+02  0.00000000000E+00 0.  1.
</event>
<event>
 4    1  0.3555026E+003  0.2276833E+02  0.7546771E-02  0.1495428E+00
          2   -1    0    0  502    0  0.00000000000E+00  0.00000000000E+00  0.14705279162E+01  0.14705279162E+01  0.00000000000E+00 0. -1.
          1   -1    0    0  501    0 -0.00000000000E+00 -0.00000000000E+00 -0.68985214140E+03  0.68985214140E+03  0.00000000000E+00 0. -1.
          2    1    1    2  501    0 -0.18022723632E+02 -0.13913240635E+02 -0.10247843247E+03  0.10497726398E+03  0.00000000000E+00 0. -1.
          1    1    1    2  502    0  0.18022723632E+02  0.13913240635E+02 -0.58590318102E+03  0.58634540534E+03  0.00000000000E+00 0. -1.
</event>
<event>
 4    1  0.3555026E+003  0.2187055E+02  0.7546771E-02  0.1507190E+00
          2   -1    0    0  502    0  0.00000000000E+00  0.00000000000E+00  0.24604373745E+03  0.24604373745E+03  0.00000000000E+00 0.  1.
          1   -1    0    0  501    0 -0.00000000000E+00 -0.00000000000E+00 -0.56845796537E+01  0.56845796537E+01  0.00000000000E+00 0. -1.
          2    1    1    2  501    0  0.20762120505E+02  0.68742378840E+01  0.22227812918E+03  0.22335148870E+03  0.00000000000E+00 0.  1.
          1    1    1    2  502    0 -0.20762120505E+02 -0.68742378840E+01  0.18081028622E+02  0.28376828406E+02  0.00000000000E+00 0. -1.
</event>
<event>
 4    1  0.3555026E+003  0.2473060E+02  0.7546771E-02  0.1471840E+00
          2   -1    0    0  502    0  0.00000000000E+00  0.00000000000E+00  0.10133462006E+03  0.10133462006E+03  0.00000000000E+00 0. -1.
          1   -1    0    0  501    0 -0.00000000000E+00 -0.00000000000E+00 -0.60355389679E+01  0.60355389679E+01  0.00000000000E+00 0. -1.
          2    1    1    2  501    0 -0.66896411120E+00 -0.24721551242E+02  0.47823737136E+02  0.53839692073E+02  0.00000000000E+00 0. -1.
          1    1    1    2  502    0  0.66896411120E+00  0.24721551242E+02  0.47475343959E+02  0.53530466958E+02  0.00000000000E+00 0. -1.
</event>
<event>
 4    1  0.3555026E+003  0.2552740E+02  0.7546771E-02  0.1462989E+00
          2   -1    0    0  502    0  0.00000000000E+00  0.00000000000E+00  0.64865606566E+03  0.64865606566E+03  0.00000000000E+00 0. -1.
          1   -1    0    0  501    0 -0.00000000000E+00 -0.00000000000E+00 -0.66131848153E+01  0.66131848153E+01  0.00000000000E+00 0.  1.
          2    1    1    2  501    0 -0.23498673901E+02 -0.99729775788E+01  0.62274597561E+03  0.62326896128E+03  0.00000000000E+00 0. -1.
          1    1    1    2  502    0  0.23498673901E+02  0.99729775788E+01  0.19296905232E+02  0.32000289193E+02  0.00000000000E+00 0.  1.
</event>
<event>
 4    1  0.3555026E+003  0.2440914E+02  0.7546771E-02  0.1475523E+00
          2   -1    0    0  502    0  0.00000000000E+00  0.00000000000E+00  0.18985040803E+04  0.18985040803E+04  0.00000000000E+00 0. -1.
          1   -1    0    0  501    0 -0.00000000000E+00 -0.00000000000E+00 -0.73169617627E+00  0.73169617627E+00  0.00000000000E+00 0. -1.
          2    1    1    2  501    0 -0.16039760876E+02 -0.18399240867E+02  0.16665193978E+04  0.16666981458E+04  0.00000000000E+00 0. -1.
          1    1    1    2  502    0  0.16039760876E+02  0.18399240867E+02  0.23125298629E+03  0.23253763063E+03  0.00000000000E+00 0. -1.
</event>
<event>
 4    1  0.3555026E+003  0.5036167E+02  0.7546771E-02  0.1296612E+00
          2   -1    0    0  502    0  0.00000000000E+00  0.00000000000E+00  0.15287986055E+04  0.15287986055E+04  0.00000000000E+00 0. -1.
          1   -1    0    0  501    0 -0.00000000000E+00 -0.00000000000E+00 -0.45352739371E+01  0.45352739371E+01  0.00000000000E+00 0.  1.
          2    1    1    2  501    0  0.50152552727E+02  0.45846516682E+01  0.13726786286E+04  0.13736021677E+04  0.00000000000E+00 0. -1.
          1    1    1    2  502    0 -0.50152552727E+02 -0.45846516682E+01  0.15158470296E+03  0.15973171178E+03  0.00000000000E+00 0.  1.
</event>
<event>
 4    1  0.3555026E+003  0.2967226E+02  0.7546771E-02  0.1422466E+00
          2   -1    0    0  502    0  0.00000000000E+00  0.00000000000E+00  0.83221379925E+03  0.83221379925E+03  0.00000000000E+00 0. -1.
          1   -1    0    0  501    0 -0.00000000000E+00 -0.00000000000E+00 -0.11502808134E+01  0.11502808134E+01  0.00000000000E+00 0. -1.
          2    1    1    2  501    0 -0.29376288153E+02  0.41805200444E+01  0.53358263397E+03  0.53440702683E+03  0.00000000000E+00 0. -1.
          1    1    1    2  502    0  0.29376288153E+02 -0.41805200444E+01  0.29748088447E+03  0.29895705323E+03  0.00000000000E+00 0. -1.
</event>
<event>
 4    1  0.3555026E+003  0.3842895E+02  0.7546771E-02  0.1357946E+00
          2   -1    0    0  502    0  0.00000000000E+00  0.00000000000E+00  0.15725128202E+04  0.15725128202E+04  0.00000000000E+00 0. -1.
          1   -1    0    0  501    0 -0.00000000000E+00 -0.00000000000E+00 -0.78468680721E+01  0.78468680721E+01  0.00000000000E+00 0.  1.
          2    1    1    2  501    0 -0.26289313946E+02 -0.28029563365E+02  0.15237215577E+04  0.15242060786E+04  0.00000000000E+00 0. -1.
          1    1    1    2  502    0  0.26289313946E+02  0.28029563365E+02  0.40944394394E+02  0.56153609701E+02  0.00000000000E+00 0.  1.
</event>
<event>
 4    1  0.3555026E+003  0.2587414E+02  0.7546771E-02  0.1459257E+00
          2   -1    0    0  502    0  0.00000000000E+00  0.00000000000E+00  0.45372208602E+03  0.45372208602E+03  0.00000000000E+00 0. -1.
          1   -1    0    0  501    0 -0.00000000000E+00 -0.00000000000E+00 -0.90548932054E+01  0.90548932054E+01  0.00000000000E+00 0. -1.
          2    1    1    2  501    0  0.24080759868E+02 -0.94651090583E+01  0.43403173017E+03  0.43480227009E+03  0.00000000000E+00 0. -1.
          1    1    1    2  502    0 -0.24080759868E+02  0.94651090583E+01  0.10635462645E+02  0.27974709131E+02  0.00000000000E+00 0. -1.
</event>
<event>
 4    1  0.3555026E+003  0.2544097E+02  0.7546771E-02  0.1463930E+00
          2   -1    0    0  502    0  0.00000000000E+00  0.00000000000E+00  0.52644921745E+00  0.52644921745E+00  0.00000000000E+00 0. -1.
          1   -1    0    0  501    0 -0.00000000000E+00 -0.00000000000E+00 -0.22030529550E+04  0.22030529550E+04  0.00000000000E+00 0.  1.
          2    1    1    2  501    0  0.24959109013E+02 -0.49280507890E+01 -0.36881447292E+03  0.36969089554E+03  0.00000000000E+00 0. -1.
          1    1    1    2  502    0 -0.24959109013E+02  0.49280507890E+01 -0.18337120329E+04  0.18338885087E+04  0.00000000000E+00 0.  1.
</event>
<event>
 4    1  0.3555026E+003  0.2379017E+02  0.7546771E-02  0.1482807E+00
          2   -1    0    0  502    0  0.00000000000E+00  0.00000000000E+00  0.51876385650E+03  0.51876385650E+03  0.00000000000E+00 0.  1.
          1   -1    0    0  501    0 -0.00000000000E+00 -0.00000000000E+00 -0.13183911054E+02  0.13183911054E+02  0.00000000000E+00 0. -1.
          2    1    1    2  501    0  0.17170717128E+02 -0.16466288466E+02  0.50752124447E+03  0.50807852324E+03  0.00000000000E+00 0.  1.
          1    1    1    2  502    0 -0.17170717128E+02  0.16466288466E+02 -0.19412990244E+01  0.23869244321E+02  0.00000000000E+00 0. -1.
</event>
<event>
 4    1  0.3555026E+003  0.2153558E+02  0.7546771E-02  0.1511754E+00
          2   -1    0    0  502    0  0.00000000000E+00  0.00000000000E+00  0.12589219943E+01  0.12589219943E+01  0.00000000000E+00 0. -1.
          1   -1    0    0  501    0 -0.00000000000E+00 -0.00000000000E+00 -0.59136820296E+03  0.59136820296E+03  0.00000000000E+00 0. -1.
          2    1    1    2  501    0  0.18260866596E+02  0.11415866752E+02 -0.11310619720E+03  0.11513814792E+03  0.00000000000E+00 0. -1.
          1    1    1    2  502    0 -0.18260866596E+02 -0.11415866752E+02 -0.47700308377E+03  0.47748897703E+03  0.00000000000E+00 0. -1.
</event>
<event>
 4    1  0.3555026E+003  0.2190672E+02  0.7546771E-02  0.1506703E+00
          2   -1    0    0  502    0  0.00000000000E+00  0.00000000000E+00  0.12715443747E+04  0.12715443747E+04  0.00000000000E+00 0.  1.
          1   -1    0    0  501    0 -0.00000000000E+00 -0.00000000000E+00 -0.21452396634E+02  0.21452396634E+02  0.00000000000E+00 0.  1.
          2    1    1    2  501    0  0.21683938415E+02 -0.31162669665E+01  0.12658321188E+04  0.12660216654E+04  0.00000000000E+00 0.  1.
          1    1    1    2  502    0 -0.21683938415E+02  0.31162669665E+01 -0.15740140784E+02  0.26975105873E+02  0.00000000000E+00 0.  1.
</event>
<event>
 4    1  0.3555026E+003  0.3709219E+02  0.7546771E-02  0.1366423E+00
          2   -1    0    0  502    0  0.00000000000E+00  0.00000000000E+00  0.15013486636E+04  0.15013486636E+04  0.00000000000E+00 0.  1.
          1   -1    0    0  501    0 -0.00000000000E+00 -0.00000000000E+00 -0.30484576659E+02  0.30484576659E+02  0.00000000000E+00 0. -1.
          2    1    1    2  501    0 -0.37032289786E+02 -0.21071667298E+01  0.14897487169E+04  0.14902104114E+04  0.00000000000E+00 0.  1.
          1    1    1    2  502    0  0.37032289786E+02  0.21071667298E+01 -0.18884629942E+02  0.41622828910E+02  0.00000000000E+00 0. -1.
</event>
<event>
 4    1  0.3555026E+003  0.3132338E+02  0.7546771E-02  0.1408435E+00
          2   -1    0    0  502    0  0.00000000000E+00  0.00000000000E+00  0.10820273914E+02  0.10820273914E+02  0.00000000000E+00 0. -1.
          1   -1    0    0  501    0 -0.00000000000E+00 -0.00000000000E+00 -0.19198955820E+03  0.19198955820E+03  0.00000000000E+00 0. -1.
          2    1    1    2  501    0  0.22318830173E+02 -0.21977802884E+02 -0.16921362717E+02  0.35601776867E+02  0.00000000000E+00 0. -1.
          1    1    1    2  502    0 -0.22318830173E+02  0.21977802884E+02 -0.16424792157E+03  0.16720805525E+03  0.00000000000E+00 0. -1.
</event>
<event>
 4    1  0.3555026E+003  0.2400141E+02  0.7546771E-02  0.1480292E+00
          2   -1    0    0  502    0  0.00000000000E+00  0.00000000000E+00  0.19403522114E+03  0.19403522114E+03  0.00000000000E+00 0. -1.
          1   -1    0    0  501    0 -0.00000000000E+00 -0.00000000000E+00 -0.13719659433E+03  0.13719659433E+03  0.00000000000E+00 0. -1.
          2    1    1    2  501    0  0.39818133304E+01  0.23668811578E+02  0.19223348869E+03  0.19372604795E+03  0.00000000000E+00 0. -1.
          1    1    1    2  502    0 -0.39818133304E+01 -0.23668811578E+02 -0.13539486188E+03  0.13750576752E+03  0.00000000000E+00 0. -1.
</event>
<event>
 4    1  0.3555026E+003  0.2697409E+02  0.7546771E-02  0.1447869E+00
          2   -1    0    0  502    0  0.00000000000E+00  0.00000000000E+00  0.11114296128E+04  0.11114296128E+04  0.00000000000E+00 0. -1.
          1   -1    0    0  501    0 -0.00000000000E+00 -0.00000000000E+00 -0.33224427415E+01  0.33224427415E+01  0.00000000000E+00 0.  1.
          2    1    1    2  501    0  0.26340547853E+02  0.58117953502E+01  0.10535073390E+04  0.10538526058E+04  0.00000000000E+00 0. -1.
          1    1    1    2  502    0 -0.26340547853E+02 -0.58117953502E+01  0.54599831003E+02  0.60899449685E+02  0.00000000000E+00 0.  1.
</event>
<event>
 4    1  0.3555026E+003  0.2297434E+02  0.7546771E-02  0.1492821E+00
          2   -1    0    0  502    0  0.00000000000E+00  0.00000000000E+00  0.64451810040E+02  0.64451810040E+02  0.00000000000E+00 0. -1.
          1   -1    0    0  501    0 -0.00000000000E+00 -0.00000000000E+00 -0.10771317571E+02  0.10771317571E+02  0.00000000000E+00 0. -1.
          2    1    1    2  501    0  0.11255819819E+02  0.20028150064E+02  0.45254747490E+02  0.50752462455E+02  0.00000000000E+00 0. -1.
          1    1    1    2  502    0 -0.11255819819E+02 -0.20028150064E+02  0.84257449788E+01  0.24470665157E+02  0.00000000000E+00 0. -1.
</event>
<event>
 4    1  0.3555026E+003  0.8105241E+02  0.7546771E-02  0.1201425E+00
          2   -1    0    0  502    0  0.00000000000E+00  0.00000000000E+00  0.16087362840E+02  0.16087362840E+02  0.00000000000E+00 0. -1.
          1   -1    0    0  501    0 -0.00000000000E+00 -0.00000000000E+00 -0.10883866015E+04  0.10883866015E+04  0.00000000000E+00 0. -1.
          2    1    1    2  501    0 -0.80530597199E+02 -0.91823448847E+01 -0.99638096826E+02  0.12844159327E+03  0.00000000000E+00 0. -1.
          1    1    1    2  502    0  0.80530597199E+02  0.91823448847E+01 -0.97266114181E+03  0.97603237105E+03  0.00000000000E+00 0. -1.
</event>
<event>
 4    1  0.3555026E+003  0.2057605E+02  0.7546771E-02  0.1525405E+00
          2   -1    0    0  502    0  0.00000000000E+00  0.00000000000E+00  0.33092761975E+03  0.33092761975E+03  0.00000000000E+00 0. -1.
          1   -1    0    0  501    0 -0.00000000000E+00 -0.00000000000E+00 -0.11812541094E+02  0.11812541094E+02  0.00000000000E+00 0. -1.
          2    1    1    2  501    0 -0.20473945020E+02  0.20472721790E+01  0.32138164766E+03  0.32203965159E+03  0.00000000000E+00 0. -1.
          1    1    1    2  502    0  0.20473945020E+02 -0.20472721790E+01 -0.22665690041E+01  0.20700509248E+02  0.00000000000E+00 0. -1.
</event>
<event>
 4    1  0.3555026E+003  0.4478877E+02  0.7546771E-02  0.1322499E+00
          2   -1    0    0  502    0  0.00000000000E+00  0.00000000000E+00  0.87390074969E+01  0.87390074969E+01  0.00000000000E+00 0. -1.
          1   -1    0    0  501    0 -0.00000000000E+00 -0.00000000000E+00 -0.34668099839E+03  0.34668099839E+03  0.00000000000E+00 0.  1.
          2    1    1    2  501    0 -0.31555178143E+02  0.31785295120E+02 -0.65674920258E+02  0.79493580900E+02  0.00000000000E+00 0. -1.
          1    1    1    2  502    0  0.31555178143E+02 -0.31785295120E+02 -0.27226707063E+03  0.27592642498E+03  0.00000000000E+00 0.  1.
</event>
<event>
 4    1  0.3555026E+003  0.2040678E+02  0.7546771E-02  0.1527905E+00
          2   -1    0    0  502    0  0.00000000000E+00  0.00000000000E+00  0.11432578272E+02  0.11432578272E+02  0.00000000000E+00 0. -1.
          1   -1    0    0  501    0 -0.00000000000E+00 -0.00000000000E+00 -0.79147720394E+03  0.79147720394E+03  0.00000000000E+00 0. -1.
          2    1    1    2  501    0 -0.36323475213E-01 -0.20406751131E+02  0.20858724815E+01  0.20513109835E+02  0.00000000000E+00 0. -1.
          1    1    1    2  502    0  0.36323475213E-01  0.20406751131E+02 -0.78213049815E+03  0.78239667238E+03  0.00000000000E+00 0. -1.
</event>
<event>
 4    1  0.3555026E+003  0.2054833E+02  0.7546771E-02  0.1525812E+00
          2   -1    0    0  502    0  0.00000000000E+00  0.00000000000E+00  0.12197535723E+03  0.12197535723E+03  0.00000000000E+00 0. -1.
          1   -1    0    0  501    0 -0.00000000000E+00 -0.00000000000E+00 -0.83957808528E+03  0.83957808528E+03  0.00000000000E+00 0.  1.
          2    1    1    2  501    0  0.73745701778E+01 -0.19179408765E+02  0.12098319704E+03  0.12271580163E+03  0.00000000000E+00 0. -1.
          1    1    1    2  502    0 -0.73745701778E+01  0.19179408765E+02 -0.83858592508E+03  0.83883764087E+03  0.00000000000E+00 0.  1.
</event>
<event>
 4    1  0.3555026E+003  0.4537323E+02  0.7546771E-02  0.1319584E+00
          2   -1    0    0  502    0  0.00000000000E+00  0.00000000000E+00  0.27747753993E+03  0.27747753993E+03  0.00000000000E+00 0.  1.
          1   -1    0    0  501    0 -0.00000000000E+00 -0.00000000000E+00 -0.55395281277E+02  0.55395281277E+02  0.00000000000E+00 0.  1.
          2    1    1    2  501    0 -0.45297337742E+02 -0.26231190798E+01  0.26593107541E+03  0.26977410259E+03  0.00000000000E+00 0.  1.
          1    1    1    2  502    0  0.45297337742E+02  0.26231190798E+01 -0.43848816756E+02  0.63098718617E+02  0.00000000000E+00 0.  1.
</event>
<event>
 4    1  0.3555026E+003  0.3500302E+02  0.7546771E-02  0.1380542E+00
          2   -1    0    0  502    0  0.00000000000E+00  0.00000000000E+00  0.13602321209E+04  0.13602321209E+04  0.00000000000E+00 0. -1.
          1   -1    0    0  501    0 -0.00000000000E+00 -0.00000000000E+00 -0.18303631075E+01  0.18303631075E+01  0.00000000000E+00 0.  1.
          2    1    1    2  501    0  0.18570771903E+02  0.29670488880E+02  0.11645481039E+04  0.11650740310E+04  0.00000000000E+00 0. -1.
          1    1    1    2  502    0 -0.18570771903E+02 -0.29670488880E+02  0.19385365387E+03  0.19698845296E+03  0.00000000000E+00 0.  1.
</event>
<event>
 4    1  0.3555026E+003  0.2049483E+02  0.7546771E-02  0.1526601E+00
          2   -1    0    0  502    0  0.00000000000E+00  0.00000000000E+00  0.22565910040E+02  0.22565910040E+02  0.00000000000E+00 0.  1.
          1   -1    0    0  501    0 -0.00000000000E+00 -0.00000000000E+00 -0.35072410572E+02  0.35072410572E+02  0.00000000000E+00 0.  1.
          2    1    1    2  501    0  0.17538186552E+02  0.10604243438E+02  0.13488912621E+02  0.24535458629E+02  0.00000000000E+00 0.  1.
          1    1    1    2  502    0 -0.17538186552E+02 -0.10604243438E+02 -0.25995413153E+02  0.33102861983E+02  0.00000000000E+00 0.  1.
</event>
<event>
 4    1  0.3555026E+003  0.2257655E+02  0.7546771E-02  0.1497885E+00
          2   -1    0    0  502    0  0.00000000000E+00  0.00000000000E+00  0.16791448139E+03  0.16791448139E+03  0.00000000000E+00 0. -1.
          1   -1    0    0  501    0 -0.00000000000E+00 -0.00000000000E+00 -0.33879525726E+02  0.33879525726E+02  0.00000000000E+00 0. -1.
          2    1    1    2  501    0  0.15893822815E+02  0.16033939617E+02  0.16328843424E+03  0.16484178347E+03  0.00000000000E+00 0. -1.
          1    1    1    2  502    0 -0.15893822815E+02 -0.16033939617E+02 -0.29253478575E+02  0.36952223641E+02  0.00000000000E+00 0. -1.
</event>
<event>
 4    1  0.3555026E+003  0.2504071E+02  0.7546771E-02  0.1468348E+00
          2   -1    0    0  502    0  0.00000000000E+00  0.00000000000E+00  0.41622152434E+03  0.41622152434E+03  0.00000000000E+00 0.  1.
          1   -1    0    0  501    0 -0.00000000000E+00 -0.00000000000E+00 -0.16604355481E+01  0.16604355481E+01  0.00000000000E+00 0. -1.
          2    1    1    2  501    0  0.22293301439E+02  0.11403762270E+02  0.27089916639E+03  0.27205403036E+03  0.00000000000E+00 0.  1.
          1    1    1    2  502    0 -0.22293301439E+02 -0.11403762270E+02  0.14366192240E+03  0.14582792953E+03  0.00000000000E+00 0. -1.
</event>
<event>
 4    1  0.3555026E+003  0.2393506E+02  0.7546771E-02  0.1481079E+00
          2   -1    0    0  502    0  0.00000000000E+00  0.00000000000E+00  0.67629139314E+02  0.67629139314E+02  0.00000000000E+00 0. -1.
          1   -1    0    0  501    0 -0.00000000000E+00 -0.00000000000E+00 -0.54293281232E+02  0.54293281232E+02  0.00000000000E+00 0.  1.
          2    1    1    2  501    0  0.94887153371E+01 -0.21973882623E+02  0.62671901494E+02  0.67086917303E+02  0.00000000000E+00 0. -1.
          1    1    1    2  502    0 -0.94887153371E+01  0.21973882623E+02 -0.49336043412E+02  0.54835503243E+02  0.00000000000E+00 0.  1.
</event>
<event>
 4    1  0.3555026E+003  0.2078131E+02  0.7546771E-02  0.1522410E+00
          2   -1    0    0  502    0  0.00000000000E+00  0.00000000000E+00  0.34114032865E+02  0.34114032865E+02  0.00000000000E+00 0.  1.
          1   -1    0    0  501    0 -0.00000000000E+00 -0.00000000000E+00 -0.32351075856E+02  0.32351075856E+02  0.00000000000E+00 0.  1.
          2    1    1    2  501    0 -0.93815721112E+01 -0.18543164219E+02  0.26808988663E+02  0.33920269864E+02  0.00000000000E+00 0.  1.
          1    1    1    2  502    0  0.93815721112E+01  0.18543164219E+02 -0.25046031655E+02  0.32544838856E+02  0.00000000000E+00 0.  1.
</event>
<event>
 4    1  0.3555026E+003  0.3944502E+02  0.7546771E-02  0.1351769E+00
          2   -1    0    0  502    0  0.00000000000E+00  0.00000000000E+00  0.14323183371E+04  0.14323183371E+04  0.00000000000E+00 0. -1.
          1   -1    0    0  501    0 -0.00000000000E+00 -0.00000000000E+00 -0.28843464915E+01  0.28843464915E+01  0.00000000000E+00 0. -1.
          2    1    1    2  501    0  0.37040478555E+02  0.13561446364E+02  0.12812972869E+04  0.12819043051E+04  0.00000000000E+00 0. -1.
          1    1    1    2  502    0 -0.37040478555E+02 -0.13561446364E+02  0.14813670371E+03  0.15329837855E+03  0.00000000000E+00 0. -1.
</event>
<event>
 4    1  0.3555026E+003  0.2072458E+02  0.7546771E-02  0.1523234E+00
          2   -1    0    0  502    0  0.00000000000E+00  0.00000000000E+00  0.11338794781E+01  0.11338794781E+01  0.00000000000E+00 0. -1.
          1   -1    0    0  501    0 -0.00000000000E+00 -0.00000000000E+00 -0.54443493158E+03  0.54443493158E+03  0.00000000000E+00 0. -1.
          2    1    1    2  501    0 -0.13539567420E+02 -0.15690390221E+02 -0.12118789232E+03  0.12294719792E+03  0.00000000000E+00 0. -1.
          1    1    1    2  502    0  0.13539567420E+02  0.15690390221E+02 -0.42211315978E+03  0.42262161313E+03  0.00000000000E+00 0. -1.
</event>
<event>
 4    1  0.3555026E+003  0.2297547E+02  0.7546771E-02  0.1492806E+00
          2   -1    0    0  502    0  0.00000000000E+00  0.00000000000E+00  0.43681138018E+03  0.43681138018E+03  0.00000000000E+00 0. -1.
          1   -1    0    0  501    0 -0.00000000000E+00 -0.00000000000E+00 -0.51472419526E+03  0.51472419526E+03  0.00000000000E+00 0.  1.
          2    1    1    2  501    0 -0.12309195648E+02 -0.19399892043E+02  0.43625254935E+03  0.43685713789E+03  0.00000000000E+00 0. -1.
          1    1    1    2  502    0  0.12309195648E+02  0.19399892043E+02 -0.51416536442E+03  0.51467843755E+03  0.00000000000E+00 0.  1.
</event>
<event>
 4    1  0.3555026E+003  0.3000209E+02  0.7546771E-02  0.1419578E+00
          2   -1    0    0  502    0  0.00000000000E+00  0.00000000000E+00  0.20400178589E+04  0.20400178589E+04  0.00000000000E+00 0.  1.
          1   -1    0    0  501    0 -0.00000000000E+00 -0.00000000000E+00 -0.17356322350E+03  0.17356322350E+03  0.00000000000E+00 0. -1.
          2    1    1    2  501    0  0.15505299106E+02 -0.25684836441E+02  0.20386101174E+04  0.20388308747E+04  0.00000000000E+00 0.  1.
          1    1    1    2  502    0 -0.15505299106E+02  0.25684836441E+02 -0.17215548194E+03  0.17475020769E+03  0.00000000000E+00 0. -1.
</event>
<event>
 4    1  0.3555026E+003  0.2092890E+02  0.7546771E-02  0.1520282E+00
          2   -1    0    0  502    0  0.00000000000E+00  0.00000000000E+00  0.15482042337E+04  0.15482042337E+04  0.00000000000E+00 0.  1.
          1   -1    0    0  501    0 -0.00000000000E+00 -0.00000000000E+00 -0.37433485641E+00  0.37433485641E+00  0.00000000000E+00 0.  1.
          2    1    1    2  501    0 -0.17770584265E+02 -0.11055554022E+02  0.11565457919E+04  0.11567351416E+04  0.00000000000E+00 0.  1.
          1    1    1    2  502    0  0.17770584265E+02  0.11055554022E+02  0.39128410691E+03  0.39184342697E+03  0.00000000000E+00 0.  1.
</event>
<event>
 4    1  0.3555026E+003  0.3100485E+02  0.7546771E-02  0.1411061E+00
          2   -1    0    0  502    0  0.00000000000E+00  0.00000000000E+00  0.63967554925E+02  0.63967554925E+02  0.00000000000E+00 0. -1.
          1   -1    0    0  501    0 -0.00000000000E+00 -0.00000000000E+00 -0.85704721354E+03  0.85704721354E+03  0.00000000000E+00 0.  1.
          2    1    1    2  501    0  0.30254517004E+02  0.67797231075E+01  0.59912304492E+02  0.67459503957E+02  0.00000000000E+00 0. -1.
          1    1    1    2  502    0 -0.30254517004E+02 -0.67797231075E+01 -0.85299196311E+03  0.85355526451E+03  0.00000000000E+00 0.  1.
</event>
<event>
 4    1  0.3555026E+003  0.3786334E+02  0.7546771E-02  0.1361483E+00
          2   -1    0    0  502    0  0.00000000000E+00  0.00000000000E+00  0.56224660747E+03  0.56224660747E+03  0.00000000000E+00 0.  1.
          1   -1    0    0  501    0 -0.00000000000E+00 -0.00000000000E+00 -0.64165052472E+02  0.64165052472E+02  0.00000000000E+00 0. -1.
          2    1    1    2  501    0  0.37687597946E+02  0.36438219959E+01  0.55596034383E+03  0.55724818205E+03  0.00000000000E+00 0.  1.
          1    1    1    2  502    0 -0.37687597946E+02 -0.36438219959E+01 -0.57878788835E+02  0.69163477896E+02  0.00000000000E+00 0. -1.
</event>
<event>
 4    1  0.3555026E+003  0.2014361E+02  0.7546771E-02  0.1531852E+00
          2   -1    0    0  502    0  0.00000000000E+00  0.00000000000E+00  0.24555144640E+02  0.24555144640E+02  0.00000000000E+00 0.  1.
          1   -1    0    0  501    0 -0.00000000000E+00 -0.00000000000E+00 -0.19250352309E+03  0.19250352309E+03  0.00000000000E+00 0.  1.
          2    1    1    2  501    0  0.15161274685E+01 -0.20086469661E+02  0.19792527575E+02  0.28240202792E+02  0.00000000000E+00 0.  1.
          1    1    1    2  502    0 -0.15161274685E+01  0.20086469661E+02 -0.18774090602E+03  0.18881846494E+03  0.00000000000E+00 0.  1.
</event>
<event>
 4    1  0.3555026E+003  0.3314573E+02  0.7546771E-02  0.1394090E+00
          2   -1    0    0  502    0  0.00000000000E+00  0.00000000000E+00  0.36434190609E+03  0.36434190609E+03  0.00000000000E+00 0.  1.
          1   -1    0    0  501    0 -0.00000000000E+00 -0.00000000000E+00 -0.18905100101E+02  0.18905100101E+02  0.00000000000E+00 0.  1.
          2    1    1    2  501    0  0.26607807895E+02  0.19765224808E+02  0.34839625938E+03  0.34996941738E+03  0.00000000000E+00 0.  1.
          1    1    1    2  502    0 -0.26607807895E+02 -0.19765224808E+02 -0.29594533905E+01  0.33277588811E+02  0.00000000000E+00 0.  1.
</event>
<event>
 4    1  0.3555026E+003  0.2651656E+02  0.7546771E-02  0.1452526E+00
          2   -1    0    0  502    0  0.00000000000E+00  0.00000000000E+00  0.59794795306E+03  0.59794795306E+03  0.00000000000E+00 0. -1.
          1   -1    0    0  501    0 -0.00000000000E+00 -0.00000000000E+00 -0.29325552896E+03  0.29325552896E+03  0.00000000000E+00 0. -1.
          2    1    1    2  501    0  0.69581213738E+01  0.25587353490E+02  0.59705366430E+03  0.59764220582E+03  0.00000000000E+00 0. -1.
          1    1    1    2  502    0 -0.69581213738E+01 -0.25587353490E+02 -0.29236124021E+03  0.29356127621E+03  0.00000000000E+00 0. -1.
</event>
<event>
 4    1  0.3555026E+003  0.4491552E+02  0.7546771E-02  0.1321862E+00
          2   -1    0    0  502    0  0.00000000000E+00  0.00000000000E+00  0.36721125839E+03  0.36721125839E+03  0.00000000000E+00 0.  1.
          1   -1    0    0  501    0 -0.00000000000E+00 -0.00000000000E+00 -0.34255283855E+03  0.34255283855E+03  0.00000000000E+00 0. -1.
          2    1    1    2  501    0  0.40074060565E+02 -0.20284810965E+02  0.36435396263E+03  0.36711199104E+03  0.00000000000E+00 0.  1.
          1    1    1    2  502    0 -0.40074060565E+02  0.20284810965E+02 -0.33969554278E+03  0.34265210589E+03  0.00000000000E+00 0. -1.
</event>
<event>
 4    1  0.3555026E+003  0.2903367E+02  0.7546771E-02  0.1428184E+00
          2   -1    0    0  502    0  0.00000000000E+00  0.00000000000E+00  0.15608393786E+03  0.15608393786E+03  0.00000000000E+00 0.  1.
          1   -1    0    0  501    0 -0.00000000000E+00 -0.00000000000E+00 -0.12471001714E+03  0.12471001714E+03  0.00000000000E+00 0. -1.
          2    1    1    2  501    0  0.28703404237E+02 -0.43667401385E+01  0.15301030426E+03  0.15574051189E+03  0.00000000000E+00 0.  1.
          1    1    1    2  502    0 -0.28703404237E+02  0.43667401385E+01 -0.12163638354E+03  0.12505344311E+03  0.00000000000E+00 0. -1.
</event>
<event>
 4    1  0.3555026E+003  0.2178939E+02  0.7546771E-02  0.1508286E+00
          2   -1    0    0  502    0  0.00000000000E+00  0.00000000000E+00  0.28775413972E+03  0.28775413972E+03  0.00000000000E+00 0. -1.
          1   -1    0    0  501    0 -0.00000000000E+00 -0.00000000000E+00 -0.12546059518E+02  0.12546059518E+02  0.00000000000E+00 0. -1.
          2    1    1    2  501    0  0.11922513258E+01  0.21756744985E+02  0.27753308114E+03  0.27838711993E+03  0.00000000000E+00 0. -1.
          1    1    1    2  502    0 -0.11922513258E+01 -0.21756744985E+02 -0.23250009350E+01  0.21913079312E+02  0.00000000000E+00 0. -1.
</event>
<event>
 4    1  0.3555026E+003  0.3138937E+02  0.7546771E-02  0.1407895E+00
          2   -1    0    0  502    0  0.00000000000E+00  0.00000000000E+00  0.64512748976E+01  0.64512748976E+01  0.00000000000E+00 0.  1.
          1   -1    0    0  501    0 -0.00000000000E+00 -0.00000000000E+00 -0.30654414435E+03  0.30654414435E+03  0.00000000000E+00 0.  1.
          2    1    1    2  501    0  0.30400077302E+02 -0.78184192084E+01 -0.39189725639E+02  0.50210825273E+02  0.00000000000E+00 0.  1.
          1    1    1    2  502    0 -0.30400077302E+02  0.78184192084E+01 -0.26090314381E+03  0.26278459397E+03  0.00000000000E+00 0.  1.
</event>
<event>
 4    1  0.3555026E+003  0.2430380E+02  0.7546771E-02  0.1476745E+00
          2   -1    0    0  502    0  0.00000000000E+00  0.00000000000E+00  0.51103569426E+02  0.51103569426E+02  0.00000000000E+00 0. -1.
          1   -1    0    0  501    0 -0.00000000000E+00 -0.00000000000E+00 -0.21369067264E+03  0.21369067264E+03  0.00000000000E+00 0.  1.
          2    1    1    2  501    0  0.22083301470E+02 -0.10149023248E+02  0.47473158801E+02  0.53332688693E+02  0.00000000000E+00 0. -1.
          1    1    1    2  502    0 -0.22083301470E+02  0.10149023248E+02 -0.21006026201E+03  0.21146155337E+03  0.00000000000E+00 0.  1.
</event>
<event>
 4    1  0.3683124E+003  0.2469863E+02  0.7546771E-02  0.1472203E+00
          2   -1    0    0  502    0  0.00000000000E+00  0.00000000000E+00  0.40945062512E+03  0.40945062512E+03  0.00000000000E+00 0.  1.
          1   -1    0    0  501    0 -0.00000000000E+00 -0.00000000000E+00 -0.14330452091E+04  0.14330452091E+04  0.00000000000E+00 0.  1.
          2    1    1    2  501    0  0.24688167410E+02 -0.71897361626E+00  0.40897161588E+03  0.40971673767E+03  0.00000000000E+00 0.  1.
          1    1    1    2  502    0 -0.24688167410E+02  0.71897361626E+00 -0.14325661999E+04  0.14327790966E+04  0.00000000000E+00 0.  1.
</event>
<event>
 4    1  0.3555026E+003  0.3192215E+02  0.7546771E-02  0.1403597E+00
          2   -1    0    0  502    0  0.00000000000E+00  0.00000000000E+00  0.20232879940E+03  0.20232879940E+03  0.00000000000E+00 0.  1.
          1   -1    0    0  501    0 -0.00000000000E+00 -0.00000000000E+00 -0.61974970740E+02  0.61974970740E+02  0.00000000000E+00 0.  1.
          2    1    1    2  501    0  0.31035108234E+02 -0.74729889844E+01  0.19684528961E+03  0.19941687880E+03  0.00000000000E+00 0.  1.
          1    1    1    2  502    0 -0.31035108234E+02  0.74729889844E+01 -0.56491460952E+02  0.64886891342E+02  0.00000000000E+00 0.  1.
</event>
<event>
 4    1  0.3555026E+003  0.2637753E+02  0.7546771E-02  0.1453963E+00
          2   -1    0    0  502    0  0.00000000000E+00  0.00000000000E+00  0.47025194387E+03  0.47025194387E+03  0.00000000000E+00 0. -1.
          1   -1    0    0  501    0 -0.00000000000E+00 -0.00000000000E+00 -0.17431262144E+02  0.17431262144E+02  0.00000000000E+00 0.  1.
          2    1    1    2  501    0 -0.26349573357E+02  0.12141893713E+01  0.45967377391E+03  0.46042996502E+03  0.00000000000E+00 0. -1.
          1    1    1    2  502    0  0.26349573357E+02 -0.12141893713E+01 -0.68530921851E+01  0.27253240989E+02  0.00000000000E+00 0.  1.
</event>
<event>
 4    1  0.3555026E+003  0.2013431E+02  0.7546771E-02  0.1531992E+00
          2   -1    0    0  502    0  0.00000000000E+00  0.00000000000E+00  0.55980411120E+03  0.55980411120E+03  0.00000000000E+00 0.  1.
          1   -1    0    0  501    0 -0.00000000000E+00 -0.00000000000E+00 -0.77013214997E+00  0.77013214997E+00  0.00000000000E+00 0.  1.
          2    1    1    2  501    0 -0.52945712740E+01  0.19425698681E+02  0.34799430915E+03  0.34857628929E+03  0.00000000000E+00 0.  1.
          1    1    1    2  502    0  0.52945712740E+01 -0.19425698681E+02  0.21103966990E+03  0.21199795406E+03  0.00000000000E+00 0.  1.
</event>
<event>
 4    1  0.3555026E+003  0.2939500E+02  0.7546771E-02  0.1424928E+00
          2   -1    0    0  502    0  0.00000000000E+00  0.00000000000E+00  0.44732992827E+01  0.44732992827E+01  0.00000000000E+00 0. -1.
          1   -1    0    0  501    0 -0.00000000000E+00 -0.00000000000E+00 -0.19320254686E+03  0.19320254686E+03  0.00000000000E+00 0. -1.
          2    1    1    2  501    0 -0.11191809594E+02 -0.27181045528E+02 -0.92910850956E+02  0.97449946451E+02  0.00000000000E+00 0. -1.
          1    1    1    2  502    0  0.11191809594E+02  0.27181045528E+02 -0.95818396623E+02  0.10022589969E+03  0.00000000000E+00 0. -1.
</event>
<event>
 4    1  0.3555026E+003  0.2186393E+02  0.7546771E-02  0.1507279E+00
          2   -1    0    0  502    0  0.00000000000E+00  0.00000000000E+00  0.10608509241E+04  0.10608509241E+04  0.00000000000E+00 0. -1.
          1   -1    0    0  501    0 -0.00000000000E+00 -0.00000000000E+00 -0.46154403069E+00  0.46154403069E+00  0.00000000000E+00 0. -1.
          2    1    1    2  501    0 -0.10633312937E+02  0.19104028689E+02  0.61186683887E+03  0.61225734767E+03  0.00000000000E+00 0. -1.
          1    1    1    2  502    0  0.10633312937E+02 -0.19104028689E+02  0.44852254124E+03  0.44905512051E+03  0.00000000000E+00 0. -1.
</event>
<event>
 4    1  0.3555026E+003  0.2727114E+02  0.7546771E-02  0.1444903E+00
          2   -1    0    0  502    0  0.00000000000E+00  0.00000000000E+00  0.76017377676E+02  0.76017377676E+02  0.00000000000E+00 0. -1.
          1   -1    0    0  501    0 -0.00000000000E+00 -0.00000000000E+00 -0.12899807825E+04  0.12899807825E+04  0.00000000000E+00 0. -1.
          2    1    1    2  501    0  0.24132680037E+02  0.12701533108E+02  0.73422442893E+02  0.78323497812E+02  0.00000000000E+00 0. -1.
          1    1    1    2  502    0 -0.24132680037E+02 -0.12701533108E+02 -0.12873858477E+04  0.12876746624E+04  0.00000000000E+00 0. -1.
</event>
<event>
 4    1  0.3555026E+003  0.3710189E+02  0.7546771E-02  0.1366360E+00
          2   -1    0    0  502    0  0.00000000000E+00  0.00000000000E+00  0.10654749400E+02  0.10654749400E+02  0.00000000000E+00 0.  1.
          1   -1    0    0  501    0 -0.00000000000E+00 -0.00000000000E+00 -0.16828822637E+03  0.16828822637E+03  0.00000000000E+00 0. -1.
          2    1    1    2  501    0  0.29328158072E+02 -0.22724647920E+02 -0.35694304215E+02  0.51484306661E+02  0.00000000000E+00 0.  1.
          1    1    1    2  502    0 -0.29328158072E+02  0.22724647920E+02 -0.12193917276E+03  0.12745866911E+03  0.00000000000E+00 0. -1.
</event>
<event>
 4    1  0.3555026E+003  0.3068072E+02  0.7546771E-02  0.1413771E+00
          2   -1    0    0  502    0  0.00000000000E+00  0.00000000000E+00  0.30443806514E+03  0.30443806514E+03  0.00000000000E+00 0.  1.
          1   -1    0    0  501    0 -0.00000000000E+00 -0.00000000000E+00 -0.24336730483E+02  0.24336730483E+02  0.00000000000E+00 0.  1.
          2    1    1    2  501    0  0.25083144846E+02 -0.17667560463E+02  0.29364088040E+03  0.29523934950E+03  0.00000000000E+00 0.  1.
          1    1    1    2  502    0 -0.25083144846E+02  0.17667560463E+02 -0.13539545743E+02  0.33535446128E+02  0.00000000000E+00 0.  1.
</event>
<event>
 4    1  0.3555026E+003  0.3424898E+02  0.7546771E-02  0.1385921E+00
          2   -1    0    0  502    0  0.00000000000E+00  0.00000000000E+00  0.80546334712E+03  0.80546334712E+03  0.00000000000E+00 0.  1.
          1   -1    0    0  501    0 -0.00000000000E+00 -0.00000000000E+00 -0.25119148027E+02  0.25119148027E+02  0.00000000000E+00 0. -1.
          2    1    1    2  501    0  0.11872464525E+02 -0.32125330997E+02  0.79324525766E+03  0.79398427636E+03  0.00000000000E+00 0.  1.
          1    1    1    2  502    0 -0.11872464525E+02  0.32125330997E+02 -0.12901058575E+02  0.36598218780E+02  0.00000000000E+00 0. -1.
</event>
<event>
 4    1  0.3555026E+003  0.2183532E+02  0.7546771E-02  0.1507665E+00
          2   -1    0    0  502    0  0.00000000000E+00  0.00000000000E+00  0.22160374563E+03  0.22160374563E+03  0.00000000000E+00 0. -1.
          1   -1    0    0  501    0 -0.00000000000E+00 -0.00000000000E+00 -0.22626779142E+01  0.22626779142E+01  0.00000000000E+00 0.  1.
          2    1    1    2  501    0  0.14755704532E+02  0.16095048887E+02  0.13448177158E+03  0.13624290184E+03  0.00000000000E+00 0. -1.
          1    1    1    2  502    0 -0.14755704532E+02 -0.16095048887E+02  0.84859296136E+02  0.87623521703E+02  0.00000000000E+00 0.  1.
</event>
<event>
 4    1  0.3555026E+003  0.3018169E+02  0.7546771E-02  0.1418024E+00
          2   -1    0    0  502    0  0.00000000000E+00  0.00000000000E+00  0.10681135609E+04  0.10681135609E+04  0.00000000000E+00 0.  1.
          1   -1    0    0  501    0 -0.00000000000E+00 -0.00000000000E+00 -0.94702647961E+00  0.94702647961E+00  0.00000000000E+00 0.  1.
          2    1    1    2  501    0  0.24641675349E+02  0.17427623433E+02  0.70215174438E+03  0.70280011836E+03  0.00000000000E+00 0.  1.
          1    1    1    2  502    0 -0.24641675349E+02 -0.17427623433E+02  0.36501478999E+03  0.36626046898E+03  0.00000000000E+00 0.  1.
</event>
<event>
 4    1  0.3555026E+003  0.4378369E+02  0.7546771E-02  0.1327634E+00
          2   -1    0    0  502    0  0.00000000000E+00  0.00000000000E+00  0.42200693231E+01  0.42200693231E+01  0.00000000000E+00 0.  1.
          1   -1    0    0  501    0 -0.00000000000E+00 -0.00000000000E+00 -0.15476194200E+04  0.15476194200E+04  0.00000000000E+00 0. -1.
          2    1    1    2  501    0  0.75871069431E+01  0.43121305860E+02 -0.11952177995E+03  0.12728891190E+03  0.00000000000E+00 0.  1.
          1    1    1    2  502    0 -0.75871069431E+01 -0.43121305860E+02 -0.14238775707E+04  0.14245505774E+04  0.00000000000E+00 0. -1.
</event>
<event>
 4    1  0.3555026E+003  0.2064532E+02  0.7546771E-02  0.1524390E+00
          2   -1    0    0  502    0  0.00000000000E+00  0.00000000000E+00  0.75883722145E+02  0.75883722145E+02  0.00000000000E+00 0.  1.
          1   -1    0    0  501    0 -0.00000000000E+00 -0.00000000000E+00 -0.16187233866E+02  0.16187233866E+02  0.00000000000E+00 0.  1.
          2    1    1    2  501    0  0.86405231518E+01 -0.18750211138E+02  0.67048959382E+02  0.70155484549E+02  0.00000000000E+00 0.  1.
          1    1    1    2  502    0 -0.86405231518E+01  0.18750211138E+02 -0.73524711038E+01  0.21915471461E+02  0.00000000000E+00 0.  1.
</event>
<event>
 4    1  0.3555026E+003  0.2199846E+02  0.7546771E-02  0.1505473E+00
          2   -1    0    0  502    0  0.00000000000E+00  0.00000000000E+00  0.48681285060E+01  0.48681285060E+01  0.00000000000E+00 0. -1.
          1   -1    0    0  501    0 -0.00000000000E+00 -0.00000000000E+00 -0.13471060691E+03  0.13471060691E+03  0.00000000000E+00 0.  1.
          2    1    1    2  501    0 -0.19431635498E+02 -0.10312311565E+02 -0.29194769701E+02  0.36554983324E+02  0.00000000000E+00 0. -1.
          1    1    1    2  502    0  0.19431635498E+02  0.10312311565E+02 -0.10064770870E+03  0.10302375209E+03  0.00000000000E+00 0.  1.
</event>
<event>
 4    1  0.3555026E+003  0.4268104E+02  0.7546771E-02  0.1333453E+00
          2   -1    0    0  502    0  0.00000000000E+00  0.00000000000E+00  0.10152610528E+04  0.10152610528E+04  0.00000000000E+00 0.  1.
          1   -1    0    0  501    0 -0.00000000000E+00 -0.00000000000E+00 -0.30936709028E+01  0.30936709028E+01  0.00000000000E+00 0.  1.
          2    1    1    2  501    0 -0.10447387262E+02  0.41382640979E+02  0.83607353914E+03  0.83716225054E+03  0.00000000000E+00 0.  1.
          1    1    1    2  502    0  0.10447387262E+02 -0.41382640979E+02  0.17609384278E+03  0.18119247318E+03  0.00000000000E+00 0.  1.
</event>
<event>
 4    1  0.3555026E+003  0.2232608E+02  0.7546771E-02  0.1501139E+00
          2   -1    0    0  502    0  0.00000000000E+00  0.00000000000E+00  0.65979866518E+03  0.65979866518E+03  0.00000000000E+00 0.  1.
          1   -1    0    0  501    0 -0.00000000000E+00 -0.00000000000E+00 -0.16768819327E+01  0.16768819327E+01  0.00000000000E+00 0.  1.
          2    1    1    2  501    0  0.16260006619E+02  0.15299216696E+02  0.57422731434E+03  0.57466117180E+03  0.00000000000E+00 0.  1.
          1    1    1    2  502    0 -0.16260006619E+02 -0.15299216696E+02  0.83894468913E+02  0.86814375313E+02  0.00000000000E+00 0.  1.
</event>
<event>
 4    1  0.3555026E+003  0.2005319E+02  0.7546771E-02  0.1533224E+00
          2   -1    0    0  502    0  0.00000000000E+00  0.00000000000E+00  0.39343865452E+01  0.39343865452E+01  0.00000000000E+00 0. -1.
          1   -1    0    0  501    0 -0.00000000000E+00 -0.00000000000E+00 -0.13869255834E+04  0.13869255834E+04  0.00000000000E+00 0.  1.
          2    1    1    2  501    0 -0.12849958586E+02  0.15395100975E+02 -0.22180748067E+02  0.29901775107E+02  0.00000000000E+00 0. -1.
          1    1    1    2  502    0  0.12849958586E+02 -0.15395100975E+02 -0.13608104488E+04  0.13609581948E+04  0.00000000000E+00 0.  1.
</event>
<event>
 4    1  0.3555026E+003  0.2790297E+02  0.7546771E-02  0.1438743E+00
          2   -1    0    0  502    0  0.00000000000E+00  0.00000000000E+00  0.14366946680E+03  0.14366946680E+03  0.00000000000E+00 0.  1.
          1   -1    0    0  501    0 -0.00000000000E+00 -0.00000000000E+00 -0.66849047204E+01  0.66849047204E+01  0.00000000000E+00 0.  1.
          2    1    1    2  501    0  0.17375167528E+02 -0.21832983744E+02  0.10120391241E+03  0.10498003387E+03  0.00000000000E+00 0.  1.
          1    1    1    2  502    0 -0.17375167528E+02  0.21832983744E+02  0.35780649672E+02  0.45374337645E+02  0.00000000000E+00 0.  1.
</event>
<event>
 4    1  0.3555026E+003  0.3943709E+02  0.7546771E-02  0.1351816E+00
          2   -1    0    0  502    0  0.00000000000E+00  0.00000000000E+00  0.26586787623E+04  0.26586787623E+04  0.00000000000E+00 0. -1.
          1   -1    0    0  501    0 -0.00000000000E+00 -0.00000000000E+00 -0.62707652506E+00  0.62707652506E+00  0.00000000000E+00 0. -1.
          2    1    1    2  501    0  0.34714047598E+02 -0.18714132854E+02  0.16735199566E+04  0.16739845665E+04  0.00000000000E+00 0. -1.
          1    1    1    2  502    0 -0.34714047598E+02  0.18714132854E+02  0.98453172921E+03  0.98532127233E+03  0.00000000000E+00 0. -1.
</event>
<event>
 4    1  0.3555026E+003  0.2038712E+02  0.7546771E-02  0.1528198E+00
          2   -1    0    0  502    0  0.00000000000E+00  0.00000000000E+00  0.16498097630E+03  0.16498097630E+03  0.00000000000E+00 0.  1.
          1   -1    0    0  501    0 -0.00000000000E+00 -0.00000000000E+00 -0.55869345280E+01  0.55869345280E+01  0.00000000000E+00 0. -1.
          2    1    1    2  501    0 -0.20268853696E+02 -0.21927376714E+01  0.14289209529E+03  0.14433913338E+03  0.00000000000E+00 0.  1.
          1    1    1    2  502    0  0.20268853696E+02  0.21927376714E+01  0.16501946480E+02  0.26228777446E+02  0.00000000000E+00 0. -1.
</event>
<event>
 4    1  0.3555026E+003  0.2574394E+02  0.7546771E-02  0.1460650E+00
          2   -1    0    0  502    0  0.00000000000E+00  0.00000000000E+00  0.52902696909E+01  0.52902696909E+01  0.00000000000E+00 0. -1.
          1   -1    0    0  501    0 -0.00000000000E+00 -0.00000000000E+00 -0.17837874963E+03  0.17837874963E+03  0.00000000000E+00 0. -1.
          2    1    1    2  501    0  0.42729964572E+01 -0.25386843175E+02 -0.36438457337E+02  0.44615148529E+02  0.00000000000E+00 0. -1.
          1    1    1    2  502    0 -0.42729964572E+01  0.25386843175E+02 -0.13665002260E+03  0.13905387079E+03  0.00000000000E+00 0. -1.
</event>
<event>
 4    1  0.3555026E+003  0.2932514E+02  0.7546771E-02  0.1425553E+00
          2   -1    0    0  502    0  0.00000000000E+00  0.00000000000E+00  0.19318153500E+04  0.19318153500E+04  0.00000000000E+00 0. -1.
          1   -1    0    0  501    0 -0.00000000000E+00 -0.00000000000E+00 -0.30558582951E+01  0.30558582951E+01  0.00000000000E+00 0.  1.
          2    1    1    2  501    0 -0.28618390788E+02 -0.63993300532E+01  0.18585782552E+04  0.18588095907E+04  0.00000000000E+00 0. -1.
          1    1    1    2  502    0  0.28618390788E+02  0.63993300532E+01  0.70181236519E+02  0.76061617625E+02  0.00000000000E+00 0.  1.
</event>
<event>
 4    1  0.3555026E+003  0.2042010E+02  0.7546771E-02  0.1527708E+00
          2   -1    0    0  502    0  0.00000000000E+00  0.00000000000E+00  0.30532940593E+01  0.30532940593E+01  0.00000000000E+00 0. -1.
          1   -1    0    0  501    0 -0.00000000000E+00 -0.00000000000E+00 -0.39888101556E+03  0.39888101556E+03  0.00000000000E+00 0. -1.
          2    1    1    2  501    0  0.10553535692E+02  0.17481515020E+02 -0.34941557536E+02  0.40470889860E+02  0.00000000000E+00 0. -1.
          1    1    1    2  502    0 -0.10553535692E+02 -0.17481515020E+02 -0.36088616396E+03  0.36146341976E+03  0.00000000000E+00 0. -1.
</event>
<event>
 4    1  0.3555026E+003  0.2840819E+02  0.7546771E-02  0.1433953E+00
          2   -1    0    0  502    0  0.00000000000E+00  0.00000000000E+00  0.49414219435E+03  0.49414219435E+03  0.00000000000E+00 0. -1.
          1   -1    0    0  501    0 -0.00000000000E+00 -0.00000000000E+00 -0.46467252953E+03  0.46467252953E+03  0.00000000000E+00 0. -1.
          2    1    1    2  501    0 -0.26442466740E+02  0.10383685945E+02  0.49329896668E+03  0.49411627731E+03  0.00000000000E+00 0. -1.
          1    1    1    2  502    0  0.26442466740E+02 -0.10383685945E+02 -0.46382930185E+03  0.46469844656E+03  0.00000000000E+00 0. -1.
</event>
<event>
 4    1  0.3555026E+003  0.2725939E+02  0.7546771E-02  0.1445020E+00
          2   -1    0    0  502    0  0.00000000000E+00  0.00000000000E+00  0.38976384417E+03  0.38976384417E+03  0.00000000000E+00 0. -1.
          1   -1    0    0  501    0 -0.00000000000E+00 -0.00000000000E+00 -0.14447353262E+03  0.14447353262E+03  0.00000000000E+00 0. -1.
          2    1    1    2  501    0 -0.22257954037E+02 -0.15737141493E+02  0.38799554207E+03  0.38895194408E+03  0.00000000000E+00 0. -1.
          1    1    1    2  502    0  0.22257954037E+02  0.15737141493E+02 -0.14270523051E+03  0.14528543270E+03  0.00000000000E+00 0. -1.
</event>
<event>
 4    1  0.3555026E+003  0.2230077E+02  0.7546771E-02  0.1501470E+00
          2   -1    0    0  502    0  0.00000000000E+00  0.00000000000E+00  0.41850377679E+02  0.41850377679E+02  0.00000000000E+00 0.  1.
          1   -1    0    0  501    0 -0.00000000000E+00 -0.00000000000E+00 -0.61656890467E+02  0.61656890467E+02  0.00000000000E+00 0.  1.
          2    1    1    2  501    0 -0.51000306446E+00  0.22294937109E+02  0.36596335128E+02  0.42855758874E+02  0.00000000000E+00 0.  1.
          1    1    1    2  502    0  0.51000306446E+00 -0.22294937109E+02 -0.56402847916E+02  0.60651509272E+02  0.00000000000E+00 0.  1.
</event>
<event>
 4    1  0.3555026E+003  0.2033268E+02  0.7546771E-02  0.1529009E+00
          2   -1    0    0  502    0  0.00000000000E+00  0.00000000000E+00  0.34933141704E+02  0.34933141704E+02  0.00000000000E+00 0. -1.
          1   -1    0    0  501    0 -0.00000000000E+00 -0.00000000000E+00 -0.21595762388E+02  0.21595762388E+02  0.00000000000E+00 0. -1.
          2    1    1    2  501    0 -0.19797586258E+02  0.46339385428E+01  0.25671083339E+02  0.32747859898E+02  0.00000000000E+00 0. -1.
          1    1    1    2  502    0  0.19797586258E+02 -0.46339385428E+01 -0.12333704024E+02  0.23781044195E+02  0.00000000000E+00 0. -1.
</event>
<event>
 4    1  0.3555026E+003  0.3834370E+02  0.7546771E-02  0.1358475E+00
          2   -1    0    0  502    0  0.00000000000E+00  0.00000000000E+00  0.69724933091E+02  0.69724933091E+02  0.00000000000E+00 0.  1.
          1   -1    0    0  501    0 -0.00000000000E+00 -0.00000000000E+00 -0.21608432230E+02  0.21608432230E+02  0.00000000000E+00 0.  1.
          2    1    1    2  501    0  0.27491706065E+02 -0.26729085585E+02  0.16959276027E+02  0.41926780963E+02  0.00000000000E+00 0.  1.
          1    1    1    2  502    0 -0.27491706065E+02  0.26729085585E+02  0.31157224835E+02  0.49406584358E+02  0.00000000000E+00 0.  1.
</event>
<event>
 4    1  0.3555026E+003  0.2805441E+02  0.7546771E-02  0.1437294E+00
          2   -1    0    0  502    0  0.00000000000E+00  0.00000000000E+00  0.13101823757E+03  0.13101823757E+03  0.00000000000E+00 0. -1.
          1   -1    0    0  501    0 -0.00000000000E+00 -0.00000000000E+00 -0.18830198792E+03  0.18830198792E+03  0.00000000000E+00 0. -1.
          2    1    1    2  501    0  0.26456219174E+02  0.93337202020E+01  0.12845087082E+03  0.13147880468E+03  0.00000000000E+00 0. -1.
          1    1    1    2  502    0 -0.26456219174E+02 -0.93337202020E+01 -0.18573462118E+03  0.18784142080E+03  0.00000000000E+00 0. -1.
</event>
<event>
 4    1  0.3555026E+003  0.2496109E+02  0.7546771E-02  0.1469239E+00
          2   -1    0    0  502    0  0.00000000000E+00  0.00000000000E+00  0.78068312687E+02  0.78068312687E+02  0.00000000000E+00 0.  1.
          1   -1    0    0  501    0 -0.00000000000E+00 -0.00000000000E+00 -0.85924828897E+01  0.85924828897E+01  0.00000000000E+00 0.  1.
          2    1    1    2  501    0  0.24743004081E+02 -0.32923085704E+01  0.23177848744E+02  0.34062710096E+02  0.00000000000E+00 0.  1.
          1    1    1    2  502    0 -0.24743004081E+02  0.32923085704E+01  0.46297981053E+02  0.52598085481E+02  0.00000000000E+00 0.  1.
</event>
<event>
 4    1  0.3555026E+003  0.3921363E+02  0.7546771E-02  0.1353157E+00
          2   -1    0    0  502    0  0.00000000000E+00  0.00000000000E+00  0.22822509420E+01  0.22822509420E+01  0.00000000000E+00 0. -1.
          1   -1    0    0  501    0 -0.00000000000E+00 -0.00000000000E+00 -0.27621552294E+04  0.27621552294E+04  0.00000000000E+00 0. -1.
          2    1    1    2  501    0 -0.28619270754E+02  0.26807569435E+02 -0.17806449720E+03  0.18233121949E+03  0.00000000000E+00 0. -1.
          1    1    1    2  502    0  0.28619270754E+02 -0.26807569435E+02 -0.25818084813E+04  0.25821062609E+04  0.00000000000E+00 0. -1.
</event>
<event>
 4    1  0.3555026E+003  0.3399274E+02  0.7546771E-02  0.1387786E+00
          2   -1    0    0  502    0  0.00000000000E+00  0.00000000000E+00  0.54976653743E+03  0.54976653743E+03  0.00000000000E+00 0.  1.
          1   -1    0    0  501    0 -0.00000000000E+00 -0.00000000000E+00 -0.34332627365E+01  0.34332627365E+01  0.00000000000E+00 0.  1.
          2    1    1    2  501    0  0.30800581740E+02  0.14381600599E+02  0.44541731597E+03  0.44671253803E+03  0.00000000000E+00 0.  1.
          1    1    1    2  502    0 -0.30800581740E+02 -0.14381600599E+02  0.10091595872E+03  0.10648726213E+03  0.00000000000E+00 0.  1.
</event>
<event>
 4    1  0.3555026E+003  0.3155164E+02  0.7546771E-02  0.1406575E+00
          2   -1    0    0  502    0  0.00000000000E+00  0.00000000000E+00  0.10956903981E+01  0.10956903981E+01  0.00000000000E+00 0.  1.
          1   -1    0    0  501    0 -0.00000000000E+00 -0.00000000000E+00 -0.95806865864E+03  0.95806865864E+03  0.00000000000E+00 0.  1.
          2    1    1    2  501    0  0.24453409297E+02 -0.19938301251E+02 -0.58750162529E+03  0.58834825129E+03  0.00000000000E+00 0.  1.
          1    1    1    2  502    0 -0.24453409297E+02  0.19938301251E+02 -0.36947134295E+03  0.37081609774E+03  0.00000000000E+00 0.  1.
</event>
<event>
 4    1  0.3555026E+003  0.2335615E+02  0.7546771E-02  0.1488074E+00
          2   -1    0    0  502    0  0.00000000000E+00  0.00000000000E+00  0.16410490083E+02  0.16410490083E+02  0.00000000000E+00 0.  1.
          1   -1    0    0  501    0 -0.00000000000E+00 -0.00000000000E+00 -0.34328828019E+03  0.34328828019E+03  0.00000000000E+00 0.  1.
          2    1    1    2  501    0  0.19949215465E+01  0.23270797522E+02  0.74811756015E+01  0.24525042664E+02  0.00000000000E+00 0.  1.
          1    1    1    2  502    0 -0.19949215465E+01 -0.23270797522E+02 -0.33435896571E+03  0.33517372761E+03  0.00000000000E+00 0.  1.
</event>
<event>
 4    1  0.3555026E+003  0.2290945E+02  0.7546771E-02  0.1493638E+00
          2   -1    0    0  502    0  0.00000000000E+00  0.00000000000E+00  0.64187823315E+01  0.64187823315E+01  0.00000000000E+00 0.  1.
          1   -1    0    0  501    0 -0.00000000000E+00 -0.00000000000E+00 -0.50825824254E+03  0.50825824254E+03  0.00000000000E+00 0.  1.
          2    1    1    2  501    0  0.18954494894E+02 -0.12867404747E+02 -0.15188155967E+02  0.27486779791E+02  0.00000000000E+00 0.  1.
          1    1    1    2  502    0 -0.18954494894E+02  0.12867404747E+02 -0.48665130425E+03  0.48719024508E+03  0.00000000000E+00 0.  1.
</event>
<event>
 4    1  0.3555026E+003  0.3446503E+02  0.7546771E-02  0.1384364E+00
          2   -1    0    0  502    0  0.00000000000E+00  0.00000000000E+00  0.38941383947E+01  0.38941383947E+01  0.00000000000E+00 0. -1.
          1   -1    0    0  501    0 -0.00000000000E+00 -0.00000000000E+00 -0.55120534321E+03  0.55120534321E+03  0.00000000000E+00 0. -1.
          2    1    1    2  501    0 -0.34156946928E+02 -0.45979392471E+01 -0.88172502145E+02  0.94669045645E+02  0.00000000000E+00 0. -1.
          1    1    1    2  502    0  0.34156946928E+02  0.45979392471E+01 -0.45913870267E+03  0.46043043596E+03  0.00000000000E+00 0. -1.
</event>
<event>
 4    1  0.3555026E+003  0.3094881E+02  0.7546771E-02  0.1411526E+00
          2   -1    0    0  502    0  0.00000000000E+00  0.00000000000E+00  0.71265268306E+02  0.71265268306E+02  0.00000000000E+00 0.  1.
          1   -1    0    0  501    0 -0.00000000000E+00 -0.00000000000E+00 -0.14534476721E+02  0.14534476721E+02  0.00000000000E+00 0.  1.
          2    1    1    2  501    0  0.31995757240E+01  0.30782961403E+02  0.16594863458E+02  0.35117196510E+02  0.00000000000E+00 0.  1.
          1    1    1    2  502    0 -0.31995757240E+01 -0.30782961403E+02  0.40135928127E+02  0.50682548517E+02  0.00000000000E+00 0.  1.
</event>
<event>
 4    1  0.3555026E+003  0.2388442E+02  0.7546771E-02  0.1481681E+00
          2   -1    0    0  502    0  0.00000000000E+00  0.00000000000E+00  0.46853149805E+00  0.46853149805E+00  0.00000000000E+00 0. -1.
          1   -1    0    0  501    0 -0.00000000000E+00 -0.00000000000E+00 -0.12187433609E+04  0.12187433609E+04  0.00000000000E+00 0. -1.
          2    1    1    2  501    0 -0.22271803290E+02  0.86273747794E+01 -0.62813969322E+03  0.62859361993E+03  0.00000000000E+00 0. -1.
          1    1    1    2  502    0  0.22271803290E+02 -0.86273747794E+01 -0.59013513615E+03  0.59061827244E+03  0.00000000000E+00 0. -1.
</event>
<event>
 4    1  0.3555026E+003  0.4905532E+02  0.7546771E-02  0.1302321E+00
          2   -1    0    0  502    0  0.00000000000E+00  0.00000000000E+00  0.83230441012E+03  0.83230441012E+03  0.00000000000E+00 0.  1.
          1   -1    0    0  501    0 -0.00000000000E+00 -0.00000000000E+00 -0.20671550869E+02  0.20671550869E+02  0.00000000000E+00 0. -1.
          2    1    1    2  501    0 -0.49050187454E+02  0.70963259354E+00  0.80135556652E+03  0.80285563364E+03  0.00000000000E+00 0.  1.
          1    1    1    2  502    0  0.49050187454E+02 -0.70963259354E+00  0.10277292726E+02  0.50120327348E+02  0.00000000000E+00 0. -1.
</event>
<event>
 4    1  0.3555026E+003  0.2227914E+02  0.7546771E-02  0.1501754E+00
          2   -1    0    0  502    0  0.00000000000E+00  0.00000000000E+00  0.39615707957E+02  0.39615707957E+02  0.00000000000E+00 0. -1.
          1   -1    0    0  501    0 -0.00000000000E+00 -0.00000000000E+00 -0.13767645738E+02  0.13767645738E+02  0.00000000000E+00 0. -1.
          2    1    1    2  501    0  0.17414097629E+02  0.13896372622E+02  0.20928900165E+02  0.30567610806E+02  0.00000000000E+00 0. -1.
          1    1    1    2  502    0 -0.17414097629E+02 -0.13896372622E+02  0.49191620535E+01  0.22815742889E+02  0.00000000000E+00 0. -1.
</event>
<event>
 4    1  0.3555026E+003  0.3177415E+02  0.7546771E-02  0.1404781E+00
          2   -1    0    0  502    0  0.00000000000E+00  0.00000000000E+00  0.62983210444E+03  0.62983210444E+03  0.00000000000E+00 0.  1.
          1   -1    0    0  501    0 -0.00000000000E+00 -0.00000000000E+00 -0.26201040935E+03  0.26201040935E+03  0.00000000000E+00 0.  1.
          2    1    1    2  501    0  0.31568455586E+02  0.36096011022E+01  0.62846595409E+03  0.62926866445E+03  0.00000000000E+00 0.  1.
          1    1    1    2  502    0 -0.31568455586E+02 -0.36096011022E+01 -0.26064425899E+03  0.26257384934E+03  0.00000000000E+00 0.  1.
</event>
<event>
 4    1  0.3555026E+003  0.3961153E+02  0.7546771E-02  0.1350777E+00
          2   -1    0    0  502    0  0.00000000000E+00  0.00000000000E+00  0.17326612786E+03  0.17326612786E+03  0.00000000000E+00 0. -1.
          1   -1    0    0  501    0 -0.00000000000E+00 -0.00000000000E+00 -0.37126618170E+03  0.37126618170E+03  0.00000000000E+00 0. -1.
          2    1    1    2  501    0  0.38470668791E+02  0.94382800407E+01  0.16992509497E+03  0.17448097716E+03  0.00000000000E+00 0. -1.
          1    1    1    2  502    0 -0.38470668791E+02 -0.94382800407E+01 -0.36792514882E+03  0.37005133241E+03  0.00000000000E+00 0. -1.
</event>
<event>
 4    1  0.3555026E+003  0.2248916E+02  0.7546771E-02  0.1499014E+00
          2   -1    0    0  502    0  0.00000000000E+00  0.00000000000E+00  0.40352948493E+03  0.40352948493E+03  0.00000000000E+00 0.  1.
          1   -1    0    0  501    0 -0.00000000000E+00 -0.00000000000E+00 -0.18790156495E+03  0.18790156495E+03  0.00000000000E+00 0. -1.
          2    1    1    2  501    0 -0.17934157918E+02  0.13569381005E+02  0.40254158993E+03  0.40316931151E+03  0.00000000000E+00 0.  1.
          1    1    1    2  502    0  0.17934157918E+02 -0.13569381005E+02 -0.18691366994E+03  0.18826173837E+03  0.00000000000E+00 0. -1.
</event>
<event>
 4    1  0.3555026E+003  0.3015026E+02  0.7546771E-02  0.1418295E+00
          2   -1    0    0  502    0  0.00000000000E+00  0.00000000000E+00  0.32849075489E+03  0.32849075489E+03  0.00000000000E+00 0.  1.
          1   -1    0    0  501    0 -0.00000000000E+00 -0.00000000000E+00 -0.52954061965E+02  0.52954061965E+02  0.00000000000E+00 0.  1.
          2    1    1    2  501    0  0.18729517505E+02  0.23627171632E+02  0.32344042403E+03  0.32484264800E+03  0.00000000000E+00 0.  1.
          1    1    1    2  502    0 -0.18729517505E+02 -0.23627171632E+02 -0.47903731103E+02  0.56602168853E+02  0.00000000000E+00 0.  1.
</event>
<event>
 4    1  0.3555026E+003  0.2463694E+02  0.7546771E-02  0.1472906E+00
          2   -1    0    0  502    0  0.00000000000E+00  0.00000000000E+00  0.97881014527E+01  0.97881014527E+01  0.00000000000E+00 0. -1.
          1   -1    0    0  501    0 -0.00000000000E+00 -0.00000000000E+00 -0.88542307559E+02  0.88542307559E+02  0.00000000000E+00 0. -1.
          2    1    1    2  501    0 -0.24098805351E+02  0.51211588199E+01 -0.12464577151E+02  0.27610584393E+02  0.00000000000E+00 0. -1.
          1    1    1    2  502    0  0.24098805351E+02 -0.51211588199E+01 -0.66289628956E+02  0.70719824619E+02  0.00000000000E+00 0. -1.
</event>
<event>
 4    1  0.3555026E+003  0.2172717E+02  0.7546771E-02  0.1509131E+00
          2   -1    0    0  502    0  0.00000000000E+00  0.00000000000E+00  0.40268368195E+03  0.40268368195E+03  0.00000000000E+00 0. -1.
          1   -1    0    0  501    0 -0.00000000000E+00 -0.00000000000E+00 -0.15994904275E+04  0.15994904275E+04  0.00000000000E+00 0. -1.
          2    1    1    2  501    0  0.15081357429E+02  0.15640413005E+02  0.40231675294E+03  0.40290301508E+03  0.00000000000E+00 0. -1.
          1    1    1    2  502    0 -0.15081357429E+02 -0.15640413005E+02 -0.15991234985E+04  0.15992710944E+04  0.00000000000E+00 0. -1.
</event>
<event>
 4    1  0.3555026E+003  0.2811318E+02  0.7546771E-02  0.1436735E+00
          2   -1    0    0  502    0  0.00000000000E+00  0.00000000000E+00  0.78747159461E+03  0.78747159461E+03  0.00000000000E+00 0.  1.
          1   -1    0    0  501    0 -0.00000000000E+00 -0.00000000000E+00 -0.56151957692E+02  0.56151957692E+02  0.00000000000E+00 0.  1.
          2    1    1    2  501    0  0.14101871606E+01 -0.28077790659E+02  0.78368487923E+03  0.78418897014E+03  0.00000000000E+00 0.  1.
          1    1    1    2  502    0 -0.14101871606E+01  0.28077790659E+02 -0.52365242304E+02  0.59434582169E+02  0.00000000000E+00 0.  1.
</event>
<event>
 4    1  0.3555026E+003  0.5215644E+02  0.7546771E-02  0.1289084E+00
          2   -1    0    0  502    0  0.00000000000E+00  0.00000000000E+00  0.64260008160E+03  0.64260008160E+03  0.00000000000E+00 0. -1.
          1   -1    0    0  501    0 -0.00000000000E+00 -0.00000000000E+00 -0.52691067802E+01  0.52691067802E+01  0.00000000000E+00 0.  1.
          2    1    1    2  501    0 -0.22885649587E+02 -0.46867272072E+02  0.46229255324E+03  0.46522542808E+03  0.00000000000E+00 0. -1.
          1    1    1    2  502    0  0.22885649587E+02  0.46867272072E+02  0.17503842158E+03  0.18264376030E+03  0.00000000000E+00 0.  1.
</event>
<event>
 4    1  0.3555026E+003  0.2011516E+02  0.7546771E-02  0.1532283E+00
          2   -1    0    0  502    0  0.00000000000E+00  0.00000000000E+00  0.22871055727E+02  0.22871055727E+02  0.00000000000E+00 0.  1.
          1   -1    0    0  501    0 -0.00000000000E+00 -0.00000000000E+00 -0.17881690401E+02  0.17881690401E+02  0.00000000000E+00 0.  1.
          2    1    1    2  501    0  0.20106939733E+02 -0.57494180118E+00  0.45970154624E+01  0.20633762010E+02  0.00000000000E+00 0.  1.
          1    1    1    2  502    0 -0.20106939733E+02  0.57494180118E+00  0.39234986378E+00  0.20118984118E+02  0.00000000000E+00 0.  1.
</event>
<event>
 4    1  0.3555026E+003  0.2592789E+02  0.7546771E-02  0.1458685E+00
          2   -1    0    0  502    0  0.00000000000E+00  0.00000000000E+00  0.74004836079E+03  0.74004836079E+03  0.00000000000E+00 0. -1.
          1   -1    0    0  501    0 -0.00000000000E+00 -0.00000000000E+00 -0.12376143511E+02  0.12376143511E+02  0.00000000000E+00 0.  1.
          2    1    1    2  501    0 -0.22348433227E+02 -0.13145453294E+02  0.72597850239E+03  0.72644135438E+03  0.00000000000E+00 0. -1.
          1    1    1    2  502    0  0.22348433227E+02  0.13145453294E+02  0.16937148879E+01  0.25983149927E+02  0.00000000000E+00 0.  1.
</event>
<event>
 4    1  0.3555026E+003  0.2677593E+02  0.7546771E-02  0.1449872E+00
          2   -1    0    0  502    0  0.00000000000E+00  0.00000000000E+00  0.33599898419E+03  0.33599898419E+03  0.00000000000E+00 0. -1.
          1   -1    0    0  501    0 -0.00000000000E+00 -0.00000000000E+00 -0.13572292040E+03  0.13572292040E+03  0.00000000000E+00 0. -1.
          2    1    1    2  501    0 -0.12576872942E+02  0.23638374067E+02  0.33413757803E+03  0.33520869844E+03  0.00000000000E+00 0. -1.
          1    1    1    2  502    0  0.12576872942E+02 -0.23638374067E+02 -0.13386151423E+03  0.13651320615E+03  0.00000000000E+00 0. -1.
</event>
<event>
 4    1  0.3555026E+003  0.2114787E+02  0.7546771E-02  0.1517164E+00
          2   -1    0    0  502    0  0.00000000000E+00  0.00000000000E+00  0.14292029269E+04  0.14292029269E+04  0.00000000000E+00 0.  1.
          1   -1    0    0  501    0 -0.00000000000E+00 -0.00000000000E+00 -0.43365306858E+00  0.43365306858E+00  0.00000000000E+00 0.  1.
          2    1    1    2  501    0  0.13415161670E+02  0.16348273174E+02  0.10915479884E+04  0.10917528308E+04  0.00000000000E+00 0.  1.
          1    1    1    2  502    0 -0.13415161670E+02 -0.16348273174E+02  0.33722128543E+03  0.33788374915E+03  0.00000000000E+00 0.  1.
</event>
<event>
 4    1  0.3555026E+003  0.6706141E+02  0.7546771E-02  0.1237560E+00
          2   -1    0    0  502    0  0.00000000000E+00  0.00000000000E+00  0.13355398672E+03  0.13355398672E+03  0.00000000000E+00 0. -1.
          1   -1    0    0  501    0 -0.00000000000E+00 -0.00000000000E+00 -0.51543242552E+03  0.51543242552E+03  0.00000000000E+00 0. -1.
          2    1    1    2  501    0 -0.54533754097E+01 -0.66839313718E+02  0.12277529693E+03  0.13989641417E+03  0.00000000000E+00 0. -1.
          1    1    1    2  502    0  0.54533754097E+01  0.66839313718E+02 -0.50465373573E+03  0.50908999808E+03  0.00000000000E+00 0. -1.
</event>
<event>
 4    1  0.3555026E+003  0.2214680E+02  0.7546771E-02  0.1503499E+00
          2   -1    0    0  502    0  0.00000000000E+00  0.00000000000E+00  0.88295388784E+01  0.88295388784E+01  0.00000000000E+00 0.  1.
          1   -1    0    0  501    0 -0.00000000000E+00 -0.00000000000E+00 -0.16553258237E+03  0.16553258237E+03  0.00000000000E+00 0. -1.
          2    1    1    2  501    0  0.22125866077E+02 -0.96280179416E+00 -0.72887164657E+01  0.23315366707E+02  0.00000000000E+00 0.  1.
          1    1    1    2  502    0 -0.22125866077E+02  0.96280179416E+00 -0.14941432702E+03  0.15104675454E+03  0.00000000000E+00 0. -1.
</event>
<event>
 4    1  0.3555026E+003  0.2153708E+02  0.7546771E-02  0.1511733E+00
          2   -1    0    0  502    0  0.00000000000E+00  0.00000000000E+00  0.75447142797E+02  0.75447142797E+02  0.00000000000E+00 0. -1.
          1   -1    0    0  501    0 -0.00000000000E+00 -0.00000000000E+00 -0.28240915451E+03  0.28240915451E+03  0.00000000000E+00 0.  1.
          2    1    1    2  501    0 -0.10219611831E+02 -0.18957984501E+02  0.73488822478E+02  0.76579714491E+02  0.00000000000E+00 0. -1.
          1    1    1    2  502    0  0.10219611831E+02  0.18957984501E+02 -0.28045083419E+03  0.28127658281E+03  0.00000000000E+00 0.  1.
</event>
<event>
 4    1  0.3555026E+003  0.2951824E+02  0.7546771E-02  0.1423830E+00
          2   -1    0    0  502    0  0.00000000000E+00  0.00000000000E+00  0.71428203086E+03  0.71428203086E+03  0.00000000000E+00 0. -1.
          1   -1    0    0  501    0 -0.00000000000E+00 -0.00000000000E+00 -0.12558557949E+01  0.12558557949E+01  0.00000000000E+00 0. -1.
          2    1    1    2  501    0  0.21391876656E+02 -0.20339957464E+02  0.41708066977E+03  0.41812391865E+03  0.00000000000E+00 0. -1.
          1    1    1    2  502    0 -0.21391876656E+02  0.20339957464E+02  0.29594550530E+03  0.29741396800E+03  0.00000000000E+00 0. -1.
</event>
<event>
 4    1  0.5945112E+003  0.2140339E+02  0.7546771E-02  0.1513583E+00
          2   -1    0    0  502    0  0.00000000000E+00  0.00000000000E+00  0.13851828144E+04  0.13851828144E+04  0.00000000000E+00 0.  1.
          1   -1    0    0  501    0 -0.00000000000E+00 -0.00000000000E+00 -0.14800699915E+04  0.14800699915E+04  0.00000000000E+00 0. -1.
          2    1    1    2  501    0 -0.19554074106E+02 -0.87030505461E+01  0.13850227470E+04  0.13851881153E+04  0.00000000000E+00 0.  1.
          1    1    1    2  502    0  0.19554074106E+02  0.87030505461E+01 -0.14799099242E+04  0.14800646907E+04  0.00000000000E+00 0. -1.
</event>
<event>
 4    1  0.3555026E+003  0.2105654E+02  0.7546771E-02  0.1518459E+00
          2   -1    0    0  502    0  0.00000000000E+00  0.00000000000E+00  0.10238198011E+03  0.10238198011E+03  0.00000000000E+00 0. -1.
          1   -1    0    0  501    0 -0.00000000000E+00 -0.00000000000E+00 -0.44241641366E+01  0.44241641366E+01  0.00000000000E+00 0. -1.
          2    1    1    2  501    0 -0.11059198118E+02  0.17918484815E+02  0.56744013106E+02  0.60524879053E+02  0.00000000000E+00 0. -1.
          1    1    1    2  502    0  0.11059198118E+02 -0.17918484815E+02  0.41213802866E+02  0.46281265192E+02  0.00000000000E+00 0. -1.
</event>
<event>
 4    1  0.3555026E+003  0.2393123E+02  0.7546771E-02  0.1481124E+00
          2   -1    0    0  502    0  0.00000000000E+00  0.00000000000E+00  0.27645495771E+02  0.27645495771E+02  0.00000000000E+00 0. -1.
          1   -1    0    0  501    0 -0.00000000000E+00 -0.00000000000E+00 -0.23183838656E+02  0.23183838656E+02  0.00000000000E+00 0. -1.
          2    1    1    2  501    0 -0.24298299506E+01  0.23807555356E+02  0.10522673448E+02  0.26142502216E+02  0.00000000000E+00 0. -1.
          1    1    1    2  502    0  0.24298299506E+01 -0.23807555356E+02 -0.60610163323E+01  0.24686832211E+02  0.00000000000E+00 0. -1.
</event>
<event>
 4    1  0.3555026E+003  0.2619481E+02  0.7546771E-02  0.1455868E+00
          2   -1    0    0  502    0  0.00000000000E+00  0.00000000000E+00  0.59327034342E+01  0.59327034342E+01  0.00000000000E+00 0. -1.
          1   -1    0    0  501    0 -0.00000000000E+00 -0.00000000000E+00 -0.13018871373E+04  0.13018871373E+04  0.00000000000E+00 0. -1.
          2    1    1    2  501    0  0.79850502705E+01 -0.24948084214E+02 -0.23789167943E+02  0.35384918330E+02  0.00000000000E+00 0. -1.
          1    1    1    2  502    0 -0.79850502705E+01  0.24948084214E+02 -0.12721652659E+04  0.12724349224E+04  0.00000000000E+00 0. -1.
</event>
<event>
 4    1  0.3555026E+003  0.2057332E+02  0.7546771E-02  0.1525445E+00
          2   -1    0    0  502    0  0.00000000000E+00  0.00000000000E+00  0.23419401355E+03  0.23419401355E+03  0.00000000000E+00 0. -1.
          1   -1    0    0  501    0 -0.00000000000E+00 -0.00000000000E+00 -0.60123475294E+03  0.60123475294E+03  0.00000000000E+00 0.  1.
          2    1    1    2  501    0  0.57395554214E+01 -0.19756488406E+02  0.23356571667E+03  0.23447005211E+03  0.00000000000E+00 0. -1.
          1    1    1    2  502    0 -0.57395554214E+01  0.19756488406E+02 -0.60060645606E+03  0.60095871439E+03  0.00000000000E+00 0.  1.
</event>
<event>
 4    1  0.3555026E+003  0.2127018E+02  0.7546771E-02  0.1515442E+00
          2   -1    0    0  502    0  0.00000000000E+00  0.00000000000E+00  0.12790892189E+04  0.12790892189E+04  0.00000000000E+00 0. -1.
          1   -1    0    0  501    0 -0.00000000000E+00 -0.00000000000E+00 -0.49120860721E+01  0.49120860721E+01  0.00000000000E+00 0.  1.
          2    1    1    2  501    0  0.11214566218E+02 -0.18073576996E+02  0.12555431088E+04  0.12557232652E+04  0.00000000000E+00 0. -1.
          1    1    1    2  502    0 -0.11214566218E+02  0.18073576996E+02  0.18634023944E+02  0.28278039700E+02  0.00000000000E+00 0.  1.
</event>
<event>
 4    1  0.3555026E+003  0.7578178E+02  0.7546771E-02  0.1213994E+00
          2   -1    0    0  502    0  0.00000000000E+00  0.00000000000E+00  0.15115774343E+03  0.15115774343E+03  0.00000000000E+00 0. -1.
          1   -1    0    0  501    0 -0.00000000000E+00 -0.00000000000E+00 -0.16248046043E+03  0.16248046043E+03  0.00000000000E+00 0. -1.
          2    1    1    2  501    0 -0.59508896352E+02  0.46920883961E+02  0.13160428976E+03  0.15186364667E+03  0.00000000000E+00 0. -1.
          1    1    1    2  502    0  0.59508896352E+02 -0.46920883961E+02 -0.14292700675E+03  0.16177455719E+03  0.00000000000E+00 0. -1.
</event>
<event>
 4    1  0.3555026E+003  0.4057984E+02  0.7546771E-02  0.1345121E+00
          2   -1    0    0  502    0  0.00000000000E+00  0.00000000000E+00  0.58322577257E+02  0.58322577257E+02  0.00000000000E+00 0. -1.
          1   -1    0    0  501    0 -0.00000000000E+00 -0.00000000000E+00 -0.70335613521E+02  0.70335613521E+02  0.00000000000E+00 0. -1.
          2    1    1    2  501    0  0.32653238415E+02  0.24093348664E+02  0.43763213905E+02  0.59682010021E+02  0.00000000000E+00 0. -1.
          1    1    1    2  502    0 -0.32653238415E+02 -0.24093348664E+02 -0.55776250169E+02  0.68976180757E+02  0.00000000000E+00 0. -1.
</event>
<event>
 4    1  0.5375348E+003  0.3307748E+02  0.7546771E-02  0.1394607E+00
          2   -1    0    0  502    0  0.00000000000E+00  0.00000000000E+00  0.98418422432E+03  0.98418422432E+03  0.00000000000E+00 0. -1.
          1   -1    0    0  501    0 -0.00000000000E+00 -0.00000000000E+00 -0.94755054655E+03  0.94755054655E+03  0.00000000000E+00 0.  1.
          2    1    1    2  501    0  0.32906527349E+02 -0.33585925049E+01  0.98361746197E+03  0.98417347617E+03  0.00000000000E+00 0. -1.
          1    1    1    2  502    0 -0.32906527349E+02  0.33585925049E+01 -0.94698378420E+03  0.94756129470E+03  0.00000000000E+00 0.  1.
</event>
<event>
 4    1  0.3555026E+003  0.2547387E+02  0.7546771E-02  0.1463571E+00
          2   -1    0    0  502    0  0.00000000000E+00  0.00000000000E+00  0.65561240167E+01  0.65561240167E+01  0.00000000000E+00 0.  1.
          1   -1    0    0  501    0 -0.00000000000E+00 -0.00000000000E+00 -0.81864881795E+03  0.81864881795E+03  0.00000000000E+00 0.  1.
          2    1    1    2  501    0  0.10273438513E+01  0.25453144867E+02 -0.19190044690E+02  0.31893194168E+02  0.00000000000E+00 0.  1.
          1    1    1    2  502    0 -0.10273438513E+01 -0.25453144867E+02 -0.79290264924E+03  0.79331174779E+03  0.00000000000E+00 0.  1.
</event>
<event>
 4    1  0.3555026E+003  0.2712661E+02  0.7546771E-02  0.1446340E+00
          2   -1    0    0  502    0  0.00000000000E+00  0.00000000000E+00  0.54832527398E+03  0.54832527398E+03  0.00000000000E+00 0.  1.
          1   -1    0    0  501    0 -0.00000000000E+00 -0.00000000000E+00 -0.25996631360E+01  0.25996631360E+01  0.00000000000E+00 0. -1.
          2    1    1    2  501    0  0.94440793426E+01 -0.25429556454E+02  0.46445857626E+03  0.46525006398E+03  0.00000000000E+00 0.  1.
          1    1    1    2  502    0 -0.94440793426E+01  0.25429556454E+02  0.81267034588E+02  0.85674873136E+02  0.00000000000E+00 0. -1.
</event>
<event>
 4    1  0.3555026E+003  0.3485422E+02  0.7546771E-02  0.1381591E+00
          2   -1    0    0  502    0  0.00000000000E+00  0.00000000000E+00  0.39990640865E+02  0.39990640865E+02  0.00000000000E+00 0. -1.
          1   -1    0    0  501    0 -0.00000000000E+00 -0.00000000000E+00 -0.42390306177E+03  0.42390306177E+03  0.00000000000E+00 0. -1.
          2    1    1    2  501    0 -0.65080693624E+01 -0.34241230165E+02  0.31525333459E+02  0.46996419648E+02  0.00000000000E+00 0. -1.
          1    1    1    2  502    0  0.65080693624E+01  0.34241230165E+02 -0.41543775436E+03  0.41689728298E+03  0.00000000000E+00 0. -1.
</event>
<event>
 4    1  0.3555026E+003  0.7497626E+02  0.7546771E-02  0.1216017E+00
          2   -1    0    0  502    0  0.00000000000E+00  0.00000000000E+00  0.67985682412E+02  0.67985682412E+02  0.00000000000E+00 0. -1.
          1   -1    0    0  501    0 -0.00000000000E+00 -0.00000000000E+00 -0.82687583133E+02  0.82687583133E+02  0.00000000000E+00 0. -1.
          2    1    1    2  501    0 -0.62615958896E+02  0.41239320139E+02 -0.69859840060E+01  0.75301021285E+02  0.00000000000E+00 0. -1.
          1    1    1    2  502    0  0.62615958896E+02 -0.41239320139E+02 -0.77159167149E+01  0.75372244260E+02  0.00000000000E+00 0. -1.
</event>
<event>
 4    1  0.3555026E+003  0.2176995E+02  0.7546771E-02  0.1508550E+00
          2   -1    0    0  502    0  0.00000000000E+00  0.00000000000E+00  0.68069302752E+03  0.68069302752E+03  0.00000000000E+00 0.  1.
          1   -1    0    0  501    0 -0.00000000000E+00 -0.00000000000E+00 -0.68873702028E+01  0.68873702028E+01  0.00000000000E+00 0.  1.
          2    1    1    2  501    0  0.21757993190E+02 -0.72149103939E+00  0.66285320238E+03  0.66321059907E+03  0.00000000000E+00 0.  1.
          1    1    1    2  502    0 -0.21757993190E+02  0.72149103939E+00  0.10952454932E+02  0.24369798645E+02  0.00000000000E+00 0.  1.
</event>
<event>
 4    1  0.3555026E+003  0.3616368E+02  0.7546771E-02  0.1372562E+00
          2   -1    0    0  502    0  0.00000000000E+00  0.00000000000E+00  0.27708395925E+01  0.27708395925E+01  0.00000000000E+00 0. -1.
          1   -1    0    0  501    0 -0.00000000000E+00 -0.00000000000E+00 -0.48210989595E+03  0.48210989595E+03  0.00000000000E+00 0. -1.
          2    1    1    2  501    0 -0.15670317596E+02  0.32592225623E+02 -0.20454639488E+03  0.20771865511E+03  0.00000000000E+00 0. -1.
          1    1    1    2  502    0  0.15670317596E+02 -0.32592225623E+02 -0.27479266148E+03  0.27716208043E+03  0.00000000000E+00 0. -1.
</event>
<event>
 4    1  0.3555026E+003  0.2029155E+02  0.7546771E-02  0.1529625E+00
          2   -1    0    0  502    0  0.00000000000E+00  0.00000000000E+00  0.66741475515E+01  0.66741475515E+01  0.00000000000E+00 0.  1.
          1   -1    0    0  501    0 -0.00000000000E+00 -0.00000000000E+00 -0.49130068426E+03  0.49130068426E+03  0.00000000000E+00 0.  1.
          2    1    1    2  501    0  0.93724043205E+01  0.17997358883E+02 -0.94827891720E+01  0.22397994999E+02  0.00000000000E+00 0.  1.
          1    1    1    2  502    0 -0.93724043205E+01 -0.17997358883E+02 -0.47514374754E+03  0.47557683681E+03  0.00000000000E+00 0.  1.
</event>
<event>
 4    1  0.3555026E+003  0.3225761E+02  0.7546771E-02  0.1400941E+00
          2   -1    0    0  502    0  0.00000000000E+00  0.00000000000E+00  0.35083299631E+01  0.35083299631E+01  0.00000000000E+00 0. -1.
          1   -1    0    0  501    0 -0.00000000000E+00 -0.00000000000E+00 -0.14350639083E+04  0.14350639083E+04  0.00000000000E+00 0. -1.
          2    1    1    2  501    0  0.32137551245E+02 -0.27805563388E+01 -0.75119256650E+02  0.81752409219E+02  0.00000000000E+00 0. -1.
          1    1    1    2  502    0 -0.32137551245E+02  0.27805563388E+01 -0.13564363217E+04  0.13568198290E+04  0.00000000000E+00 0. -1.
</event>
<event>
 4    1  0.3555026E+003  0.2713464E+02  0.7546771E-02  0.1446260E+00
          2   -1    0    0  502    0  0.00000000000E+00  0.00000000000E+00  0.63170188457E+03  0.63170188457E+03  0.00000000000E+00 0.  1.
          1   -1    0    0  501    0 -0.00000000000E+00 -0.00000000000E+00 -0.88522108853E+01  0.88522108853E+01  0.00000000000E+00 0. -1.
          2    1    1    2  501    0 -0.27129217719E+02 -0.54236753816E+00  0.60987266454E+03  0.61047600737E+03  0.00000000000E+00 0.  1.
          1    1    1    2  502    0  0.27129217719E+02  0.54236753816E+00  0.12977009139E+02  0.30078088084E+02  0.00000000000E+00 0. -1.
</event>
<event>
 4    1  0.3555026E+003  0.2169254E+02  0.7546771E-02  0.1509603E+00
          2   -1    0    0  502    0  0.00000000000E+00  0.00000000000E+00  0.30914713523E+02  0.30914713523E+02  0.00000000000E+00 0. -1.
          1   -1    0    0  501    0 -0.00000000000E+00 -0.00000000000E+00 -0.38661012662E+03  0.38661012662E+03  0.00000000000E+00 0. -1.
          2    1    1    2  501    0  0.20189299590E+02  0.79346498479E+01  0.26763795934E+02  0.34450939885E+02  0.00000000000E+00 0. -1.
          1    1    1    2  502    0 -0.20189299590E+02 -0.79346498479E+01 -0.38245920903E+03  0.38307390025E+03  0.00000000000E+00 0. -1.
</event>
<event>
 4    1  0.3555026E+003  0.3891156E+02  0.7546771E-02  0.1354985E+00
          2   -1    0    0  502    0  0.00000000000E+00  0.00000000000E+00  0.85905174405E+02  0.85905174405E+02  0.00000000000E+00 0. -1.
          1   -1    0    0  501    0 -0.00000000000E+00 -0.00000000000E+00 -0.20415448162E+02  0.20415448162E+02  0.00000000000E+00 0.  1.
          2    1    1    2  501    0 -0.28034690384E+02 -0.26984549836E+02  0.52397320608E+02  0.65265526901E+02  0.00000000000E+00 0. -1.
          1    1    1    2  502    0  0.28034690384E+02  0.26984549836E+02  0.13092405635E+02  0.41055095666E+02  0.00000000000E+00 0.  1.
</event>
<event>
 4    1  0.3555026E+003  0.2712658E+02  0.7546771E-02  0.1446341E+00
          2   -1    0    0  502    0  0.00000000000E+00  0.00000000000E+00  0.20580690907E+01  0.20580690907E+01  0.00000000000E+00 0.  1.
          1   -1    0    0  501    0 -0.00000000000E+00 -0.00000000000E+00 -0.17780047743E+04  0.17780047743E+04  0.00000000000E+00 0.  1.
          2    1    1    2  501    0  0.23534367440E+02  0.13490167827E+02 -0.92449072371E+02  0.96346676441E+02  0.00000000000E+00 0.  1.
          1    1    1    2  502    0 -0.23534367440E+02 -0.13490167827E+02 -0.16834976328E+04  0.16837161669E+04  0.00000000000E+00 0.  1.
</event>
<event>
 4    1  0.3555026E+003  0.2538521E+02  0.7546771E-02  0.1464540E+00
          2   -1    0    0  502    0  0.00000000000E+00  0.00000000000E+00  0.18443626757E+02  0.18443626757E+02  0.00000000000E+00 0. -1.
          1   -1    0    0  501    0 -0.00000000000E+00 -0.00000000000E+00 -0.72096871254E+02  0.72096871254E+02  0.00000000000E+00 0. -1.
          2    1    1    2  501    0 -0.12243010646E+02 -0.22237748646E+02  0.56729691554E+01  0.26011369698E+02  0.00000000000E+00 0. -1.
          1    1    1    2  502    0  0.12243010646E+02  0.22237748646E+02 -0.59326213652E+02  0.64529128313E+02  0.00000000000E+00 0. -1.
</event>
<event>
 4    1  0.3555026E+003  0.2444249E+02  0.7546771E-02  0.1475138E+00
          2   -1    0    0  502    0  0.00000000000E+00  0.00000000000E+00  0.34134740931E+02  0.34134740931E+02  0.00000000000E+00 0.  1.
          1   -1    0    0  501    0 -0.00000000000E+00 -0.00000000000E+00 -0.32046351747E+03  0.32046351747E+03  0.00000000000E+00 0.  1.
          2    1    1    2  501    0 -0.10236499666E+02 -0.22195702597E+02  0.29225128267E+02  0.38099124156E+02  0.00000000000E+00 0.  1.
          1    1    1    2  502    0  0.10236499666E+02  0.22195702597E+02 -0.31555390481E+03  0.31649913425E+03  0.00000000000E+00 0.  1.
</event>
<event>
 4    1  0.3555026E+003  0.2269759E+02  0.7546771E-02  0.1496331E+00
          2   -1    0    0  502    0  0.00000000000E+00  0.00000000000E+00  0.60449479739E+02  0.60449479739E+02  0.00000000000E+00 0. -1.
          1   -1    0    0  501    0 -0.00000000000E+00 -0.00000000000E+00 -0.53194945641E+03  0.53194945641E+03  0.00000000000E+00 0. -1.
          2    1    1    2  501    0  0.11637846251E+02  0.19486947482E+02  0.58067155539E+02  0.62345610431E+02  0.00000000000E+00 0. -1.
          1    1    1    2  502    0 -0.11637846251E+02 -0.19486947482E+02 -0.52956713221E+03  0.53005332572E+03  0.00000000000E+00 0. -1.
</event>
<event>
 4    1  0.3555026E+003  0.2185410E+02  0.7546771E-02  0.1507411E+00
          2   -1    0    0  502    0  0.00000000000E+00  0.00000000000E+00  0.43395475272E+03  0.43395475272E+03  0.00000000000E+00 0.  1.
          1   -1    0    0  501    0 -0.00000000000E+00 -0.00000000000E+00 -0.16638296377E+01  0.16638296377E+01  0.00000000000E+00 0.  1.
          2    1    1    2  501    0  0.21307841230E+02  0.48556597257E+01  0.34287352046E+03  0.34356928349E+03  0.00000000000E+00 0.  1.
          1    1    1    2  502    0 -0.21307841230E+02 -0.48556597257E+01  0.89417402622E+02  0.92049298862E+02  0.00000000000E+00 0.  1.
</event>
<event>
 4    1  0.3555026E+003  0.5329324E+02  0.7546771E-02  0.1284492E+00
          2   -1    0    0  502    0  0.00000000000E+00  0.00000000000E+00  0.66993397477E+03  0.66993397477E+03  0.00000000000E+00 0. -1.
          1   -1    0    0  501    0 -0.00000000000E+00 -0.00000000000E+00 -0.42604906835E+01  0.42604906835E+01  0.00000000000E+00 0. -1.
          2    1    1    2  501    0  0.24438639779E+02 -0.47359501199E+02  0.35651118138E+03  0.36047245653E+03  0.00000000000E+00 0. -1.
          1    1    1    2  502    0 -0.24438639779E+02  0.47359501199E+02  0.30916230271E+03  0.31372200893E+03  0.00000000000E+00 0. -1.
</event>
<event>
 4    1  0.3555026E+003  0.2442895E+02  0.7546771E-02  0.1475294E+00
          2   -1    0    0  502    0  0.00000000000E+00  0.00000000000E+00  0.10283043568E+02  0.10283043568E+02  0.00000000000E+00 0. -1.
          1   -1    0    0  501    0 -0.00000000000E+00 -0.00000000000E+00 -0.32727724883E+03  0.32727724883E+03  0.00000000000E+00 0. -1.
          2    1    1    2  501    0  0.51573838955E+01 -0.23878339172E+02 -0.54111748147E+01  0.25021081174E+02  0.00000000000E+00 0. -1.
          1    1    1    2  502    0 -0.51573838955E+01  0.23878339172E+02 -0.31158303044E+03  0.31253921122E+03  0.00000000000E+00 0. -1.
</event>
<event>
 4    1  0.3555026E+003  0.2039529E+02  0.7546771E-02  0.1528076E+00
          2   -1    0    0  502    0  0.00000000000E+00  0.00000000000E+00  0.11758159004E+03  0.11758159004E+03  0.00000000000E+00 0.  1.
          1   -1    0    0  501    0 -0.00000000000E+00 -0.00000000000E+00 -0.39904567830E+02  0.39904567830E+02  0.00000000000E+00 0. -1.
          2    1    1    2  501    0 -0.16525145401E+02  0.11953555164E+02  0.11401015707E+03  0.11582004933E+03  0.00000000000E+00 0.  1.
          1    1    1    2  502    0  0.16525145401E+02 -0.11953555164E+02 -0.36333134864E+02  0.41666108537E+02  0.00000000000E+00 0. -1.
</event>
<event>
 4    1  0.3555026E+003  0.2828343E+02  0.7546771E-02  0.1435125E+00
          2   -1    0    0  502    0  0.00000000000E+00  0.00000000000E+00  0.66974692535E+03  0.66974692535E+03  0.00000000000E+00 0. -1.
          1   -1    0    0  501    0 -0.00000000000E+00 -0.00000000000E+00 -0.40339250692E+01  0.40339250692E+01  0.00000000000E+00 0. -1.
          2    1    1    2  501    0 -0.21292379256E+02 -0.18616842463E+02  0.61550511722E+03  0.61615460848E+03  0.00000000000E+00 0. -1.
          1    1    1    2  502    0  0.21292379256E+02  0.18616842463E+02  0.50207883068E+02  0.57626241937E+02  0.00000000000E+00 0. -1.
</event>
<event>
 4    1  0.3555026E+003  0.3933464E+02  0.7546771E-02  0.1352430E+00
          2   -1    0    0  502    0  0.00000000000E+00  0.00000000000E+00  0.59723410031E+02  0.59723410031E+02  0.00000000000E+00 0.  1.
          1   -1    0    0  501    0 -0.00000000000E+00 -0.00000000000E+00 -0.12305336887E+03  0.12305336887E+03  0.00000000000E+00 0. -1.
          2    1    1    2  501    0 -0.38614784101E+02  0.74908086811E+01  0.49535590245E+02  0.63253367236E+02  0.00000000000E+00 0.  1.
          1    1    1    2  502    0  0.38614784101E+02 -0.74908086811E+01 -0.11286554908E+03  0.11952341166E+03  0.00000000000E+00 0. -1.
</event>
<event>
 4    1  0.3555026E+003  0.2403335E+02  0.7546771E-02  0.1479915E+00
          2   -1    0    0  502    0  0.00000000000E+00  0.00000000000E+00  0.46660054037E+03  0.46660054037E+03  0.00000000000E+00 0. -1.
          1   -1    0    0  501    0 -0.00000000000E+00 -0.00000000000E+00 -0.26028609254E+01  0.26028609254E+01  0.00000000000E+00 0.  1.
          2    1    1    2  501    0 -0.17258628182E+02  0.16725475830E+02  0.40188844743E+03  0.40260641570E+03  0.00000000000E+00 0. -1.
          1    1    1    2  502    0  0.17258628182E+02 -0.16725475830E+02  0.62109232021E+02  0.66596985598E+02  0.00000000000E+00 0.  1.
</event>
<event>
 4    1  0.3555026E+003  0.2017896E+02  0.7546771E-02  0.1531317E+00
          2   -1    0    0  502    0  0.00000000000E+00  0.00000000000E+00  0.13021905786E+03  0.13021905786E+03  0.00000000000E+00 0. -1.
          1   -1    0    0  501    0 -0.00000000000E+00 -0.00000000000E+00 -0.73337568511E+01  0.73337568511E+01  0.00000000000E+00 0.  1.
          2    1    1    2  501    0  0.18795938779E+02  0.73418820261E+01  0.11353233188E+03  0.11531166866E+03  0.00000000000E+00 0. -1.
          1    1    1    2  502    0 -0.18795938779E+02 -0.73418820261E+01  0.93529691279E+01  0.22241146054E+02  0.00000000000E+00 0.  1.
</event>
<event>
 4    1  0.3555026E+003  0.3440745E+02  0.7546771E-02  0.1384778E+00
          2   -1    0    0  502    0  0.00000000000E+00  0.00000000000E+00  0.65264662814E+02  0.65264662814E+02  0.00000000000E+00 0.  1.
          1   -1    0    0  501    0 -0.00000000000E+00 -0.00000000000E+00 -0.11115769700E+03  0.11115769700E+03  0.00000000000E+00 0. -1.
          2    1    1    2  501    0 -0.62043385948E+01 -0.33843441514E+02  0.57746820069E+02  0.67220291423E+02  0.00000000000E+00 0.  1.
          1    1    1    2  502    0  0.62043385948E+01  0.33843441514E+02 -0.10363985426E+03  0.10920206839E+03  0.00000000000E+00 0. -1.
</event>
<event>
 4    1  0.3555026E+003  0.2113967E+02  0.7546771E-02  0.1517280E+00
          2   -1    0    0  502    0  0.00000000000E+00  0.00000000000E+00  0.90246319837E+03  0.90246319837E+03  0.00000000000E+00 0.  1.
          1   -1    0    0  501    0 -0.00000000000E+00 -0.00000000000E+00 -0.26657907421E+02  0.26657907421E+02  0.00000000000E+00 0.  1.
          2    1    1    2  501    0  0.65667028458E+01  0.20093882706E+02  0.89812824679E+03  0.89837699959E+03  0.00000000000E+00 0.  1.
          1    1    1    2  502    0 -0.65667028458E+01 -0.20093882706E+02 -0.22322955843E+02  0.30744106200E+02  0.00000000000E+00 0.  1.
</event>
<event>
 4    1  0.3555026E+003  0.2433959E+02  0.7546771E-02  0.1476329E+00
          2   -1    0    0  502    0  0.00000000000E+00  0.00000000000E+00  0.17007420689E+04  0.17007420689E+04  0.00000000000E+00 0. -1.
          1   -1    0    0  501    0 -0.00000000000E+00 -0.00000000000E+00 -0.97421747085E+00  0.97421747085E+00  0.00000000000E+00 0.  1.
          2    1    1    2  501    0  0.71257750035E+01  0.23273138030E+02  0.15318741030E+04  0.15320674538E+04  0.00000000000E+00 0. -1.
          1    1    1    2  502    0 -0.71257750035E+01 -0.23273138030E+02  0.16789374845E+03  0.16964883257E+03  0.00000000000E+00 0.  1.
</event>
<event>
 4    1  0.3555026E+003  0.2229971E+02  0.7546771E-02  0.1501484E+00
          2   -1    0    0  502    0  0.00000000000E+00  0.00000000000E+00  0.35130819414E+01  0.35130819414E+01  0.00000000000E+00 0.  1.
          1   -1    0    0  501    0 -0.00000000000E+00 -0.00000000000E+00 -0.31834557189E+03  0.31834557189E+03  0.00000000000E+00 0.  1.
          2    1    1    2  501    0 -0.17055625589E+02 -0.14366031569E+02 -0.37488045765E+02  0.43619156371E+02  0.00000000000E+00 0.  1.
          1    1    1    2  502    0  0.17055625589E+02  0.14366031569E+02 -0.27734444418E+03  0.27823949746E+03  0.00000000000E+00 0.  1.
</event>
<event>
 4    1  0.3555026E+003  0.2154964E+02  0.7546771E-02  0.1511560E+00
          2   -1    0    0  502    0  0.00000000000E+00  0.00000000000E+00  0.11887989562E+02  0.11887989562E+02  0.00000000000E+00 0. -1.
          1   -1    0    0  501    0 -0.00000000000E+00 -0.00000000000E+00 -0.14081668809E+04  0.14081668809E+04  0.00000000000E+00 0.  1.
          2    1    1    2  501    0  0.36452521585E+01 -0.21239097296E+02  0.19703917935E+01  0.21639536988E+02  0.00000000000E+00 0. -1.
          1    1    1    2  502    0 -0.36452521585E+01  0.21239097296E+02 -0.13982492832E+04  0.13984153335E+04  0.00000000000E+00 0.  1.
</event>
<event>
 4    1  0.3555026E+003  0.2217961E+02  0.7546771E-02  0.1503065E+00
          2   -1    0    0  502    0  0.00000000000E+00  0.00000000000E+00  0.20906700734E+03  0.20906700734E+03  0.00000000000E+00 0.  1.
          1   -1    0    0  501    0 -0.00000000000E+00 -0.00000000000E+00 -0.76328289557E+01  0.76328289557E+01  0.00000000000E+00 0.  1.
          2    1    1    2  501    0  0.15809360564E+02 -0.15556319436E+02  0.19083179984E+03  0.19211639906E+03  0.00000000000E+00 0.  1.
          1    1    1    2  502    0 -0.15809360564E+02  0.15556319436E+02  0.10602378548E+02  0.24583437244E+02  0.00000000000E+00 0.  1.
</event>
<event>
 4    1  0.3555026E+003  0.2767813E+02  0.7546771E-02  0.1440913E+00
          2   -1    0    0  502    0  0.00000000000E+00  0.00000000000E+00  0.38476725047E+01  0.38476725047E+01  0.00000000000E+00 0. -1.
          1   -1    0    0  501    0 -0.00000000000E+00 -0.00000000000E+00 -0.30459223460E+03  0.30459223460E+03  0.00000000000E+00 0.  1.
          2    1    1    2  501    0  0.26136255016E+02  0.91090690312E+01 -0.59613750013E+02  0.65725779992E+02  0.00000000000E+00 0. -1.
          1    1    1    2  502    0 -0.26136255016E+02 -0.91090690312E+01 -0.24113081208E+03  0.24271412711E+03  0.00000000000E+00 0.  1.
</event>
<event>
 4    1  0.3555026E+003  0.3854894E+02  0.7546771E-02  0.1357205E+00
          2   -1    0    0  502    0  0.00000000000E+00  0.00000000000E+00  0.17651047578E+04  0.17651047578E+04  0.00000000000E+00 0.  1.
          1   -1    0    0  501    0 -0.00000000000E+00 -0.00000000000E+00 -0.12172574479E+01  0.12172574479E+01  0.00000000000E+00 0.  1.
          2    1    1    2  501    0  0.36895619812E+02 -0.11168422274E+02  0.13723750263E+04  0.13729163242E+04  0.00000000000E+00 0.  1.
          1    1    1    2  502    0 -0.36895619812E+02  0.11168422274E+02  0.39151247397E+03  0.39340569098E+03  0.00000000000E+00 0.  1.
</event>
<event>
 4    1  0.3555026E+003  0.2168745E+02  0.7546771E-02  0.1509672E+00
          2   -1    0    0  502    0  0.00000000000E+00  0.00000000000E+00  0.12324059493E+02  0.12324059493E+02  0.00000000000E+00 0. -1.
          1   -1    0    0  501    0 -0.00000000000E+00 -0.00000000000E+00 -0.61148934788E+02  0.61148934788E+02  0.00000000000E+00 0.  1.
          2    1    1    2  501    0 -0.21364212262E+02  0.37304195240E+01 -0.18899103089E+01  0.21769643000E+02  0.00000000000E+00 0. -1.
          1    1    1    2  502    0  0.21364212262E+02 -0.37304195240E+01 -0.46934964986E+02  0.51703351280E+02  0.00000000000E+00 0.  1.
</event>
<event>
 4    1  0.3555026E+003  0.5182700E+02  0.7546771E-02  0.1290440E+00
          2   -1    0    0  502    0  0.00000000000E+00  0.00000000000E+00  0.92283747090E+02  0.92283747090E+02  0.00000000000E+00 0. -1.
          1   -1    0    0  501    0 -0.00000000000E+00 -0.00000000000E+00 -0.18366813256E+03  0.18366813256E+03  0.00000000000E+00 0. -1.
          2    1    1    2  501    0 -0.41965917717E+02 -0.30412170234E+02  0.80879790823E+02  0.96060287902E+02  0.00000000000E+00 0. -1.
          1    1    1    2  502    0  0.41965917717E+02  0.30412170234E+02 -0.17226417630E+03  0.17989159175E+03  0.00000000000E+00 0. -1.
</event>
<event>
 4    1  0.3555026E+003  0.5032969E+02  0.7546771E-02  0.1296749E+00
          2   -1    0    0  502    0  0.00000000000E+00  0.00000000000E+00  0.65193539437E+02  0.65193539437E+02  0.00000000000E+00 0. -1.
          1   -1    0    0  501    0 -0.00000000000E+00 -0.00000000000E+00 -0.98447823111E+02  0.98447823111E+02  0.00000000000E+00 0.  1.
          2    1    1    2  501    0 -0.48101204943E+01  0.50099301193E+02  0.47031593101E+02  0.68884308727E+02  0.00000000000E+00 0. -1.
          1    1    1    2  502    0  0.48101204943E+01 -0.50099301193E+02 -0.80285876775E+02  0.94757053820E+02  0.00000000000E+00 0.  1.
</event>
<event>
 4    1  0.3555026E+003  0.5041480E+02  0.7546771E-02  0.1296384E+00
          2   -1    0    0  502    0  0.00000000000E+00  0.00000000000E+00  0.78425858542E+02  0.78425858542E+02  0.00000000000E+00 0.  1.
          1   -1    0    0  501    0 -0.00000000000E+00 -0.00000000000E+00 -0.44236921408E+03  0.44236921408E+03  0.00000000000E+00 0. -1.
          2    1    1    2  501    0 -0.30679565823E+02  0.40005203214E+02  0.68705979565E+02  0.85218329433E+02  0.00000000000E+00 0.  1.
          1    1    1    2  502    0  0.30679565823E+02 -0.40005203214E+02 -0.43264933511E+03  0.43557674319E+03  0.00000000000E+00 0. -1.
</event>
<event>
 4    1  0.3555026E+003  0.2876335E+02  0.7546771E-02  0.1430656E+00
          2   -1    0    0  502    0  0.00000000000E+00  0.00000000000E+00  0.37253848260E+03  0.37253848260E+03  0.00000000000E+00 0. -1.
          1   -1    0    0  501    0 -0.00000000000E+00 -0.00000000000E+00 -0.31476827731E+02  0.31476827731E+02  0.00000000000E+00 0.  1.
          2    1    1    2  501    0  0.21621247329E+02  0.18969759082E+02  0.36528200642E+03  0.36641271035E+03  0.00000000000E+00 0. -1.
          1    1    1    2  502    0 -0.21621247329E+02 -0.18969759082E+02 -0.24220351551E+02  0.37602599976E+02  0.00000000000E+00 0.  1.
</event>
<event>
 4    1  0.3555026E+003  0.2023482E+02  0.7546771E-02  0.1530476E+00
          2   -1    0    0  502    0  0.00000000000E+00  0.00000000000E+00  0.86379465685E+03  0.86379465685E+03  0.00000000000E+00 0. -1.
          1   -1    0    0  501    0 -0.00000000000E+00 -0.00000000000E+00 -0.12864342192E+03  0.12864342192E+03  0.00000000000E+00 0. -1.
          2    1    1    2  501    0  0.19789760277E+02  0.42205877396E+01  0.86287960718E+03  0.86311683129E+03  0.00000000000E+00 0. -1.
          1    1    1    2  502    0 -0.19789760277E+02 -0.42205877396E+01 -0.12772837225E+03  0.12932124748E+03  0.00000000000E+00 0. -1.
</event>
<event>
 4    1  0.3555026E+003  0.2061570E+02  0.7546771E-02  0.1524823E+00
          2   -1    0    0  502    0  0.00000000000E+00  0.00000000000E+00  0.78381027290E+03  0.78381027290E+03  0.00000000000E+00 0. -1.
          1   -1    0    0  501    0 -0.00000000000E+00 -0.00000000000E+00 -0.41081982996E+01  0.41081982996E+01  0.00000000000E+00 0. -1.
          2    1    1    2  501    0 -0.25347207556E+01  0.20459281962E+02  0.75689171906E+03  0.75717242516E+03  0.00000000000E+00 0. -1.
          1    1    1    2  502    0  0.25347207556E+01 -0.20459281962E+02  0.22810355540E+02  0.30746046048E+02  0.00000000000E+00 0. -1.
</event>
<event>
 4    1  0.3555026E+003  0.2144251E+02  0.7546771E-02  0.1513040E+00
          2   -1    0    0  502    0  0.00000000000E+00  0.00000000000E+00  0.15006510537E+03  0.15006510537E+03  0.00000000000E+00 0. -1.
          1   -1    0    0  501    0 -0.00000000000E+00 -0.00000000000E+00 -0.77596073994E+01  0.77596073994E+01  0.00000000000E+00 0. -1.
          2    1    1    2  501    0 -0.11667945270E+02  0.17990003441E+02  0.13253978575E+03  0.13426308494E+03  0.00000000000E+00 0. -1.
          1    1    1    2  502    0  0.11667945270E+02 -0.17990003441E+02  0.97657122130E+01  0.23561627823E+02  0.00000000000E+00 0. -1.
</event>
<event>
 4    1  0.3555026E+003  0.2502376E+02  0.7546771E-02  0.1468538E+00
          2   -1    0    0  502    0  0.00000000000E+00  0.00000000000E+00  0.12668980361E+02  0.12668980361E+02  0.00000000000E+00 0. -1.
          1   -1    0    0  501    0 -0.00000000000E+00 -0.00000000000E+00 -0.45289668418E+03  0.45289668418E+03  0.00000000000E+00 0. -1.
          2    1    1    2  501    0 -0.77441864695E+01  0.23795294735E+02 -0.40028062576E+00  0.25026959468E+02  0.00000000000E+00 0. -1.
          1    1    1    2  502    0  0.77441864695E+01 -0.23795294735E+02 -0.43982742320E+03  0.44053870508E+03  0.00000000000E+00 0. -1.
</event>
<event>
 4    1  0.3555026E+003  0.2041245E+02  0.7546771E-02  0.1527821E+00
          2   -1    0    0  502    0  0.00000000000E+00  0.00000000000E+00  0.13722782458E+04  0.13722782458E+04  0.00000000000E+00 0. -1.
          1   -1    0    0  501    0 -0.00000000000E+00 -0.00000000000E+00 -0.14986791152E+03  0.14986791152E+03  0.00000000000E+00 0. -1.
          2    1    1    2  501    0  0.20372934698E+02  0.12694637116E+01  0.13715068881E+04  0.13716587812E+04  0.00000000000E+00 0. -1.
          1    1    1    2  502    0 -0.20372934698E+02 -0.12694637116E+01 -0.14909655382E+03  0.15048737610E+03  0.00000000000E+00 0. -1.
</event>
<event>
 4    1  0.3555026E+003  0.3696210E+02  0.7546771E-02  0.1367270E+00
          2   -1    0    0  502    0  0.00000000000E+00  0.00000000000E+00  0.17029697157E+03  0.17029697157E+03  0.00000000000E+00 0. -1.
          1   -1    0    0  501    0 -0.00000000000E+00 -0.00000000000E+00 -0.27189561551E+02  0.27189561551E+02  0.00000000000E+00 0. -1.
          2    1    1    2  501    0  0.36418923559E+02  0.63133785112E+01  0.15445949643E+03  0.15882044194E+03  0.00000000000E+00 0. -1.
          1    1    1    2  502    0 -0.36418923559E+02 -0.63133785112E+01 -0.11352086407E+02  0.38666091181E+02  0.00000000000E+00 0. -1.
</event>
<event>
 4    1  0.3555026E+003  0.2907723E+02  0.7546771E-02  0.1427788E+00
          2   -1    0    0  502    0  0.00000000000E+00  0.00000000000E+00  0.36142893778E+02  0.36142893778E+02  0.00000000000E+00 0.  1.
          1   -1    0    0  501    0 -0.00000000000E+00 -0.00000000000E+00 -0.54050538567E+03  0.54050538567E+03  0.00000000000E+00 0.  1.
          2    1    1    2  501    0 -0.17228488286E+02  0.23423584373E+02  0.29834610319E+02  0.41660401899E+02  0.00000000000E+00 0.  1.
          1    1    1    2  502    0  0.17228488286E+02 -0.23423584373E+02 -0.53419710221E+03  0.53498787755E+03  0.00000000000E+00 0.  1.
</event>
<event>
 4    1  0.3555026E+003  0.2206600E+02  0.7546771E-02  0.1504572E+00
          2   -1    0    0  502    0  0.00000000000E+00  0.00000000000E+00  0.10964965246E+03  0.10964965246E+03  0.00000000000E+00 0. -1.
          1   -1    0    0  501    0 -0.00000000000E+00 -0.00000000000E+00 -0.86608826033E+01  0.86608826033E+01  0.00000000000E+00 0.  1.
          2    1    1    2  501    0  0.79355263683E+00 -0.22051724977E+02  0.91788106684E+02  0.94403203488E+02  0.00000000000E+00 0. -1.
          1    1    1    2  502    0 -0.79355263683E+00  0.22051724977E+02  0.92006631743E+01  0.23907331576E+02  0.00000000000E+00 0.  1.
</event>
<event>
 4    1  0.3555026E+003  0.2372603E+02  0.7546771E-02  0.1483577E+00
          2   -1    0    0  502    0  0.00000000000E+00  0.00000000000E+00  0.46066894868E+01  0.46066894868E+01  0.00000000000E+00 0. -1.
          1   -1    0    0  501    0 -0.00000000000E+00 -0.00000000000E+00 -0.12549588675E+03  0.12549588675E+03  0.00000000000E+00 0. -1.
          2    1    1    2  501    0  0.22760323261E+02 -0.67001732754E+01 -0.49898045478E+02  0.55251602505E+02  0.00000000000E+00 0. -1.
          1    1    1    2  502    0 -0.22760323261E+02  0.67001732754E+01 -0.70991151790E+02  0.74850973737E+02  0.00000000000E+00 0. -1.
</event>
<event>
 4    1  0.3555026E+003  0.3108858E+02  0.7546771E-02  0.1410367E+00
          2   -1    0    0  502    0  0.00000000000E+00  0.00000000000E+00  0.29395854076E+03  0.29395854076E+03  0.00000000000E+00 0. -1.
          1   -1    0    0  501    0 -0.00000000000E+00 -0.00000000000E+00 -0.13038040583E+02  0.13038040583E+02  0.00000000000E+00 0. -1.
          2    1    1    2  501    0 -0.12085589011E+01  0.31065079425E+02  0.27320070802E+03  0.27496386423E+03  0.00000000000E+00 0. -1.
          1    1    1    2  502    0  0.12085589011E+01 -0.31065079425E+02  0.77197921595E+01  0.32032717108E+02  0.00000000000E+00 0. -1.
</event>
<event>
 4    1  0.3555026E+003  0.2263728E+02  0.7546771E-02  0.1497104E+00
          2   -1    0    0  502    0  0.00000000000E+00  0.00000000000E+00  0.86743992482E+02  0.86743992482E+02  0.00000000000E+00 0.  1.
          1   -1    0    0  501    0 -0.00000000000E+00 -0.00000000000E+00 -0.60690113708E+01  0.60690113708E+01  0.00000000000E+00 0.  1.
          2    1    1    2  501    0  0.20060119022E+02 -0.10489906039E+02  0.47906214793E+02  0.52985393456E+02  0.00000000000E+00 0.  1.
          1    1    1    2  502    0 -0.20060119022E+02  0.10489906039E+02  0.32768766318E+02  0.39827610396E+02  0.00000000000E+00 0.  1.
</event>
<event>
 4    1  0.3555026E+003  0.2584206E+02  0.7546771E-02  0.1459600E+00
          2   -1    0    0  502    0  0.00000000000E+00  0.00000000000E+00  0.21293650467E+00  0.21293650467E+00  0.00000000000E+00 0.  1.
          1   -1    0    0  501    0 -0.00000000000E+00 -0.00000000000E+00 -0.31661407860E+04  0.31661407860E+04  0.00000000000E+00 0.  1.
          2    1    1    2  501    0 -0.25265006720E+02  0.54306258537E+01 -0.14290177809E+04  0.14292514230E+04  0.00000000000E+00 0.  1.
          1    1    1    2  502    0  0.25265006720E+02 -0.54306258537E+01 -0.17369100686E+04  0.17371022995E+04  0.00000000000E+00 0.  1.
</event>
<event>
 4    1  0.3555026E+003  0.2151245E+02  0.7546771E-02  0.1512073E+00
          2   -1    0    0  502    0  0.00000000000E+00  0.00000000000E+00  0.12487335079E+04  0.12487335079E+04  0.00000000000E+00 0.  1.
          1   -1    0    0  501    0 -0.00000000000E+00 -0.00000000000E+00 -0.77607792836E+00  0.77607792836E+00  0.00000000000E+00 0. -1.
          2    1    1    2  501    0 -0.41021949746E+01  0.21117703610E+02  0.10755626605E+04  0.10757777754E+04  0.00000000000E+00 0.  1.
          1    1    1    2  502    0  0.41021949746E+01 -0.21117703610E+02  0.17239476953E+03  0.17373181047E+03  0.00000000000E+00 0. -1.
</event>
<event>
 4    1  0.3555026E+003  0.2337856E+02  0.7546771E-02  0.1487798E+00
          2   -1    0    0  502    0  0.00000000000E+00  0.00000000000E+00  0.78371879570E+01  0.78371879570E+01  0.00000000000E+00 0.  1.
          1   -1    0    0  501    0 -0.00000000000E+00 -0.00000000000E+00 -0.70350423494E+02  0.70350423494E+02  0.00000000000E+00 0.  1.
          2    1    1    2  501    0 -0.22818470089E+02  0.50867045366E+01 -0.27611858959E+02  0.36179716630E+02  0.00000000000E+00 0.  1.
          1    1    1    2  502    0  0.22818470089E+02 -0.50867045366E+01 -0.34901376578E+02  0.42007894821E+02  0.00000000000E+00 0.  1.
</event>
<event>
 4    1  0.3555026E+003  0.2899194E+02  0.7546771E-02  0.1428563E+00
          2   -1    0    0  502    0  0.00000000000E+00  0.00000000000E+00  0.17801753939E+04  0.17801753939E+04  0.00000000000E+00 0. -1.
          1   -1    0    0  501    0 -0.00000000000E+00 -0.00000000000E+00 -0.58907814560E+00  0.58907814560E+00  0.00000000000E+00 0. -1.
          2    1    1    2  501    0 -0.26764206049E+02  0.11144957259E+02  0.12864597110E+04  0.12867863540E+04  0.00000000000E+00 0. -1.
          1    1    1    2  502    0  0.26764206049E+02 -0.11144957259E+02  0.49312660481E+03  0.49397811811E+03  0.00000000000E+00 0. -1.
</event>
<event>
 4    1  0.3555026E+003  0.2868656E+02  0.7546771E-02  0.1431364E+00
          2   -1    0    0  502    0  0.00000000000E+00  0.00000000000E+00  0.36566989346E+02  0.36566989346E+02  0.00000000000E+00 0.  1.
          1   -1    0    0  501    0 -0.00000000000E+00 -0.00000000000E+00 -0.10771955338E+04  0.10771955338E+04  0.00000000000E+00 0.  1.
          2    1    1    2  501    0  0.26045651794E+02  0.12022600286E+02  0.30719194091E+02  0.42030795622E+02  0.00000000000E+00 0.  1.
          1    1    1    2  502    0 -0.26045651794E+02 -0.12022600286E+02 -0.10713477386E+04  0.10717317275E+04  0.00000000000E+00 0.  1.
</event>
<event>
 4    1  0.3555026E+003  0.2167186E+02  0.7546771E-02  0.1509885E+00
          2   -1    0    0  502    0  0.00000000000E+00  0.00000000000E+00  0.35602791229E+02  0.35602791229E+02  0.00000000000E+00 0.  1.
          1   -1    0    0  501    0 -0.00000000000E+00 -0.00000000000E+00 -0.60189059535E+03  0.60189059535E+03  0.00000000000E+00 0. -1.
          2    1    1    2  501    0  0.21671814155E+02  0.43310935566E-01  0.32090376271E+02  0.38722882819E+02  0.00000000000E+00 0.  1.
          1    1    1    2  502    0 -0.21671814155E+02 -0.43310935566E-01 -0.59837818039E+03  0.59877050376E+03  0.00000000000E+00 0. -1.
</event>
<event>
 4    1  0.3555026E+003  0.2095703E+02  0.7546771E-02  0.1519879E+00
          2   -1    0    0  502    0  0.00000000000E+00  0.00000000000E+00  0.45739174336E+03  0.45739174336E+03  0.00000000000E+00 0. -1.
          1   -1    0    0  501    0 -0.00000000000E+00 -0.00000000000E+00 -0.99253663110E+00  0.99253663110E+00  0.00000000000E+00 0. -1.
          2    1    1    2  501    0 -0.31312552341E+01 -0.20721773124E+02  0.18684342920E+03  0.18801506236E+03  0.00000000000E+00 0. -1.
          1    1    1    2  502    0  0.31312552341E+01  0.20721773124E+02  0.26955577753E+03  0.27036921763E+03  0.00000000000E+00 0. -1.
</event>
<event>
 4    1  0.3555026E+003  0.3455393E+02  0.7546771E-02  0.1383727E+00
          2   -1    0    0  502    0  0.00000000000E+00  0.00000000000E+00  0.11628195056E+04  0.11628195056E+04  0.00000000000E+00 0. -1.
          1   -1    0    0  501    0 -0.00000000000E+00 -0.00000000000E+00 -0.49686695912E+01  0.49686695912E+01  0.00000000000E+00 0. -1.
          2    1    1    2  501    0 -0.25109094268E+02 -0.23738310726E+02  0.10989999346E+04  0.10995430098E+04  0.00000000000E+00 0. -1.
          1    1    1    2  502    0  0.25109094268E+02  0.23738310726E+02  0.58850901403E+02  0.68245165448E+02  0.00000000000E+00 0. -1.
</event>
<event>
 4    1  0.3555026E+003  0.2682249E+02  0.7546771E-02  0.1449399E+00
          2   -1    0    0  502    0  0.00000000000E+00  0.00000000000E+00  0.16485217942E+02  0.16485217942E+02  0.00000000000E+00 0.  1.
          1   -1    0    0  501    0 -0.00000000000E+00 -0.00000000000E+00 -0.71834458560E+02  0.71834458560E+02  0.00000000000E+00 0. -1.
          2    1    1    2  501    0  0.71646835817E+01  0.25847887388E+02 -0.97633158633E-02  0.26822491841E+02  0.00000000000E+00 0.  1.
          1    1    1    2  502    0 -0.71646835817E+01 -0.25847887388E+02 -0.55339477302E+02  0.61497184661E+02  0.00000000000E+00 0. -1.
</event>
<event>
 4    1  0.3555026E+003  0.2186801E+02  0.7546771E-02  0.1507224E+00
          2   -1    0    0  502    0  0.00000000000E+00  0.00000000000E+00  0.68523005346E+01  0.68523005346E+01  0.00000000000E+00 0. -1.
          1   -1    0    0  501    0 -0.00000000000E+00 -0.00000000000E+00 -0.30942863621E+03  0.30942863621E+03  0.00000000000E+00 0.  1.
          2    1    1    2  501    0 -0.21684981380E+02  0.28233671483E+01 -0.12119071671E+02  0.25001634300E+02  0.00000000000E+00 0. -1.
          1    1    1    2  502    0  0.21684981380E+02 -0.28233671483E+01 -0.29045726400E+03  0.29127930244E+03  0.00000000000E+00 0.  1.
</event>
<event>
 4    1  0.3555026E+003  0.2199252E+02  0.7546771E-02  0.1505552E+00
          2   -1    0    0  502    0  0.00000000000E+00  0.00000000000E+00  0.41888197088E+03  0.41888197088E+03  0.00000000000E+00 0. -1.
          1   -1    0    0  501    0 -0.00000000000E+00 -0.00000000000E+00 -0.11838774474E+01  0.11838774474E+01  0.00000000000E+00 0. -1.
          2    1    1    2  501    0  0.63123837499E+00 -0.21983450876E+02  0.17585933523E+03  0.17722916341E+03  0.00000000000E+00 0. -1.
          1    1    1    2  502    0 -0.63123837499E+00  0.21983450876E+02  0.24183875821E+03  0.24283668492E+03  0.00000000000E+00 0. -1.
</event>
<event>
 4    1  0.3555026E+003  0.4386553E+02  0.7546771E-02  0.1327210E+00
          2   -1    0    0  502    0  0.00000000000E+00  0.00000000000E+00  0.44308807738E+02  0.44308807738E+02  0.00000000000E+00 0.  1.
          1   -1    0    0  501    0 -0.00000000000E+00 -0.00000000000E+00 -0.58461159466E+02  0.58461159466E+02  0.00000000000E+00 0.  1.
          2    1    1    2  501    0 -0.30883269171E+02  0.31151385901E+02  0.18982147306E+02  0.47796517390E+02  0.00000000000E+00 0.  1.
          1    1    1    2  502    0  0.30883269171E+02 -0.31151385901E+02 -0.33134499034E+02  0.54973449814E+02  0.00000000000E+00 0.  1.
</event>
<event>
 4    1  0.3555026E+003  0.3684312E+02  0.7546771E-02  0.1368049E+00
          2   -1    0    0  502    0  0.00000000000E+00  0.00000000000E+00  0.39059531350E+02  0.39059531350E+02  0.00000000000E+00 0. -1.
          1   -1    0    0  501    0 -0.00000000000E+00 -0.00000000000E+00 -0.21464446508E+03  0.21464446508E+03  0.00000000000E+00 0. -1.
          2    1    1    2  501    0  0.27645368086E+01  0.36739255607E+02  0.28337251640E+02  0.46480268898E+02  0.00000000000E+00 0. -1.
          1    1    1    2  502    0 -0.27645368086E+01 -0.36739255607E+02 -0.20392218537E+03  0.20722372753E+03  0.00000000000E+00 0. -1.
</event>
<event>
 4    1  0.3555026E+003  0.2624703E+02  0.7546771E-02  0.1455322E+00
          2   -1    0    0  502    0  0.00000000000E+00  0.00000000000E+00  0.10328066266E+03  0.10328066266E+03  0.00000000000E+00 0.  1.
          1   -1    0    0  501    0 -0.00000000000E+00 -0.00000000000E+00 -0.16580370058E+02  0.16580370058E+02  0.00000000000E+00 0. -1.
          2    1    1    2  501    0 -0.25288226554E+02  0.70293817009E+01  0.89683168470E+02  0.93445049715E+02  0.00000000000E+00 0.  1.
          1    1    1    2  502    0  0.25288226554E+02 -0.70293817009E+01 -0.29828758724E+01  0.26415982999E+02  0.00000000000E+00 0. -1.
</event>
<event>
 4    1  0.3555026E+003  0.2149998E+02  0.7546771E-02  0.1512245E+00
          2   -1    0    0  502    0  0.00000000000E+00  0.00000000000E+00  0.12416846457E+02  0.12416846457E+02  0.00000000000E+00 0.  1.
          1   -1    0    0  501    0 -0.00000000000E+00 -0.00000000000E+00 -0.23256384312E+03  0.23256384312E+03  0.00000000000E+00 0.  1.
          2    1    1    2  501    0 -0.80934883597E+01 -0.19918452088E+02  0.21857640177E+01  0.21610804052E+02  0.00000000000E+00 0.  1.
          1    1    1    2  502    0  0.80934883597E+01  0.19918452088E+02 -0.22233276068E+03  0.22336988552E+03  0.00000000000E+00 0.  1.
</event>
<event>
 4    1  0.3555026E+003  0.2291273E+02  0.7546771E-02  0.1493597E+00
          2   -1    0    0  502    0  0.00000000000E+00  0.00000000000E+00  0.87702562715E+03  0.87702562715E+03  0.00000000000E+00 0. -1.
          1   -1    0    0  501    0 -0.00000000000E+00 -0.00000000000E+00 -0.25639654138E+03  0.25639654138E+03  0.00000000000E+00 0. -1.
          2    1    1    2  501    0 -0.22505067501E+02  0.43029418020E+01  0.87636369299E+03  0.87666317121E+03  0.00000000000E+00 0. -1.
          1    1    1    2  502    0  0.22505067501E+02 -0.43029418020E+01 -0.25573460722E+03  0.25675899731E+03  0.00000000000E+00 0. -1.
</event>
<event>
 4    1  0.3555026E+003  0.3366916E+02  0.7546771E-02  0.1390169E+00
          2   -1    0    0  502    0  0.00000000000E+00  0.00000000000E+00  0.83780171596E+01  0.83780171596E+01  0.00000000000E+00 0. -1.
          1   -1    0    0  501    0 -0.00000000000E+00 -0.00000000000E+00 -0.29297044602E+03  0.29297044602E+03  0.00000000000E+00 0. -1.
          2    1    1    2  501    0  0.11602124942E+02  0.31607007993E+02 -0.31763384429E+02  0.46287415652E+02  0.00000000000E+00 0. -1.
          1    1    1    2  502    0 -0.11602124942E+02 -0.31607007993E+02 -0.25282904443E+03  0.25506104752E+03  0.00000000000E+00 0. -1.
</event>
<event>
 4    1  0.3555026E+003  0.2000818E+02  0.7546771E-02  0.1533911E+00
          2   -1    0    0  502    0  0.00000000000E+00  0.00000000000E+00  0.20528064745E+01  0.20528064745E+01  0.00000000000E+00 0.  1.
          1   -1    0    0  501    0 -0.00000000000E+00 -0.00000000000E+00 -0.54552981125E+03  0.54552981125E+03  0.00000000000E+00 0. -1.
          2    1    1    2  501    0 -0.27756614122E+00  0.20006256894E+02 -0.52274239280E+02  0.55972524064E+02  0.00000000000E+00 0.  1.
          1    1    1    2  502    0  0.27756614122E+00 -0.20006256894E+02 -0.49120276549E+03  0.49161009366E+03  0.00000000000E+00 0. -1.
</event>
<event>
 4    1  0.3555026E+003  0.3144689E+02  0.7546771E-02  0.1407426E+00
          2   -1    0    0  502    0  0.00000000000E+00  0.00000000000E+00  0.91320534340E+02  0.91320534340E+02  0.00000000000E+00 0. -1.
          1   -1    0    0  501    0 -0.00000000000E+00 -0.00000000000E+00 -0.12523333340E+03  0.12523333340E+03  0.00000000000E+00 0.  1.
          2    1    1    2  501    0  0.30357948639E+02  0.82037720011E+01  0.86533337100E+02  0.92070219671E+02  0.00000000000E+00 0. -1.
          1    1    1    2  502    0 -0.30357948639E+02 -0.82037720011E+01 -0.12044613616E+03  0.12448364807E+03  0.00000000000E+00 0.  1.
</event>
<event>
 4    1  0.3555026E+003  0.2347504E+02  0.7546771E-02  0.1486618E+00
          2   -1    0    0  502    0  0.00000000000E+00  0.00000000000E+00  0.53917246958E+03  0.53917246958E+03  0.00000000000E+00 0. -1.
          1   -1    0    0  501    0 -0.00000000000E+00 -0.00000000000E+00 -0.55040209239E+01  0.55040209239E+01  0.00000000000E+00 0.  1.
          2    1    1    2  501    0 -0.23395293209E+02 -0.19333507640E+01  0.51258881742E+03  0.51312607937E+03  0.00000000000E+00 0. -1.
          1    1    1    2  502    0  0.23395293209E+02  0.19333507640E+01  0.21079631239E+02  0.31550411133E+02  0.00000000000E+00 0.  1.
</event>
<event>
 4    1  0.3555026E+003  0.2265254E+02  0.7546771E-02  0.1496908E+00
          2   -1    0    0  502    0  0.00000000000E+00  0.00000000000E+00  0.27474011022E+03  0.27474011022E+03  0.00000000000E+00 0. -1.
          1   -1    0    0  501    0 -0.00000000000E+00 -0.00000000000E+00 -0.30991398507E+01  0.30991398507E+01  0.00000000000E+00 0.  1.
          2    1    1    2  501    0  0.17983769500E+02 -0.13773943672E+02  0.22338863225E+03  0.22453422570E+03  0.00000000000E+00 0. -1.
          1    1    1    2  502    0 -0.17983769500E+02  0.13773943672E+02  0.48252338112E+02  0.53305024369E+02  0.00000000000E+00 0.  1.
</event>
<event>
 4    1  0.3555026E+003  0.3901090E+02  0.7546771E-02  0.1354381E+00
          2   -1    0    0  502    0  0.00000000000E+00  0.00000000000E+00  0.19166036466E+01  0.19166036466E+01  0.00000000000E+00 0.  1.
          1   -1    0    0  501    0 -0.00000000000E+00 -0.00000000000E+00 -0.84845503541E+03  0.84845503541E+03  0.00000000000E+00 0.  1.
          2    1    1    2  501    0 -0.32093590372E+02  0.22177735915E+02 -0.31558712457E+03  0.31798912515E+03  0.00000000000E+00 0.  1.
          1    1    1    2  502    0  0.32093590372E+02 -0.22177735915E+02 -0.53095130719E+03  0.53238251392E+03  0.00000000000E+00 0.  1.
</event>
<event>
 4    1  0.3555026E+003  0.3065093E+02  0.7546771E-02  0.1414023E+00
          2   -1    0    0  502    0  0.00000000000E+00  0.00000000000E+00  0.25809381881E+01  0.25809381881E+01  0.00000000000E+00 0.  1.
          1   -1    0    0  501    0 -0.00000000000E+00 -0.00000000000E+00 -0.44807841156E+03  0.44807841156E+03  0.00000000000E+00 0. -1.
          2    1    1    2  501    0  0.15930106635E+02 -0.26186086495E+02 -0.12514516881E+03  0.12884406350E+03  0.00000000000E+00 0.  1.
          1    1    1    2  502    0 -0.15930106635E+02  0.26186086495E+02 -0.32035230456E+03  0.32181528624E+03  0.00000000000E+00 0. -1.
</event>
<event>
 4    1  0.3555026E+003  0.3046079E+02  0.7546771E-02  0.1415634E+00
          2   -1    0    0  502    0  0.00000000000E+00  0.00000000000E+00  0.99532089233E+00  0.99532089233E+00  0.00000000000E+00 0. -1.
          1   -1    0    0  501    0 -0.00000000000E+00 -0.00000000000E+00 -0.12569923307E+04  0.12569923307E+04  0.00000000000E+00 0. -1.
          2    1    1    2  501    0  0.88248179150E+01 -0.29154456778E+02 -0.30827952053E+03  0.30978076528E+03  0.00000000000E+00 0. -1.
          1    1    1    2  502    0 -0.88248179150E+01  0.29154456778E+02 -0.94771748923E+03  0.94820688626E+03  0.00000000000E+00 0. -1.
</event>
<event>
 4    1  0.3555026E+003  0.2045435E+02  0.7546771E-02  0.1527200E+00
          2   -1    0    0  502    0  0.00000000000E+00  0.00000000000E+00  0.85063876721E+03  0.85063876721E+03  0.00000000000E+00 0. -1.
          1   -1    0    0  501    0 -0.00000000000E+00 -0.00000000000E+00 -0.11468664756E+03  0.11468664756E+03  0.00000000000E+00 0.  1.
          2    1    1    2  501    0 -0.19696383204E+02 -0.55166007525E+01  0.84960268689E+03  0.84984887243E+03  0.00000000000E+00 0. -1.
          1    1    1    2  502    0  0.19696383204E+02  0.55166007525E+01 -0.11365056725E+03  0.11547654234E+03  0.00000000000E+00 0.  1.
</event>
<event>
 4    1  0.3555026E+003  0.2346026E+02  0.7546771E-02  0.1486798E+00
          2   -1    0    0  502    0  0.00000000000E+00  0.00000000000E+00  0.61430763082E+03  0.61430763082E+03  0.00000000000E+00 0. -1.
          1   -1    0    0  501    0 -0.00000000000E+00 -0.00000000000E+00 -0.17668949845E+02  0.17668949845E+02  0.00000000000E+00 0. -1.
          2    1    1    2  501    0  0.20758282309E+02  0.10930576056E+02  0.60619198353E+03  0.60664578188E+03  0.00000000000E+00 0. -1.
          1    1    1    2  502    0 -0.20758282309E+02 -0.10930576056E+02 -0.95533025559E+01  0.25330798784E+02  0.00000000000E+00 0. -1.
</event>
<event>
 4    1  0.3555026E+003  0.2672639E+02  0.7546771E-02  0.1450376E+00
          2   -1    0    0  502    0  0.00000000000E+00  0.00000000000E+00  0.26646346971E+03  0.26646346971E+03  0.00000000000E+00 0.  1.
          1   -1    0    0  501    0 -0.00000000000E+00 -0.00000000000E+00 -0.28979022555E+01  0.28979022555E+01  0.00000000000E+00 0.  1.
          2    1    1    2  501    0 -0.18177242235E+02  0.19593042489E+02  0.94907952955E+02  0.98599284903E+02  0.00000000000E+00 0.  1.
          1    1    1    2  502    0  0.18177242235E+02 -0.19593042489E+02  0.16865761450E+03  0.17076208706E+03  0.00000000000E+00 0.  1.
</event>
<event>
 4    1  0.3555026E+003  0.2359982E+02  0.7546771E-02  0.1485100E+00
          2   -1    0    0  502    0  0.00000000000E+00  0.00000000000E+00  0.38207267714E+03  0.38207267714E+03  0.00000000000E+00 0.  1.
          1   -1    0    0  501    0 -0.00000000000E+00 -0.00000000000E+00 -0.17849689013E+01  0.17849689013E+01  0.00000000000E+00 0. -1.
          2    1    1    2  501    0  0.15474522665E+02  0.17818269370E+02  0.27232456431E+03  0.27334523940E+03  0.00000000000E+00 0.  1.
          1    1    1    2  502    0 -0.15474522665E+02 -0.17818269370E+02  0.10796314392E+03  0.11051240664E+03  0.00000000000E+00 0. -1.
</event>
<event>
 4    1  0.3555026E+003  0.2986682E+02  0.7546771E-02  0.1420757E+00
          2   -1    0    0  502    0  0.00000000000E+00  0.00000000000E+00  0.15281774109E+04  0.15281774109E+04  0.00000000000E+00 0. -1.
          1   -1    0    0  501    0 -0.00000000000E+00 -0.00000000000E+00 -0.34232679598E+01  0.34232679598E+01  0.00000000000E+00 0.  1.
          2    1    1    2  501    0 -0.88274374891E+01 -0.28532499258E+02  0.14598377671E+04  0.14601432579E+04  0.00000000000E+00 0. -1.
          1    1    1    2  502    0  0.88274374891E+01  0.28532499258E+02  0.64916375846E+02  0.71457421025E+02  0.00000000000E+00 0.  1.
</event>
<event>
 4    1  0.3555026E+003  0.2410404E+02  0.7546771E-02  0.1479081E+00
          2   -1    0    0  502    0  0.00000000000E+00  0.00000000000E+00  0.84119268229E+02  0.84119268229E+02  0.00000000000E+00 0. -1.
          1   -1    0    0  501    0 -0.00000000000E+00 -0.00000000000E+00 -0.19507292896E+02  0.19507292896E+02  0.00000000000E+00 0. -1.
          2    1    1    2  501    0  0.23008127700E+02  0.71854698588E+01  0.73948249974E+02  0.77777558406E+02  0.00000000000E+00 0. -1.
          1    1    1    2  502    0 -0.23008127700E+02 -0.71854698588E+01 -0.93362746413E+01  0.25849002719E+02  0.00000000000E+00 0. -1.
</event>
<event>
 4    1  0.3555026E+003  0.2652526E+02  0.7546771E-02  0.1452436E+00
          2   -1    0    0  502    0  0.00000000000E+00  0.00000000000E+00  0.12608516877E+04  0.12608516877E+04  0.00000000000E+00 0. -1.
          1   -1    0    0  501    0 -0.00000000000E+00 -0.00000000000E+00 -0.91772674827E+02  0.91772674827E+02  0.00000000000E+00 0.  1.
          2    1    1    2  501    0  0.98983560287E+00 -0.26506789423E+02  0.12587923813E+04  0.12590718204E+04  0.00000000000E+00 0. -1.
          1    1    1    2  502    0 -0.98983560287E+00  0.26506789423E+02 -0.89713368447E+02  0.93552542125E+02  0.00000000000E+00 0.  1.
</event>
<event>
 4    1  0.3555026E+003  0.2313932E+02  0.7546771E-02  0.1490756E+00
          2   -1    0    0  502    0  0.00000000000E+00  0.00000000000E+00  0.67390756069E+03  0.67390756069E+03  0.00000000000E+00 0. -1.
          1   -1    0    0  501    0 -0.00000000000E+00 -0.00000000000E+00 -0.80725564108E+00  0.80725564108E+00  0.00000000000E+00 0. -1.
          2    1    1    2  501    0 -0.23139296363E+02  0.24858698999E-01  0.29416329562E+03  0.29507197790E+03  0.00000000000E+00 0. -1.
          1    1    1    2  502    0  0.23139296363E+02 -0.24858698999E-01  0.37893700943E+03  0.37964283843E+03  0.00000000000E+00 0. -1.
</event>
<event>
 4    1  0.3555026E+003  0.2754790E+02  0.7546771E-02  0.1442181E+00
          2   -1    0    0  502    0  0.00000000000E+00  0.00000000000E+00  0.51616285050E+00  0.51616285050E+00  0.00000000000E+00 0. -1.
          1   -1    0    0  501    0 -0.00000000000E+00 -0.00000000000E+00 -0.14730808950E+04  0.14730808950E+04  0.00000000000E+00 0. -1.
          2    1    1    2  501    0  0.25108659904E+02  0.11333199927E+02 -0.76860637655E+03  0.76909989488E+03  0.00000000000E+00 0. -1.
          1    1    1    2  502    0 -0.25108659904E+02 -0.11333199927E+02 -0.70395835561E+03  0.70449716298E+03  0.00000000000E+00 0. -1.
</event>
<event>
 4    1  0.3555026E+003  0.2277308E+02  0.7546771E-02  0.1495367E+00
          2   -1    0    0  502    0  0.00000000000E+00  0.00000000000E+00  0.37504308358E+03  0.37504308358E+03  0.00000000000E+00 0. -1.
          1   -1    0    0  501    0 -0.00000000000E+00 -0.00000000000E+00 -0.19271145335E+03  0.19271145335E+03  0.00000000000E+00 0.  1.
          2    1    1    2  501    0 -0.21524784142E+02  0.74361757069E+01  0.37402276323E+03  0.37471541262E+03  0.00000000000E+00 0. -1.
          1    1    1    2  502    0  0.21524784142E+02 -0.74361757069E+01 -0.19169113300E+03  0.19303912431E+03  0.00000000000E+00 0.  1.
</event>
<event>
 4    1  0.3555026E+003  0.3596814E+02  0.7546771E-02  0.1373882E+00
          2   -1    0    0  502    0  0.00000000000E+00  0.00000000000E+00  0.13962608211E+01  0.13962608211E+01  0.00000000000E+00 0.  1.
          1   -1    0    0  501    0 -0.00000000000E+00 -0.00000000000E+00 -0.11080386724E+04  0.11080386724E+04  0.00000000000E+00 0.  1.
          2    1    1    2  501    0 -0.30777666172E+02 -0.18612926617E+02 -0.77782251568E+03  0.77865369175E+03  0.00000000000E+00 0.  1.
          1    1    1    2  502    0  0.30777666172E+02  0.18612926617E+02 -0.32881989588E+03  0.33078124146E+03  0.00000000000E+00 0.  1.
</event>
<event>
 4    1  0.3555026E+003  0.6012876E+02  0.7546771E-02  0.1259396E+00
          2   -1    0    0  502    0  0.00000000000E+00  0.00000000000E+00  0.63745941133E+03  0.63745941133E+03  0.00000000000E+00 0.  1.
          1   -1    0    0  501    0 -0.00000000000E+00 -0.00000000000E+00 -0.28252292281E+02  0.28252292281E+02  0.00000000000E+00 0.  1.
          2    1    1    2  501    0  0.32093863633E+02 -0.50847331533E+02  0.60217906968E+03  0.60517361077E+03  0.00000000000E+00 0.  1.
          1    1    1    2  502    0 -0.32093863633E+02  0.50847331533E+02  0.70280493654E+01  0.60538092841E+02  0.00000000000E+00 0.  1.
</event>
<event>
 4    1  0.3555026E+003  0.2432407E+02  0.7546771E-02  0.1476509E+00
          2   -1    0    0  502    0  0.00000000000E+00  0.00000000000E+00  0.17652198787E+04  0.17652198787E+04  0.00000000000E+00 0.  1.
          1   -1    0    0  501    0 -0.00000000000E+00 -0.00000000000E+00 -0.33517371733E+02  0.33517371733E+02  0.00000000000E+00 0. -1.
          2    1    1    2  501    0 -0.13664133790E+00 -0.24323682699E+02  0.17607116995E+04  0.17608797088E+04  0.00000000000E+00 0.  1.
          1    1    1    2  502    0  0.13664133790E+00  0.24323682699E+02 -0.29009192488E+02  0.37857541649E+02  0.00000000000E+00 0. -1.
</event>
<event>
 4    1  0.3555026E+003  0.2953320E+02  0.7546771E-02  0.1423697E+00
          2   -1    0    0  502    0  0.00000000000E+00  0.00000000000E+00  0.27532682810E+01  0.27532682810E+01  0.00000000000E+00 0.  1.
          1   -1    0    0  501    0 -0.00000000000E+00 -0.00000000000E+00 -0.84666369221E+03  0.84666369221E+03  0.00000000000E+00 0. -1.
          2    1    1    2  501    0 -0.78878427988E+01  0.28460356745E+02 -0.85969097601E+02  0.90900471464E+02  0.00000000000E+00 0.  1.
          1    1    1    2  502    0  0.78878427988E+01 -0.28460356745E+02 -0.75794132632E+03  0.75851648902E+03  0.00000000000E+00 0. -1.
</event>
<event>
 4    1  0.3555026E+003  0.2758410E+02  0.7546771E-02  0.1441827E+00
          2   -1    0    0  502    0  0.00000000000E+00  0.00000000000E+00  0.18524750606E+03  0.18524750606E+03  0.00000000000E+00 0. -1.
          1   -1    0    0  501    0 -0.00000000000E+00 -0.00000000000E+00 -0.86792726875E+02  0.86792726875E+02  0.00000000000E+00 0.  1.
          2    1    1    2  501    0 -0.20805516634E+02 -0.18111123274E+02  0.18198998876E+03  0.18406856961E+03  0.00000000000E+00 0. -1.
          1    1    1    2  502    0  0.20805516634E+02  0.18111123274E+02 -0.83535209578E+02  0.87971663323E+02  0.00000000000E+00 0.  1.
</event>
<event>
 4    1  0.3555026E+003  0.2172227E+02  0.7546771E-02  0.1509198E+00
          2   -1    0    0  502    0  0.00000000000E+00  0.00000000000E+00  0.13085889589E+01  0.13085889589E+01  0.00000000000E+00 0. -1.
          1   -1    0    0  501    0 -0.00000000000E+00 -0.00000000000E+00 -0.52543101722E+03  0.52543101722E+03  0.00000000000E+00 0. -1.
          2    1    1    2  501    0 -0.20775328019E+02 -0.63437255666E+01 -0.11454226856E+03  0.11658382561E+03  0.00000000000E+00 0. -1.
          1    1    1    2  502    0  0.20775328019E+02  0.63437255666E+01 -0.40958015970E+03  0.41015578056E+03  0.00000000000E+00 0. -1.
</event>
<event>
 4    1  0.3555026E+003  0.2942010E+02  0.7546771E-02  0.1424704E+00
          2   -1    0    0  502    0  0.00000000000E+00  0.00000000000E+00  0.64716119623E+03  0.64716119623E+03  0.00000000000E+00 0.  1.
          1   -1    0    0  501    0 -0.00000000000E+00 -0.00000000000E+00 -0.32812400550E+02  0.32812400550E+02  0.00000000000E+00 0.  1.
          2    1    1    2  501    0 -0.16881757928E+02  0.24094576060E+02  0.64016012299E+03  0.64083580222E+03  0.00000000000E+00 0.  1.
          1    1    1    2  502    0  0.16881757928E+02 -0.24094576060E+02 -0.25811327301E+02  0.39137794564E+02  0.00000000000E+00 0.  1.
</event>
<event>
 4    1  0.3555026E+003  0.4043875E+02  0.7546771E-02  0.1345934E+00
          2   -1    0    0  502    0  0.00000000000E+00  0.00000000000E+00  0.12462098375E+04  0.12462098375E+04  0.00000000000E+00 0. -1.
          1   -1    0    0  501    0 -0.00000000000E+00 -0.00000000000E+00 -0.18625672431E+01  0.18625672431E+01  0.00000000000E+00 0.  1.
          2    1    1    2  501    0 -0.37793048796E+02 -0.14386738234E+02  0.96138856341E+03  0.96223867238E+03  0.00000000000E+00 0. -1.
          1    1    1    2  502    0  0.37793048796E+02  0.14386738234E+02  0.28295870686E+03  0.28583373237E+03  0.00000000000E+00 0.  1.
</event>
<event>
 4    1  0.3555026E+003  0.2252415E+02  0.7546771E-02  0.1498561E+00
          2   -1    0    0  502    0  0.00000000000E+00  0.00000000000E+00  0.11813301470E+03  0.11813301470E+03  0.00000000000E+00 0.  1.
          1   -1    0    0  501    0 -0.00000000000E+00 -0.00000000000E+00 -0.15728433444E+02  0.15728433444E+02  0.00000000000E+00 0.  1.
          2    1    1    2  501    0  0.21073719247E+02  0.79521001465E+01  0.10826838600E+03  0.11058653148E+03  0.00000000000E+00 0.  1.
          1    1    1    2  502    0 -0.21073719247E+02 -0.79521001465E+01 -0.58638047376E+01  0.23274916662E+02  0.00000000000E+00 0.  1.
</event>
<event>
 4    1  0.3555026E+003  0.2206120E+02  0.7546771E-02  0.1504636E+00
          2   -1    0    0  502    0  0.00000000000E+00  0.00000000000E+00  0.27614280643E+01  0.27614280643E+01  0.00000000000E+00 0.  1.
          1   -1    0    0  501    0 -0.00000000000E+00 -0.00000000000E+00 -0.20727055844E+03  0.20727055844E+03  0.00000000000E+00 0.  1.
          2    1    1    2  501    0  0.21694582892E+02  0.40052178259E+01 -0.61626689495E+02  0.65456440133E+02  0.00000000000E+00 0.  1.
          1    1    1    2  502    0 -0.21694582892E+02 -0.40052178259E+01 -0.14288244088E+03  0.14457554637E+03  0.00000000000E+00 0.  1.
</event>
<event>
 4    1  0.3555026E+003  0.2220252E+02  0.7546771E-02  0.1502763E+00
          2   -1    0    0  502    0  0.00000000000E+00  0.00000000000E+00  0.38753293149E+03  0.38753293149E+03  0.00000000000E+00 0. -1.
          1   -1    0    0  501    0 -0.00000000000E+00 -0.00000000000E+00 -0.75687490271E+03  0.75687490271E+03  0.00000000000E+00 0. -1.
          2    1    1    2  501    0 -0.21981465725E+02 -0.31252101993E+01  0.38705189820E+03  0.38768817840E+03  0.00000000000E+00 0. -1.
          1    1    1    2  502    0  0.21981465725E+02  0.31252101993E+01 -0.75639386942E+03  0.75671965580E+03  0.00000000000E+00 0. -1.
</event>
<event>
 4    1  0.3555026E+003  0.2075139E+02  0.7546771E-02  0.1522844E+00
          2   -1    0    0  502    0  0.00000000000E+00  0.00000000000E+00  0.62003849659E+01  0.62003849659E+01  0.00000000000E+00 0. -1.
          1   -1    0    0  501    0 -0.00000000000E+00 -0.00000000000E+00 -0.29375769449E+03  0.29375769449E+03  0.00000000000E+00 0.  1.
          2    1    1    2  501    0 -0.17914247517E+02 -0.10473777976E+02 -0.12722484114E+02  0.24340950911E+02  0.00000000000E+00 0. -1.
          1    1    1    2  502    0  0.17914247517E+02  0.10473777976E+02 -0.27483482541E+03  0.27561712855E+03  0.00000000000E+00 0.  1.
</event>
<event>
 4    1  0.3555026E+003  0.2044256E+02  0.7546771E-02  0.1527374E+00
          2   -1    0    0  502    0  0.00000000000E+00  0.00000000000E+00  0.28429114571E+01  0.28429114571E+01  0.00000000000E+00 0.  1.
          1   -1    0    0  501    0 -0.00000000000E+00 -0.00000000000E+00 -0.39681856370E+03  0.39681856370E+03  0.00000000000E+00 0. -1.
          2    1    1    2  501    0 -0.69497705729E+01 -0.19224958822E+02 -0.38432221048E+02  0.43530839268E+02  0.00000000000E+00 0.  1.
          1    1    1    2  502    0  0.69497705729E+01  0.19224958822E+02 -0.35554343120E+03  0.35613063589E+03  0.00000000000E+00 0. -1.
</event>
<event>
 4    1  0.3555026E+003  0.2243671E+02  0.7546771E-02  0.1499695E+00
          2   -1    0    0  502    0  0.00000000000E+00  0.00000000000E+00  0.19737415751E+04  0.19737415751E+04  0.00000000000E+00 0.  1.
          1   -1    0    0  501    0 -0.00000000000E+00 -0.00000000000E+00 -0.26093304904E+00  0.26093304904E+00  0.00000000000E+00 0. -1.
          2    1    1    2  501    0 -0.20562602599E+02 -0.89769307461E+01  0.11349225055E+04  0.11351442637E+04  0.00000000000E+00 0.  1.
          1    1    1    2  502    0  0.20562602599E+02  0.89769307461E+01  0.83855813658E+03  0.83885824449E+03  0.00000000000E+00 0. -1.
</event>
<event>
 4    1  0.3555026E+003  0.3709061E+02  0.7546771E-02  0.1366433E+00
          2   -1    0    0  502    0  0.00000000000E+00  0.00000000000E+00  0.14537573077E+03  0.14537573077E+03  0.00000000000E+00 0.  1.
          1   -1    0    0  501    0 -0.00000000000E+00 -0.00000000000E+00 -0.35228867704E+03  0.35228867704E+03  0.00000000000E+00 0. -1.
          2    1    1    2  501    0 -0.31896327952E-01  0.37090595168E+02  0.14201092312E+03  0.14677471019E+03  0.00000000000E+00 0.  1.
          1    1    1    2  502    0  0.31896327952E-01 -0.37090595168E+02 -0.34892386939E+03  0.35088969762E+03  0.00000000000E+00 0. -1.
</event>
<event>
 4    1  0.3555026E+003  0.2042943E+02  0.7546771E-02  0.1527569E+00
          2   -1    0    0  502    0  0.00000000000E+00  0.00000000000E+00  0.55351528913E+02  0.55351528913E+02  0.00000000000E+00 0.  1.
          1   -1    0    0  501    0 -0.00000000000E+00 -0.00000000000E+00 -0.49716971584E+02  0.49716971584E+02  0.00000000000E+00 0. -1.
          2    1    1    2  501    0 -0.11262013992E+02 -0.17044900633E+02  0.51204075399E+02  0.55129111495E+02  0.00000000000E+00 0.  1.
          1    1    1    2  502    0  0.11262013992E+02  0.17044900633E+02 -0.45569518070E+02  0.49939389002E+02  0.00000000000E+00 0. -1.
</event>
<event>
 4    1  0.3555026E+003  0.3555810E+02  0.7546771E-02  0.1376681E+00
          2   -1    0    0  502    0  0.00000000000E+00  0.00000000000E+00  0.58209457023E+03  0.58209457023E+03  0.00000000000E+00 0.  1.
          1   -1    0    0  501    0 -0.00000000000E+00 -0.00000000000E+00 -0.10826102161E+03  0.10826102161E+03  0.00000000000E+00 0. -1.
          2    1    1    2  501    0 -0.12638529654E+01 -0.35535635970E+02  0.57861424893E+03  0.57970581143E+03  0.00000000000E+00 0.  1.
          1    1    1    2  502    0  0.12638529654E+01  0.35535635970E+02 -0.10478070030E+03  0.11064978041E+03  0.00000000000E+00 0. -1.
</event>
<event>
 4    1  0.3555026E+003  0.4333704E+02  0.7546771E-02  0.1329967E+00
          2   -1    0    0  502    0  0.00000000000E+00  0.00000000000E+00  0.64254600349E+03  0.64254600349E+03  0.00000000000E+00 0. -1.
          1   -1    0    0  501    0 -0.00000000000E+00 -0.00000000000E+00 -0.42536051158E+01  0.42536051158E+01  0.00000000000E+00 0. -1.
          2    1    1    2  501    0 -0.42695931149E+02  0.74267484584E+01  0.50003085243E+03  0.50190532226E+03  0.00000000000E+00 0. -1.
          1    1    1    2  502    0  0.42695931149E+02 -0.74267484584E+01  0.13826154595E+03  0.14489428635E+03  0.00000000000E+00 0. -1.
</event>
<event>
 4    1  0.3555026E+003  0.2764710E+02  0.7546771E-02  0.1441214E+00
          2   -1    0    0  502    0  0.00000000000E+00  0.00000000000E+00  0.98840156364E+00  0.98840156364E+00  0.00000000000E+00 0. -1.
          1   -1    0    0  501    0 -0.00000000000E+00 -0.00000000000E+00 -0.17314150301E+04  0.17314150301E+04  0.00000000000E+00 0.  1.
          2    1    1    2  501    0 -0.56966163487E+01 -0.27053852498E+02 -0.22086593799E+03  0.22258958856E+03  0.00000000000E+00 0. -1.
          1    1    1    2  502    0  0.56966163487E+01  0.27053852498E+02 -0.15095606905E+04  0.15098138431E+04  0.00000000000E+00 0.  1.
</event>
<event>
 4    1  0.3555026E+003  0.3110072E+02  0.7546771E-02  0.1410266E+00
          2   -1    0    0  502    0  0.00000000000E+00  0.00000000000E+00  0.55306437384E+01  0.55306437384E+01  0.00000000000E+00 0. -1.
          1   -1    0    0  501    0 -0.00000000000E+00 -0.00000000000E+00 -0.31301642423E+03  0.31301642423E+03  0.00000000000E+00 0. -1.
          2    1    1    2  501    0 -0.30464834679E+02  0.62568776812E+01 -0.47939805993E+02  0.57144375655E+02  0.00000000000E+00 0. -1.
          1    1    1    2  502    0  0.30464834679E+02 -0.62568776812E+01 -0.25954597450E+03  0.26140269231E+03  0.00000000000E+00 0. -1.
</event>
<event>
 4    1  0.3555026E+003  0.2029670E+02  0.7546771E-02  0.1529547E+00
          2   -1    0    0  502    0  0.00000000000E+00  0.00000000000E+00  0.23634856521E+02  0.23634856521E+02  0.00000000000E+00 0. -1.
          1   -1    0    0  501    0 -0.00000000000E+00 -0.00000000000E+00 -0.18102998503E+02  0.18102998503E+02  0.00000000000E+00 0. -1.
          2    1    1    2  501    0  0.19902192477E+02  0.39822939737E+01  0.67896393893E+01  0.21402222635E+02  0.00000000000E+00 0. -1.
          1    1    1    2  502    0 -0.19902192477E+02 -0.39822939737E+01 -0.12577813711E+01  0.20335632389E+02  0.00000000000E+00 0. -1.
</event>
<event>
 4    1  0.3555026E+003  0.2114654E+02  0.7546771E-02  0.1517183E+00
          2   -1    0    0  502    0  0.00000000000E+00  0.00000000000E+00  0.33747663207E+01  0.33747663207E+01  0.00000000000E+00 0. -1.
          1   -1    0    0  501    0 -0.00000000000E+00 -0.00000000000E+00 -0.30260607309E+03  0.30260607309E+03  0.00000000000E+00 0. -1.
          2    1    1    2  501    0 -0.20782414398E+02 -0.39073392361E+01 -0.34911816505E+02  0.40816797765E+02  0.00000000000E+00 0. -1.
          1    1    1    2  502    0  0.20782414398E+02  0.39073392361E+01 -0.26431949026E+03  0.26516404165E+03  0.00000000000E+00 0. -1.
</event>
<event>
 4    1  0.3555026E+003  0.2128516E+02  0.7546771E-02  0.1515232E+00
          2   -1    0    0  502    0  0.00000000000E+00  0.00000000000E+00  0.15749095424E+04  0.15749095424E+04  0.00000000000E+00 0. -1.
          1   -1    0    0  501    0 -0.00000000000E+00 -0.00000000000E+00 -0.64020015179E+01  0.64020015179E+01  0.00000000000E+00 0. -1.
          2    1    1    2  501    0 -0.16533473551E+02  0.13405301324E+02  0.15569414167E+04  0.15570869061E+04  0.00000000000E+00 0. -1.
          1    1    1    2  502    0  0.16533473551E+02 -0.13405301324E+02  0.11566124118E+02  0.24224637837E+02  0.00000000000E+00 0. -1.
</event>
<event>
 4    1  0.3555026E+003  0.2937369E+02  0.7546771E-02  0.1425118E+00
          2   -1    0    0  502    0  0.00000000000E+00  0.00000000000E+00  0.52150770681E+03  0.52150770681E+03  0.00000000000E+00 0. -1.
          1   -1    0    0  501    0 -0.00000000000E+00 -0.00000000000E+00 -0.60246813779E+01  0.60246813779E+01  0.00000000000E+00 0.  1.
          2    1    1    2  501    0 -0.13513836912E+02 -0.26080453206E+02  0.48239015172E+03  0.48328363546E+03  0.00000000000E+00 0. -1.
          1    1    1    2  502    0  0.13513836912E+02  0.26080453206E+02  0.33092873716E+02  0.44248752732E+02  0.00000000000E+00 0.  1.
</event>
<event>
 4    1  0.3555026E+003  0.2166179E+02  0.7546771E-02  0.1510022E+00
          2   -1    0    0  502    0  0.00000000000E+00  0.00000000000E+00  0.14544052241E+02  0.14544052241E+02  0.00000000000E+00 0.  1.
          1   -1    0    0  501    0 -0.00000000000E+00 -0.00000000000E+00 -0.93830458513E+03  0.93830458513E+03  0.00000000000E+00 0. -1.
          2    1    1    2  501    0  0.12343891970E+02  0.17800597846E+02  0.62816665890E+01  0.22554207762E+02  0.00000000000E+00 0.  1.
          1    1    1    2  502    0 -0.12343891970E+02 -0.17800597846E+02 -0.93004219948E+03  0.93029442961E+03  0.00000000000E+00 0. -1.
</event>
<event>
 4    1  0.3555026E+003  0.2314739E+02  0.7546771E-02  0.1490656E+00
          2   -1    0    0  502    0  0.00000000000E+00  0.00000000000E+00  0.67667844839E+03  0.67667844839E+03  0.00000000000E+00 0. -1.
          1   -1    0    0  501    0 -0.00000000000E+00 -0.00000000000E+00 -0.27492551923E+02  0.27492551923E+02  0.00000000000E+00 0. -1.
          2    1    1    2  501    0 -0.10863533533E+02 -0.20439801051E+02  0.67157120819E+03  0.67197000640E+03  0.00000000000E+00 0. -1.
          1    1    1    2  502    0  0.10863533533E+02  0.20439801051E+02 -0.22385311727E+02  0.32200993912E+02  0.00000000000E+00 0. -1.
</event>
<event>
 4    1  0.3555026E+003  0.2800795E+02  0.7546771E-02  0.1437738E+00
          2   -1    0    0  502    0  0.00000000000E+00  0.00000000000E+00  0.28192661723E+02  0.28192661723E+02  0.00000000000E+00 0.  1.
          1   -1    0    0  501    0 -0.00000000000E+00 -0.00000000000E+00 -0.32906297041E+02  0.32906297041E+02  0.00000000000E+00 0. -1.
          2    1    1    2  501    0 -0.93932316650E+01 -0.26385843076E+02  0.96485311743E+01  0.29623296065E+02  0.00000000000E+00 0.  1.
          1    1    1    2  502    0  0.93932316650E+01  0.26385843076E+02 -0.14362166493E+02  0.31475662699E+02  0.00000000000E+00 0. -1.
</event>
<event>
 4    1  0.3555026E+003  0.4678815E+02  0.7546771E-02  0.1312733E+00
          2   -1    0    0  502    0  0.00000000000E+00  0.00000000000E+00  0.10427290220E+03  0.10427290220E+03  0.00000000000E+00 0. -1.
          1   -1    0    0  501    0 -0.00000000000E+00 -0.00000000000E+00 -0.41703837849E+03  0.41703837849E+03  0.00000000000E+00 0. -1.
          2    1    1    2  501    0  0.36963304840E+02 -0.28685276549E+02  0.97627315953E+02  0.10825998252E+03  0.00000000000E+00 0. -1.
          1    1    1    2  502    0 -0.36963304840E+02  0.28685276549E+02 -0.41039279224E+03  0.41305129817E+03  0.00000000000E+00 0. -1.
</event>
<event>
 4    1  0.3555026E+003  0.2022498E+02  0.7546771E-02  0.1530624E+00
          2   -1    0    0  502    0  0.00000000000E+00  0.00000000000E+00  0.71403187992E+00  0.71403187992E+00  0.00000000000E+00 0. -1.
          1   -1    0    0  501    0 -0.00000000000E+00 -0.00000000000E+00 -0.66108820755E+03  0.66108820755E+03  0.00000000000E+00 0. -1.
          2    1    1    2  501    0  0.16007543681E+02  0.12361568235E+02 -0.20931126636E+03  0.21028612900E+03  0.00000000000E+00 0. -1.
          1    1    1    2  502    0 -0.16007543681E+02 -0.12361568235E+02 -0.45106290932E+03  0.45151611044E+03  0.00000000000E+00 0. -1.
</event>
<event>
 4    1  0.3555026E+003  0.2104237E+02  0.7546771E-02  0.1518661E+00
          2   -1    0    0  502    0  0.00000000000E+00  0.00000000000E+00  0.10277922279E+03  0.10277922279E+03  0.00000000000E+00 0.  1.
          1   -1    0    0  501    0 -0.00000000000E+00 -0.00000000000E+00 -0.44469718846E+02  0.44469718846E+02  0.00000000000E+00 0. -1.
          2    1    1    2  501    0  0.19086773425E+02 -0.88586902980E+01  0.99122145750E+02  0.10133104703E+03  0.00000000000E+00 0.  1.
          1    1    1    2  502    0 -0.19086773425E+02  0.88586902980E+01 -0.40812641809E+02  0.45917894606E+02  0.00000000000E+00 0. -1.
</event>
<event>
 4    1  0.3555026E+003  0.2206073E+02  0.7546771E-02  0.1504642E+00
          2   -1    0    0  502    0  0.00000000000E+00  0.00000000000E+00  0.22088117441E+02  0.22088117441E+02  0.00000000000E+00 0.  1.
          1   -1    0    0  501    0 -0.00000000000E+00 -0.00000000000E+00 -0.12515378584E+03  0.12515378584E+03  0.00000000000E+00 0. -1.
          2    1    1    2  501    0  0.21861660991E+02  0.29569534171E+01  0.15294132171E+02  0.26843738072E+02  0.00000000000E+00 0.  1.
          1    1    1    2  502    0 -0.21861660991E+02 -0.29569534171E+01 -0.11835980057E+03  0.12039816521E+03  0.00000000000E+00 0. -1.
</event>
<event>
 4    1  0.3555026E+003  0.8871998E+02  0.7546771E-02  0.1184934E+00
          2   -1    0    0  502    0  0.00000000000E+00  0.00000000000E+00  0.92227433962E+02  0.92227433962E+02  0.00000000000E+00 0. -1.
          1   -1    0    0  501    0 -0.00000000000E+00 -0.00000000000E+00 -0.55188053095E+03  0.55188053095E+03  0.00000000000E+00 0. -1.
          2    1    1    2  501    0  0.83665765677E+02  0.29517357306E+02  0.66280042091E+02  0.11074420395E+03  0.00000000000E+00 0. -1.
          1    1    1    2  502    0 -0.83665765677E+02 -0.29517357306E+02 -0.52593313908E+03  0.53336376096E+03  0.00000000000E+00 0. -1.
</event>
<event>
 4    1  0.3555026E+003  0.2015843E+02  0.7546771E-02  0.1531627E+00
          2   -1    0    0  502    0  0.00000000000E+00  0.00000000000E+00  0.13057100005E+03  0.13057100005E+03  0.00000000000E+00 0. -1.
          1   -1    0    0  501    0 -0.00000000000E+00 -0.00000000000E+00 -0.66074798424E+01  0.66074798424E+01  0.00000000000E+00 0. -1.
          2    1    1    2  501    0 -0.17262939683E+02 -0.10409294106E+02  0.11186783302E+03  0.11366958501E+03  0.00000000000E+00 0. -1.
          1    1    1    2  502    0  0.17262939683E+02  0.10409294106E+02  0.12095687185E+02  0.23508894886E+02  0.00000000000E+00 0. -1.
</event>
<event>
 4    1  0.3555026E+003  0.3148164E+02  0.7546771E-02  0.1407144E+00
          2   -1    0    0  502    0  0.00000000000E+00  0.00000000000E+00  0.10327587092E+03  0.10327587092E+03  0.00000000000E+00 0.  1.
          1   -1    0    0  501    0 -0.00000000000E+00 -0.00000000000E+00 -0.21866159293E+03  0.21866159293E+03  0.00000000000E+00 0. -1.
          2    1    1    2  501    0 -0.13413486355E+02 -0.28481082005E+02  0.99703962704E+02  0.10455607982E+03  0.00000000000E+00 0.  1.
          1    1    1    2  502    0  0.13413486355E+02  0.28481082005E+02 -0.21508968471E+03  0.21738138402E+03  0.00000000000E+00 0. -1.
</event>
<event>
 4    1  0.3555026E+003  0.3187440E+02  0.7546771E-02  0.1403978E+00
          2   -1    0    0  502    0  0.00000000000E+00  0.00000000000E+00  0.41737618060E+03  0.41737618060E+03  0.00000000000E+00 0.  1.
          1   -1    0    0  501    0 -0.00000000000E+00 -0.00000000000E+00 -0.28217179267E+01  0.28217179267E+01  0.00000000000E+00 0.  1.
          2    1    1    2  501    0 -0.29490858522E+02 -0.12094065384E+02  0.28513696375E+03  0.28691299247E+03  0.00000000000E+00 0.  1.
          1    1    1    2  502    0  0.29490858522E+02  0.12094065384E+02  0.12941749893E+03  0.13328490605E+03  0.00000000000E+00 0.  1.
</event>
<event>
 4    1  0.3555026E+003  0.2959021E+02  0.7546771E-02  0.1423191E+00
          2   -1    0    0  502    0  0.00000000000E+00  0.00000000000E+00  0.24428133900E+01  0.24428133900E+01  0.00000000000E+00 0.  1.
          1   -1    0    0  501    0 -0.00000000000E+00 -0.00000000000E+00 -0.17822476769E+04  0.17822476769E+04  0.00000000000E+00 0. -1.
          2    1    1    2  501    0 -0.23574210759E+02  0.17883996365E+02 -0.92319448286E+02  0.96945661433E+02  0.00000000000E+00 0.  1.
          1    1    1    2  502    0  0.23574210759E+02 -0.17883996365E+02 -0.16874854152E+04  0.16877448288E+04  0.00000000000E+00 0. -1.
</event>
<event>
 4    1  0.3555026E+003  0.2122466E+02  0.7546771E-02  0.1516081E+00
          2   -1    0    0  502    0  0.00000000000E+00  0.00000000000E+00  0.25055294654E+02  0.25055294654E+02  0.00000000000E+00 0. -1.
          1   -1    0    0  501    0 -0.00000000000E+00 -0.00000000000E+00 -0.13967958731E+03  0.13967958731E+03  0.00000000000E+00 0. -1.
          2    1    1    2  501    0 -0.71368305565E+01 -0.19988789357E+02  0.19571546473E+02  0.28870945286E+02  0.00000000000E+00 0. -1.
          1    1    1    2  502    0  0.71368305565E+01  0.19988789357E+02 -0.13419583913E+03  0.13586393668E+03  0.00000000000E+00 0. -1.
</event>
<event>
 4    1  0.3555026E+003  0.5180449E+02  0.7546771E-02  0.1290533E+00
          2   -1    0    0  502    0  0.00000000000E+00  0.00000000000E+00  0.97911921447E+02  0.97911921447E+02  0.00000000000E+00 0.  1.
          1   -1    0    0  501    0 -0.00000000000E+00 -0.00000000000E+00 -0.43704366697E+02  0.43704366697E+02  0.00000000000E+00 0.  1.
          2    1    1    2  501    0 -0.51494986982E+02  0.56543710719E+01  0.70339998368E+02  0.87358004596E+02  0.00000000000E+00 0.  1.
          1    1    1    2  502    0  0.51494986982E+02 -0.56543710719E+01 -0.16132443618E+02  0.54258283548E+02  0.00000000000E+00 0.  1.
</event>
<event>
 4    1  0.3555026E+003  0.2052224E+02  0.7546771E-02  0.1526197E+00
          2   -1    0    0  502    0  0.00000000000E+00  0.00000000000E+00  0.87920868625E+03  0.87920868625E+03  0.00000000000E+00 0. -1.
          1   -1    0    0  501    0 -0.00000000000E+00 -0.00000000000E+00 -0.85116247172E+01  0.85116247172E+01  0.00000000000E+00 0.  1.
          2    1    1    2  501    0  0.11632797867E+02  0.16906809256E+02  0.86653786870E+03  0.86678084893E+03  0.00000000000E+00 0. -1.
          1    1    1    2  502    0 -0.11632797867E+02 -0.16906809256E+02  0.41591928379E+01  0.20939462040E+02  0.00000000000E+00 0.  1.
</event>
<event>
 4    1  0.3555026E+003  0.2611712E+02  0.7546771E-02  0.1456684E+00
          2   -1    0    0  502    0  0.00000000000E+00  0.00000000000E+00  0.15784994924E+04  0.15784994924E+04  0.00000000000E+00 0.  1.
          1   -1    0    0  501    0 -0.00000000000E+00 -0.00000000000E+00 -0.94200462959E+01  0.94200462959E+01  0.00000000000E+00 0. -1.
          2    1    1    2  501    0 -0.25851786296E+02  0.37133561231E+01  0.15600752343E+04  0.15602938315E+04  0.00000000000E+00 0.  1.
          1    1    1    2  502    0  0.25851786296E+02 -0.37133561231E+01  0.90042117833E+01  0.27625707198E+02  0.00000000000E+00 0. -1.
</event>
<event>
 4    1  0.3555026E+003  0.2446667E+02  0.7546771E-02  0.1474859E+00
          2   -1    0    0  502    0  0.00000000000E+00  0.00000000000E+00  0.10716535298E+04  0.10716535298E+04  0.00000000000E+00 0.  1.
          1   -1    0    0  501    0 -0.00000000000E+00 -0.00000000000E+00 -0.39155782227E+01  0.39155782227E+01  0.00000000000E+00 0. -1.
          2    1    1    2  501    0 -0.23170437143E+02  0.78580524025E+01  0.10318182319E+04  0.10321082704E+04  0.00000000000E+00 0.  1.
          1    1    1    2  502    0  0.23170437143E+02 -0.78580524025E+01  0.35919719657E+02  0.43460837604E+02  0.00000000000E+00 0. -1.
</event>
<event>
 4    1  0.3555026E+003  0.3318072E+02  0.7546771E-02  0.1393825E+00
          2   -1    0    0  502    0  0.00000000000E+00  0.00000000000E+00  0.13173664763E+04  0.13173664763E+04  0.00000000000E+00 0.  1.
          1   -1    0    0  501    0 -0.00000000000E+00 -0.00000000000E+00 -0.11885771799E+02  0.11885771799E+02  0.00000000000E+00 0.  1.
          2    1    1    2  501    0 -0.96198315478E+01  0.31755613723E+02  0.12935745978E+04  0.12940000774E+04  0.00000000000E+00 0.  1.
          1    1    1    2  502    0  0.96198315478E+01 -0.31755613723E+02  0.11906106650E+02  0.35252170678E+02  0.00000000000E+00 0.  1.
</event>
<event>
 4    1  0.3555026E+003  0.2170592E+02  0.7546771E-02  0.1509420E+00
          2   -1    0    0  502    0  0.00000000000E+00  0.00000000000E+00  0.78041459614E+03  0.78041459614E+03  0.00000000000E+00 0. -1.
          1   -1    0    0  501    0 -0.00000000000E+00 -0.00000000000E+00 -0.41222011108E+02  0.41222011108E+02  0.00000000000E+00 0.  1.
          2    1    1    2  501    0 -0.17493849739E+02  0.12849592792E+02  0.77739519790E+03  0.77769816801E+03  0.00000000000E+00 0. -1.
          1    1    1    2  502    0  0.17493849739E+02 -0.12849592792E+02 -0.38202612861E+02  0.43938439242E+02  0.00000000000E+00 0.  1.
</event>
<event>
 4    1  0.3555026E+003  0.2322844E+02  0.7546771E-02  0.1489649E+00
          2   -1    0    0  502    0  0.00000000000E+00  0.00000000000E+00  0.10211080996E+04  0.10211080996E+04  0.00000000000E+00 0.  1.
          1   -1    0    0  501    0 -0.00000000000E+00 -0.00000000000E+00 -0.30525187094E+01  0.30525187094E+01  0.00000000000E+00 0.  1.
          2    1    1    2  501    0 -0.22904076961E+02 -0.38683150972E+01  0.97468164296E+03  0.97495839179E+03  0.00000000000E+00 0.  1.
          1    1    1    2  502    0  0.22904076961E+02  0.38683150972E+01  0.43373937976E+02  0.49202226563E+02  0.00000000000E+00 0.  1.
</event>
<event>
 4    1  0.3555026E+003  0.2078400E+02  0.7546771E-02  0.1522371E+00
          2   -1    0    0  502    0  0.00000000000E+00  0.00000000000E+00  0.11513190476E+04  0.11513190476E+04  0.00000000000E+00 0. -1.
          1   -1    0    0  501    0 -0.00000000000E+00 -0.00000000000E+00 -0.55233359083E+00  0.55233359083E+00  0.00000000000E+00 0.  1.
          2    1    1    2  501    0  0.20100627457E+02 -0.52857693630E+01  0.90153838159E+03  0.90177792613E+03  0.00000000000E+00 0. -1.
          1    1    1    2  502    0 -0.20100627457E+02  0.52857693630E+01  0.24922833238E+03  0.25009345501E+03  0.00000000000E+00 0.  1.
</event>
<event>
 4    1  0.3555026E+003  0.3545904E+02  0.7546771E-02  0.1377364E+00
          2   -1    0    0  502    0  0.00000000000E+00  0.00000000000E+00  0.37692462469E+02  0.37692462469E+02  0.00000000000E+00 0. -1.
          1   -1    0    0  501    0 -0.00000000000E+00 -0.00000000000E+00 -0.30704142717E+03  0.30704142717E+03  0.00000000000E+00 0.  1.
          2    1    1    2  501    0 -0.30953993415E+02 -0.17297217594E+02  0.28060073085E+02  0.45218482354E+02  0.00000000000E+00 0. -1.
          1    1    1    2  502    0  0.30953993415E+02  0.17297217594E+02 -0.29740903778E+03  0.29951540728E+03  0.00000000000E+00 0.  1.
</event>
<event>
 4    1  0.3555026E+003  0.2373431E+02  0.7546771E-02  0.1483478E+00
          2   -1    0    0  502    0  0.00000000000E+00  0.00000000000E+00  0.35867839621E+03  0.35867839621E+03  0.00000000000E+00 0.  1.
          1   -1    0    0  501    0 -0.00000000000E+00 -0.00000000000E+00 -0.14065585075E+02  0.14065585075E+02  0.00000000000E+00 0.  1.
          2    1    1    2  501    0 -0.11425419347E+02  0.20803301323E+02  0.34796553071E+03  0.34877403590E+03  0.00000000000E+00 0.  1.
          1    1    1    2  502    0  0.11425419347E+02 -0.20803301323E+02 -0.33527195784E+01  0.23969945385E+02  0.00000000000E+00 0.  1.
</event>
<event>
 4    1  0.3555026E+003  0.2653421E+02  0.7546771E-02  0.1452344E+00
          2   -1    0    0  502    0  0.00000000000E+00  0.00000000000E+00  0.11108715311E+02  0.11108715311E+02  0.00000000000E+00 0. -1.
          1   -1    0    0  501    0 -0.00000000000E+00 -0.00000000000E+00 -0.64005408564E+02  0.64005408564E+02  0.00000000000E+00 0.  1.
          2    1    1    2  501    0 -0.22411992333E+01  0.26439379931E+02 -0.30162596375E+02  0.40172702239E+02  0.00000000000E+00 0. -1.
          1    1    1    2  502    0  0.22411992333E+01 -0.26439379931E+02 -0.22734096877E+02  0.34941421636E+02  0.00000000000E+00 0.  1.
</event>
<event>
 4    1  0.3555026E+003  0.2320768E+02  0.7546771E-02  0.1489907E+00
          2   -1    0    0  502    0  0.00000000000E+00  0.00000000000E+00  0.15430123068E+03  0.15430123068E+03  0.00000000000E+00 0.  1.
          1   -1    0    0  501    0 -0.00000000000E+00 -0.00000000000E+00 -0.47459812081E+02  0.47459812081E+02  0.00000000000E+00 0.  1.
          2    1    1    2  501    0 -0.21410510614E+02 -0.89546942651E+01  0.15052063291E+03  0.15229923652E+03  0.00000000000E+00 0.  1.
          1    1    1    2  502    0  0.21410510614E+02  0.89546942651E+01 -0.43679214307E+02  0.49461806241E+02  0.00000000000E+00 0.  1.
</event>
<event>
 4    1  0.3555026E+003  0.2820704E+02  0.7546771E-02  0.1435846E+00
          2   -1    0    0  502    0  0.00000000000E+00  0.00000000000E+00  0.16441691537E+03  0.16441691537E+03  0.00000000000E+00 0.  1.
          1   -1    0    0  501    0 -0.00000000000E+00 -0.00000000000E+00 -0.19959695263E+02  0.19959695263E+02  0.00000000000E+00 0. -1.
          2    1    1    2  501    0  0.25533685429E+02  0.11986163626E+02  0.15246708833E+03  0.15505434607E+03  0.00000000000E+00 0.  1.
          1    1    1    2  502    0 -0.25533685429E+02 -0.11986163626E+02 -0.80098682279E+01  0.29322264563E+02  0.00000000000E+00 0. -1.
</event>
<event>
 4    1  0.3555026E+003  0.2322690E+02  0.7546771E-02  0.1489668E+00
          2   -1    0    0  502    0  0.00000000000E+00  0.00000000000E+00  0.72830214143E+01  0.72830214143E+01  0.00000000000E+00 0.  1.
          1   -1    0    0  501    0 -0.00000000000E+00 -0.00000000000E+00 -0.41307448514E+03  0.41307448514E+03  0.00000000000E+00 0.  1.
          2    1    1    2  501    0 -0.23165588752E+02  0.16865747638E+01 -0.12492544639E+02  0.26373333279E+02  0.00000000000E+00 0.  1.
          1    1    1    2  502    0  0.23165588752E+02 -0.16865747638E+01 -0.39329891908E+03  0.39398417327E+03  0.00000000000E+00 0.  1.
</event>
<event>
 4    1  0.3555026E+003  0.2943183E+02  0.7546771E-02  0.1424599E+00
          2   -1    0    0  502    0  0.00000000000E+00  0.00000000000E+00  0.15322001636E+02  0.15322001636E+02  0.00000000000E+00 0.  1.
          1   -1    0    0  501    0 -0.00000000000E+00 -0.00000000000E+00 -0.25968957675E+03  0.25968957675E+03  0.00000000000E+00 0. -1.
          2    1    1    2  501    0  0.27951767181E+02  0.92158183781E+01 -0.56328226292E+00  0.29437219363E+02  0.00000000000E+00 0.  1.
          1    1    1    2  502    0 -0.27951767181E+02 -0.92158183781E+01 -0.24380429285E+03  0.24557435902E+03  0.00000000000E+00 0. -1.
</event>
<event>
 4    1  0.3555026E+003  0.2612718E+02  0.7546771E-02  0.1456578E+00
          2   -1    0    0  502    0  0.00000000000E+00  0.00000000000E+00  0.50717715364E+02  0.50717715364E+02  0.00000000000E+00 0.  1.
          1   -1    0    0  501    0 -0.00000000000E+00 -0.00000000000E+00 -0.22615082508E+03  0.22615082508E+03  0.00000000000E+00 0.  1.
          2    1    1    2  501    0 -0.15255589772E+02  0.21210768271E+02  0.46535061774E+02  0.53367983700E+02  0.00000000000E+00 0.  1.
          1    1    1    2  502    0  0.15255589772E+02 -0.21210768271E+02 -0.22196817149E+03  0.22350055675E+03  0.00000000000E+00 0.  1.
</event>
<event>
 4    1  0.3555026E+003  0.2455934E+02  0.7546771E-02  0.1473794E+00
          2   -1    0    0  502    0  0.00000000000E+00  0.00000000000E+00  0.15058155490E+04  0.15058155490E+04  0.00000000000E+00 0. -1.
          1   -1    0    0  501    0 -0.00000000000E+00 -0.00000000000E+00 -0.18620693595E+02  0.18620693595E+02  0.00000000000E+00 0. -1.
          2    1    1    2  501    0  0.19750676856E+02  0.14596977281E+02  0.14975728488E+04  0.14977742147E+04  0.00000000000E+00 0. -1.
          1    1    1    2  502    0 -0.19750676856E+02 -0.14596977281E+02 -0.10377993375E+02  0.26662027839E+02  0.00000000000E+00 0. -1.
</event>
<event>
 4    1  0.3555026E+003  0.2137993E+02  0.7546771E-02  0.1513909E+00
          2   -1    0    0  502    0  0.00000000000E+00  0.00000000000E+00  0.10036498891E+03  0.10036498891E+03  0.00000000000E+00 0. -1.
          1   -1    0    0  501    0 -0.00000000000E+00 -0.00000000000E+00 -0.12420515168E+04  0.12420515168E+04  0.00000000000E+00 0. -1.
          2    1    1    2  501    0 -0.37755816773E+01 -0.21043920687E+02  0.99133255086E+02  0.10141254301E+03  0.00000000000E+00 0. -1.
          1    1    1    2  502    0  0.37755816773E+01  0.21043920687E+02 -0.12408197830E+04  0.12410039627E+04  0.00000000000E+00 0. -1.
</event>
<event>
 4    1  0.3555026E+003  0.2299618E+02  0.7546771E-02  0.1492546E+00
          2   -1    0    0  502    0  0.00000000000E+00  0.00000000000E+00  0.59482271826E+03  0.59482271826E+03  0.00000000000E+00 0.  1.
          1   -1    0    0  501    0 -0.00000000000E+00 -0.00000000000E+00 -0.22511435436E+01  0.22511435436E+01  0.00000000000E+00 0.  1.
          2    1    1    2  501    0  0.19352884403E+02  0.12421355421E+02  0.52850637653E+03  0.52900644064E+03  0.00000000000E+00 0.  1.
          1    1    1    2  502    0 -0.19352884403E+02 -0.12421355421E+02  0.64065198180E+02  0.68067421157E+02  0.00000000000E+00 0.  1.
</event>
<event>
 4    1  0.3555026E+003  0.2633296E+02  0.7546771E-02  0.1454426E+00
          2   -1    0    0  502    0  0.00000000000E+00  0.00000000000E+00  0.93001960927E+02  0.93001960927E+02  0.00000000000E+00 0. -1.
          1   -1    0    0  501    0 -0.00000000000E+00 -0.00000000000E+00 -0.17685868879E+03  0.17685868879E+03  0.00000000000E+00 0.  1.
          2    1    1    2  501    0 -0.15622439573E+02  0.21198210320E+02  0.90127133649E+02  0.93895287202E+02  0.00000000000E+00 0. -1.
          1    1    1    2  502    0  0.15622439573E+02 -0.21198210320E+02 -0.17398386151E+03  0.17596536252E+03  0.00000000000E+00 0.  1.
</event>
<event>
 4    1  0.3555026E+003  0.5313873E+02  0.7546771E-02  0.1285109E+00
          2   -1    0    0  502    0  0.00000000000E+00  0.00000000000E+00  0.23094819518E+02  0.23094819518E+02  0.00000000000E+00 0.  1.
          1   -1    0    0  501    0 -0.00000000000E+00 -0.00000000000E+00 -0.12413721147E+03  0.12413721147E+03  0.00000000000E+00 0.  1.
          2    1    1    2  501    0  0.52288464864E+02 -0.94678996982E+01 -0.41484388941E+02  0.67414235948E+02  0.00000000000E+00 0.  1.
          1    1    1    2  502    0 -0.52288464864E+02  0.94678996982E+01 -0.59558003012E+02  0.79817795042E+02  0.00000000000E+00 0.  1.
</event>
<event>
 4    1  0.3555026E+003  0.2968399E+02  0.7546771E-02  0.1422363E+00
          2   -1    0    0  502    0  0.00000000000E+00  0.00000000000E+00  0.12726740976E+01  0.12726740976E+01  0.00000000000E+00 0.  1.
          1   -1    0    0  501    0 -0.00000000000E+00 -0.00000000000E+00 -0.12730578271E+04  0.12730578271E+04  0.00000000000E+00 0. -1.
          2    1    1    2  501    0 -0.29670488274E+02  0.89532167918E+00 -0.20555842875E+03  0.20769065242E+03  0.00000000000E+00 0.  1.
          1    1    1    2  502    0  0.29670488274E+02 -0.89532167918E+00 -0.10662267243E+04  0.10666398488E+04  0.00000000000E+00 0. -1.
</event>
<event>
 4    1  0.3555026E+003  0.2149000E+02  0.7546771E-02  0.1512383E+00
          2   -1    0    0  502    0  0.00000000000E+00  0.00000000000E+00  0.22659375782E+03  0.22659375782E+03  0.00000000000E+00 0. -1.
          1   -1    0    0  501    0 -0.00000000000E+00 -0.00000000000E+00 -0.22075885612E+01  0.22075885612E+01  0.00000000000E+00 0. -1.
          2    1    1    2  501    0  0.34653486284E+00  0.21487208317E+02  0.14389187621E+03  0.14548777354E+03  0.00000000000E+00 0. -1.
          1    1    1    2  502    0 -0.34653486284E+00 -0.21487208317E+02  0.80494293047E+02  0.83313572849E+02  0.00000000000E+00 0. -1.
</event>
<event>
 4    1  0.3555026E+003  0.2601649E+02  0.7546771E-02  0.1457746E+00
          2   -1    0    0  502    0  0.00000000000E+00  0.00000000000E+00  0.18491257633E+03  0.18491257633E+03  0.00000000000E+00 0.  1.
          1   -1    0    0  501    0 -0.00000000000E+00 -0.00000000000E+00 -0.47695805499E+03  0.47695805499E+03  0.00000000000E+00 0.  1.
          2    1    1    2  501    0 -0.19734670402E+02 -0.16952896277E+02  0.18364024668E+03  0.18547398229E+03  0.00000000000E+00 0.  1.
          1    1    1    2  502    0  0.19734670402E+02  0.16952896277E+02 -0.47568572534E+03  0.47639664902E+03  0.00000000000E+00 0.  1.
</event>
<event>
 4    1  0.3555026E+003  0.2631702E+02  0.7546771E-02  0.1454592E+00
          2   -1    0    0  502    0  0.00000000000E+00  0.00000000000E+00  0.32570795839E+01  0.32570795839E+01  0.00000000000E+00 0.  1.
          1   -1    0    0  501    0 -0.00000000000E+00 -0.00000000000E+00 -0.65089165437E+03  0.65089165437E+03  0.00000000000E+00 0.  1.
          2    1    1    2  501    0  0.13708443259E+01  0.26281292646E+02 -0.55434958885E+02  0.61364649628E+02  0.00000000000E+00 0.  1.
          1    1    1    2  502    0 -0.13708443259E+01 -0.26281292646E+02 -0.59219961590E+03  0.59278408432E+03  0.00000000000E+00 0.  1.
</event>
<event>
 4    1  0.3555026E+003  0.2212863E+02  0.7546771E-02  0.1503740E+00
          2   -1    0    0  502    0  0.00000000000E+00  0.00000000000E+00  0.40252980923E+02  0.40252980923E+02  0.00000000000E+00 0. -1.
          1   -1    0    0  501    0 -0.00000000000E+00 -0.00000000000E+00 -0.18855794046E+03  0.18855794046E+03  0.00000000000E+00 0.  1.
          2    1    1    2  501    0  0.61093019075E+01 -0.21268584970E+02  0.36500975332E+02  0.42684862383E+02  0.00000000000E+00 0. -1.
          1    1    1    2  502    0 -0.61093019075E+01  0.21268584970E+02 -0.18480593487E+03  0.18612605900E+03  0.00000000000E+00 0.  1.
</event>
<event>
 4    1  0.3555026E+003  0.2230757E+02  0.7546771E-02  0.1501381E+00
          2   -1    0    0  502    0  0.00000000000E+00  0.00000000000E+00  0.54104573091E+01  0.54104573091E+01  0.00000000000E+00 0. -1.
          1   -1    0    0  501    0 -0.00000000000E+00 -0.00000000000E+00 -0.13358897908E+04  0.13358897908E+04  0.00000000000E+00 0.  1.
          2    1    1    2  501    0 -0.21497315879E+02  0.59575921853E+01 -0.18088128686E+02  0.28719468902E+02  0.00000000000E+00 0. -1.
          1    1    1    2  502    0  0.21497315879E+02 -0.59575921853E+01 -0.13123912048E+04  0.13125807792E+04  0.00000000000E+00 0.  1.
</event>
<event>
 4    1  0.3555026E+003  0.5843465E+02  0.7546771E-02  0.1265246E+00
          2   -1    0    0  502    0  0.00000000000E+00  0.00000000000E+00  0.10672450865E+04  0.10672450865E+04  0.00000000000E+00 0. -1.
          1   -1    0    0  501    0 -0.00000000000E+00 -0.00000000000E+00 -0.89290057292E+01  0.89290057292E+01  0.00000000000E+00 0. -1.
          2    1    1    2  501    0 -0.26042454295E+02  0.52310598497E+02  0.96019159003E+03  0.96196803362E+03  0.00000000000E+00 0. -1.
          1    1    1    2  502    0  0.26042454295E+02 -0.52310598497E+02  0.98124490761E+02  0.11420605863E+03  0.00000000000E+00 0. -1.
</event>
<event>
 4    1  0.3555026E+003  0.2024866E+02  0.7546771E-02  0.1530268E+00
          2   -1    0    0  502    0  0.00000000000E+00  0.00000000000E+00  0.47465625638E+01  0.47465625638E+01  0.00000000000E+00 0.  1.
          1   -1    0    0  501    0 -0.00000000000E+00 -0.00000000000E+00 -0.13458255108E+03  0.13458255108E+03  0.00000000000E+00 0. -1.
          2    1    1    2  501    0  0.59116902226E+01  0.19366465362E+02 -0.23226013948E+02  0.30813240430E+02  0.00000000000E+00 0.  1.
          1    1    1    2  502    0 -0.59116902226E+01 -0.19366465362E+02 -0.10660997457E+03  0.10851587322E+03  0.00000000000E+00 0. -1.
</event>
<event>
 4    1  0.3555026E+003  0.3374345E+02  0.7546771E-02  0.1389619E+00
          2   -1    0    0  502    0  0.00000000000E+00  0.00000000000E+00  0.17937308502E+04  0.17937308502E+04  0.00000000000E+00 0. -1.
          1   -1    0    0  501    0 -0.00000000000E+00 -0.00000000000E+00 -0.14028990850E+01  0.14028990850E+01  0.00000000000E+00 0.  1.
          2    1    1    2  501    0  0.31986805587E+02  0.10745443222E+02  0.15603175864E+04  0.15606824119E+04  0.00000000000E+00 0. -1.
          1    1    1    2  502    0 -0.31986805587E+02 -0.10745443222E+02  0.23201036466E+03  0.23445133737E+03  0.00000000000E+00 0.  1.
</event>
<event>
 4    1  0.3555026E+003  0.3769791E+02  0.7546771E-02  0.1362531E+00
          2   -1    0    0  502    0  0.00000000000E+00  0.00000000000E+00  0.24207918600E+01  0.24207918600E+01  0.00000000000E+00 0.  1.
          1   -1    0    0  501    0 -0.00000000000E+00 -0.00000000000E+00 -0.73553711701E+03  0.73553711701E+03  0.00000000000E+00 0.  1.
          2    1    1    2  501    0  0.58165160791E+01  0.37246465276E+02 -0.53234137910E+03  0.53367450280E+03  0.00000000000E+00 0.  1.
          1    1    1    2  502    0 -0.58165160791E+01 -0.37246465276E+02 -0.20077494605E+03  0.20428340607E+03  0.00000000000E+00 0.  1.
</event>
<event>
 4    1  0.3555026E+003  0.3677071E+02  0.7546771E-02  0.1368524E+00
          2   -1    0    0  502    0  0.00000000000E+00  0.00000000000E+00  0.14712627782E+04  0.14712627782E+04  0.00000000000E+00 0.  1.
          1   -1    0    0  501    0 -0.00000000000E+00 -0.00000000000E+00 -0.29377575433E+01  0.29377575433E+01  0.00000000000E+00 0.  1.
          2    1    1    2  501    0  0.16227508739E+02 -0.32996255049E+02  0.13451904725E+04  0.13456929412E+04  0.00000000000E+00 0.  1.
          1    1    1    2  502    0 -0.16227508739E+02  0.32996255049E+02  0.12313454819E+03  0.12850759450E+03  0.00000000000E+00 0.  1.
</event>
<event>
 4    1  0.3555026E+003  0.2010223E+02  0.7546771E-02  0.1532479E+00
          2   -1    0    0  502    0  0.00000000000E+00  0.00000000000E+00  0.14340398397E+04  0.14340398397E+04  0.00000000000E+00 0.  1.
          1   -1    0    0  501    0 -0.00000000000E+00 -0.00000000000E+00 -0.31114848721E+00  0.31114848721E+00  0.00000000000E+00 0.  1.
          2    1    1    2  501    0 -0.19984287151E+02 -0.21743953570E+01  0.93715697348E+03  0.93737254743E+03  0.00000000000E+00 0.  1.
          1    1    1    2  502    0  0.19984287151E+02  0.21743953570E+01  0.49657171772E+03  0.49697844074E+03  0.00000000000E+00 0.  1.
</event>
<event>
 4    1  0.3555026E+003  0.5362088E+02  0.7546771E-02  0.1283193E+00
          2   -1    0    0  502    0  0.00000000000E+00  0.00000000000E+00  0.11953775407E+03  0.11953775407E+03  0.00000000000E+00 0. -1.
          1   -1    0    0  501    0 -0.00000000000E+00 -0.00000000000E+00 -0.52472476305E+02  0.52472476305E+02  0.00000000000E+00 0. -1.
          2    1    1    2  501    0  0.24413072042E+02  0.47740975006E+02  0.96827619915E+02  0.11068327227E+03  0.00000000000E+00 0. -1.
          1    1    1    2  502    0 -0.24413072042E+02 -0.47740975006E+02 -0.29762342148E+02  0.61326958111E+02  0.00000000000E+00 0. -1.
</event>
<event>
 4    1  0.3555026E+003  0.2413578E+02  0.7546771E-02  0.1478708E+00
          2   -1    0    0  502    0  0.00000000000E+00  0.00000000000E+00  0.10956672340E+02  0.10956672340E+02  0.00000000000E+00 0. -1.
          1   -1    0    0  501    0 -0.00000000000E+00 -0.00000000000E+00 -0.33988921283E+03  0.33988921283E+03  0.00000000000E+00 0.  1.
          2    1    1    2  501    0 -0.10051609416E+02  0.21943133639E+02 -0.33467376383E+01  0.24366711279E+02  0.00000000000E+00 0. -1.
          1    1    1    2  502    0  0.10051609416E+02 -0.21943133639E+02 -0.32558580286E+03  0.32647917389E+03  0.00000000000E+00 0.  1.
</event>
<event>
 4    1  0.3555026E+003  0.2143233E+02  0.7546771E-02  0.1513181E+00
          2   -1    0    0  502    0  0.00000000000E+00  0.00000000000E+00  0.23724480782E+03  0.23724480782E+03  0.00000000000E+00 0. -1.
          1   -1    0    0  501    0 -0.00000000000E+00 -0.00000000000E+00 -0.26452145108E+02  0.26452145108E+02  0.00000000000E+00 0. -1.
          2    1    1    2  501    0 -0.11848162612E+02  0.17859619022E+02  0.23232779945E+03  0.23331427591E+03  0.00000000000E+00 0. -1.
          1    1    1    2  502    0  0.11848162612E+02 -0.17859619022E+02 -0.21535136731E+02  0.30382677020E+02  0.00000000000E+00 0. -1.
</event>
<event>
 4    1  0.3555026E+003  0.2276820E+02  0.7546771E-02  0.1495430E+00
          2   -1    0    0  502    0  0.00000000000E+00  0.00000000000E+00  0.99163931057E+01  0.99163931057E+01  0.00000000000E+00 0.  1.
          1   -1    0    0  501    0 -0.00000000000E+00 -0.00000000000E+00 -0.41089423452E+03  0.41089423452E+03  0.00000000000E+00 0. -1.
          2    1    1    2  501    0  0.20456731236E+02 -0.99956562034E+01 -0.39232083430E+01  0.23103734752E+02  0.00000000000E+00 0.  1.
          1    1    1    2  502    0 -0.20456731236E+02  0.99956562034E+01 -0.39705463307E+03  0.39770689288E+03  0.00000000000E+00 0. -1.
</event>
<event>
 4    1  0.3555026E+003  0.2278775E+02  0.7546771E-02  0.1495181E+00
          2   -1    0    0  502    0  0.00000000000E+00  0.00000000000E+00  0.72357705003E+03  0.72357705003E+03  0.00000000000E+00 0. -1.
          1   -1    0    0  501    0 -0.00000000000E+00 -0.00000000000E+00 -0.26734721575E+03  0.26734721575E+03  0.00000000000E+00 0.  1.
          2    1    1    2  501    0 -0.82425417854E+01  0.21244815530E+02  0.72291160104E+03  0.72327067174E+03  0.00000000000E+00 0. -1.
          1    1    1    2  502    0  0.82425417854E+01 -0.21244815530E+02 -0.26668176675E+03  0.26765359404E+03  0.00000000000E+00 0.  1.
</event>
<event>
 4    1  0.3555026E+003  0.7428241E+02  0.7546771E-02  0.1217782E+00
          2   -1    0    0  502    0  0.00000000000E+00  0.00000000000E+00  0.54686623233E+03  0.54686623233E+03  0.00000000000E+00 0.  1.
          1   -1    0    0  501    0 -0.00000000000E+00 -0.00000000000E+00 -0.17888685970E+02  0.17888685970E+02  0.00000000000E+00 0. -1.
          2    1    1    2  501    0  0.20011748818E+02  0.71536053392E+02  0.45093417983E+03  0.45701150047E+03  0.00000000000E+00 0.  1.
          1    1    1    2  502    0 -0.20011748818E+02 -0.71536053392E+02  0.78043366527E+02  0.10774341782E+03  0.00000000000E+00 0. -1.
</event>
<event>
 4    1  0.3555026E+003  0.2395974E+02  0.7546771E-02  0.1480786E+00
          2   -1    0    0  502    0  0.00000000000E+00  0.00000000000E+00  0.57955821166E+00  0.57955821166E+00  0.00000000000E+00 0.  1.
          1   -1    0    0  501    0 -0.00000000000E+00 -0.00000000000E+00 -0.18229210134E+04  0.18229210134E+04  0.00000000000E+00 0.  1.
          2    1    1    2  501    0 -0.11152049501E+02  0.21206155834E+02 -0.29506404705E+03  0.29603523627E+03  0.00000000000E+00 0.  1.
          1    1    1    2  502    0  0.11152049501E+02 -0.21206155834E+02 -0.15272774082E+04  0.15274653354E+04  0.00000000000E+00 0.  1.
</event>
<event>
 4    1  0.3555026E+003  0.2993176E+02  0.7546771E-02  0.1420191E+00
          2   -1    0    0  502    0  0.00000000000E+00  0.00000000000E+00  0.17106391788E+02  0.17106391788E+02  0.00000000000E+00 0.  1.
          1   -1    0    0  501    0 -0.00000000000E+00 -0.00000000000E+00 -0.84331679152E+02  0.84331679152E+02  0.00000000000E+00 0.  1.
          2    1    1    2  501    0 -0.16577319754E+02  0.24921929454E+02 -0.23898903344E+01  0.30027015731E+02  0.00000000000E+00 0.  1.
          1    1    1    2  502    0  0.16577319754E+02 -0.24921929454E+02 -0.64835397030E+02  0.71411055208E+02  0.00000000000E+00 0.  1.
</event>
<event>
 4    1  0.3555026E+003  0.2140251E+02  0.7546771E-02  0.1513595E+00
          2   -1    0    0  502    0  0.00000000000E+00  0.00000000000E+00  0.82149678974E+02  0.82149678974E+02  0.00000000000E+00 0. -1.
          1   -1    0    0  501    0 -0.00000000000E+00 -0.00000000000E+00 -0.24208648791E+02  0.24208648791E+02  0.00000000000E+00 0.  1.
          2    1    1    2  501    0  0.14383449306E+02 -0.15848775337E+02  0.75625003534E+02  0.78595219022E+02  0.00000000000E+00 0. -1.
          1    1    1    2  502    0 -0.14383449306E+02  0.15848775337E+02 -0.17683973351E+02  0.27763108743E+02  0.00000000000E+00 0.  1.
</event>
<event>
 4    1  0.3555026E+003  0.2304386E+02  0.7546771E-02  0.1491948E+00
          2   -1    0    0  502    0  0.00000000000E+00  0.00000000000E+00  0.32301278560E+03  0.32301278560E+03  0.00000000000E+00 0.  1.
          1   -1    0    0  501    0 -0.00000000000E+00 -0.00000000000E+00 -0.15428418963E+02  0.15428418963E+02  0.00000000000E+00 0.  1.
          2    1    1    2  501    0  0.16566302789E+02  0.16018030284E+02  0.31374334820E+03  0.31458847439E+03  0.00000000000E+00 0.  1.
          1    1    1    2  502    0 -0.16566302789E+02 -0.16018030284E+02 -0.61589815678E+01  0.23852730163E+02  0.00000000000E+00 0.  1.
</event>
<event>
 4    1  0.3555026E+003  0.2555143E+02  0.7546771E-02  0.1462728E+00
          2   -1    0    0  502    0  0.00000000000E+00  0.00000000000E+00  0.56393153602E+02  0.56393153602E+02  0.00000000000E+00 0.  1.
          1   -1    0    0  501    0 -0.00000000000E+00 -0.00000000000E+00 -0.11584492798E+02  0.11584492798E+02  0.00000000000E+00 0.  1.
          2    1    1    2  501    0 -0.89529813768E+01  0.23931553541E+02  0.21551859370E+02  0.33426901931E+02  0.00000000000E+00 0.  1.
          1    1    1    2  502    0  0.89529813768E+01 -0.23931553541E+02  0.23256801434E+02  0.34550744469E+02  0.00000000000E+00 0.  1.
</event>
<event>
 4    1  0.3555026E+003  0.2081336E+02  0.7546771E-02  0.1521946E+00
          2   -1    0    0  502    0  0.00000000000E+00  0.00000000000E+00  0.44625659536E+01  0.44625659536E+01  0.00000000000E+00 0. -1.
          1   -1    0    0  501    0 -0.00000000000E+00 -0.00000000000E+00 -0.27826827471E+03  0.27826827471E+03  0.00000000000E+00 0.  1.
          2    1    1    2  501    0  0.29552668426E+01  0.20602487439E+02 -0.22829452790E+02  0.30893041377E+02  0.00000000000E+00 0. -1.
          1    1    1    2  502    0 -0.29552668426E+01 -0.20602487439E+02 -0.25097625597E+03  0.25183779929E+03  0.00000000000E+00 0.  1.
</event>
<event>
 4    1  0.3555026E+003  0.3564952E+02  0.7546771E-02  0.1376054E+00
          2   -1    0    0  502    0  0.00000000000E+00  0.00000000000E+00  0.81790600052E+03  0.81790600052E+03  0.00000000000E+00 0. -1.
          1   -1    0    0  501    0 -0.00000000000E+00 -0.00000000000E+00 -0.37834701195E+02  0.37834701195E+02  0.00000000000E+00 0. -1.
          2    1    1    2  501    0  0.53498876366E+01 -0.35245811310E+02  0.80902779410E+03  0.80981285501E+03  0.00000000000E+00 0. -1.
          1    1    1    2  502    0 -0.53498876366E+01  0.35245811310E+02 -0.28956494780E+02  0.45927846701E+02  0.00000000000E+00 0. -1.
</event>
<event>
 4    1  0.3555026E+003  0.2213006E+02  0.7546771E-02  0.1503721E+00
          2   -1    0    0  502    0  0.00000000000E+00  0.00000000000E+00  0.22568468977E+02  0.22568468977E+02  0.00000000000E+00 0. -1.
          1   -1    0    0  501    0 -0.00000000000E+00 -0.00000000000E+00 -0.25907327915E+02  0.25907327915E+02  0.00000000000E+00 0. -1.
          2    1    1    2  501    0  0.21801831068E+02 -0.37973279976E+01  0.80979538110E+01  0.23565152106E+02  0.00000000000E+00 0. -1.
          1    1    1    2  502    0 -0.21801831068E+02  0.37973279976E+01 -0.11436812749E+02  0.24910644787E+02  0.00000000000E+00 0. -1.
</event>
<event>
 4    1  0.3555026E+003  0.2836511E+02  0.7546771E-02  0.1434357E+00
          2   -1    0    0  502    0  0.00000000000E+00  0.00000000000E+00  0.27715043634E+02  0.27715043634E+02  0.00000000000E+00 0.  1.
          1   -1    0    0  501    0 -0.00000000000E+00 -0.00000000000E+00 -0.11518740256E+04  0.11518740256E+04  0.00000000000E+00 0.  1.
          2    1    1    2  501    0  0.75259123459E+01 -0.27348489677E+02  0.20235387940E+02  0.34843222717E+02  0.00000000000E+00 0.  1.
          1    1    1    2  502    0 -0.75259123459E+01  0.27348489677E+02 -0.11443943699E+04  0.11447458465E+04  0.00000000000E+00 0.  1.
</event>
<event>
 4    1  0.3555026E+003  0.2077726E+02  0.7546771E-02  0.1522469E+00
          2   -1    0    0  502    0  0.00000000000E+00  0.00000000000E+00  0.57820487922E+03  0.57820487922E+03  0.00000000000E+00 0. -1.
          1   -1    0    0  501    0 -0.00000000000E+00 -0.00000000000E+00 -0.52617042548E+01  0.52617042548E+01  0.00000000000E+00 0.  1.
          2    1    1    2  501    0  0.20729559248E+02  0.14071649539E+01  0.55671560362E+03  0.55710318438E+03  0.00000000000E+00 0. -1.
          1    1    1    2  502    0 -0.20729559248E+02 -0.14071649539E+01  0.16227571352E+02  0.26363399094E+02  0.00000000000E+00 0.  1.
</event>
<event>
 4    1  0.3555026E+003  0.3470736E+02  0.7546771E-02  0.1382632E+00
          2   -1    0    0  502    0  0.00000000000E+00  0.00000000000E+00  0.17205298161E+03  0.17205298161E+03  0.00000000000E+00 0.  1.
          1   -1    0    0  501    0 -0.00000000000E+00 -0.00000000000E+00 -0.70890744340E+01  0.70890744340E+01  0.00000000000E+00 0.  1.
          2    1    1    2  501    0 -0.18672788124E+01  0.34657094312E+02  0.92446673768E+02  0.98747093157E+02  0.00000000000E+00 0.  1.
          1    1    1    2  502    0  0.18672788124E+01 -0.34657094312E+02  0.72517233404E+02  0.80394962882E+02  0.00000000000E+00 0.  1.
</event>
<event>
 4    1  0.3555026E+003  0.5394584E+02  0.7546771E-02  0.1281915E+00
          2   -1    0    0  502    0  0.00000000000E+00  0.00000000000E+00  0.37794191023E+03  0.37794191023E+03  0.00000000000E+00 0.  1.
          1   -1    0    0  501    0 -0.00000000000E+00 -0.00000000000E+00 -0.78666973001E+01  0.78666973001E+01  0.00000000000E+00 0.  1.
          2    1    1    2  501    0  0.12399287888E+02 -0.52501540625E+02  0.21311812720E+03  0.21983969216E+03  0.00000000000E+00 0.  1.
          1    1    1    2  502    0 -0.12399287888E+02  0.52501540625E+02  0.15695708574E+03  0.16596891538E+03  0.00000000000E+00 0.  1.
</event>
<event>
 4    1  0.3555026E+003  0.4085249E+02  0.7546771E-02  0.1343561E+00
          2   -1    0    0  502    0  0.00000000000E+00  0.00000000000E+00  0.33540985636E+03  0.33540985636E+03  0.00000000000E+00 0. -1.
          1   -1    0    0  501    0 -0.00000000000E+00 -0.00000000000E+00 -0.37014902336E+02  0.37014902336E+02  0.00000000000E+00 0. -1.
          2    1    1    2  501    0 -0.40620960744E+02  0.43432348057E+01  0.32244240986E+03  0.32502005141E+03  0.00000000000E+00 0. -1.
          1    1    1    2  502    0  0.40620960744E+02 -0.43432348057E+01 -0.24047455840E+02  0.47404707285E+02  0.00000000000E+00 0. -1.
</event>
<event>
 4    1  0.3555026E+003  0.2984291E+02  0.7546771E-02  0.1420967E+00
          2   -1    0    0  502    0  0.00000000000E+00  0.00000000000E+00  0.18991340429E+02  0.18991340429E+02  0.00000000000E+00 0. -1.
          1   -1    0    0  501    0 -0.00000000000E+00 -0.00000000000E+00 -0.49433746058E+02  0.49433746058E+02  0.00000000000E+00 0. -1.
          2    1    1    2  501    0 -0.27698068800E+02 -0.11109279903E+02 -0.74679793301E+01  0.30763124524E+02  0.00000000000E+00 0. -1.
          1    1    1    2  502    0  0.27698068800E+02  0.11109279903E+02 -0.22974426299E+02  0.37661961964E+02  0.00000000000E+00 0. -1.
</event>
<event>
 4    1  0.3555026E+003  0.2625624E+02  0.7546771E-02  0.1455226E+00
          2   -1    0    0  502    0  0.00000000000E+00  0.00000000000E+00  0.69408381348E+03  0.69408381348E+03  0.00000000000E+00 0.  1.
          1   -1    0    0  501    0 -0.00000000000E+00 -0.00000000000E+00 -0.47545868740E+02  0.47545868740E+02  0.00000000000E+00 0. -1.
          2    1    1    2  501    0 -0.20934517829E+02  0.15847268686E+02  0.69019019448E+03  0.69068943420E+03  0.00000000000E+00 0.  1.
          1    1    1    2  502    0  0.20934517829E+02 -0.15847268686E+02 -0.43652249736E+02  0.50940248022E+02  0.00000000000E+00 0. -1.
</event>
<event>
 4    1  0.3555026E+003  0.2091337E+02  0.7546771E-02  0.1520505E+00
          2   -1    0    0  502    0  0.00000000000E+00  0.00000000000E+00  0.29775513903E+02  0.29775513903E+02  0.00000000000E+00 0.  1.
          1   -1    0    0  501    0 -0.00000000000E+00 -0.00000000000E+00 -0.16037530721E+03  0.16037530721E+03  0.00000000000E+00 0. -1.
          2    1    1    2  501    0  0.89295400555E+01 -0.18911166259E+02  0.25316963104E+02  0.32837745290E+02  0.00000000000E+00 0.  1.
          1    1    1    2  502    0 -0.89295400555E+01  0.18911166259E+02 -0.15591675641E+03  0.15731307582E+03  0.00000000000E+00 0. -1.
</event>
<event>
 4    1  0.3555026E+003  0.2011388E+02  0.7546771E-02  0.1532302E+00
          2   -1    0    0  502    0  0.00000000000E+00  0.00000000000E+00  0.33043925951E+02  0.33043925951E+02  0.00000000000E+00 0. -1.
          1   -1    0    0  501    0 -0.00000000000E+00 -0.00000000000E+00 -0.12248086996E+02  0.12248086996E+02  0.00000000000E+00 0. -1.
          2    1    1    2  501    0 -0.15598824873E+02 -0.12698220784E+02  0.10843564936E+02  0.22850624696E+02  0.00000000000E+00 0. -1.
          1    1    1    2  502    0  0.15598824873E+02  0.12698220784E+02  0.99522740191E+01  0.22441388251E+02  0.00000000000E+00 0. -1.
</event>
<event>
 4    1  0.3555026E+003  0.4246755E+02  0.7546771E-02  0.1334603E+00
          2   -1    0    0  502    0  0.00000000000E+00  0.00000000000E+00  0.74028671582E+02  0.74028671582E+02  0.00000000000E+00 0. -1.
          1   -1    0    0  501    0 -0.00000000000E+00 -0.00000000000E+00 -0.36493803761E+03  0.36493803761E+03  0.00000000000E+00 0. -1.
          2    1    1    2  501    0  0.29665940475E+02  0.30387911869E+02  0.66576145102E+02  0.78967564916E+02  0.00000000000E+00 0. -1.
          1    1    1    2  502    0 -0.29665940475E+02 -0.30387911869E+02 -0.35748551113E+03  0.35999914428E+03  0.00000000000E+00 0. -1.
</event>
<event>
 4    1  0.3555026E+003  0.3310874E+02  0.7546771E-02  0.1394370E+00
          2   -1    0    0  502    0  0.00000000000E+00  0.00000000000E+00  0.16888735782E+01  0.16888735782E+01  0.00000000000E+00 0. -1.
          1   -1    0    0  501    0 -0.00000000000E+00 -0.00000000000E+00 -0.65436019148E+03  0.65436019148E+03  0.00000000000E+00 0.  1.
          2    1    1    2  501    0  0.32735671754E+02  0.49561182348E+01 -0.35584592348E+03  0.35738285992E+03  0.00000000000E+00 0. -1.
          1    1    1    2  502    0 -0.32735671754E+02 -0.49561182348E+01 -0.29682539442E+03  0.29866620513E+03  0.00000000000E+00 0.  1.
</event>
<event>
 4    1  0.3555026E+003  0.4435440E+02  0.7546771E-02  0.1324699E+00
          2   -1    0    0  502    0  0.00000000000E+00  0.00000000000E+00  0.20986230655E+04  0.20986230655E+04  0.00000000000E+00 0.  1.
          1   -1    0    0  501    0 -0.00000000000E+00 -0.00000000000E+00 -0.12832173564E+01  0.12832173564E+01  0.00000000000E+00 0.  1.
          2    1    1    2  501    0 -0.27777086902E+02  0.34579568445E+02  0.15937045491E+04  0.15943216435E+04  0.00000000000E+00 0.  1.
          1    1    1    2  502    0  0.27777086902E+02 -0.34579568445E+02  0.50363529909E+03  0.50558463940E+03  0.00000000000E+00 0.  1.
</event>
<event>
 4    1  0.3555026E+003  0.3304246E+02  0.7546771E-02  0.1394873E+00
          2   -1    0    0  502    0  0.00000000000E+00  0.00000000000E+00  0.44523088150E+03  0.44523088150E+03  0.00000000000E+00 0.  1.
          1   -1    0    0  501    0 -0.00000000000E+00 -0.00000000000E+00 -0.38294251400E+01  0.38294251400E+01  0.00000000000E+00 0.  1.
          2    1    1    2  501    0 -0.10235415609E+02 -0.31417197904E+02  0.35535099048E+03  0.35688391739E+03  0.00000000000E+00 0.  1.
          1    1    1    2  502    0  0.10235415609E+02  0.31417197904E+02  0.86050465872E+02  0.92176389241E+02  0.00000000000E+00 0.  1.
</event>
<event>
 4    1  0.3555026E+003  0.2323956E+02  0.7546771E-02  0.1489512E+00
          2   -1    0    0  502    0  0.00000000000E+00  0.00000000000E+00  0.36167910094E+02  0.36167910094E+02  0.00000000000E+00 0. -1.
          1   -1    0    0  501    0 -0.00000000000E+00 -0.00000000000E+00 -0.30449498975E+03  0.30449498975E+03  0.00000000000E+00 0. -1.
          2    1    1    2  501    0 -0.22994533237E+02  0.33657986003E+01  0.31938865750E+02  0.39498965865E+02  0.00000000000E+00 0. -1.
          1    1    1    2  502    0  0.22994533237E+02 -0.33657986003E+01 -0.30026594541E+03  0.30116393398E+03  0.00000000000E+00 0. -1.
</event>
<event>
 4    1  0.3555026E+003  0.2498431E+02  0.7546771E-02  0.1468979E+00
          2   -1    0    0  502    0  0.00000000000E+00  0.00000000000E+00  0.36047111568E+03  0.36047111568E+03  0.00000000000E+00 0.  1.
          1   -1    0    0  501    0 -0.00000000000E+00 -0.00000000000E+00 -0.71152916837E+01  0.71152916837E+01  0.00000000000E+00 0.  1.
          2    1    1    2  501    0  0.16665316562E+01 -0.24928670409E+02  0.33654920286E+03  0.33747530559E+03  0.00000000000E+00 0.  1.
          1    1    1    2  502    0 -0.16665316562E+01  0.24928670409E+02  0.16806621135E+02  0.30111101775E+02  0.00000000000E+00 0.  1.
</event>
<event>
 4    1  0.3555026E+003  0.2010398E+02  0.7546771E-02  0.1532452E+00
          2   -1    0    0  502    0  0.00000000000E+00  0.00000000000E+00  0.12398164766E+02  0.12398164766E+02  0.00000000000E+00 0. -1.
          1   -1    0    0  501    0 -0.00000000000E+00 -0.00000000000E+00 -0.53135517093E+02  0.53135517093E+02  0.00000000000E+00 0. -1.
          2    1    1    2  501    0 -0.12481855613E+02 -0.15759863871E+02  0.19129547272E-02  0.20103980513E+02  0.00000000000E+00 0. -1.
          1    1    1    2  502    0  0.12481855613E+02  0.15759863871E+02 -0.40739265282E+02  0.45429701347E+02  0.00000000000E+00 0. -1.
</event>
<event>
 4    1  0.3555026E+003  0.2044304E+02  0.7546771E-02  0.1527367E+00
          2   -1    0    0  502    0  0.00000000000E+00  0.00000000000E+00  0.17567689135E+04  0.17567689135E+04  0.00000000000E+00 0. -1.
          1   -1    0    0  501    0 -0.00000000000E+00 -0.00000000000E+00 -0.28866341020E+00  0.28866341020E+00  0.00000000000E+00 0.  1.
          2    1    1    2  501    0  0.19808339619E+02 -0.50544610681E+01  0.12466896141E+04  0.12468572139E+04  0.00000000000E+00 0. -1.
          1    1    1    2  502    0 -0.19808339619E+02  0.50544610681E+01  0.50979063599E+03  0.51020036303E+03  0.00000000000E+00 0.  1.
</event>
<event>
 4    1  0.3555026E+003  0.3642515E+02  0.7546771E-02  0.1370812E+00
          2   -1    0    0  502    0  0.00000000000E+00  0.00000000000E+00  0.26464034999E+02  0.26464034999E+02  0.00000000000E+00 0. -1.
          1   -1    0    0  501    0 -0.00000000000E+00 -0.00000000000E+00 -0.39566574862E+03  0.39566574862E+03  0.00000000000E+00 0.  1.
          2    1    1    2  501    0 -0.35989527135E+02  0.56165320126E+01  0.12639016840E+02  0.38555625296E+02  0.00000000000E+00 0. -1.
          1    1    1    2  502    0  0.35989527135E+02 -0.56165320126E+01 -0.38184073046E+03  0.38357415832E+03  0.00000000000E+00 0.  1.
</event>
<event>
 4    1  0.3555026E+003  0.2093032E+02  0.7546771E-02  0.1520262E+00
          2   -1    0    0  502    0  0.00000000000E+00  0.00000000000E+00  0.14832318790E+04  0.14832318790E+04  0.00000000000E+00 0.  1.
          1   -1    0    0  501    0 -0.00000000000E+00 -0.00000000000E+00 -0.27877273307E+01  0.27877273307E+01  0.00000000000E+00 0. -1.
          2    1    1    2  501    0 -0.11299383345E+02 -0.17618234454E+02  0.14427700050E+04  0.14429218154E+04  0.00000000000E+00 0.  1.
          1    1    1    2  502    0  0.11299383345E+02  0.17618234454E+02  0.37674146667E+02  0.43097790852E+02  0.00000000000E+00 0. -1.
</event>
<event>
 4    1  0.3555026E+003  0.2269796E+02  0.7546771E-02  0.1496326E+00
          2   -1    0    0  502    0  0.00000000000E+00  0.00000000000E+00  0.16572258491E+04  0.16572258491E+04  0.00000000000E+00 0.  1.
          1   -1    0    0  501    0 -0.00000000000E+00 -0.00000000000E+00 -0.12411020547E+02  0.12411020547E+02  0.00000000000E+00 0. -1.
          2    1    1    2  501    0  0.90996084710E+01  0.20794095548E+02  0.16467040032E+04  0.16468604286E+04  0.00000000000E+00 0.  1.
          1    1    1    2  502    0 -0.90996084710E+01 -0.20794095548E+02 -0.18891746446E+01  0.22776441005E+02  0.00000000000E+00 0. -1.
</event>
<event>
 4    1  0.3555026E+003  0.7261433E+02  0.7546771E-02  0.1222117E+00
          2   -1    0    0  502    0  0.00000000000E+00  0.00000000000E+00  0.64350098953E+01  0.64350098953E+01  0.00000000000E+00 0. -1.
          1   -1    0    0  501    0 -0.00000000000E+00 -0.00000000000E+00 -0.28356520579E+04  0.28356520579E+04  0.00000000000E+00 0. -1.
          2    1    1    2  501    0  0.16626493406E+02 -0.70685225321E+02 -0.21634201687E+03  0.22820322001E+03  0.00000000000E+00 0. -1.
          1    1    1    2  502    0 -0.16626493406E+02  0.70685225321E+02 -0.26128750311E+04  0.26138838477E+04  0.00000000000E+00 0. -1.
</event>
<event>
 4    1  0.3555026E+003  0.4843928E+02  0.7546771E-02  0.1305085E+00
          2   -1    0    0  502    0  0.00000000000E+00  0.00000000000E+00  0.55611138534E+02  0.55611138534E+02  0.00000000000E+00 0.  1.
          1   -1    0    0  501    0 -0.00000000000E+00 -0.00000000000E+00 -0.10754566065E+04  0.10754566065E+04  0.00000000000E+00 0. -1.
          2    1    1    2  501    0 -0.16953709827E+00 -0.48438983127E+02  0.44406626836E+02  0.65713867152E+02  0.00000000000E+00 0.  1.
          1    1    1    2  502    0  0.16953709827E+00  0.48438983127E+02 -0.10642520948E+04  0.10653538779E+04  0.00000000000E+00 0. -1.
</event>
<event>
 4    1  0.3555026E+003  0.2623033E+02  0.7546771E-02  0.1455497E+00
          2   -1    0    0  502    0  0.00000000000E+00  0.00000000000E+00  0.83413920243E+01  0.83413920243E+01  0.00000000000E+00 0. -1.
          1   -1    0    0  501    0 -0.00000000000E+00 -0.00000000000E+00 -0.12300091123E+03  0.12300091123E+03  0.00000000000E+00 0.  1.
          2    1    1    2  501    0 -0.21069617161E+00 -0.26229480791E+02 -0.19638601341E+02  0.32767433804E+02  0.00000000000E+00 0. -1.
          1    1    1    2  502    0  0.21069617161E+00  0.26229480791E+02 -0.95020917861E+02  0.98574869447E+02  0.00000000000E+00 0.  1.
</event>
<event>
 4    1  0.3555026E+003  0.2094838E+02  0.7546771E-02  0.1520003E+00
          2   -1    0    0  502    0  0.00000000000E+00  0.00000000000E+00  0.33952476429E+02  0.33952476429E+02  0.00000000000E+00 0.  1.
          1   -1    0    0  501    0 -0.00000000000E+00 -0.00000000000E+00 -0.26424301712E+02  0.26424301712E+02  0.00000000000E+00 0. -1.
          2    1    1    2  501    0 -0.22243498929E+01 -0.20829952611E+02  0.25341250828E+02  0.32878772054E+02  0.00000000000E+00 0.  1.
          1    1    1    2  502    0  0.22243498929E+01  0.20829952611E+02 -0.17813076111E+02  0.27498006087E+02  0.00000000000E+00 0. -1.
</event>
<event>
 4    1  0.3555026E+003  0.2531970E+02  0.7546771E-02  0.1465258E+00
          2   -1    0    0  502    0  0.00000000000E+00  0.00000000000E+00  0.90044146172E+01  0.90044146172E+01  0.00000000000E+00 0.  1.
          1   -1    0    0  501    0 -0.00000000000E+00 -0.00000000000E+00 -0.63995956800E+03  0.63995956800E+03  0.00000000000E+00 0.  1.
          2    1    1    2  501    0 -0.18169989718E+02  0.17633454958E+02 -0.95773241841E+01  0.27070507913E+02  0.00000000000E+00 0.  1.
          1    1    1    2  502    0  0.18169989718E+02 -0.17633454958E+02 -0.62137782919E+03  0.62189347470E+03  0.00000000000E+00 0.  1.
</event>
<event>
 4    1  0.3555026E+003  0.2957015E+02  0.7546771E-02  0.1423369E+00
          2   -1    0    0  502    0  0.00000000000E+00  0.00000000000E+00  0.10547425544E+02  0.10547425544E+02  0.00000000000E+00 0. -1.
          1   -1    0    0  501    0 -0.00000000000E+00 -0.00000000000E+00 -0.20384716891E+04  0.20384716891E+04  0.00000000000E+00 0.  1.
          2    1    1    2  501    0 -0.27062425172E+02 -0.11917165592E+02 -0.10501323353E+02  0.31379475523E+02  0.00000000000E+00 0. -1.
          1    1    1    2  502    0  0.27062425172E+02  0.11917165592E+02 -0.20174229402E+04  0.20176396392E+04  0.00000000000E+00 0.  1.
</event>
<event>
 4    1  0.3555026E+003  0.2042954E+02  0.7546771E-02  0.1527568E+00
          2   -1    0    0  502    0  0.00000000000E+00  0.00000000000E+00  0.42574702439E+00  0.42574702439E+00  0.00000000000E+00 0.  1.
          1   -1    0    0  501    0 -0.00000000000E+00 -0.00000000000E+00 -0.11726601033E+04  0.11726601033E+04  0.00000000000E+00 0. -1.
          2    1    1    2  501    0  0.19937788782E+02 -0.44554130495E+01 -0.34856748622E+03  0.34916566065E+03  0.00000000000E+00 0.  1.
          1    1    1    2  502    0 -0.19937788782E+02  0.44554130495E+01 -0.82366687005E+03  0.82392018967E+03  0.00000000000E+00 0. -1.
</event>
<event>
 4    1  0.3555026E+003  0.3902786E+02  0.7546771E-02  0.1354279E+00
          2   -1    0    0  502    0  0.00000000000E+00  0.00000000000E+00  0.10961251986E+03  0.10961251986E+03  0.00000000000E+00 0. -1.
          1   -1    0    0  501    0 -0.00000000000E+00 -0.00000000000E+00 -0.21524920264E+02  0.21524920264E+02  0.00000000000E+00 0. -1.
          2    1    1    2  501    0 -0.34246310956E+02 -0.18718005134E+02  0.83079142771E+02  0.91789528237E+02  0.00000000000E+00 0. -1.
          1    1    1    2  502    0  0.34246310956E+02  0.18718005134E+02  0.50084568260E+01  0.39347911889E+02  0.00000000000E+00 0. -1.
</event>
<event>
 4    1  0.3555026E+003  0.3538784E+02  0.7546771E-02  0.1377857E+00
          2   -1    0    0  502    0  0.00000000000E+00  0.00000000000E+00  0.73006541656E+03  0.73006541656E+03  0.00000000000E+00 0.  1.
          1   -1    0    0  501    0 -0.00000000000E+00 -0.00000000000E+00 -0.16585663436E+04  0.16585663436E+04  0.00000000000E+00 0. -1.
          2    1    1    2  501    0 -0.19672226200E+02  0.29416029970E+02  0.72944766329E+03  0.73030554755E+03  0.00000000000E+00 0.  1.
          1    1    1    2  502    0  0.19672226200E+02 -0.29416029970E+02 -0.16579485903E+04  0.16583262126E+04  0.00000000000E+00 0. -1.
</event>
<event>
 4    1  0.3555026E+003  0.2354141E+02  0.7546771E-02  0.1485809E+00
          2   -1    0    0  502    0  0.00000000000E+00  0.00000000000E+00  0.67349554297E+03  0.67349554297E+03  0.00000000000E+00 0.  1.
          1   -1    0    0  501    0 -0.00000000000E+00 -0.00000000000E+00 -0.22950261957E+01  0.22950261957E+01  0.00000000000E+00 0.  1.
          2    1    1    2  501    0 -0.19432337243E+02  0.13288427673E+02  0.60622376928E+03  0.60668068742E+03  0.00000000000E+00 0.  1.
          1    1    1    2  502    0  0.19432337243E+02 -0.13288427673E+02  0.64976747487E+02  0.69109881744E+02  0.00000000000E+00 0.  1.
</event>
<event>
 4    1  0.3555026E+003  0.2049663E+02  0.7546771E-02  0.1526575E+00
          2   -1    0    0  502    0  0.00000000000E+00  0.00000000000E+00  0.10578045254E+04  0.10578045254E+04  0.00000000000E+00 0.  1.
          1   -1    0    0  501    0 -0.00000000000E+00 -0.00000000000E+00 -0.48850516297E+00  0.48850516297E+00  0.00000000000E+00 0. -1.
          2    1    1    2  501    0 -0.20252271014E+02  0.31554977243E+01  0.75747992637E+03  0.75775718440E+03  0.00000000000E+00 0.  1.
          1    1    1    2  502    0  0.20252271014E+02 -0.31554977243E+01  0.29983609386E+03  0.30053584616E+03  0.00000000000E+00 0. -1.
</event>
<event>
 4    1  0.3555026E+003  0.2192615E+02  0.7546771E-02  0.1506441E+00
          2   -1    0    0  502    0  0.00000000000E+00  0.00000000000E+00  0.80451501554E+01  0.80451501554E+01  0.00000000000E+00 0.  1.
          1   -1    0    0  501    0 -0.00000000000E+00 -0.00000000000E+00 -0.63882318841E+03  0.63882318841E+03  0.00000000000E+00 0.  1.
          2    1    1    2  501    0 -0.13447271963E+02 -0.17318395191E+02 -0.74536471995E+01  0.23158428095E+02  0.00000000000E+00 0.  1.
          1    1    1    2  502    0  0.13447271963E+02  0.17318395191E+02 -0.62332439105E+03  0.62370991047E+03  0.00000000000E+00 0.  1.
</event>
<event>
 4    1  0.3555026E+003  0.9902634E+02  0.7546771E-02  0.1165506E+00
          2   -1    0    0  502    0  0.00000000000E+00  0.00000000000E+00  0.11430746250E+04  0.11430746250E+04  0.00000000000E+00 0. -1.
          1   -1    0    0  501    0 -0.00000000000E+00 -0.00000000000E+00 -0.27751547598E+02  0.27751547598E+02  0.00000000000E+00 0.  1.
          2    1    1    2  501    0 -0.35178462036E+01  0.98963833066E+02  0.10442490206E+04  0.10489338552E+04  0.00000000000E+00 0. -1.
          1    1    1    2  502    0  0.35178462036E+01 -0.98963833066E+02  0.71074056794E+02  0.12189231742E+03  0.00000000000E+00 0.  1.
</event>
<event>
 4    1  0.3555026E+003  0.2517758E+02  0.7546771E-02  0.1466827E+00
          2   -1    0    0  502    0  0.00000000000E+00  0.00000000000E+00  0.51145274084E+03  0.51145274084E+03  0.00000000000E+00 0.  1.
          1   -1    0    0  501    0 -0.00000000000E+00 -0.00000000000E+00 -0.26968239708E+01  0.26968239708E+01  0.00000000000E+00 0.  1.
          2    1    1    2  501    0 -0.19112715095E+01  0.25104928885E+02  0.44336042073E+03  0.44407473818E+03  0.00000000000E+00 0.  1.
          1    1    1    2  502    0  0.19112715095E+01 -0.25104928885E+02  0.65395496139E+02  0.70074826638E+02  0.00000000000E+00 0.  1.
</event>
<event>
 4    1  0.3555026E+003  0.2143533E+02  0.7546771E-02  0.1513139E+00
          2   -1    0    0  502    0  0.00000000000E+00  0.00000000000E+00  0.29406587961E+03  0.29406587961E+03  0.00000000000E+00 0.  1.
          1   -1    0    0  501    0 -0.00000000000E+00 -0.00000000000E+00 -0.18134161287E+02  0.18134161287E+02  0.00000000000E+00 0. -1.
          2    1    1    2  501    0 -0.13470845629E+02  0.16673622295E+02  0.28718943776E+03  0.28798827497E+03  0.00000000000E+00 0.  1.
          1    1    1    2  502    0  0.13470845629E+02 -0.16673622295E+02 -0.11257719433E+02  0.24211765926E+02  0.00000000000E+00 0. -1.
</event>
<event>
 4    1  0.3555026E+003  0.2171650E+02  0.7546771E-02  0.1509276E+00
          2   -1    0    0  502    0  0.00000000000E+00  0.00000000000E+00  0.77048645913E+03  0.77048645913E+03  0.00000000000E+00 0.  1.
          1   -1    0    0  501    0 -0.00000000000E+00 -0.00000000000E+00 -0.28405154418E+03  0.28405154418E+03  0.00000000000E+00 0. -1.
          2    1    1    2  501    0  0.11771274005E+01  0.21684573844E+02  0.76991805936E+03  0.77022426897E+03  0.00000000000E+00 0.  1.
          1    1    1    2  502    0 -0.11771274005E+01 -0.21684573844E+02 -0.28348314441E+03  0.28431373434E+03  0.00000000000E+00 0. -1.
</event>
<event>
 4    1  0.3555026E+003  0.2098207E+02  0.7546771E-02  0.1519521E+00
          2   -1    0    0  502    0  0.00000000000E+00  0.00000000000E+00  0.10235105812E+03  0.10235105812E+03  0.00000000000E+00 0. -1.
          1   -1    0    0  501    0 -0.00000000000E+00 -0.00000000000E+00 -0.15458387173E+04  0.15458387173E+04  0.00000000000E+00 0.  1.
          2    1    1    2  501    0 -0.16076120095E+02  0.13483528641E+02  0.10120372451E+03  0.10335589503E+03  0.00000000000E+00 0. -1.
          1    1    1    2  502    0  0.16076120095E+02 -0.13483528641E+02 -0.15446913837E+04  0.15448338804E+04  0.00000000000E+00 0.  1.
</event>
<event>
 4    1  0.3555026E+003  0.3317913E+02  0.7546771E-02  0.1393837E+00
          2   -1    0    0  502    0  0.00000000000E+00  0.00000000000E+00  0.12272641979E+04  0.12272641979E+04  0.00000000000E+00 0. -1.
          1   -1    0    0  501    0 -0.00000000000E+00 -0.00000000000E+00 -0.19675004211E+03  0.19675004211E+03  0.00000000000E+00 0. -1.
          2    1    1    2  501    0  0.21717313250E+02  0.25084115547E+02  0.12256392957E+04  0.12260883075E+04  0.00000000000E+00 0. -1.
          1    1    1    2  502    0 -0.21717313250E+02 -0.25084115547E+02 -0.19512513991E+03  0.19792593254E+03  0.00000000000E+00 0. -1.
</event>
<event>
 4    1  0.3555026E+003  0.2292204E+02  0.7546771E-02  0.1493479E+00
          2   -1    0    0  502    0  0.00000000000E+00  0.00000000000E+00  0.10893183684E+04  0.10893183684E+04  0.00000000000E+00 0. -1.
          1   -1    0    0  501    0 -0.00000000000E+00 -0.00000000000E+00 -0.12129025449E+01  0.12129025449E+01  0.00000000000E+00 0. -1.
          2    1    1    2  501    0  0.17598479706E+00  0.22921363021E+02  0.96723202976E+03  0.96750360167E+03  0.00000000000E+00 0. -1.
          1    1    1    2  502    0 -0.17598479706E+00 -0.22921363021E+02  0.12087343608E+03  0.12302766926E+03  0.00000000000E+00 0. -1.
</event>
<event>
 4    1  0.3555026E+003  0.2086026E+02  0.7546771E-02  0.1521269E+00
          2   -1    0    0  502    0  0.00000000000E+00  0.00000000000E+00  0.80314543954E+03  0.80314543954E+03  0.00000000000E+00 0. -1.
          1   -1    0    0  501    0 -0.00000000000E+00 -0.00000000000E+00 -0.12428426243E+02  0.12428426243E+02  0.00000000000E+00 0.  1.
          2    1    1    2  501    0  0.13394432389E+02 -0.15991865142E+02  0.79415781293E+03  0.79443173553E+03  0.00000000000E+00 0. -1.
          1    1    1    2  502    0 -0.13394432389E+02  0.15991865142E+02 -0.34407996334E+01  0.21142130258E+02  0.00000000000E+00 0.  1.
</event>
<event>
 4    1  0.3555026E+003  0.2020094E+02  0.7546771E-02  0.1530986E+00
          2   -1    0    0  502    0  0.00000000000E+00  0.00000000000E+00  0.45483828463E+02  0.45483828463E+02  0.00000000000E+00 0. -1.
          1   -1    0    0  501    0 -0.00000000000E+00 -0.00000000000E+00 -0.62913763046E+02  0.62913763046E+02  0.00000000000E+00 0.  1.
          2    1    1    2  501    0  0.16371273164E+02 -0.11834661584E+02  0.41470693809E+02  0.46129125776E+02  0.00000000000E+00 0. -1.
          1    1    1    2  502    0 -0.16371273164E+02  0.11834661584E+02 -0.58900628392E+02  0.62268465733E+02  0.00000000000E+00 0.  1.
</event>
<event>
 4    1  0.3555026E+003  0.2480970E+02  0.7546771E-02  0.1470944E+00
          2   -1    0    0  502    0  0.00000000000E+00  0.00000000000E+00  0.31477717673E+03  0.31477717673E+03  0.00000000000E+00 0.  1.
          1   -1    0    0  501    0 -0.00000000000E+00 -0.00000000000E+00 -0.21216084645E+01  0.21216084645E+01  0.00000000000E+00 0.  1.
          2    1    1    2  501    0 -0.24788050831E+02 -0.10358917802E+01  0.11198093587E+03  0.11469634055E+03  0.00000000000E+00 0.  1.
          1    1    1    2  502    0  0.24788050831E+02  0.10358917802E+01  0.20067463240E+03  0.20220244465E+03  0.00000000000E+00 0.  1.
</event>
<event>
 4    1  0.3555026E+003  0.2033946E+02  0.7546771E-02  0.1528908E+00
          2   -1    0    0  502    0  0.00000000000E+00  0.00000000000E+00  0.28536138964E+02  0.28536138964E+02  0.00000000000E+00 0. -1.
          1   -1    0    0  501    0 -0.00000000000E+00 -0.00000000000E+00 -0.47045768655E+03  0.47045768655E+03  0.00000000000E+00 0. -1.
          2    1    1    2  501    0  0.49393688455E+00 -0.20333457010E+02  0.24661929644E+02  0.31967236686E+02  0.00000000000E+00 0. -1.
          1    1    1    2  502    0 -0.49393688455E+00  0.20333457010E+02 -0.46658347723E+03  0.46702658883E+03  0.00000000000E+00 0. -1.
</event>
<event>
 4    1  0.3555026E+003  0.2010566E+02  0.7546771E-02  0.1532427E+00
          2   -1    0    0  502    0  0.00000000000E+00  0.00000000000E+00  0.68094470548E+01  0.68094470548E+01  0.00000000000E+00 0.  1.
          1   -1    0    0  501    0 -0.00000000000E+00 -0.00000000000E+00 -0.81019735729E+03  0.81019735729E+03  0.00000000000E+00 0.  1.
          2    1    1    2  501    0 -0.37286441644E+01 -0.19756889105E+02 -0.84410089218E+01  0.21805689304E+02  0.00000000000E+00 0.  1.
          1    1    1    2  502    0  0.37286441644E+01  0.19756889105E+02 -0.79494690131E+03  0.79520111504E+03  0.00000000000E+00 0.  1.
</event>
<event>
 4    1  0.3555026E+003  0.2277094E+02  0.7546771E-02  0.1495395E+00
          2   -1    0    0  502    0  0.00000000000E+00  0.00000000000E+00  0.10540405750E+01  0.10540405750E+01  0.00000000000E+00 0. -1.
          1   -1    0    0  501    0 -0.00000000000E+00 -0.00000000000E+00 -0.54021187432E+03  0.54021187432E+03  0.00000000000E+00 0.  1.
          2    1    1    2  501    0 -0.15364399321E+02  0.16806275086E+02 -0.18867223060E+03  0.19004138036E+03  0.00000000000E+00 0. -1.
          1    1    1    2  502    0  0.15364399321E+02 -0.16806275086E+02 -0.35048560314E+03  0.35122453454E+03  0.00000000000E+00 0.  1.
</event>
<event>
 4    1  0.3801417E+003  0.4625776E+02  0.7546771E-02  0.1315267E+00
          2   -1    0    0  502    0  0.00000000000E+00  0.00000000000E+00  0.14855356969E+04  0.14855356969E+04  0.00000000000E+00 0.  1.
          1   -1    0    0  501    0 -0.00000000000E+00 -0.00000000000E+00 -0.98070783674E+03  0.98070783674E+03  0.00000000000E+00 0.  1.
          2    1    1    2  501    0 -0.82895410718E+01  0.45508945443E+02  0.14846297932E+04  0.14853502629E+04  0.00000000000E+00 0.  1.
          1    1    1    2  502    0  0.82895410718E+01 -0.45508945443E+02 -0.97980193304E+03  0.98089327075E+03  0.00000000000E+00 0.  1.
</event>
<event>
 4    1  0.3555026E+003  0.4732053E+02  0.7546771E-02  0.1310227E+00
          2   -1    0    0  502    0  0.00000000000E+00  0.00000000000E+00  0.57114642831E+02  0.57114642831E+02  0.00000000000E+00 0.  1.
          1   -1    0    0  501    0 -0.00000000000E+00 -0.00000000000E+00 -0.16320131831E+03  0.16320131831E+03  0.00000000000E+00 0.  1.
          2    1    1    2  501    0  0.96114067094E+00  0.47310769413E+02  0.42975600837E+02  0.63922882923E+02  0.00000000000E+00 0.  1.
          1    1    1    2  502    0 -0.96114067094E+00 -0.47310769413E+02 -0.14906227632E+03  0.15639307822E+03  0.00000000000E+00 0.  1.
</event>
<event>
 4    1  0.3555026E+003  0.2384518E+02  0.7546771E-02  0.1482149E+00
          2   -1    0    0  502    0  0.00000000000E+00  0.00000000000E+00  0.32724309460E+01  0.32724309460E+01  0.00000000000E+00 0.  1.
          1   -1    0    0  501    0 -0.00000000000E+00 -0.00000000000E+00 -0.81066777335E+03  0.81066777335E+03  0.00000000000E+00 0. -1.
          2    1    1    2  501    0 -0.23842030235E+02  0.38775887339E+00 -0.42967960665E+02  0.49141005346E+02  0.00000000000E+00 0.  1.
          1    1    1    2  502    0  0.23842030235E+02 -0.38775887339E+00 -0.76442738174E+03  0.76479919895E+03  0.00000000000E+00 0. -1.
</event>
<event>
 4    1  0.3555026E+003  0.4213158E+02  0.7546771E-02  0.1336428E+00
          2   -1    0    0  502    0  0.00000000000E+00  0.00000000000E+00  0.27540489786E+02  0.27540489786E+02  0.00000000000E+00 0. -1.
          1   -1    0    0  501    0 -0.00000000000E+00 -0.00000000000E+00 -0.70729686900E+02  0.70729686900E+02  0.00000000000E+00 0. -1.
          2    1    1    2  501    0  0.40039181630E+02  0.13112279432E+02 -0.36231702767E+02  0.55568014387E+02  0.00000000000E+00 0. -1.
          1    1    1    2  502    0 -0.40039181630E+02 -0.13112279432E+02 -0.69574943473E+01  0.42702162300E+02  0.00000000000E+00 0. -1.
</event>
<event>
 4    1  0.3555026E+003  0.2894432E+02  0.7546771E-02  0.1428997E+00
          2   -1    0    0  502    0  0.00000000000E+00  0.00000000000E+00  0.14883639297E+04  0.14883639297E+04  0.00000000000E+00 0. -1.
          1   -1    0    0  501    0 -0.00000000000E+00 -0.00000000000E+00 -0.18466982317E+02  0.18466982317E+02  0.00000000000E+00 0. -1.
          2    1    1    2  501    0 -0.26142185400E+02 -0.12424173441E+02  0.14767928425E+04  0.14770764617E+04  0.00000000000E+00 0. -1.
          1    1    1    2  502    0  0.26142185400E+02  0.12424173441E+02 -0.68958951596E+01  0.29754450310E+02  0.00000000000E+00 0. -1.
</event>
<event>
 4    1  0.3555026E+003  0.2690092E+02  0.7546771E-02  0.1448606E+00
          2   -1    0    0  502    0  0.00000000000E+00  0.00000000000E+00  0.12182483049E+03  0.12182483049E+03  0.00000000000E+00 0. -1.
          1   -1    0    0  501    0 -0.00000000000E+00 -0.00000000000E+00 -0.42750677077E+03  0.42750677077E+03  0.00000000000E+00 0. -1.
          2    1    1    2  501    0 -0.21542229405E+02 -0.16111858465E+02  0.11990992799E+03  0.12289040020E+03  0.00000000000E+00 0. -1.
          1    1    1    2  502    0  0.21542229405E+02  0.16111858465E+02 -0.42559186827E+03  0.42644120107E+03  0.00000000000E+00 0. -1.
</event>
<event>
 4    1  0.3555026E+003  0.2557324E+02  0.7546771E-02  0.1462492E+00
          2   -1    0    0  502    0  0.00000000000E+00  0.00000000000E+00  0.19289524993E+03  0.19289524993E+03  0.00000000000E+00 0. -1.
          1   -1    0    0  501    0 -0.00000000000E+00 -0.00000000000E+00 -0.13279852528E+03  0.13279852528E+03  0.00000000000E+00 0.  1.
          2    1    1    2  501    0  0.34899654814E+01 -0.25333986849E+02  0.19080304062E+03  0.19250919734E+03  0.00000000000E+00 0. -1.
          1    1    1    2  502    0 -0.34899654814E+01  0.25333986849E+02 -0.13070631598E+03  0.13318457788E+03  0.00000000000E+00 0.  1.
</event>
<event>
 4    1  0.3555026E+003  0.2113720E+02  0.7546771E-02  0.1517315E+00
          2   -1    0    0  502    0  0.00000000000E+00  0.00000000000E+00  0.31373872548E+03  0.31373872548E+03  0.00000000000E+00 0.  1.
          1   -1    0    0  501    0 -0.00000000000E+00 -0.00000000000E+00 -0.14461529908E+01  0.14461529908E+01  0.00000000000E+00 0.  1.
          2    1    1    2  501    0 -0.21085638813E+02  0.14754330806E+01  0.17562717837E+03  0.17689456422E+03  0.00000000000E+00 0.  1.
          1    1    1    2  502    0  0.21085638813E+02 -0.14754330806E+01  0.13666539412E+03  0.13829031425E+03  0.00000000000E+00 0.  1.
</event>
<event>
 4    1  0.3555026E+003  0.2791052E+02  0.7546771E-02  0.1438670E+00
          2   -1    0    0  502    0  0.00000000000E+00  0.00000000000E+00  0.47346067864E+03  0.47346067864E+03  0.00000000000E+00 0.  1.
          1   -1    0    0  501    0 -0.00000000000E+00 -0.00000000000E+00 -0.73347855210E+01  0.73347855210E+01  0.00000000000E+00 0. -1.
          2    1    1    2  501    0  0.97835782378E+01  0.26139603608E+02  0.44478795231E+03  0.44566278710E+03  0.00000000000E+00 0.  1.
          1    1    1    2  502    0 -0.97835782378E+01 -0.26139603608E+02  0.21337940807E+02  0.35132677066E+02  0.00000000000E+00 0. -1.
</event>
<event>
 4    1  0.3555026E+003  0.2749573E+02  0.7546771E-02  0.1442691E+00
          2   -1    0    0  502    0  0.00000000000E+00  0.00000000000E+00  0.17058882588E+04  0.17058882588E+04  0.00000000000E+00 0. -1.
          1   -1    0    0  501    0 -0.00000000000E+00 -0.00000000000E+00 -0.60945198488E+02  0.60945198488E+02  0.00000000000E+00 0.  1.
          2    1    1    2  501    0  0.26593387300E+02  0.69861804666E+01  0.17026703952E+04  0.17028923894E+04  0.00000000000E+00 0. -1.
          1    1    1    2  502    0 -0.26593387300E+02 -0.69861804666E+01 -0.57727334937E+02  0.63941067903E+02  0.00000000000E+00 0.  1.
</event>
<event>
 4    1  0.3555026E+003  0.3925285E+02  0.7546771E-02  0.1352921E+00
          2   -1    0    0  502    0  0.00000000000E+00  0.00000000000E+00  0.46024882766E+02  0.46024882766E+02  0.00000000000E+00 0. -1.
          1   -1    0    0  501    0 -0.00000000000E+00 -0.00000000000E+00 -0.69201772308E+03  0.69201772308E+03  0.00000000000E+00 0.  1.
          2    1    1    2  501    0  0.26539799587E+02 -0.28921014681E+02  0.36988300865E+02  0.53934408806E+02  0.00000000000E+00 0. -1.
          1    1    1    2  502    0 -0.26539799587E+02  0.28921014681E+02 -0.68298114118E+03  0.68410819704E+03  0.00000000000E+00 0.  1.
</event>
<event>
 4    1  0.3555026E+003  0.2103887E+02  0.7546771E-02  0.1518710E+00
          2   -1    0    0  502    0  0.00000000000E+00  0.00000000000E+00  0.73462387622E+03  0.73462387622E+03  0.00000000000E+00 0. -1.
          1   -1    0    0  501    0 -0.00000000000E+00 -0.00000000000E+00 -0.86223453551E+00  0.86223453551E+00  0.00000000000E+00 0.  1.
          2    1    1    2  501    0  0.58284102224E+01  0.20215436970E+02  0.56870352577E+03  0.56909255353E+03  0.00000000000E+00 0. -1.
          1    1    1    2  502    0 -0.58284102224E+01 -0.20215436970E+02  0.16505811591E+03  0.16639355722E+03  0.00000000000E+00 0.  1.
</event>
<event>
 4    1  0.3555026E+003  0.2070453E+02  0.7546771E-02  0.1523525E+00
          2   -1    0    0  502    0  0.00000000000E+00  0.00000000000E+00  0.10863660242E+04  0.10863660242E+04  0.00000000000E+00 0.  1.
          1   -1    0    0  501    0 -0.00000000000E+00 -0.00000000000E+00 -0.25663882472E+01  0.25663882472E+01  0.00000000000E+00 0. -1.
          2    1    1    2  501    0  0.45097244999E+01 -0.20207427714E+02  0.10427625290E+04  0.10429680578E+04  0.00000000000E+00 0.  1.
          1    1    1    2  502    0 -0.45097244999E+01  0.20207427714E+02  0.41037107034E+02  0.45964354707E+02  0.00000000000E+00 0. -1.
</event>
<event>
 4    1  0.4431528E+003  0.2717710E+02  0.7546771E-02  0.1445837E+00
          2   -1    0    0  502    0  0.00000000000E+00  0.00000000000E+00  0.93443636932E+03  0.93443636932E+03  0.00000000000E+00 0.  1.
          1   -1    0    0  501    0 -0.00000000000E+00 -0.00000000000E+00 -0.18231221464E+04  0.18231221464E+04  0.00000000000E+00 0. -1.
          2    1    1    2  501    0 -0.25178768454E+01  0.27060211421E+02  0.93413745099E+03  0.93453270253E+03  0.00000000000E+00 0.  1.
          1    1    1    2  502    0  0.25178768454E+01 -0.27060211421E+02 -0.18228232281E+04  0.18230258132E+04  0.00000000000E+00 0. -1.
</event>
<event>
 4    1  0.3555026E+003  0.2153923E+02  0.7546771E-02  0.1511703E+00
          2   -1    0    0  502    0  0.00000000000E+00  0.00000000000E+00  0.41828029179E+03  0.41828029179E+03  0.00000000000E+00 0. -1.
          1   -1    0    0  501    0 -0.00000000000E+00 -0.00000000000E+00 -0.36441808536E+01  0.36441808536E+01  0.00000000000E+00 0.  1.
          2    1    1    2  501    0 -0.21405715394E+02 -0.23945463956E+01  0.38327069517E+03  0.38387545412E+03  0.00000000000E+00 0. -1.
          1    1    1    2  502    0  0.21405715394E+02  0.23945463956E+01  0.31365415764E+02  0.38049018515E+02  0.00000000000E+00 0.  1.
</event>
<event>
 4    1  0.3555026E+003  0.2839584E+02  0.7546771E-02  0.1434069E+00
          2   -1    0    0  502    0  0.00000000000E+00  0.00000000000E+00  0.67315192300E+01  0.67315192300E+01  0.00000000000E+00 0. -1.
          1   -1    0    0  501    0 -0.00000000000E+00 -0.00000000000E+00 -0.51071678754E+03  0.51071678754E+03  0.00000000000E+00 0. -1.
          2    1    1    2  501    0 -0.25732252223E+02 -0.12007293117E+02 -0.25633346023E+02  0.38254311140E+02  0.00000000000E+00 0. -1.
          1    1    1    2  502    0  0.25732252223E+02  0.12007293117E+02 -0.47835192228E+03  0.47919399563E+03  0.00000000000E+00 0. -1.
</event>
<event>
 4    1  0.3555026E+003  0.2508719E+02  0.7546771E-02  0.1467830E+00
          2   -1    0    0  502    0  0.00000000000E+00  0.00000000000E+00  0.55996954350E+03  0.55996954350E+03  0.00000000000E+00 0.  1.
          1   -1    0    0  501    0 -0.00000000000E+00 -0.00000000000E+00 -0.34830856319E+02  0.34830856319E+02  0.00000000000E+00 0. -1.
          2    1    1    2  501    0  0.13511469363E+02 -0.21137820264E+02  0.55513190408E+03  0.55569847775E+03  0.00000000000E+00 0.  1.
          1    1    1    2  502    0 -0.13511469363E+02  0.21137820264E+02 -0.29993216894E+02  0.39101922070E+02  0.00000000000E+00 0. -1.
</event>
<event>
 4    1  0.3555026E+003  0.3535459E+02  0.7546771E-02  0.1378087E+00
          2   -1    0    0  502    0  0.00000000000E+00  0.00000000000E+00  0.27513965648E+02  0.27513965648E+02  0.00000000000E+00 0. -1.
          1   -1    0    0  501    0 -0.00000000000E+00 -0.00000000000E+00 -0.46467255978E+02  0.46467255978E+02  0.00000000000E+00 0. -1.
          2    1    1    2  501    0 -0.34853500425E+02 -0.59313054475E+01 -0.39487896312E+01  0.35574426428E+02  0.00000000000E+00 0. -1.
          1    1    1    2  502    0  0.34853500425E+02  0.59313054475E+01 -0.15004500699E+02  0.38406795198E+02  0.00000000000E+00 0. -1.
</event>
<event>
 4    1  0.3555026E+003  0.2558667E+02  0.7546771E-02  0.1462346E+00
          2   -1    0    0  502    0  0.00000000000E+00  0.00000000000E+00  0.63681009251E+03  0.63681009251E+03  0.00000000000E+00 0.  1.
          1   -1    0    0  501    0 -0.00000000000E+00 -0.00000000000E+00 -0.23341338589E+03  0.23341338589E+03  0.00000000000E+00 0.  1.
          2    1    1    2  501    0 -0.23960974537E+02 -0.89749390516E+01  0.63585082056E+03  0.63636541691E+03  0.00000000000E+00 0.  1.
          1    1    1    2  502    0  0.23960974537E+02  0.89749390516E+01 -0.23245411395E+03  0.23385806149E+03  0.00000000000E+00 0.  1.
</event>
<event>
 4    1  0.3555026E+003  0.2327691E+02  0.7546771E-02  0.1489050E+00
          2   -1    0    0  502    0  0.00000000000E+00  0.00000000000E+00  0.16240076172E+04  0.16240076172E+04  0.00000000000E+00 0. -1.
          1   -1    0    0  501    0 -0.00000000000E+00 -0.00000000000E+00 -0.24211737137E+03  0.24211737137E+03  0.00000000000E+00 0. -1.
          2    1    1    2  501    0  0.17177100668E+02  0.15708651479E+02  0.16233645342E+04  0.16235314058E+04  0.00000000000E+00 0. -1.
          1    1    1    2  502    0 -0.17177100668E+02 -0.15708651479E+02 -0.24147428834E+03  0.24259358286E+03  0.00000000000E+00 0. -1.
</event>
<event>
 4    1  0.3555026E+003  0.2242371E+02  0.7546771E-02  0.1499864E+00
          2   -1    0    0  502    0  0.00000000000E+00  0.00000000000E+00  0.68562137495E+02  0.68562137495E+02  0.00000000000E+00 0. -1.
          1   -1    0    0  501    0 -0.00000000000E+00 -0.00000000000E+00 -0.21358873110E+02  0.21358873110E+02  0.00000000000E+00 0. -1.
          2    1    1    2  501    0  0.22421854594E+02  0.28863272285E+00  0.60034567339E+02  0.64085662577E+02  0.00000000000E+00 0. -1.
          1    1    1    2  502    0 -0.22421854594E+02 -0.28863272285E+00 -0.12831302954E+02  0.25835348029E+02  0.00000000000E+00 0. -1.
</event>
<event>
 4    1  0.3555026E+003  0.2511500E+02  0.7546771E-02  0.1467521E+00
          2   -1    0    0  502    0  0.00000000000E+00  0.00000000000E+00  0.17431100584E+04  0.17431100584E+04  0.00000000000E+00 0.  1.
          1   -1    0    0  501    0 -0.00000000000E+00 -0.00000000000E+00 -0.31778993442E+01  0.31778993442E+01  0.00000000000E+00 0.  1.
          2    1    1    2  501    0 -0.22345974447E+02  0.11463885868E+02  0.16918965671E+04  0.16920829640E+04  0.00000000000E+00 0.  1.
          1    1    1    2  502    0  0.22345974447E+02 -0.11463885868E+02  0.48035591923E+02  0.54204993724E+02  0.00000000000E+00 0.  1.
</event>
<event>
 4    1  0.3555026E+003  0.2676578E+02  0.7546771E-02  0.1449975E+00
          2   -1    0    0  502    0  0.00000000000E+00  0.00000000000E+00  0.10435525496E+04  0.10435525496E+04  0.00000000000E+00 0.  1.
          1   -1    0    0  501    0 -0.00000000000E+00 -0.00000000000E+00 -0.77211918944E+00  0.77211918944E+00  0.00000000000E+00 0.  1.
          2    1    1    2  501    0  0.25706236411E+02  0.74563035866E+01  0.69526192539E+03  0.69577694123E+03  0.00000000000E+00 0.  1.
          1    1    1    2  502    0 -0.25706236411E+02 -0.74563035866E+01  0.34751850504E+03  0.34854772758E+03  0.00000000000E+00 0.  1.
</event>
<event>
 4    1  0.3555026E+003  0.2752199E+02  0.7546771E-02  0.1442434E+00
          2   -1    0    0  502    0  0.00000000000E+00  0.00000000000E+00  0.49460997523E+03  0.49460997523E+03  0.00000000000E+00 0. -1.
          1   -1    0    0  501    0 -0.00000000000E+00 -0.00000000000E+00 -0.17046850488E+01  0.17046850488E+01  0.00000000000E+00 0.  1.
          2    1    1    2  501    0 -0.19192202664E+02  0.19726111698E+02  0.32556586626E+03  0.32672709315E+03  0.00000000000E+00 0. -1.
          1    1    1    2  502    0  0.19192202664E+02 -0.19726111698E+02  0.16733942392E+03  0.16958756713E+03  0.00000000000E+00 0.  1.
</event>
<event>
 4    1  0.3555026E+003  0.3316202E+02  0.7546771E-02  0.1393966E+00
          2   -1    0    0  502    0  0.00000000000E+00  0.00000000000E+00  0.91660939627E+03  0.91660939627E+03  0.00000000000E+00 0.  1.
          1   -1    0    0  501    0 -0.00000000000E+00 -0.00000000000E+00 -0.13167886115E+01  0.13167886115E+01  0.00000000000E+00 0.  1.
          2    1    1    2  501    0 -0.33159296015E+02 -0.42532253567E+00  0.59446596360E+03  0.59539020960E+03  0.00000000000E+00 0.  1.
          1    1    1    2  502    0  0.33159296015E+02  0.42532253567E+00  0.32082664406E+03  0.32253597528E+03  0.00000000000E+00 0.  1.
</event>
<event>
 4    1  0.3555026E+003  0.2353248E+02  0.7546771E-02  0.1485918E+00
          2   -1    0    0  502    0  0.00000000000E+00  0.00000000000E+00  0.15802444551E+04  0.15802444551E+04  0.00000000000E+00 0. -1.
          1   -1    0    0  501    0 -0.00000000000E+00 -0.00000000000E+00 -0.19723073013E+01  0.19723073013E+01  0.00000000000E+00 0. -1.
          2    1    1    2  501    0  0.10305291535E+02  0.21156052238E+02  0.15065282432E+04  0.15067120247E+04  0.00000000000E+00 0. -1.
          1    1    1    2  502    0 -0.10305291535E+02 -0.21156052238E+02  0.71743904572E+02  0.75504737753E+02  0.00000000000E+00 0. -1.
</event>
<event>
 4    1  0.3555026E+003  0.2077568E+02  0.7546771E-02  0.1522492E+00
          2   -1    0    0  502    0  0.00000000000E+00  0.00000000000E+00  0.37333708919E+01  0.37333708919E+01  0.00000000000E+00 0.  1.
          1   -1    0    0  501    0 -0.00000000000E+00 -0.00000000000E+00 -0.13062804892E+03  0.13062804892E+03  0.00000000000E+00 0.  1.
          2    1    1    2  501    0 -0.68089605858E+01  0.19628215438E+02 -0.40671217922E+02  0.45670304935E+02  0.00000000000E+00 0.  1.
          1    1    1    2  502    0  0.68089605858E+01 -0.19628215438E+02 -0.86223460101E+02  0.88691114873E+02  0.00000000000E+00 0.  1.
</event>
<event>
 4    1  0.3555026E+003  0.2947782E+02  0.7546771E-02  0.1424189E+00
          2   -1    0    0  502    0  0.00000000000E+00  0.00000000000E+00  0.34673686346E+02  0.34673686346E+02  0.00000000000E+00 0. -1.
          1   -1    0    0  501    0 -0.00000000000E+00 -0.00000000000E+00 -0.23094357274E+03  0.23094357274E+03  0.00000000000E+00 0.  1.
          2    1    1    2  501    0 -0.12128650674E+02 -0.26867042827E+02  0.27261034996E+02  0.40151042159E+02  0.00000000000E+00 0. -1.
          1    1    1    2  502    0  0.12128650674E+02  0.26867042827E+02 -0.22353092139E+03  0.22546621692E+03  0.00000000000E+00 0.  1.
</event>
<event>
 4    1  0.3555026E+003  0.2125100E+02  0.7546771E-02  0.1515711E+00
          2   -1    0    0  502    0  0.00000000000E+00  0.00000000000E+00  0.25122522056E+01  0.25122522056E+01  0.00000000000E+00 0. -1.
          1   -1    0    0  501    0 -0.00000000000E+00 -0.00000000000E+00 -0.18849668560E+03  0.18849668560E+03  0.00000000000E+00 0.  1.
          2    1    1    2  501    0  0.18847692586E+02  0.98167898196E+01 -0.72432305784E+02  0.75485387985E+02  0.00000000000E+00 0. -1.
          1    1    1    2  502    0 -0.18847692586E+02 -0.98167898196E+01 -0.11355212761E+03  0.11552354982E+03  0.00000000000E+00 0.  1.
</event>
<event>
 4    1  0.3555026E+003  0.2242724E+02  0.7546771E-02  0.1499818E+00
          2   -1    0    0  502    0  0.00000000000E+00  0.00000000000E+00  0.80477586805E+02  0.80477586805E+02  0.00000000000E+00 0.  1.
          1   -1    0    0  501    0 -0.00000000000E+00 -0.00000000000E+00 -0.22834675986E+02  0.22834675986E+02  0.00000000000E+00 0. -1.
          2    1    1    2  501    0  0.20469517246E+02  0.91640590087E+01  0.72844347049E+02  0.76218632963E+02  0.00000000000E+00 0.  1.
          1    1    1    2  502    0 -0.20469517246E+02 -0.91640590087E+01 -0.15201436229E+02  0.27093629828E+02  0.00000000000E+00 0. -1.
</event>
<event>
 4    1  0.3555026E+003  0.3329566E+02  0.7546771E-02  0.1392958E+00
          2   -1    0    0  502    0  0.00000000000E+00  0.00000000000E+00  0.15525651233E+03  0.15525651233E+03  0.00000000000E+00 0. -1.
          1   -1    0    0  501    0 -0.00000000000E+00 -0.00000000000E+00 -0.37311400806E+02  0.37311400806E+02  0.00000000000E+00 0.  1.
          2    1    1    2  501    0  0.14300993586E+02  0.30067962473E+02  0.14555456827E+03  0.14931420941E+03  0.00000000000E+00 0. -1.
          1    1    1    2  502    0 -0.14300993586E+02 -0.30067962473E+02 -0.27609456748E+02  0.43253703734E+02  0.00000000000E+00 0.  1.
</event>
<event>
 4    1  0.3555026E+003  0.2285393E+02  0.7546771E-02  0.1494341E+00
          2   -1    0    0  502    0  0.00000000000E+00  0.00000000000E+00  0.47452548149E+01  0.47452548149E+01  0.00000000000E+00 0. -1.
          1   -1    0    0  501    0 -0.00000000000E+00 -0.00000000000E+00 -0.14816872650E+03  0.14816872650E+03  0.00000000000E+00 0. -1.
          2    1    1    2  501    0 -0.21631416318E+02 -0.73745396891E+01 -0.32941004573E+02  0.40092540326E+02  0.00000000000E+00 0. -1.
          1    1    1    2  502    0  0.21631416318E+02  0.73745396891E+01 -0.11048246711E+03  0.11282144099E+03  0.00000000000E+00 0. -1.
</event>
<event>
 4    1  0.3555026E+003  0.3623033E+02  0.7546771E-02  0.1372114E+00
          2   -1    0    0  502    0  0.00000000000E+00  0.00000000000E+00  0.70402893996E+03  0.70402893996E+03  0.00000000000E+00 0. -1.
          1   -1    0    0  501    0 -0.00000000000E+00 -0.00000000000E+00 -0.21195613637E+01  0.21195613637E+01  0.00000000000E+00 0. -1.
          2    1    1    2  501    0 -0.36153973002E+01 -0.36049488997E+02  0.47344334363E+03  0.47482758596E+03  0.00000000000E+00 0. -1.
          1    1    1    2  502    0  0.36153973002E+01  0.36049488997E+02  0.22846603496E+03  0.23132091536E+03  0.00000000000E+00 0. -1.
</event>
<event>
 4    1  0.3555026E+003  0.2301611E+02  0.7546771E-02  0.1492296E+00
          2   -1    0    0  502    0  0.00000000000E+00  0.00000000000E+00  0.16627473719E+04  0.16627473719E+04  0.00000000000E+00 0. -1.
          1   -1    0    0  501    0 -0.00000000000E+00 -0.00000000000E+00 -0.36464897918E+01  0.36464897918E+01  0.00000000000E+00 0. -1.
          2    1    1    2  501    0  0.19736568501E+02 -0.11840994365E+02  0.16255173661E+04  0.16256803034E+04  0.00000000000E+00 0. -1.
          1    1    1    2  502    0 -0.19736568501E+02  0.11840994365E+02  0.33583516028E+02  0.40713558338E+02  0.00000000000E+00 0. -1.
</event>
<event>
 4    1  0.3555026E+003  0.3775776E+02  0.7546771E-02  0.1362151E+00
          2   -1    0    0  502    0  0.00000000000E+00  0.00000000000E+00  0.14619526233E+02  0.14619526233E+02  0.00000000000E+00 0. -1.
          1   -1    0    0  501    0 -0.00000000000E+00 -0.00000000000E+00 -0.11476941125E+04  0.11476941125E+04  0.00000000000E+00 0.  1.
          2    1    1    2  501    0  0.28742871255E+02  0.24484609028E+02 -0.10618204148E+02  0.39222378645E+02  0.00000000000E+00 0. -1.
          1    1    1    2  502    0 -0.28742871255E+02 -0.24484609028E+02 -0.11224563821E+04  0.11230912600E+04  0.00000000000E+00 0.  1.
</event>
<event>
 4    1  0.3555026E+003  0.2672089E+02  0.7546771E-02  0.1450432E+00
          2   -1    0    0  502    0  0.00000000000E+00  0.00000000000E+00  0.98579062378E+02  0.98579062378E+02  0.00000000000E+00 0.  1.
          1   -1    0    0  501    0 -0.00000000000E+00 -0.00000000000E+00 -0.13908063562E+03  0.13908063562E+03  0.00000000000E+00 0.  1.
          2    1    1    2  501    0 -0.25880708207E+02 -0.66479309244E+01  0.95443509959E+02  0.99113418043E+02  0.00000000000E+00 0.  1.
          1    1    1    2  502    0  0.25880708207E+02  0.66479309244E+01 -0.13594508320E+03  0.13854627996E+03  0.00000000000E+00 0.  1.
</event>
<event>
 4    1  0.3555026E+003  0.2063294E+02  0.7546771E-02  0.1524571E+00
          2   -1    0    0  502    0  0.00000000000E+00  0.00000000000E+00  0.42793800064E+03  0.42793800064E+03  0.00000000000E+00 0. -1.
          1   -1    0    0  501    0 -0.00000000000E+00 -0.00000000000E+00 -0.33994763733E+03  0.33994763733E+03  0.00000000000E+00 0.  1.
          2    1    1    2  501    0  0.12492993227E+02 -0.16420816487E+02  0.42737580968E+03  0.42787358039E+03  0.00000000000E+00 0. -1.
          1    1    1    2  502    0 -0.12492993227E+02  0.16420816487E+02 -0.33938544636E+03  0.34001205758E+03  0.00000000000E+00 0.  1.
</event>
<event>
 4    1  0.3555026E+003  0.2042816E+02  0.7546771E-02  0.1527588E+00
          2   -1    0    0  502    0  0.00000000000E+00  0.00000000000E+00  0.67379243658E+03  0.67379243658E+03  0.00000000000E+00 0. -1.
          1   -1    0    0  501    0 -0.00000000000E+00 -0.00000000000E+00 -0.49222485682E+02  0.49222485682E+02  0.00000000000E+00 0. -1.
          2    1    1    2  501    0 -0.14719999675E+02 -0.14164437613E+02  0.67151089345E+03  0.67182154602E+03  0.00000000000E+00 0. -1.
          1    1    1    2  502    0  0.14719999675E+02  0.14164437613E+02 -0.46940942549E+02  0.51193376238E+02  0.00000000000E+00 0. -1.
</event>
<event>
 4    1  0.3555026E+003  0.2076124E+02  0.7546771E-02  0.1522701E+00
          2   -1    0    0  502    0  0.00000000000E+00  0.00000000000E+00  0.66573885255E+00  0.66573885255E+00  0.00000000000E+00 0.  1.
          1   -1    0    0  501    0 -0.00000000000E+00 -0.00000000000E+00 -0.66769891064E+03  0.66769891064E+03  0.00000000000E+00 0. -1.
          2    1    1    2  501    0 -0.20391122667E+02  0.39026923053E+01 -0.27531242442E+03  0.27609411426E+03  0.00000000000E+00 0.  1.
          1    1    1    2  502    0  0.20391122667E+02 -0.39026923053E+01 -0.39172074736E+03  0.39227053522E+03  0.00000000000E+00 0. -1.
</event>
<event>
 4    1  0.3555026E+003  0.2822139E+02  0.7546771E-02  0.1435710E+00
          2   -1    0    0  502    0  0.00000000000E+00  0.00000000000E+00  0.33324835563E+03  0.33324835563E+03  0.00000000000E+00 0.  1.
          1   -1    0    0  501    0 -0.00000000000E+00 -0.00000000000E+00 -0.27237229825E+01  0.27237229825E+01  0.00000000000E+00 0.  1.
          2    1    1    2  501    0 -0.27960828164E+02 -0.38259930189E+01  0.10645669777E+03  0.11013389413E+03  0.00000000000E+00 0.  1.
          1    1    1    2  502    0  0.27960828164E+02  0.38259930189E+01  0.22406793488E+03  0.22583818449E+03  0.00000000000E+00 0.  1.
</event>
<event>
 4    1  0.3555026E+003  0.2460191E+02  0.7546771E-02  0.1473306E+00
          2   -1    0    0  502    0  0.00000000000E+00  0.00000000000E+00  0.13328650701E+04  0.13328650701E+04  0.00000000000E+00 0.  1.
          1   -1    0    0  501    0 -0.00000000000E+00 -0.00000000000E+00 -0.12993022965E+01  0.12993022965E+01  0.00000000000E+00 0.  1.
          2    1    1    2  501    0  0.15187297336E+02  0.19354586009E+02  0.12038105150E+04  0.12040618797E+04  0.00000000000E+00 0.  1.
          1    1    1    2  502    0 -0.15187297336E+02 -0.19354586009E+02  0.12775525276E+03  0.13010249270E+03  0.00000000000E+00 0.  1.
</event>
<event>
 4    1  0.3555026E+003  0.2476535E+02  0.7546771E-02  0.1471446E+00
          2   -1    0    0  502    0  0.00000000000E+00  0.00000000000E+00  0.23494118633E+02  0.23494118633E+02  0.00000000000E+00 0. -1.
          1   -1    0    0  501    0 -0.00000000000E+00 -0.00000000000E+00 -0.28047285425E+02  0.28047285425E+02  0.00000000000E+00 0.  1.
          2    1    1    2  501    0  0.14480667724E+01  0.24722975634E+02  0.45044693362E+01  0.25171663941E+02  0.00000000000E+00 0. -1.
          1    1    1    2  502    0 -0.14480667724E+01 -0.24722975634E+02 -0.90576361290E+01  0.26369740117E+02  0.00000000000E+00 0.  1.
</event>
<event>
 4    1  0.3555026E+003  0.2371097E+02  0.7546771E-02  0.1483758E+00
          2   -1    0    0  502    0  0.00000000000E+00  0.00000000000E+00  0.95273809181E+00  0.95273809181E+00  0.00000000000E+00 0.  1.
          1   -1    0    0  501    0 -0.00000000000E+00 -0.00000000000E+00 -0.91466150116E+03  0.91466150116E+03  0.00000000000E+00 0.  1.
          2    1    1    2  501    0 -0.17883906553E+02 -0.15568423440E+02 -0.18414415493E+03  0.18566442771E+03  0.00000000000E+00 0.  1.
          1    1    1    2  502    0  0.17883906553E+02  0.15568423440E+02 -0.72956460814E+03  0.72994981155E+03  0.00000000000E+00 0.  1.
</event>
<event>
 4    1  0.3555026E+003  0.2342536E+02  0.7546771E-02  0.1487225E+00
          2   -1    0    0  502    0  0.00000000000E+00  0.00000000000E+00  0.10521573095E+02  0.10521573095E+02  0.00000000000E+00 0.  1.
          1   -1    0    0  501    0 -0.00000000000E+00 -0.00000000000E+00 -0.15690059569E+03  0.15690059569E+03  0.00000000000E+00 0.  1.
          2    1    1    2  501    0 -0.19688993671E+02 -0.12692157079E+02 -0.47921093336E+01  0.23910492152E+02  0.00000000000E+00 0.  1.
          1    1    1    2  502    0  0.19688993671E+02  0.12692157079E+02 -0.14158691326E+03  0.14351167663E+03  0.00000000000E+00 0.  1.
</event>
<event>
 4    1  0.3555026E+003  0.2180316E+02  0.7546771E-02  0.1508100E+00
          2   -1    0    0  502    0  0.00000000000E+00  0.00000000000E+00  0.13097437888E+02  0.13097437888E+02  0.00000000000E+00 0. -1.
          1   -1    0    0  501    0 -0.00000000000E+00 -0.00000000000E+00 -0.81360491522E+02  0.81360491522E+02  0.00000000000E+00 0. -1.
          2    1    1    2  501    0 -0.10816292013E+02 -0.18931072132E+02  0.10181579784E+01  0.21826917113E+02  0.00000000000E+00 0. -1.
          1    1    1    2  502    0  0.10816292013E+02  0.18931072132E+02 -0.69281211612E+02  0.72631012298E+02  0.00000000000E+00 0. -1.
</event>
<event>
 4    1  0.3555026E+003  0.3624287E+02  0.7546771E-02  0.1372030E+00
          2   -1    0    0  502    0  0.00000000000E+00  0.00000000000E+00  0.11506839175E+03  0.11506839175E+03  0.00000000000E+00 0.  1.
          1   -1    0    0  501    0 -0.00000000000E+00 -0.00000000000E+00 -0.33086335306E+02  0.33086335306E+02  0.00000000000E+00 0. -1.
          2    1    1    2  501    0  0.34412273446E+02 -0.11372818403E+02  0.10094259642E+03  0.10725182205E+03  0.00000000000E+00 0.  1.
          1    1    1    2  502    0 -0.34412273446E+02  0.11372818403E+02 -0.18960539969E+02  0.40902905008E+02  0.00000000000E+00 0. -1.
</event>
<event>
 4    1  0.3555026E+003  0.6223128E+02  0.7546771E-02  0.1252434E+00
          2   -1    0    0  502    0  0.00000000000E+00  0.00000000000E+00  0.11307559636E+02  0.11307559636E+02  0.00000000000E+00 0. -1.
          1   -1    0    0  501    0 -0.00000000000E+00 -0.00000000000E+00 -0.10334115381E+04  0.10334115381E+04  0.00000000000E+00 0. -1.
          2    1    1    2  501    0  0.28196710466E+02  0.55476826378E+02 -0.83934784229E+02  0.10448818474E+03  0.00000000000E+00 0. -1.
          1    1    1    2  502    0 -0.28196710466E+02 -0.55476826378E+02 -0.93816919420E+03  0.94023091296E+03  0.00000000000E+00 0. -1.
</event>
<event>
 4    1  0.3555026E+003  0.2371410E+02  0.7546771E-02  0.1483721E+00
          2   -1    0    0  502    0  0.00000000000E+00  0.00000000000E+00  0.92590951896E+03  0.92590951896E+03  0.00000000000E+00 0. -1.
          1   -1    0    0  501    0 -0.00000000000E+00 -0.00000000000E+00 -0.69626218568E+02  0.69626218568E+02  0.00000000000E+00 0. -1.
          2    1    1    2  501    0 -0.18111262913E+02  0.15308185346E+02  0.92373371936E+03  0.92403806343E+03  0.00000000000E+00 0. -1.
          1    1    1    2  502    0  0.18111262913E+02 -0.15308185346E+02 -0.67450418967E+02  0.71497674100E+02  0.00000000000E+00 0. -1.
</event>
<event>
 4    1  0.3555026E+003  0.2280624E+02  0.7546771E-02  0.1494946E+00
          2   -1    0    0  502    0  0.00000000000E+00  0.00000000000E+00  0.41630099479E+03  0.41630099479E+03  0.00000000000E+00 0. -1.
          1   -1    0    0  501    0 -0.00000000000E+00 -0.00000000000E+00 -0.74854073852E+02  0.74854073852E+02  0.00000000000E+00 0. -1.
          2    1    1    2  501    0 -0.20395871524E+00 -0.22805326032E+02  0.41424289363E+03  0.41487021997E+03  0.00000000000E+00 0. -1.
          1    1    1    2  502    0  0.20395871524E+00  0.22805326032E+02 -0.72795972700E+02  0.76284848666E+02  0.00000000000E+00 0. -1.
</event>
<event>
 4    1  0.3555026E+003  0.2248851E+02  0.7546771E-02  0.1499023E+00
          2   -1    0    0  502    0  0.00000000000E+00  0.00000000000E+00  0.70568976862E+00  0.70568976862E+00  0.00000000000E+00 0.  1.
          1   -1    0    0  501    0 -0.00000000000E+00 -0.00000000000E+00 -0.74611858020E+03  0.74611858020E+03  0.00000000000E+00 0.  1.
          2    1    1    2  501    0 -0.83019361635E+01  0.20900010921E+02 -0.44691668155E+03  0.44748212573E+03  0.00000000000E+00 0.  1.
          1    1    1    2  502    0  0.83019361635E+01 -0.20900010921E+02 -0.29849620888E+03  0.29934214424E+03  0.00000000000E+00 0.  1.
</event>
<event>
 4    1  0.3555026E+003  0.3291021E+02  0.7546771E-02  0.1395882E+00
          2   -1    0    0  502    0  0.00000000000E+00  0.00000000000E+00  0.20829310374E+03  0.20829310374E+03  0.00000000000E+00 0. -1.
          1   -1    0    0  501    0 -0.00000000000E+00 -0.00000000000E+00 -0.45174994981E+02  0.45174994981E+02  0.00000000000E+00 0. -1.
          2    1    1    2  501    0 -0.11772297444E+02  0.30732639070E+02  0.20077643089E+03  0.20345578707E+03  0.00000000000E+00 0. -1.
          1    1    1    2  502    0  0.11772297444E+02 -0.30732639070E+02 -0.37658322129E+02  0.50012311654E+02  0.00000000000E+00 0. -1.
</event>
<event>
 4    1  0.3555026E+003  0.2659923E+02  0.7546771E-02  0.1451676E+00
          2   -1    0    0  502    0  0.00000000000E+00  0.00000000000E+00  0.74345891384E+03  0.74345891384E+03  0.00000000000E+00 0.  1.
          1   -1    0    0  501    0 -0.00000000000E+00 -0.00000000000E+00 -0.31718376184E+02  0.31718376184E+02  0.00000000000E+00 0.  1.
          2    1    1    2  501    0  0.14930569451E+02 -0.22013562021E+02  0.73760015022E+03  0.73807960304E+03  0.00000000000E+00 0.  1.
          1    1    1    2  502    0 -0.14930569451E+02  0.22013562021E+02 -0.25859612569E+02  0.37097686979E+02  0.00000000000E+00 0.  1.
</event>
<event>
 4    1  0.3555026E+003  0.4005354E+02  0.7546771E-02  0.1348172E+00
          2   -1    0    0  502    0  0.00000000000E+00  0.00000000000E+00  0.15761614585E+04  0.15761614585E+04  0.00000000000E+00 0.  1.
          1   -1    0    0  501    0 -0.00000000000E+00 -0.00000000000E+00 -0.24287666763E+01  0.24287666763E+01  0.00000000000E+00 0.  1.
          2    1    1    2  501    0 -0.21560174778E+02 -0.33755666837E+02  0.13884529434E+04  0.13890305477E+04  0.00000000000E+00 0.  1.
          1    1    1    2  502    0  0.21560174778E+02  0.33755666837E+02  0.18527974843E+03  0.18955967757E+03  0.00000000000E+00 0.  1.
</event>
<event>
 4    1  0.3555026E+003  0.2516059E+02  0.7546771E-02  0.1467015E+00
          2   -1    0    0  502    0  0.00000000000E+00  0.00000000000E+00  0.26972794894E+03  0.26972794894E+03  0.00000000000E+00 0.  1.
          1   -1    0    0  501    0 -0.00000000000E+00 -0.00000000000E+00 -0.56703125442E+02  0.56703125442E+02  0.00000000000E+00 0. -1.
          2    1    1    2  501    0 -0.23997449028E+02 -0.75615977761E+01  0.26631440402E+03  0.26750031235E+03  0.00000000000E+00 0.  1.
          1    1    1    2  502    0  0.23997449028E+02  0.75615977761E+01 -0.53289580523E+02  0.58930762027E+02  0.00000000000E+00 0. -1.
</event>
<event>
 4    1  0.3555026E+003  0.2054767E+02  0.7546771E-02  0.1525822E+00
          2   -1    0    0  502    0  0.00000000000E+00  0.00000000000E+00  0.16118297922E+02  0.16118297922E+02  0.00000000000E+00 0.  1.
          1   -1    0    0  501    0 -0.00000000000E+00 -0.00000000000E+00 -0.12061249740E+04  0.12061249740E+04  0.00000000000E+00 0.  1.
          2    1    1    2  501    0 -0.18312922929E+02  0.93189857042E+01  0.94457970129E+01  0.22614812004E+02  0.00000000000E+00 0.  1.
          1    1    1    2  502    0  0.18312922929E+02 -0.93189857042E+01 -0.11994524731E+04  0.11996284599E+04  0.00000000000E+00 0.  1.
</event>
<event>
 4    1  0.3555026E+003  0.3097853E+02  0.7546771E-02  0.1411279E+00
          2   -1    0    0  502    0  0.00000000000E+00  0.00000000000E+00  0.86939723401E+01  0.86939723401E+01  0.00000000000E+00 0.  1.
          1   -1    0    0  501    0 -0.00000000000E+00 -0.00000000000E+00 -0.14123468136E+03  0.14123468136E+03  0.00000000000E+00 0.  1.
          2    1    1    2  501    0 -0.25442017095E+02 -0.17674078946E+02 -0.31233805642E+02  0.43991134508E+02  0.00000000000E+00 0.  1.
          1    1    1    2  502    0  0.25442017095E+02  0.17674078946E+02 -0.10130690338E+03  0.10593751919E+03  0.00000000000E+00 0.  1.
</event>
<event>
 4    1  0.3555026E+003  0.5292440E+02  0.7546771E-02  0.1285968E+00
          2   -1    0    0  502    0  0.00000000000E+00  0.00000000000E+00  0.61890021158E+03  0.61890021158E+03  0.00000000000E+00 0.  1.
          1   -1    0    0  501    0 -0.00000000000E+00 -0.00000000000E+00 -0.12551378355E+02  0.12551378355E+02  0.00000000000E+00 0.  1.
          2    1    1    2  501    0  0.12626396723E+02 -0.51396173281E+02  0.55564086084E+03  0.55815567610E+03  0.00000000000E+00 0.  1.
          1    1    1    2  502    0 -0.12626396723E+02  0.51396173281E+02  0.50707972382E+02  0.73295913837E+02  0.00000000000E+00 0.  1.
</event>
<event>
 4    1  0.3555026E+003  0.4214013E+02  0.7546771E-02  0.1336381E+00
          2   -1    0    0  502    0  0.00000000000E+00  0.00000000000E+00  0.17141844708E+03  0.17141844708E+03  0.00000000000E+00 0. -1.
          1   -1    0    0  501    0 -0.00000000000E+00 -0.00000000000E+00 -0.22240052822E+02  0.22240052822E+02  0.00000000000E+00 0. -1.
          2    1    1    2  501    0  0.33704699708E+02  0.25293903947E+02  0.38175621140E+01  0.42312671149E+02  0.00000000000E+00 0. -1.
          1    1    1    2  502    0 -0.33704699708E+02 -0.25293903947E+02  0.14536083215E+03  0.15134582875E+03  0.00000000000E+00 0. -1.
</event>
<event>
 4    1  0.3555026E+003  0.3022518E+02  0.7546771E-02  0.1417649E+00
          2   -1    0    0  502    0  0.00000000000E+00  0.00000000000E+00  0.42610098848E+03  0.42610098848E+03  0.00000000000E+00 0.  1.
          1   -1    0    0  501    0 -0.00000000000E+00 -0.00000000000E+00 -0.36958937723E+01  0.36958937723E+01  0.00000000000E+00 0. -1.
          2    1    1    2  501    0  0.41703489442E+01 -0.29936098469E+02  0.35045539949E+03  0.35175637710E+03  0.00000000000E+00 0.  1.
          1    1    1    2  502    0 -0.41703489442E+01  0.29936098469E+02  0.71949695222E+02  0.78040505153E+02  0.00000000000E+00 0. -1.
</event>
<event>
 4    1  0.3555026E+003  0.2480807E+02  0.7546771E-02  0.1470962E+00
          2   -1    0    0  502    0  0.00000000000E+00  0.00000000000E+00  0.29145979582E+03  0.29145979582E+03  0.00000000000E+00 0.  1.
          1   -1    0    0  501    0 -0.00000000000E+00 -0.00000000000E+00 -0.21291713264E+01  0.21291713264E+01  0.00000000000E+00 0.  1.
          2    1    1    2  501    0  0.64157144779E+01 -0.23964121987E+02  0.15800850275E+03  0.15994413861E+03  0.00000000000E+00 0.  1.
          1    1    1    2  502    0 -0.64157144779E+01  0.23964121987E+02  0.13132212174E+03  0.13364482853E+03  0.00000000000E+00 0.  1.
</event>
<event>
 4    1  0.3555026E+003  0.3285427E+02  0.7546771E-02  0.1396310E+00
          2   -1    0    0  502    0  0.00000000000E+00  0.00000000000E+00  0.86613132703E+01  0.86613132703E+01  0.00000000000E+00 0. -1.
          1   -1    0    0  501    0 -0.00000000000E+00 -0.00000000000E+00 -0.31309989435E+03  0.31309989435E+03  0.00000000000E+00 0.  1.
          2    1    1    2  501    0  0.70892281490E+01  0.32080306155E+02 -0.27397414323E+02  0.42778750687E+02  0.00000000000E+00 0. -1.
          1    1    1    2  502    0 -0.70892281490E+01 -0.32080306155E+02 -0.27704116675E+03  0.27898245693E+03  0.00000000000E+00 0.  1.
</event>
<event>
 4    1  0.3555026E+003  0.2973274E+02  0.7546771E-02  0.1421933E+00
          2   -1    0    0  502    0  0.00000000000E+00  0.00000000000E+00  0.45621603093E+03  0.45621603093E+03  0.00000000000E+00 0. -1.
          1   -1    0    0  501    0 -0.00000000000E+00 -0.00000000000E+00 -0.29002314704E+03  0.29002314704E+03  0.00000000000E+00 0.  1.
          2    1    1    2  501    0  0.16579571952E+02  0.24681042441E+02  0.45496746327E+03  0.45593796585E+03  0.00000000000E+00 0. -1.
          1    1    1    2  502    0 -0.16579571952E+02 -0.24681042441E+02 -0.28877457939E+03  0.29030121213E+03  0.00000000000E+00 0.  1.
</event>
<event>
 4    1  0.3555026E+003  0.2494179E+02  0.7546771E-02  0.1469456E+00
          2   -1    0    0  502    0  0.00000000000E+00  0.00000000000E+00  0.19553986492E+03  0.19553986492E+03  0.00000000000E+00 0.  1.
          1   -1    0    0  501    0 -0.00000000000E+00 -0.00000000000E+00 -0.19388940407E+02  0.19388940407E+02  0.00000000000E+00 0. -1.
          2    1    1    2  501    0  0.23756944477E+02  0.75960839902E+01  0.18632849959E+03  0.18799043237E+03  0.00000000000E+00 0.  1.
          1    1    1    2  502    0 -0.23756944477E+02 -0.75960839902E+01 -0.10177575081E+02  0.26938372954E+02  0.00000000000E+00 0. -1.
</event>
<event>
 4    1  0.3555026E+003  0.2399839E+02  0.7546771E-02  0.1480328E+00
          2   -1    0    0  502    0  0.00000000000E+00  0.00000000000E+00  0.11813682767E+04  0.11813682767E+04  0.00000000000E+00 0.  1.
          1   -1    0    0  501    0 -0.00000000000E+00 -0.00000000000E+00 -0.34018916665E+02  0.34018916665E+02  0.00000000000E+00 0.  1.
          2    1    1    2  501    0  0.96995887657E+01 -0.21950870791E+02  0.11769983168E+04  0.11772429488E+04  0.00000000000E+00 0.  1.
          1    1    1    2  502    0 -0.96995887657E+01  0.21950870791E+02 -0.29648956805E+02  0.38144244525E+02  0.00000000000E+00 0.  1.
</event>
<event>
 4    1  0.3555026E+003  0.1242313E+03  0.7546771E-02  0.1127404E+00
          2   -1    0    0  502    0  0.00000000000E+00  0.00000000000E+00  0.18585403608E+04  0.18585403608E+04  0.00000000000E+00 0.  1.
          1   -1    0    0  501    0 -0.00000000000E+00 -0.00000000000E+00 -0.17281917307E+04  0.17281917307E+04  0.00000000000E+00 0. -1.
          2    1    1    2  501    0 -0.10802323879E+03  0.61354618316E+02  0.18542265654E+04  0.18583835893E+04  0.00000000000E+00 0.  1.
          1    1    1    2  502    0  0.10802323879E+03 -0.61354618316E+02 -0.17238779352E+04  0.17283485022E+04  0.00000000000E+00 0. -1.
</event>
<event>
 4    1  0.3555026E+003  0.2397748E+02  0.7546771E-02  0.1480576E+00
          2   -1    0    0  502    0  0.00000000000E+00  0.00000000000E+00  0.97233190320E+02  0.97233190320E+02  0.00000000000E+00 0.  1.
          1   -1    0    0  501    0 -0.00000000000E+00 -0.00000000000E+00 -0.90980045319E+02  0.90980045319E+02  0.00000000000E+00 0. -1.
          2    1    1    2  501    0 -0.50024569176E+01 -0.23449844358E+02  0.94123827596E+02  0.97129885704E+02  0.00000000000E+00 0.  1.
          1    1    1    2  502    0  0.50024569176E+01  0.23449844358E+02 -0.87870682595E+02  0.91083349935E+02  0.00000000000E+00 0. -1.
</event>
<event>
 4    1  0.3555026E+003  0.2264215E+02  0.7546771E-02  0.1497041E+00
          2   -1    0    0  502    0  0.00000000000E+00  0.00000000000E+00  0.87669877065E+01  0.87669877065E+01  0.00000000000E+00 0. -1.
          1   -1    0    0  501    0 -0.00000000000E+00 -0.00000000000E+00 -0.47100452980E+03  0.47100452980E+03  0.00000000000E+00 0. -1.
          2    1    1    2  501    0  0.19042497378E+02 -0.12249499058E+02 -0.66177065248E+01  0.23589425029E+02  0.00000000000E+00 0. -1.
          1    1    1    2  502    0 -0.19042497378E+02  0.12249499058E+02 -0.45561983556E+03  0.45618209247E+03  0.00000000000E+00 0. -1.
</event>
<event>
 4    1  0.3555026E+003  0.2427746E+02  0.7546771E-02  0.1477051E+00
          2   -1    0    0  502    0  0.00000000000E+00  0.00000000000E+00  0.15929954632E+03  0.15929954632E+03  0.00000000000E+00 0. -1.
          1   -1    0    0  501    0 -0.00000000000E+00 -0.00000000000E+00 -0.27513114905E+02  0.27513114905E+02  0.00000000000E+00 0.  1.
          2    1    1    2  501    0 -0.23984086222E+02  0.37627870385E+01  0.15279231986E+03  0.15470904293E+03  0.00000000000E+00 0. -1.
          1    1    1    2  502    0  0.23984086222E+02 -0.37627870385E+01 -0.21005888441E+02  0.32103618292E+02  0.00000000000E+00 0.  1.
</event>
<event>
 4    1  0.3555026E+003  0.3692617E+02  0.7546771E-02  0.1367505E+00
          2   -1    0    0  502    0  0.00000000000E+00  0.00000000000E+00  0.27452504255E+03  0.27452504255E+03  0.00000000000E+00 0.  1.
          1   -1    0    0  501    0 -0.00000000000E+00 -0.00000000000E+00 -0.96461573505E+02  0.96461573505E+02  0.00000000000E+00 0.  1.
          2    1    1    2  501    0  0.31969606835E+02 -0.18479349453E+02  0.26968630329E+03  0.27220257953E+03  0.00000000000E+00 0.  1.
          1    1    1    2  502    0 -0.31969606835E+02  0.18479349453E+02 -0.91622834247E+02  0.98784036528E+02  0.00000000000E+00 0.  1.
</event>
<event>
 4    1  0.3555026E+003  0.2269374E+02  0.7546771E-02  0.1496380E+00
          2   -1    0    0  502    0  0.00000000000E+00  0.00000000000E+00  0.18282577904E+02  0.18282577904E+02  0.00000000000E+00 0.  1.
          1   -1    0    0  501    0 -0.00000000000E+00 -0.00000000000E+00 -0.37748264593E+03  0.37748264593E+03  0.00000000000E+00 0.  1.
          2    1    1    2  501    0  0.17782385997E+02 -0.14099380466E+02  0.10756059655E+02  0.25113713396E+02  0.00000000000E+00 0.  1.
          1    1    1    2  502    0 -0.17782385997E+02  0.14099380466E+02 -0.36995612768E+03  0.37065151043E+03  0.00000000000E+00 0.  1.
</event>
<event>
 4    1  0.3555026E+003  0.3396799E+02  0.7546771E-02  0.1387967E+00
          2   -1    0    0  502    0  0.00000000000E+00  0.00000000000E+00  0.11736290628E+04  0.11736290628E+04  0.00000000000E+00 0. -1.
          1   -1    0    0  501    0 -0.00000000000E+00 -0.00000000000E+00 -0.37681045586E+02  0.37681045586E+02  0.00000000000E+00 0.  1.
          2    1    1    2  501    0 -0.33553534396E+02 -0.52900653913E+01  0.11656758578E+04  0.11661706693E+04  0.00000000000E+00 0. -1.
          1    1    1    2  502    0  0.33553534396E+02  0.52900653913E+01 -0.29727840542E+02  0.45139439137E+02  0.00000000000E+00 0.  1.
</event>
<event>
 4    1  0.3555026E+003  0.2102351E+02  0.7546771E-02  0.1518929E+00
          2   -1    0    0  502    0  0.00000000000E+00  0.00000000000E+00  0.94986842656E+03  0.94986842656E+03  0.00000000000E+00 0. -1.
          1   -1    0    0  501    0 -0.00000000000E+00 -0.00000000000E+00 -0.17605697237E+02  0.17605697237E+02  0.00000000000E+00 0. -1.
          2    1    1    2  501    0 -0.91866080267E+01 -0.18910157151E+02  0.94343308768E+03  0.94366730300E+03  0.00000000000E+00 0. -1.
          1    1    1    2  502    0  0.91866080267E+01  0.18910157151E+02 -0.11170358363E+02  0.23806820797E+02  0.00000000000E+00 0. -1.
</event>
<event>
 4    1  0.3555026E+003  0.2174996E+02  0.7546771E-02  0.1508821E+00
          2   -1    0    0  502    0  0.00000000000E+00  0.00000000000E+00  0.37167908019E+02  0.37167908019E+02  0.00000000000E+00 0.  1.
          1   -1    0    0  501    0 -0.00000000000E+00 -0.00000000000E+00 -0.44596773062E+02  0.44596773062E+02  0.00000000000E+00 0.  1.
          2    1    1    2  501    0 -0.21215844862E+02 -0.47904929922E+01  0.30845186721E+02  0.37742369297E+02  0.00000000000E+00 0.  1.
          1    1    1    2  502    0  0.21215844862E+02  0.47904929922E+01 -0.38274051764E+02  0.44022311784E+02  0.00000000000E+00 0.  1.
</event>
<event>
 4    1  0.3555026E+003  0.2058301E+02  0.7546771E-02  0.1525302E+00
          2   -1    0    0  502    0  0.00000000000E+00  0.00000000000E+00  0.38374063100E+03  0.38374063100E+03  0.00000000000E+00 0.  1.
          1   -1    0    0  501    0 -0.00000000000E+00 -0.00000000000E+00 -0.47438077357E+02  0.47438077357E+02  0.00000000000E+00 0.  1.
          2    1    1    2  501    0 -0.11743444011E+02  0.16904199054E+02  0.38121715297E+03  0.38177241669E+03  0.00000000000E+00 0.  1.
          1    1    1    2  502    0  0.11743444011E+02 -0.16904199054E+02 -0.44914599333E+02  0.49406291665E+02  0.00000000000E+00 0.  1.
</event>
<event>
 4    1  0.3555026E+003  0.3767825E+02  0.7546771E-02  0.1362656E+00
          2   -1    0    0  502    0  0.00000000000E+00  0.00000000000E+00  0.12789888403E+03  0.12789888403E+03  0.00000000000E+00 0.  1.
          1   -1    0    0  501    0 -0.00000000000E+00 -0.00000000000E+00 -0.53541481695E+03  0.53541481695E+03  0.00000000000E+00 0.  1.
          2    1    1    2  501    0 -0.11584974242E+01  0.37660431228E+02  0.12444305900E+03  0.13002201787E+03  0.00000000000E+00 0.  1.
          1    1    1    2  502    0  0.11584974242E+01 -0.37660431228E+02 -0.53195899192E+03  0.53329168311E+03  0.00000000000E+00 0.  1.
</event>
<event>
 4    1  0.3555026E+003  0.3541448E+02  0.7546771E-02  0.1377672E+00
          2   -1    0    0  502    0  0.00000000000E+00  0.00000000000E+00  0.25014597584E+01  0.25014597584E+01  0.00000000000E+00 0. -1.
          1   -1    0    0  501    0 -0.00000000000E+00 -0.00000000000E+00 -0.17676160161E+04  0.17676160161E+04  0.00000000000E+00 0. -1.
          2    1    1    2  501    0 -0.26811365313E+02  0.23137338267E+02 -0.13346521081E+03  0.13808384492E+03  0.00000000000E+00 0. -1.
          1    1    1    2  502    0  0.26811365313E+02 -0.23137338267E+02 -0.16316493455E+04  0.16320336309E+04  0.00000000000E+00 0. -1.
</event>
<event>
 4    1  0.3555026E+003  0.2205747E+02  0.7546771E-02  0.1504685E+00
          2   -1    0    0  502    0  0.00000000000E+00  0.00000000000E+00  0.65986307448E+02  0.65986307448E+02  0.00000000000E+00 0. -1.
          1   -1    0    0  501    0 -0.00000000000E+00 -0.00000000000E+00 -0.70269632223E+02  0.70269632223E+02  0.00000000000E+00 0. -1.
          2    1    1    2  501    0  0.52028607980E+01 -0.21435067592E+02  0.62313028034E+02  0.66101780203E+02  0.00000000000E+00 0. -1.
          1    1    1    2  502    0 -0.52028607980E+01  0.21435067592E+02 -0.66596352809E+02  0.70154159468E+02  0.00000000000E+00 0. -1.
</event>
<event>
 4    1  0.3555026E+003  0.4733891E+02  0.7546771E-02  0.1310141E+00
          2   -1    0    0  502    0  0.00000000000E+00  0.00000000000E+00  0.21740138247E+03  0.21740138247E+03  0.00000000000E+00 0.  1.
          1   -1    0    0  501    0 -0.00000000000E+00 -0.00000000000E+00 -0.27094026848E+03  0.27094026848E+03  0.00000000000E+00 0. -1.
          2    1    1    2  501    0  0.46956215013E+02  0.60072242843E+01  0.21271157040E+03  0.21791554569E+03  0.00000000000E+00 0.  1.
          1    1    1    2  502    0 -0.46956215013E+02 -0.60072242843E+01 -0.26625045640E+03  0.27042610526E+03  0.00000000000E+00 0. -1.
</event>
<event>
 4    1  0.3555026E+003  0.2294327E+02  0.7546771E-02  0.1493212E+00
          2   -1    0    0  502    0  0.00000000000E+00  0.00000000000E+00  0.14569975708E+02  0.14569975708E+02  0.00000000000E+00 0.  1.
          1   -1    0    0  501    0 -0.00000000000E+00 -0.00000000000E+00 -0.10963584895E+03  0.10963584895E+03  0.00000000000E+00 0. -1.
          2    1    1    2  501    0 -0.22936692532E+02 -0.54923667891E+00  0.33181944892E+01  0.23181974461E+02  0.00000000000E+00 0.  1.
          1    1    1    2  502    0  0.22936692532E+02  0.54923667891E+00 -0.98384067729E+02  0.10102385019E+03  0.00000000000E+00 0. -1.
</event>
<event>
 4    1  0.3555026E+003  0.2017397E+02  0.7546771E-02  0.1531393E+00
          2   -1    0    0  502    0  0.00000000000E+00  0.00000000000E+00  0.24229792906E+04  0.24229792906E+04  0.00000000000E+00 0.  1.
          1   -1    0    0  501    0 -0.00000000000E+00 -0.00000000000E+00 -0.17480918135E+00  0.17480918135E+00  0.00000000000E+00 0.  1.
          2    1    1    2  501    0  0.11906147212E+02 -0.16285970209E+02  0.14510390210E+04  0.14511792548E+04  0.00000000000E+00 0.  1.
          1    1    1    2  502    0 -0.11906147212E+02  0.16285970209E+02  0.97176546044E+03  0.97197484498E+03  0.00000000000E+00 0.  1.
</event>
<event>
 4    1  0.3555026E+003  0.6012121E+02  0.7546771E-02  0.1259421E+00
          2   -1    0    0  502    0  0.00000000000E+00  0.00000000000E+00  0.70229928513E+03  0.70229928513E+03  0.00000000000E+00 0.  1.
          1   -1    0    0  501    0 -0.00000000000E+00 -0.00000000000E+00 -0.82446784928E+01  0.82446784928E+01  0.00000000000E+00 0. -1.
          2    1    1    2  501    0  0.49250779520E+02  0.34480721329E+02  0.56480316099E+03  0.56799398773E+03  0.00000000000E+00 0.  1.
          1    1    1    2  502    0 -0.49250779520E+02 -0.34480721329E+02  0.12925144565E+03  0.14254997590E+03  0.00000000000E+00 0. -1.
</event>
<event>
 4    1  0.3555026E+003  0.2041535E+02  0.7546771E-02  0.1527778E+00
          2   -1    0    0  502    0  0.00000000000E+00  0.00000000000E+00  0.57156669361E+00  0.57156669361E+00  0.00000000000E+00 0.  1.
          1   -1    0    0  501    0 -0.00000000000E+00 -0.00000000000E+00 -0.83005176511E+03  0.83005176511E+03  0.00000000000E+00 0.  1.
          2    1    1    2  501    0 -0.20379770040E+02 -0.12047304283E+01 -0.26997515438E+03  0.27074595174E+03  0.00000000000E+00 0.  1.
          1    1    1    2  502    0  0.20379770040E+02  0.12047304283E+01 -0.55950504404E+03  0.55987738006E+03  0.00000000000E+00 0.  1.
</event>
<event>
 4    1  0.3555026E+003  0.2506454E+02  0.7546771E-02  0.1468083E+00
          2   -1    0    0  502    0  0.00000000000E+00  0.00000000000E+00  0.14824067466E+03  0.14824067466E+03  0.00000000000E+00 0. -1.
          1   -1    0    0  501    0 -0.00000000000E+00 -0.00000000000E+00 -0.88205301331E+03  0.88205301331E+03  0.00000000000E+00 0.  1.
          2    1    1    2  501    0 -0.24441347364E+02 -0.55544351605E+01  0.14700164677E+03  0.14912315503E+03  0.00000000000E+00 0. -1.
          1    1    1    2  502    0  0.24441347364E+02  0.55544351605E+01 -0.88081398543E+03  0.88117053295E+03  0.00000000000E+00 0.  1.
</event>
<event>
 4    1  0.3555026E+003  0.2089657E+02  0.7546771E-02  0.1520747E+00
          2   -1    0    0  502    0  0.00000000000E+00  0.00000000000E+00  0.12431205407E+03  0.12431205407E+03  0.00000000000E+00 0. -1.
          1   -1    0    0  501    0 -0.00000000000E+00 -0.00000000000E+00 -0.16305034047E+03  0.16305034047E+03  0.00000000000E+00 0. -1.
          2    1    1    2  501    0  0.19275464305E+02  0.80698927946E+01  0.12275593353E+03  0.12452182906E+03  0.00000000000E+00 0. -1.
          1    1    1    2  502    0 -0.19275464305E+02 -0.80698927946E+01 -0.16149421993E+03  0.16284056548E+03  0.00000000000E+00 0. -1.
</event>
<event>
 4    1  0.3555026E+003  0.1052489E+03  0.7546771E-02  0.1155011E+00
          2   -1    0    0  502    0  0.00000000000E+00  0.00000000000E+00  0.17692026613E+02  0.17692026613E+02  0.00000000000E+00 0.  1.
          1   -1    0    0  501    0 -0.00000000000E+00 -0.00000000000E+00 -0.14034216526E+04  0.14034216526E+04  0.00000000000E+00 0.  1.
          2    1    1    2  501    0 -0.66662627260E+02 -0.81445843866E+02 -0.16405495960E+03  0.19491372739E+03  0.00000000000E+00 0.  1.
          1    1    1    2  502    0  0.66662627260E+02  0.81445843866E+02 -0.12216746664E+04  0.12261999518E+04  0.00000000000E+00 0.  1.
</event>
<event>
 4    1  0.3555026E+003  0.2311596E+02  0.7546771E-02  0.1491047E+00
          2   -1    0    0  502    0  0.00000000000E+00  0.00000000000E+00  0.64455508281E+03  0.64455508281E+03  0.00000000000E+00 0. -1.
          1   -1    0    0  501    0 -0.00000000000E+00 -0.00000000000E+00 -0.26924350921E+03  0.26924350921E+03  0.00000000000E+00 0.  1.
          2    1    1    2  501    0 -0.20257285032E+02 -0.11135081141E+02  0.64385112960E+03  0.64426595806E+03  0.00000000000E+00 0. -1.
          1    1    1    2  502    0  0.20257285032E+02  0.11135081141E+02 -0.26853955601E+03  0.26953263396E+03  0.00000000000E+00 0.  1.
</event>
<event>
 4    1  0.3555026E+003  0.3887196E+02  0.7546771E-02  0.1355226E+00
          2   -1    0    0  502    0  0.00000000000E+00  0.00000000000E+00  0.13231899596E+01  0.13231899596E+01  0.00000000000E+00 0.  1.
          1   -1    0    0  501    0 -0.00000000000E+00 -0.00000000000E+00 -0.14969801960E+04  0.14969801960E+04  0.00000000000E+00 0.  1.
          2    1    1    2  501    0  0.20499244683E+02 -0.33027393761E+02 -0.11126574592E+04  0.11133362697E+04  0.00000000000E+00 0.  1.
          1    1    1    2  502    0 -0.20499244683E+02  0.33027393761E+02 -0.38299954677E+03  0.38496711626E+03  0.00000000000E+00 0.  1.
</event>
<event>
 4    1  0.3555026E+003  0.2238933E+02  0.7546771E-02  0.1500312E+00
          2   -1    0    0  502    0  0.00000000000E+00  0.00000000000E+00  0.47578001478E+03  0.47578001478E+03  0.00000000000E+00 0. -1.
          1   -1    0    0  501    0 -0.00000000000E+00 -0.00000000000E+00 -0.19660968580E+02  0.19660968580E+02  0.00000000000E+00 0. -1.
          2    1    1    2  501    0 -0.80858439371E+01  0.20878246879E+02  0.46905114969E+03  0.46958520323E+03  0.00000000000E+00 0. -1.
          1    1    1    2  502    0  0.80858439371E+01 -0.20878246879E+02 -0.12932103498E+02  0.25855780123E+02  0.00000000000E+00 0. -1.
</event>
<event>
 4    1  0.3555026E+003  0.7064202E+02  0.7546771E-02  0.1227416E+00
          2   -1    0    0  502    0  0.00000000000E+00  0.00000000000E+00  0.59022220547E+03  0.59022220547E+03  0.00000000000E+00 0. -1.
          1   -1    0    0  501    0 -0.00000000000E+00 -0.00000000000E+00 -0.95007412345E+01  0.95007412345E+01  0.00000000000E+00 0. -1.
          2    1    1    2  501    0  0.69936223035E+02  0.99609193599E+01  0.38984761915E+03  0.39619624097E+03  0.00000000000E+00 0. -1.
          1    1    1    2  502    0 -0.69936223035E+02 -0.99609193599E+01  0.19087384509E+03  0.20352670573E+03  0.00000000000E+00 0. -1.
</event>
<event>
 4    1  0.3555026E+003  0.2408875E+02  0.7546771E-02  0.1479261E+00
          2   -1    0    0  502    0  0.00000000000E+00  0.00000000000E+00  0.80759785247E+02  0.80759785247E+02  0.00000000000E+00 0. -1.
          1   -1    0    0  501    0 -0.00000000000E+00 -0.00000000000E+00 -0.27171831299E+03  0.27171831299E+03  0.00000000000E+00 0. -1.
          2    1    1    2  501    0  0.24045918687E+02 -0.14359096823E+01  0.78414008557E+02  0.82030633181E+02  0.00000000000E+00 0. -1.
          1    1    1    2  502    0 -0.24045918687E+02  0.14359096823E+01 -0.26937253630E+03  0.27044746505E+03  0.00000000000E+00 0. -1.
</event>
<event>
 4    1  0.3555026E+003  0.2425269E+02  0.7546771E-02  0.1477340E+00
          2   -1    0    0  502    0  0.00000000000E+00  0.00000000000E+00  0.72133130779E+03  0.72133130779E+03  0.00000000000E+00 0.  1.
          1   -1    0    0  501    0 -0.00000000000E+00 -0.00000000000E+00 -0.26209906528E+01  0.26209906528E+01  0.00000000000E+00 0.  1.
          2    1    1    2  501    0  0.74245671158E+01  0.23088278325E+02  0.65979232680E+03  0.66023791719E+03  0.00000000000E+00 0.  1.
          1    1    1    2  502    0 -0.74245671158E+01 -0.23088278325E+02  0.58917990336E+02  0.63714381250E+02  0.00000000000E+00 0.  1.
</event>
<event>
 4    1  0.4217753E+003  0.2954364E+02  0.7546771E-02  0.1423604E+00
          2   -1    0    0  502    0  0.00000000000E+00  0.00000000000E+00  0.18006414266E+04  0.18006414266E+04  0.00000000000E+00 0.  1.
          1   -1    0    0  501    0 -0.00000000000E+00 -0.00000000000E+00 -0.56296993005E+03  0.56296993005E+03  0.00000000000E+00 0.  1.
          2    1    1    2  501    0 -0.18960733269E+02 -0.22656511451E+02  0.18001325350E+04  0.18003749527E+04  0.00000000000E+00 0.  1.
          1    1    1    2  502    0  0.18960733269E+02  0.22656511451E+02 -0.56246103845E+03  0.56323640391E+03  0.00000000000E+00 0.  1.
</event>
<event>
 4    1  0.3555026E+003  0.2347606E+02  0.7546771E-02  0.1486605E+00
          2   -1    0    0  502    0  0.00000000000E+00  0.00000000000E+00  0.77756719417E+03  0.77756719417E+03  0.00000000000E+00 0. -1.
          1   -1    0    0  501    0 -0.00000000000E+00 -0.00000000000E+00 -0.25423283364E+02  0.25423283364E+02  0.00000000000E+00 0. -1.
          2    1    1    2  501    0  0.20800918198E+02 -0.10883353191E+02  0.77193094095E+03  0.77228783699E+03  0.00000000000E+00 0. -1.
          1    1    1    2  502    0 -0.20800918198E+02  0.10883353191E+02 -0.19787030140E+02  0.30702640543E+02  0.00000000000E+00 0. -1.
</event>
<event>
 4    1  0.3555026E+003  0.2735927E+02  0.7546771E-02  0.1444032E+00
          2   -1    0    0  502    0  0.00000000000E+00  0.00000000000E+00  0.74446849437E+03  0.74446849437E+03  0.00000000000E+00 0.  1.
          1   -1    0    0  501    0 -0.00000000000E+00 -0.00000000000E+00 -0.19091024060E+01  0.19091024060E+01  0.00000000000E+00 0. -1.
          2    1    1    2  501    0 -0.18955128332E+02 -0.19728989230E+02  0.62803142781E+03  0.62862707881E+03  0.00000000000E+00 0.  1.
          1    1    1    2  502    0  0.18955128332E+02  0.19728989230E+02  0.11452796416E+03  0.11775051796E+03  0.00000000000E+00 0. -1.
</event>
<event>
 4    1  0.3555026E+003  0.4527000E+02  0.7546771E-02  0.1320095E+00
          2   -1    0    0  502    0  0.00000000000E+00  0.00000000000E+00  0.22292864281E+04  0.22292864281E+04  0.00000000000E+00 0. -1.
          1   -1    0    0  501    0 -0.00000000000E+00 -0.00000000000E+00 -0.28271325327E+01  0.28271325327E+01  0.00000000000E+00 0. -1.
          2    1    1    2  501    0  0.23873572809E+02  0.38463304478E+02  0.20300491201E+04  0.20305538169E+04  0.00000000000E+00 0. -1.
          1    1    1    2  502    0 -0.23873572809E+02 -0.38463304478E+02  0.19641017544E+03  0.20155974372E+03  0.00000000000E+00 0. -1.
</event>
<event>
 4    1  0.3555026E+003  0.2111337E+02  0.7546771E-02  0.1517652E+00
          2   -1    0    0  502    0  0.00000000000E+00  0.00000000000E+00  0.72623814503E+03  0.72623814503E+03  0.00000000000E+00 0. -1.
          1   -1    0    0  501    0 -0.00000000000E+00 -0.00000000000E+00 -0.72893684139E+01  0.72893684139E+01  0.00000000000E+00 0. -1.
          2    1    1    2  501    0 -0.40720485271E+01  0.20716971325E+02  0.71045664496E+03  0.71077029964E+03  0.00000000000E+00 0. -1.
          1    1    1    2  502    0  0.40720485271E+01 -0.20716971325E+02  0.84921316546E+01  0.22757213804E+02  0.00000000000E+00 0. -1.
</event>
<event>
 4    1  0.3555026E+003  0.2330990E+02  0.7546771E-02  0.1488643E+00
          2   -1    0    0  502    0  0.00000000000E+00  0.00000000000E+00  0.66860205049E+03  0.66860205049E+03  0.00000000000E+00 0.  1.
          1   -1    0    0  501    0 -0.00000000000E+00 -0.00000000000E+00 -0.49557389679E+01  0.49557389679E+01  0.00000000000E+00 0.  1.
          2    1    1    2  501    0 -0.14851897470E+01  0.23262539678E+02  0.63975303965E+03  0.64017755606E+03  0.00000000000E+00 0.  1.
          1    1    1    2  502    0  0.14851897470E+01 -0.23262539678E+02  0.23893271865E+02  0.33380233391E+02  0.00000000000E+00 0.  1.
</event>
<event>
 4    1  0.3555026E+003  0.2002004E+02  0.7546771E-02  0.1533729E+00
          2   -1    0    0  502    0  0.00000000000E+00  0.00000000000E+00  0.61387317837E+02  0.61387317837E+02  0.00000000000E+00 0. -1.
          1   -1    0    0  501    0 -0.00000000000E+00 -0.00000000000E+00 -0.65292046183E+01  0.65292046183E+01  0.00000000000E+00 0. -1.
          2    1    1    2  501    0 -0.13876349030E+02  0.14430821777E+02  0.27271032124E+02  0.33830620341E+02  0.00000000000E+00 0. -1.
          1    1    1    2  502    0  0.13876349030E+02 -0.14430821777E+02  0.27587081095E+02  0.34085902114E+02  0.00000000000E+00 0. -1.
</event>
<event>
 4    1  0.3555026E+003  0.7200328E+02  0.7546771E-02  0.1223738E+00
          2   -1    0    0  502    0  0.00000000000E+00  0.00000000000E+00  0.11473735855E+04  0.11473735855E+04  0.00000000000E+00 0.  1.
          1   -1    0    0  501    0 -0.00000000000E+00 -0.00000000000E+00 -0.76633167356E+01  0.76633167356E+01  0.00000000000E+00 0.  1.
          2    1    1    2  501    0 -0.71734279225E+02 -0.62181689666E+01  0.93981212800E+03  0.94256634163E+03  0.00000000000E+00 0.  1.
          1    1    1    2  502    0  0.71734279225E+02  0.62181689666E+01  0.19989814072E+03  0.21247056056E+03  0.00000000000E+00 0.  1.
</event>
<event>
 4    1  0.3555026E+003  0.2268717E+02  0.7546771E-02  0.1496464E+00
          2   -1    0    0  502    0  0.00000000000E+00  0.00000000000E+00  0.93831365639E+02  0.93831365639E+02  0.00000000000E+00 0.  1.
          1   -1    0    0  501    0 -0.00000000000E+00 -0.00000000000E+00 -0.50884555371E+02  0.50884555371E+02  0.00000000000E+00 0. -1.
          2    1    1    2  501    0 -0.95065123953E+01  0.20599371364E+02  0.89820009307E+02  0.92640930211E+02  0.00000000000E+00 0.  1.
          1    1    1    2  502    0  0.95065123953E+01 -0.20599371364E+02 -0.46873199040E+02  0.52074990799E+02  0.00000000000E+00 0. -1.
</event>
<event>
 4    1  0.3555026E+003  0.2075284E+02  0.7546771E-02  0.1522823E+00
          2   -1    0    0  502    0  0.00000000000E+00  0.00000000000E+00  0.20093287940E+02  0.20093287940E+02  0.00000000000E+00 0.  1.
          1   -1    0    0  501    0 -0.00000000000E+00 -0.00000000000E+00 -0.35308064555E+02  0.35308064555E+02  0.00000000000E+00 0.  1.
          2    1    1    2  501    0  0.23385404565E+01 -0.20620658444E+02  0.97568066686E+01  0.22931977728E+02  0.00000000000E+00 0.  1.
          1    1    1    2  502    0 -0.23385404565E+01  0.20620658444E+02 -0.24971583283E+02  0.32469374768E+02  0.00000000000E+00 0.  1.
</event>
<event>
 4    1  0.3555026E+003  0.3974844E+02  0.7546771E-02  0.1349966E+00
          2   -1    0    0  502    0  0.00000000000E+00  0.00000000000E+00  0.78649045533E+01  0.78649045533E+01  0.00000000000E+00 0. -1.
          1   -1    0    0  501    0 -0.00000000000E+00 -0.00000000000E+00 -0.45672353396E+03  0.45672353396E+03  0.00000000000E+00 0.  1.
          2    1    1    2  501    0  0.35695248620E+02  0.17486781365E+02 -0.50571180078E+02  0.64322488688E+02  0.00000000000E+00 0. -1.
          1    1    1    2  502    0 -0.35695248620E+02 -0.17486781365E+02 -0.39828744933E+03  0.40026594983E+03  0.00000000000E+00 0.  1.
</event>
<event>
 4    1  0.3555026E+003  0.2481862E+02  0.7546771E-02  0.1470843E+00
          2   -1    0    0  502    0  0.00000000000E+00  0.00000000000E+00  0.14007407709E+01  0.14007407709E+01  0.00000000000E+00 0.  1.
          1   -1    0    0  501    0 -0.00000000000E+00 -0.00000000000E+00 -0.16791346939E+04  0.16791346939E+04  0.00000000000E+00 0. -1.
          2    1    1    2  501    0  0.15839627215E+02  0.19106807332E+02 -0.11696295563E+03  0.11956712285E+03  0.00000000000E+00 0.  1.
          1    1    1    2  502    0 -0.15839627215E+02 -0.19106807332E+02 -0.15607709976E+04  0.15609683119E+04  0.00000000000E+00 0. -1.
</event>
<event>
 4    1  0.3555026E+003  0.2054281E+02  0.7546771E-02  0.1525894E+00
          2   -1    0    0  502    0  0.00000000000E+00  0.00000000000E+00  0.78504741071E+00  0.78504741071E+00  0.00000000000E+00 0.  1.
          1   -1    0    0  501    0 -0.00000000000E+00 -0.00000000000E+00 -0.56922802031E+03  0.56922802031E+03  0.00000000000E+00 0.  1.
          2    1    1    2  501    0 -0.95411611680E+01 -0.18192669389E+02 -0.21699362399E+03  0.21796384982E+03  0.00000000000E+00 0.  1.
          1    1    1    2  502    0  0.95411611680E+01  0.18192669389E+02 -0.35144934891E+03  0.35204921790E+03  0.00000000000E+00 0.  1.
</event>
<event>
 4    1  0.3555026E+003  0.4323308E+02  0.7546771E-02  0.1330515E+00
          2   -1    0    0  502    0  0.00000000000E+00  0.00000000000E+00  0.18210524995E+01  0.18210524995E+01  0.00000000000E+00 0.  1.
          1   -1    0    0  501    0 -0.00000000000E+00 -0.00000000000E+00 -0.13853826070E+04  0.13853826070E+04  0.00000000000E+00 0.  1.
          2    1    1    2  501    0 -0.31480324758E+02  0.29632549655E+02 -0.33870181053E+03  0.34144987232E+03  0.00000000000E+00 0.  1.
          1    1    1    2  502    0  0.31480324758E+02 -0.29632549655E+02 -0.10448597440E+04  0.10457537872E+04  0.00000000000E+00 0.  1.
</event>
<event>
 4    1  0.3555026E+003  0.2020446E+02  0.7546771E-02  0.1530933E+00
          2   -1    0    0  502    0  0.00000000000E+00  0.00000000000E+00  0.84464313384E+03  0.84464313384E+03  0.00000000000E+00 0.  1.
          1   -1    0    0  501    0 -0.00000000000E+00 -0.00000000000E+00 -0.56425548966E+01  0.56425548966E+01  0.00000000000E+00 0.  1.
          2    1    1    2  501    0 -0.18066158163E+02  0.90462185273E+01  0.82602810358E+03  0.82627516485E+03  0.00000000000E+00 0.  1.
          1    1    1    2  502    0  0.18066158163E+02 -0.90462185273E+01  0.12972475366E+02  0.24010523892E+02  0.00000000000E+00 0.  1.
</event>
<event>
 4    1  0.3555026E+003  0.2043845E+02  0.7546771E-02  0.1527435E+00
          2   -1    0    0  502    0  0.00000000000E+00  0.00000000000E+00  0.20603576093E+04  0.20603576093E+04  0.00000000000E+00 0. -1.
          1   -1    0    0  501    0 -0.00000000000E+00 -0.00000000000E+00 -0.21103716748E+00  0.21103716748E+00  0.00000000000E+00 0. -1.
          2    1    1    2  501    0  0.12790682739E+02  0.15941411133E+02  0.12342819425E+04  0.12344511508E+04  0.00000000000E+00 0. -1.
          1    1    1    2  502    0 -0.12790682739E+02 -0.15941411133E+02  0.82586462964E+03  0.82611749566E+03  0.00000000000E+00 0. -1.
</event>
<event>
 4    1  0.3555026E+003  0.2825657E+02  0.7546771E-02  0.1435378E+00
          2   -1    0    0  502    0  0.00000000000E+00  0.00000000000E+00  0.22053266789E+03  0.22053266789E+03  0.00000000000E+00 0.  1.
          1   -1    0    0  501    0 -0.00000000000E+00 -0.00000000000E+00 -0.32846296446E+02  0.32846296446E+02  0.00000000000E+00 0. -1.
          2    1    1    2  501    0  0.41318116198E+01  0.27952847611E+02  0.21334670687E+03  0.21520978344E+03  0.00000000000E+00 0.  1.
          1    1    1    2  502    0 -0.41318116198E+01 -0.27952847611E+02 -0.25660335419E+02  0.38169180901E+02  0.00000000000E+00 0. -1.
</event>
<event>
 4    1  0.3555026E+003  0.3053377E+02  0.7546771E-02  0.1415014E+00
          2   -1    0    0  502    0  0.00000000000E+00  0.00000000000E+00  0.22050816571E+01  0.22050816571E+01  0.00000000000E+00 0.  1.
          1   -1    0    0  501    0 -0.00000000000E+00 -0.00000000000E+00 -0.73948136138E+03  0.73948136138E+03  0.00000000000E+00 0. -1.
          2    1    1    2  501    0 -0.69137954378E+01  0.29740720037E+02 -0.12595633716E+03  0.12960443614E+03  0.00000000000E+00 0.  1.
          1    1    1    2  502    0  0.69137954378E+01 -0.29740720037E+02 -0.61131994256E+03  0.61208200690E+03  0.00000000000E+00 0. -1.
</event>
<event>
 4    1  0.3555026E+003  0.2722630E+02  0.7546771E-02  0.1445348E+00
          2   -1    0    0  502    0  0.00000000000E+00  0.00000000000E+00  0.22017090969E+02  0.22017090969E+02  0.00000000000E+00 0.  1.
          1   -1    0    0  501    0 -0.00000000000E+00 -0.00000000000E+00 -0.70090497006E+02  0.70090497006E+02  0.00000000000E+00 0. -1.
          2    1    1    2  501    0 -0.27216330511E+02  0.73658740277E+00  0.91619726432E+01  0.28726519980E+02  0.00000000000E+00 0.  1.
          1    1    1    2  502    0  0.27216330511E+02 -0.73658740277E+00 -0.57235378680E+02  0.63381067994E+02  0.00000000000E+00 0. -1.
</event>
<event>
 4    1  0.3555026E+003  0.5399598E+02  0.7546771E-02  0.1281719E+00
          2   -1    0    0  502    0  0.00000000000E+00  0.00000000000E+00  0.73010439715E+02  0.73010439715E+02  0.00000000000E+00 0.  1.
          1   -1    0    0  501    0 -0.00000000000E+00 -0.00000000000E+00 -0.94232199432E+02  0.94232199432E+02  0.00000000000E+00 0.  1.
          2    1    1    2  501    0 -0.49006060233E+02  0.22670951149E+02  0.52865459125E+02  0.75566677405E+02  0.00000000000E+00 0.  1.
          1    1    1    2  502    0  0.49006060233E+02 -0.22670951149E+02 -0.74087218842E+02  0.91675961742E+02  0.00000000000E+00 0.  1.
</event>
<event>
 4    1  0.3555026E+003  0.3545218E+02  0.7546771E-02  0.1377412E+00
          2   -1    0    0  502    0  0.00000000000E+00  0.00000000000E+00  0.65469053129E+03  0.65469053129E+03  0.00000000000E+00 0.  1.
          1   -1    0    0  501    0 -0.00000000000E+00 -0.00000000000E+00 -0.32670771676E+01  0.32670771676E+01  0.00000000000E+00 0.  1.
          2    1    1    2  501    0  0.31921384475E+02 -0.15423434236E+02  0.53697357358E+03  0.53814261663E+03  0.00000000000E+00 0.  1.
          1    1    1    2  502    0 -0.31921384475E+02  0.15423434236E+02  0.11444988054E+03  0.11981499183E+03  0.00000000000E+00 0.  1.
</event>
<event>
 4    1  0.3555026E+003  0.2162000E+02  0.7546771E-02  0.1510594E+00
          2   -1    0    0  502    0  0.00000000000E+00  0.00000000000E+00  0.44637493003E+02  0.44637493003E+02  0.00000000000E+00 0. -1.
          1   -1    0    0  501    0 -0.00000000000E+00 -0.00000000000E+00 -0.11148540187E+03  0.11148540187E+03  0.00000000000E+00 0.  1.
          2    1    1    2  501    0  0.21607442435E+02  0.73681182013E+00  0.40881043986E+02  0.46245910280E+02  0.00000000000E+00 0. -1.
          1    1    1    2  502    0 -0.21607442435E+02 -0.73681182013E+00 -0.10772895285E+03  0.10987698459E+03  0.00000000000E+00 0.  1.
</event>
<event>
 4    1  0.3555026E+003  0.2084187E+02  0.7546771E-02  0.1521535E+00
          2   -1    0    0  502    0  0.00000000000E+00  0.00000000000E+00  0.14856649556E+01  0.14856649556E+01  0.00000000000E+00 0.  1.
          1   -1    0    0  501    0 -0.00000000000E+00 -0.00000000000E+00 -0.30106262256E+03  0.30106262256E+03  0.00000000000E+00 0.  1.
          2    1    1    2  501    0  0.11008935217E+02  0.17697086904E+02 -0.12410341827E+03  0.12584133647E+03  0.00000000000E+00 0.  1.
          1    1    1    2  502    0 -0.11008935217E+02 -0.17697086904E+02 -0.17547353934E+03  0.17670695104E+03  0.00000000000E+00 0.  1.
</event>
<event>
 4    1  0.3555026E+003  0.2656730E+02  0.7546771E-02  0.1452004E+00
          2   -1    0    0  502    0  0.00000000000E+00  0.00000000000E+00  0.27630002548E+03  0.27630002548E+03  0.00000000000E+00 0.  1.
          1   -1    0    0  501    0 -0.00000000000E+00 -0.00000000000E+00 -0.32520893445E+01  0.32520893445E+01  0.00000000000E+00 0.  1.
          2    1    1    2  501    0  0.20139830101E+02  0.17326530971E+02  0.20125861831E+03  0.20300456368E+03  0.00000000000E+00 0.  1.
          1    1    1    2  502    0 -0.20139830101E+02 -0.17326530971E+02  0.71789317829E+02  0.76547551145E+02  0.00000000000E+00 0.  1.
</event>
<event>
 4    1  0.3555026E+003  0.3893677E+02  0.7546771E-02  0.1354831E+00
          2   -1    0    0  502    0  0.00000000000E+00  0.00000000000E+00  0.11870515256E+03  0.11870515256E+03  0.00000000000E+00 0. -1.
          1   -1    0    0  501    0 -0.00000000000E+00 -0.00000000000E+00 -0.12689926011E+03  0.12689926011E+03  0.00000000000E+00 0. -1.
          2    1    1    2  501    0 -0.38627996863E+02  0.48938988930E+01  0.11236160878E+03  0.11891679240E+03  0.00000000000E+00 0. -1.
          1    1    1    2  502    0  0.38627996863E+02 -0.48938988930E+01 -0.12055571634E+03  0.12668762027E+03  0.00000000000E+00 0. -1.
</event>
<event>
 4    1  0.3555026E+003  0.2418485E+02  0.7546771E-02  0.1478133E+00
          2   -1    0    0  502    0  0.00000000000E+00  0.00000000000E+00  0.66577112592E+01  0.66577112592E+01  0.00000000000E+00 0. -1.
          1   -1    0    0  501    0 -0.00000000000E+00 -0.00000000000E+00 -0.25036009933E+03  0.25036009933E+03  0.00000000000E+00 0. -1.
          2    1    1    2  501    0 -0.23136371274E+02 -0.70438009845E+01 -0.18316608173E+02  0.30338176329E+02  0.00000000000E+00 0. -1.
          1    1    1    2  502    0  0.23136371274E+02  0.70438009845E+01 -0.22538577989E+03  0.22667963426E+03  0.00000000000E+00 0. -1.
</event>
<event>
 4    1  0.3555026E+003  0.2015175E+02  0.7546771E-02  0.1531729E+00
          2   -1    0    0  502    0  0.00000000000E+00  0.00000000000E+00  0.87297565283E+03  0.87297565283E+03  0.00000000000E+00 0. -1.
          1   -1    0    0  501    0 -0.00000000000E+00 -0.00000000000E+00 -0.61565746120E+00  0.61565746120E+00  0.00000000000E+00 0. -1.
          2    1    1    2  501    0  0.10134003407E+02  0.17418237719E+02  0.65212382806E+03  0.65243511567E+03  0.00000000000E+00 0. -1.
          1    1    1    2  502    0 -0.10134003407E+02 -0.17418237719E+02  0.22023616731E+03  0.22115619463E+03  0.00000000000E+00 0. -1.
</event>
<event>
 4    1  0.3555026E+003  0.1311917E+03  0.7546771E-02  0.1118623E+00
          2   -1    0    0  502    0  0.00000000000E+00  0.00000000000E+00  0.37038096030E+03  0.37038096030E+03  0.00000000000E+00 0. -1.
          1   -1    0    0  501    0 -0.00000000000E+00 -0.00000000000E+00 -0.71265579292E+02  0.71265579292E+02  0.00000000000E+00 0.  1.
          2    1    1    2  501    0 -0.12354385082E+03  0.44138069176E+02  0.27981447561E+03  0.30904270415E+03  0.00000000000E+00 0. -1.
          1    1    1    2  502    0  0.12354385082E+03 -0.44138069176E+02  0.19300905394E+02  0.13260383544E+03  0.00000000000E+00 0.  1.
</event>
<event>
 4    1  0.3555026E+003  0.2892543E+02  0.7546771E-02  0.1429170E+00
          2   -1    0    0  502    0  0.00000000000E+00  0.00000000000E+00  0.22317185002E+03  0.22317185002E+03  0.00000000000E+00 0.  1.
          1   -1    0    0  501    0 -0.00000000000E+00 -0.00000000000E+00 -0.63483615084E+02  0.63483615084E+02  0.00000000000E+00 0. -1.
          2    1    1    2  501    0 -0.27479247398E+02  0.90316765968E+01  0.21887532489E+03  0.22077836865E+03  0.00000000000E+00 0.  1.
          1    1    1    2  502    0  0.27479247398E+02 -0.90316765968E+01 -0.59187089953E+02  0.65877096451E+02  0.00000000000E+00 0. -1.
</event>
<event>
 4    1  0.3555026E+003  0.3543648E+02  0.7546771E-02  0.1377520E+00
          2   -1    0    0  502    0  0.00000000000E+00  0.00000000000E+00  0.15195959516E+04  0.15195959516E+04  0.00000000000E+00 0.  1.
          1   -1    0    0  501    0 -0.00000000000E+00 -0.00000000000E+00 -0.98619421542E+00  0.98619421542E+00  0.00000000000E+00 0.  1.
          2    1    1    2  501    0  0.29197647985E+02 -0.20080879676E+02  0.10653769122E+04  0.10659660920E+04  0.00000000000E+00 0.  1.
          1    1    1    2  502    0 -0.29197647985E+02  0.20080879676E+02  0.45323284517E+03  0.45461605374E+03  0.00000000000E+00 0.  1.
</event>
<event>
 4    1  0.3555026E+003  0.2004188E+02  0.7546771E-02  0.1533396E+00
          2   -1    0    0  502    0  0.00000000000E+00  0.00000000000E+00  0.92135677734E+03  0.92135677734E+03  0.00000000000E+00 0. -1.
          1   -1    0    0  501    0 -0.00000000000E+00 -0.00000000000E+00 -0.11077010606E+01  0.11077010606E+01  0.00000000000E+00 0. -1.
          2    1    1    2  501    0  0.17330238234E+02 -0.10066764323E+02  0.81930156069E+03  0.81954665776E+03  0.00000000000E+00 0. -1.
          1    1    1    2  502    0 -0.17330238234E+02  0.10066764323E+02  0.10094751560E+03  0.10291782065E+03  0.00000000000E+00 0. -1.
</event>
<event>
 4    1  0.3555026E+003  0.2167246E+02  0.7546771E-02  0.1509877E+00
          2   -1    0    0  502    0  0.00000000000E+00  0.00000000000E+00  0.82180938212E+00  0.82180938212E+00  0.00000000000E+00 0.  1.
          1   -1    0    0  501    0 -0.00000000000E+00 -0.00000000000E+00 -0.57696692624E+03  0.57696692624E+03  0.00000000000E+00 0.  1.
          2    1    1    2  501    0  0.95534652934E+01  0.19453185277E+02 -0.31609648969E+03  0.31683858021E+03  0.00000000000E+00 0.  1.
          1    1    1    2  502    0 -0.95534652934E+01 -0.19453185277E+02 -0.26004862717E+03  0.26095015541E+03  0.00000000000E+00 0.  1.
</event>
<event>
 4    1  0.3555026E+003  0.4452834E+02  0.7546771E-02  0.1323815E+00
          2   -1    0    0  502    0  0.00000000000E+00  0.00000000000E+00  0.44880777689E+02  0.44880777689E+02  0.00000000000E+00 0.  1.
          1   -1    0    0  501    0 -0.00000000000E+00 -0.00000000000E+00 -0.53093083672E+03  0.53093083672E+03  0.00000000000E+00 0.  1.
          2    1    1    2  501    0  0.33840866162E+02 -0.28940784973E+02  0.32642360653E+02  0.55211384392E+02  0.00000000000E+00 0.  1.
          1    1    1    2  502    0 -0.33840866162E+02  0.28940784973E+02 -0.51869241968E+03  0.52060023001E+03  0.00000000000E+00 0.  1.
</event>
<event>
 4    1  0.3555026E+003  0.2628096E+02  0.7546771E-02  0.1454968E+00
          2   -1    0    0  502    0  0.00000000000E+00  0.00000000000E+00  0.11618584110E+01  0.11618584110E+01  0.00000000000E+00 0. -1.
          1   -1    0    0  501    0 -0.00000000000E+00 -0.00000000000E+00 -0.16415059860E+04  0.16415059860E+04  0.00000000000E+00 0. -1.
          2    1    1    2  501    0 -0.23968486692E+02  0.10779632882E+02 -0.16420878095E+03  0.16629856457E+03  0.00000000000E+00 0. -1.
          1    1    1    2  502    0  0.23968486692E+02 -0.10779632882E+02 -0.14761353467E+04  0.14763692799E+04  0.00000000000E+00 0. -1.
</event>
<event>
 4    1  0.3555026E+003  0.3536126E+02  0.7546771E-02  0.1378041E+00
          2   -1    0    0  502    0  0.00000000000E+00  0.00000000000E+00  0.15966541291E+04  0.15966541291E+04  0.00000000000E+00 0. -1.
          1   -1    0    0  501    0 -0.00000000000E+00 -0.00000000000E+00 -0.82701262500E+00  0.82701262500E+00  0.00000000000E+00 0. -1.
          2    1    1    2  501    0 -0.29370924439E+02  0.19691805481E+02  0.98186404412E+03  0.98250059519E+03  0.00000000000E+00 0. -1.
          1    1    1    2  502    0  0.29370924439E+02 -0.19691805481E+02  0.61396307232E+03  0.61498054650E+03  0.00000000000E+00 0. -1.
</event>
<event>
 4    1  0.3555026E+003  0.2363970E+02  0.7546771E-02  0.1484618E+00
          2   -1    0    0  502    0  0.00000000000E+00  0.00000000000E+00  0.41350588192E+03  0.41350588192E+03  0.00000000000E+00 0. -1.
          1   -1    0    0  501    0 -0.00000000000E+00 -0.00000000000E+00 -0.19671165572E+03  0.19671165572E+03  0.00000000000E+00 0.  1.
          2    1    1    2  501    0 -0.86724261206E+01  0.21991458235E+02  0.41245599016E+03  0.41313288302E+03  0.00000000000E+00 0. -1.
          1    1    1    2  502    0  0.86724261206E+01 -0.21991458235E+02 -0.19566176396E+03  0.19708465462E+03  0.00000000000E+00 0.  1.
</event>
<event>
 4    1  0.3555026E+003  0.2183380E+02  0.7546771E-02  0.1507685E+00
          2   -1    0    0  502    0  0.00000000000E+00  0.00000000000E+00  0.54661059777E+02  0.54661059777E+02  0.00000000000E+00 0. -1.
          1   -1    0    0  501    0 -0.00000000000E+00 -0.00000000000E+00 -0.81544067594E+02  0.81544067594E+02  0.00000000000E+00 0.  1.
          2    1    1    2  501    0 -0.14725460547E+02  0.16120661887E+02  0.50916252653E+02  0.55400177908E+02  0.00000000000E+00 0. -1.
          1    1    1    2  502    0  0.14725460547E+02 -0.16120661887E+02 -0.77799260470E+02  0.80804949463E+02  0.00000000000E+00 0.  1.
</event>
<event>
 4    1  0.3555026E+003  0.2039990E+02  0.7546771E-02  0.1528008E+00
          2   -1    0    0  502    0  0.00000000000E+00  0.00000000000E+00  0.68670750813E+02  0.68670750813E+02  0.00000000000E+00 0. -1.
          1   -1    0    0  501    0 -0.00000000000E+00 -0.00000000000E+00 -0.28561479983E+03  0.28561479983E+03  0.00000000000E+00 0.  1.
          2    1    1    2  501    0  0.17065187982E+02 -0.11177444817E+02  0.66781370981E+02  0.69827698112E+02  0.00000000000E+00 0. -1.
          1    1    1    2  502    0 -0.17065187982E+02  0.11177444817E+02 -0.28372542000E+03  0.28445785253E+03  0.00000000000E+00 0.  1.
</event>
<event>
 4    1  0.3555026E+003  0.2281577E+02  0.7546771E-02  0.1494825E+00
          2   -1    0    0  502    0  0.00000000000E+00  0.00000000000E+00  0.28994828910E+02  0.28994828910E+02  0.00000000000E+00 0. -1.
          1   -1    0    0  501    0 -0.00000000000E+00 -0.00000000000E+00 -0.20892466712E+02  0.20892466712E+02  0.00000000000E+00 0. -1.
          2    1    1    2  501    0  0.75572870544E+01 -0.21527797185E+02 -0.53042217900E+01  0.23424205601E+02  0.00000000000E+00 0. -1.
          1    1    1    2  502    0 -0.75572870544E+01  0.21527797185E+02  0.13406583987E+02  0.26463090021E+02  0.00000000000E+00 0. -1.
</event>
<event>
 4    1  0.3555026E+003  0.3334273E+02  0.7546771E-02  0.1392604E+00
          2   -1    0    0  502    0  0.00000000000E+00  0.00000000000E+00  0.19319996810E+02  0.19319996810E+02  0.00000000000E+00 0.  1.
          1   -1    0    0  501    0 -0.00000000000E+00 -0.00000000000E+00 -0.91986759236E+03  0.91986759236E+03  0.00000000000E+00 0. -1.
          2    1    1    2  501    0  0.21769745309E+02  0.25255012803E+02  0.43948269291E+01  0.33631116339E+02  0.00000000000E+00 0.  1.
          1    1    1    2  502    0 -0.21769745309E+02 -0.25255012803E+02 -0.90494242248E+03  0.90555647283E+03  0.00000000000E+00 0. -1.
</event>
<event>
 4    1  0.3555026E+003  0.2460199E+02  0.7546771E-02  0.1473305E+00
          2   -1    0    0  502    0  0.00000000000E+00  0.00000000000E+00  0.54722536292E+01  0.54722536292E+01  0.00000000000E+00 0. -1.
          1   -1    0    0  501    0 -0.00000000000E+00 -0.00000000000E+00 -0.12793172065E+03  0.12793172065E+03  0.00000000000E+00 0. -1.
          2    1    1    2  501    0 -0.21342361828E+02  0.12237698929E+02 -0.36682081018E+02  0.44168232376E+02  0.00000000000E+00 0. -1.
          1    1    1    2  502    0  0.21342361828E+02 -0.12237698929E+02 -0.85777386002E+02  0.89235741902E+02  0.00000000000E+00 0. -1.
</event>
<event>
 4    1  0.3555026E+003  0.3218953E+02  0.7546771E-02  0.1401477E+00
          2   -1    0    0  502    0  0.00000000000E+00  0.00000000000E+00  0.14240982268E+04  0.14240982268E+04  0.00000000000E+00 0. -1.
          1   -1    0    0  501    0 -0.00000000000E+00 -0.00000000000E+00 -0.24514475172E+02  0.24514475172E+02  0.00000000000E+00 0. -1.
          2    1    1    2  501    0 -0.19842004744E+02  0.25346810584E+02  0.14132684868E+04  0.14136350243E+04  0.00000000000E+00 0. -1.
          1    1    1    2  502    0  0.19842004744E+02 -0.25346810584E+02 -0.13684735215E+02  0.34977677695E+02  0.00000000000E+00 0. -1.
</event>
<event>
 4    1  0.3555026E+003  0.2679540E+02  0.7546771E-02  0.1449674E+00
          2   -1    0    0  502    0  0.00000000000E+00  0.00000000000E+00  0.30130107319E+03  0.30130107319E+03  0.00000000000E+00 0.  1.
          1   -1    0    0  501    0 -0.00000000000E+00 -0.00000000000E+00 -0.38610246217E+01  0.38610246217E+01  0.00000000000E+00 0. -1.
          2    1    1    2  501    0  0.48432086864E+01 -0.26354066945E+02  0.24312470551E+03  0.24459684369E+03  0.00000000000E+00 0.  1.
          1    1    1    2  502    0 -0.48432086864E+01  0.26354066945E+02  0.54315343055E+02  0.60565254116E+02  0.00000000000E+00 0. -1.
</event>
<event>
 4    1  0.3555026E+003  0.3079131E+02  0.7546771E-02  0.1412842E+00
          2   -1    0    0  502    0  0.00000000000E+00  0.00000000000E+00  0.23704719297E+03  0.23704719297E+03  0.00000000000E+00 0.  1.
          1   -1    0    0  501    0 -0.00000000000E+00 -0.00000000000E+00 -0.43430461073E+02  0.43430461073E+02  0.00000000000E+00 0.  1.
          2    1    1    2  501    0 -0.19485532685E+02 -0.23841537897E+02  0.23043373772E+03  0.23248185390E+03  0.00000000000E+00 0.  1.
          1    1    1    2  502    0  0.19485532685E+02  0.23841537897E+02 -0.36817005825E+02  0.47995800142E+02  0.00000000000E+00 0.  1.
</event>
<event>
 4    1  0.3555026E+003  0.4097617E+02  0.7546771E-02  0.1342859E+00
          2   -1    0    0  502    0  0.00000000000E+00  0.00000000000E+00  0.16847436306E+02  0.16847436306E+02  0.00000000000E+00 0. -1.
          1   -1    0    0  501    0 -0.00000000000E+00 -0.00000000000E+00 -0.41866168218E+03  0.41866168218E+03  0.00000000000E+00 0.  1.
          2    1    1    2  501    0  0.16571126787E+02  0.37475916148E+02 -0.10829547968E+02  0.42383082041E+02  0.00000000000E+00 0. -1.
          1    1    1    2  502    0 -0.16571126787E+02 -0.37475916148E+02 -0.39098469790E+03  0.39312603644E+03  0.00000000000E+00 0.  1.
</event>
<event>
 4    1  0.3555026E+003  0.2168081E+02  0.7546771E-02  0.1509763E+00
          2   -1    0    0  502    0  0.00000000000E+00  0.00000000000E+00  0.75964471879E+03  0.75964471879E+03  0.00000000000E+00 0.  1.
          1   -1    0    0  501    0 -0.00000000000E+00 -0.00000000000E+00 -0.62869750439E+00  0.62869750439E+00  0.00000000000E+00 0.  1.
          2    1    1    2  501    0  0.29816938575E+01 -0.21474799591E+02  0.42723771732E+03  0.42778747600E+03  0.00000000000E+00 0.  1.
          1    1    1    2  502    0 -0.29816938575E+01  0.21474799591E+02  0.33177830397E+03  0.33248594030E+03  0.00000000000E+00 0.  1.
</event>
<event>
 4    1  0.3555026E+003  0.2085936E+02  0.7546771E-02  0.1521282E+00
          2   -1    0    0  502    0  0.00000000000E+00  0.00000000000E+00  0.62353842108E+03  0.62353842108E+03  0.00000000000E+00 0.  1.
          1   -1    0    0  501    0 -0.00000000000E+00 -0.00000000000E+00 -0.12427533993E+02  0.12427533993E+02  0.00000000000E+00 0. -1.
          2    1    1    2  501    0  0.15710345383E+02 -0.13722176715E+02  0.61448199518E+03  0.61483594192E+03  0.00000000000E+00 0.  1.
          1    1    1    2  502    0 -0.15710345383E+02  0.13722176715E+02 -0.33711080902E+01  0.21130013147E+02  0.00000000000E+00 0. -1.
</event>
<event>
 4    1  0.3555026E+003  0.2551624E+02  0.7546771E-02  0.1463110E+00
          2   -1    0    0  502    0  0.00000000000E+00  0.00000000000E+00  0.83930326106E+02  0.83930326106E+02  0.00000000000E+00 0.  1.
          1   -1    0    0  501    0 -0.00000000000E+00 -0.00000000000E+00 -0.71195563953E+02  0.71195563953E+02  0.00000000000E+00 0. -1.
          2    1    1    2  501    0  0.16154874915E+02  0.19750906536E+02  0.79582916198E+02  0.83573433835E+02  0.00000000000E+00 0.  1.
          1    1    1    2  502    0 -0.16154874915E+02 -0.19750906536E+02 -0.66848154045E+02  0.71552456224E+02  0.00000000000E+00 0. -1.
</event>
<event>
 4    1  0.3555026E+003  0.2483042E+02  0.7546771E-02  0.1470709E+00
          2   -1    0    0  502    0  0.00000000000E+00  0.00000000000E+00  0.28105465640E+03  0.28105465640E+03  0.00000000000E+00 0. -1.
          1   -1    0    0  501    0 -0.00000000000E+00 -0.00000000000E+00 -0.56935868531E+01  0.56935868531E+01  0.00000000000E+00 0.  1.
          2    1    1    2  501    0 -0.21477798147E+02  0.12460092763E+02  0.25009048870E+03  0.25132011910E+03  0.00000000000E+00 0. -1.
          1    1    1    2  502    0  0.21477798147E+02 -0.12460092763E+02  0.25270580850E+02  0.35428124159E+02  0.00000000000E+00 0.  1.
</event>
<event>
 4    1  0.3555026E+003  0.2635603E+02  0.7546771E-02  0.1454186E+00
          2   -1    0    0  502    0  0.00000000000E+00  0.00000000000E+00  0.83467791229E+01  0.83467791229E+01  0.00000000000E+00 0. -1.
          1   -1    0    0  501    0 -0.00000000000E+00 -0.00000000000E+00 -0.16257741600E+04  0.16257741600E+04  0.00000000000E+00 0. -1.
          2    1    1    2  501    0 -0.15622020500E+02  0.21227165030E+02 -0.12840371120E+02  0.29317489494E+02  0.00000000000E+00 0. -1.
          1    1    1    2  502    0  0.15622020500E+02 -0.21227165030E+02 -0.16045870098E+04  0.16048034496E+04  0.00000000000E+00 0. -1.
</event>
<event>
 4    1  0.3555026E+003  0.3379509E+02  0.7546771E-02  0.1389238E+00
          2   -1    0    0  502    0  0.00000000000E+00  0.00000000000E+00  0.36472704449E+03  0.36472704449E+03  0.00000000000E+00 0. -1.
          1   -1    0    0  501    0 -0.00000000000E+00 -0.00000000000E+00 -0.83458307361E+01  0.83458307361E+01  0.00000000000E+00 0. -1.
          2    1    1    2  501    0  0.28833854266E+02 -0.17627171526E+02  0.32563630584E+03  0.32738526541E+03  0.00000000000E+00 0. -1.
          1    1    1    2  502    0 -0.28833854266E+02  0.17627171526E+02  0.30744907913E+02  0.45687609813E+02  0.00000000000E+00 0. -1.
</event>
<event>
 4    1  0.3555026E+003  0.4560328E+02  0.7546771E-02  0.1318450E+00
          2   -1    0    0  502    0  0.00000000000E+00  0.00000000000E+00  0.55605945970E+03  0.55605945970E+03  0.00000000000E+00 0. -1.
          1   -1    0    0  501    0 -0.00000000000E+00 -0.00000000000E+00 -0.36078717039E+02  0.36078717039E+02  0.00000000000E+00 0.  1.
          2    1    1    2  501    0 -0.43058177880E+02  0.15021738159E+02  0.54029415106E+03  0.54221529762E+03  0.00000000000E+00 0. -1.
          1    1    1    2  502    0  0.43058177880E+02 -0.15021738159E+02 -0.20313408394E+02  0.49922879126E+02  0.00000000000E+00 0.  1.
</event>
<event>
 4    1  0.3555026E+003  0.2136391E+02  0.7546771E-02  0.1514132E+00
          2   -1    0    0  502    0  0.00000000000E+00  0.00000000000E+00  0.37599897716E+03  0.37599897716E+03  0.00000000000E+00 0. -1.
          1   -1    0    0  501    0 -0.00000000000E+00 -0.00000000000E+00 -0.31595482222E+02  0.31595482222E+02  0.00000000000E+00 0.  1.
          2    1    1    2  501    0 -0.17645940233E+02  0.12043142566E+02  0.37204575981E+03  0.37265864257E+03  0.00000000000E+00 0. -1.
          1    1    1    2  502    0  0.17645940233E+02 -0.12043142566E+02 -0.27642264867E+02  0.34935816816E+02  0.00000000000E+00 0.  1.
</event>
<event>
 4    1  0.3555026E+003  0.2613127E+02  0.7546771E-02  0.1456535E+00
          2   -1    0    0  502    0  0.00000000000E+00  0.00000000000E+00  0.17826989756E+04  0.17826989756E+04  0.00000000000E+00 0.  1.
          1   -1    0    0  501    0 -0.00000000000E+00 -0.00000000000E+00 -0.38365061456E+00  0.38365061456E+00  0.00000000000E+00 0. -1.
          2    1    1    2  501    0 -0.23381531838E+02 -0.11668176077E+02  0.85554656153E+03  0.85594553642E+03  0.00000000000E+00 0.  1.
          1    1    1    2  502    0  0.23381531838E+02  0.11668176077E+02  0.92676876348E+03  0.92713708983E+03  0.00000000000E+00 0. -1.
</event>
<event>
 4    1  0.3555026E+003  0.2617441E+02  0.7546771E-02  0.1456082E+00
          2   -1    0    0  502    0  0.00000000000E+00  0.00000000000E+00  0.27127167244E+02  0.27127167244E+02  0.00000000000E+00 0. -1.
          1   -1    0    0  501    0 -0.00000000000E+00 -0.00000000000E+00 -0.32875546276E+02  0.32875546276E+02  0.00000000000E+00 0. -1.
          2    1    1    2  501    0  0.25677975716E+02 -0.50735963232E+01  0.11570030306E+02  0.28617571836E+02  0.00000000000E+00 0. -1.
          1    1    1    2  502    0 -0.25677975716E+02  0.50735963232E+01 -0.17318409338E+02  0.31385141684E+02  0.00000000000E+00 0. -1.
</event>
<event>
 4    1  0.3555026E+003  0.3594620E+02  0.7546771E-02  0.1374030E+00
          2   -1    0    0  502    0  0.00000000000E+00  0.00000000000E+00  0.15516270628E+03  0.15516270628E+03  0.00000000000E+00 0.  1.
          1   -1    0    0  501    0 -0.00000000000E+00 -0.00000000000E+00 -0.12632344430E+04  0.12632344430E+04  0.00000000000E+00 0. -1.
          2    1    1    2  501    0 -0.35045320371E+02  0.79971602624E+01  0.15282122889E+03  0.15699190123E+03  0.00000000000E+00 0.  1.
          1    1    1    2  502    0  0.35045320371E+02 -0.79971602624E+01 -0.12608929656E+04  0.12614052480E+04  0.00000000000E+00 0. -1.
</event>
<event>
 4    1  0.3555026E+003  0.2385676E+02  0.7546771E-02  0.1482011E+00
          2   -1    0    0  502    0  0.00000000000E+00  0.00000000000E+00  0.13105780420E+04  0.13105780420E+04  0.00000000000E+00 0.  1.
          1   -1    0    0  501    0 -0.00000000000E+00 -0.00000000000E+00 -0.19354074465E+01  0.19354074465E+01  0.00000000000E+00 0.  1.
          2    1    1    2  501    0 -0.17578427097E+02 -0.16128981249E+02  0.12322812703E+04  0.12325121802E+04  0.00000000000E+00 0.  1.
          1    1    1    2  502    0  0.17578427097E+02  0.16128981249E+02  0.76361364271E+02  0.80001269294E+02  0.00000000000E+00 0.  1.
</event>
<event>
 4    1  0.3555026E+003  0.2091774E+02  0.7546771E-02  0.1520443E+00
          2   -1    0    0  502    0  0.00000000000E+00  0.00000000000E+00  0.16657443707E+01  0.16657443707E+01  0.00000000000E+00 0. -1.
          1   -1    0    0  501    0 -0.00000000000E+00 -0.00000000000E+00 -0.88501663983E+03  0.88501663983E+03  0.00000000000E+00 0.  1.
          2    1    1    2  501    0  0.19361678689E+02 -0.79168902767E+01 -0.69903767602E+02  0.72966351686E+02  0.00000000000E+00 0. -1.
          1    1    1    2  502    0 -0.19361678689E+02  0.79168902767E+01 -0.81344712785E+03  0.81371603251E+03  0.00000000000E+00 0.  1.
</event>
<event>
 4    1  0.3555026E+003  0.2369977E+02  0.7546771E-02  0.1483893E+00
          2   -1    0    0  502    0  0.00000000000E+00  0.00000000000E+00  0.14120496641E+04  0.14120496641E+04  0.00000000000E+00 0. -1.
          1   -1    0    0  501    0 -0.00000000000E+00 -0.00000000000E+00 -0.52555004439E+00  0.52555004439E+00  0.00000000000E+00 0.  1.
          2    1    1    2  501    0  0.22178288626E+02  0.83548068037E+01  0.10540160381E+04  0.10542824516E+04  0.00000000000E+00 0. -1.
          1    1    1    2  502    0 -0.22178288626E+02 -0.83548068037E+01  0.35750807598E+03  0.35829276252E+03  0.00000000000E+00 0.  1.
</event>
<event>
 4    1  0.3555026E+003  0.3260011E+02  0.7546771E-02  0.1398268E+00
          2   -1    0    0  502    0  0.00000000000E+00  0.00000000000E+00  0.63497901122E+01  0.63497901122E+01  0.00000000000E+00 0. -1.
          1   -1    0    0  501    0 -0.00000000000E+00 -0.00000000000E+00 -0.52206761303E+03  0.52206761303E+03  0.00000000000E+00 0.  1.
          2    1    1    2  501    0  0.22341668221E+02  0.23740624989E+02 -0.40081625936E+02  0.51665308975E+02  0.00000000000E+00 0. -1.
          1    1    1    2  502    0 -0.22341668221E+02 -0.23740624989E+02 -0.47563619698E+03  0.47675209416E+03  0.00000000000E+00 0.  1.
</event>
<event>
 4    1  0.3555026E+003  0.2588769E+02  0.7546771E-02  0.1459113E+00
          2   -1    0    0  502    0  0.00000000000E+00  0.00000000000E+00  0.38727888990E+01  0.38727888990E+01  0.00000000000E+00 0.  1.
          1   -1    0    0  501    0 -0.00000000000E+00 -0.00000000000E+00 -0.18226234013E+03  0.18226234013E+03  0.00000000000E+00 0.  1.
          2    1    1    2  501    0  0.24712699990E+02 -0.77107189332E+01 -0.68267323734E+02  0.73010959568E+02  0.00000000000E+00 0.  1.
          1    1    1    2  502    0 -0.24712699990E+02  0.77107189332E+01 -0.11012222750E+03  0.11312416946E+03  0.00000000000E+00 0.  1.
</event>
<event>
 4    1  0.3555026E+003  0.2106915E+02  0.7546771E-02  0.1518280E+00
          2   -1    0    0  502    0  0.00000000000E+00  0.00000000000E+00  0.15538751673E+02  0.15538751673E+02  0.00000000000E+00 0. -1.
          1   -1    0    0  501    0 -0.00000000000E+00 -0.00000000000E+00 -0.25784798516E+03  0.25784798516E+03  0.00000000000E+00 0.  1.
          2    1    1    2  501    0 -0.16469602284E+02 -0.13140065614E+02  0.77441507896E+01  0.22447293716E+02  0.00000000000E+00 0. -1.
          1    1    1    2  502    0  0.16469602284E+02  0.13140065614E+02 -0.25005338428E+03  0.25093944312E+03  0.00000000000E+00 0.  1.
</event>
<event>
 4    1  0.3555026E+003  0.4541764E+02  0.7546771E-02  0.1319364E+00
          2   -1    0    0  502    0  0.00000000000E+00  0.00000000000E+00  0.24499359261E+03  0.24499359261E+03  0.00000000000E+00 0.  1.
          1   -1    0    0  501    0 -0.00000000000E+00 -0.00000000000E+00 -0.94277605282E+01  0.94277605282E+01  0.00000000000E+00 0.  1.
          2    1    1    2  501    0 -0.22776285339E+02 -0.39293780860E+02  0.76184835583E+02  0.88695487827E+02  0.00000000000E+00 0.  1.
          1    1    1    2  502    0  0.22776285339E+02  0.39293780860E+02  0.15938099650E+03  0.16572586531E+03  0.00000000000E+00 0.  1.
</event>
<event>
 4    1  0.3555026E+003  0.3061350E+02  0.7546771E-02  0.1414339E+00
          2   -1    0    0  502    0  0.00000000000E+00  0.00000000000E+00  0.13259209818E+04  0.13259209818E+04  0.00000000000E+00 0.  1.
          1   -1    0    0  501    0 -0.00000000000E+00 -0.00000000000E+00 -0.21675740297E+02  0.21675740297E+02  0.00000000000E+00 0.  1.
          2    1    1    2  501    0  0.30530440532E+02  0.22535749833E+01  0.13148440650E+04  0.13152004036E+04  0.00000000000E+00 0.  1.
          1    1    1    2  502    0 -0.30530440532E+02 -0.22535749833E+01 -0.10598823409E+02  0.32396318571E+02  0.00000000000E+00 0.  1.
</event>
<event>
 4    1  0.3555026E+003  0.2104666E+02  0.7546771E-02  0.1518600E+00
          2   -1    0    0  502    0  0.00000000000E+00  0.00000000000E+00  0.79907014747E+02  0.79907014747E+02  0.00000000000E+00 0.  1.
          1   -1    0    0  501    0 -0.00000000000E+00 -0.00000000000E+00 -0.68623477123E+03  0.68623477123E+03  0.00000000000E+00 0.  1.
          2    1    1    2  501    0 -0.20673216847E+02 -0.39471441701E+01  0.78356636789E+02  0.81133990231E+02  0.00000000000E+00 0.  1.
          1    1    1    2  502    0  0.20673216847E+02  0.39471441701E+01 -0.68468439327E+03  0.68500779575E+03  0.00000000000E+00 0.  1.
</event>
<event>
 4    1  0.3555026E+003  0.2459194E+02  0.7546771E-02  0.1473420E+00
          2   -1    0    0  502    0  0.00000000000E+00  0.00000000000E+00  0.82457177615E+03  0.82457177615E+03  0.00000000000E+00 0. -1.
          1   -1    0    0  501    0 -0.00000000000E+00 -0.00000000000E+00 -0.33117982861E+01  0.33117982861E+01  0.00000000000E+00 0. -1.
          2    1    1    2  501    0  0.23330651688E+02 -0.77745938139E+01  0.77587140484E+03  0.77626103887E+03  0.00000000000E+00 0. -1.
          1    1    1    2  502    0 -0.23330651688E+02  0.77745938139E+01  0.45388573018E+02  0.51622535562E+02  0.00000000000E+00 0. -1.
</event>
<event>
 4    1  0.3555026E+003  0.2154632E+02  0.7546771E-02  0.1511606E+00
          2   -1    0    0  502    0  0.00000000000E+00  0.00000000000E+00  0.35617076693E+03  0.35617076693E+03  0.00000000000E+00 0.  1.
          1   -1    0    0  501    0 -0.00000000000E+00 -0.00000000000E+00 -0.16566132894E+03  0.16566132894E+03  0.00000000000E+00 0.  1.
          2    1    1    2  501    0  0.21543469910E+02 -0.35065076208E+00  0.35514229007E+03  0.35579529262E+03  0.00000000000E+00 0.  1.
          1    1    1    2  502    0 -0.21543469910E+02  0.35065076208E+00 -0.16463285208E+03  0.16603680325E+03  0.00000000000E+00 0.  1.
</event>
<event>
 4    1  0.3555026E+003  0.2044177E+02  0.7546771E-02  0.1527386E+00
          2   -1    0    0  502    0  0.00000000000E+00  0.00000000000E+00  0.14509808059E+03  0.14509808059E+03  0.00000000000E+00 0.  1.
          1   -1    0    0  501    0 -0.00000000000E+00 -0.00000000000E+00 -0.67561099138E+02  0.67561099138E+02  0.00000000000E+00 0.  1.
          2    1    1    2  501    0  0.17139462883E+02  0.11140227202E+02  0.14280717848E+03  0.14426280212E+03  0.00000000000E+00 0.  1.
          1    1    1    2  502    0 -0.17139462883E+02 -0.11140227202E+02 -0.65270197027E+02  0.68396377609E+02  0.00000000000E+00 0.  1.
</event>
<event>
 4    1  0.3555026E+003  0.2331097E+02  0.7546771E-02  0.1488630E+00
          2   -1    0    0  502    0  0.00000000000E+00  0.00000000000E+00  0.13026942677E+04  0.13026942677E+04  0.00000000000E+00 0.  1.
          1   -1    0    0  501    0 -0.00000000000E+00 -0.00000000000E+00 -0.12349210871E+02  0.12349210871E+02  0.00000000000E+00 0. -1.
          2    1    1    2  501    0  0.79136951280E+01 -0.21926577801E+02  0.12914938571E+04  0.12917042171E+04  0.00000000000E+00 0.  1.
          1    1    1    2  502    0 -0.79136951280E+01  0.21926577801E+02 -0.11488003160E+01  0.23339261488E+02  0.00000000000E+00 0. -1.
</event>
<event>
 4    1  0.3555026E+003  0.2072817E+02  0.7546771E-02  0.1523182E+00
          2   -1    0    0  502    0  0.00000000000E+00  0.00000000000E+00  0.67380738274E+03  0.67380738274E+03  0.00000000000E+00 0. -1.
          1   -1    0    0  501    0 -0.00000000000E+00 -0.00000000000E+00 -0.40451569554E+01  0.40451569554E+01  0.00000000000E+00 0. -1.
          2    1    1    2  501    0  0.17933225953E+02 -0.10395010823E+02  0.64594928811E+03  0.64628178038E+03  0.00000000000E+00 0. -1.
          1    1    1    2  502    0 -0.17933225953E+02  0.10395010823E+02  0.23812937681E+02  0.31570759321E+02  0.00000000000E+00 0. -1.
</event>
<event>
 4    1  0.3555026E+003  0.4424093E+02  0.7546771E-02  0.1325279E+00
          2   -1    0    0  502    0  0.00000000000E+00  0.00000000000E+00  0.29695581528E+02  0.29695581528E+02  0.00000000000E+00 0. -1.
          1   -1    0    0  501    0 -0.00000000000E+00 -0.00000000000E+00 -0.31896775228E+03  0.31896775228E+03  0.00000000000E+00 0.  1.
          2    1    1    2  501    0  0.10414643481E+02 -0.42997621793E+02  0.10642658403E+02  0.45503037883E+02  0.00000000000E+00 0. -1.
          1    1    1    2  502    0 -0.10414643481E+02  0.42997621793E+02 -0.29991482915E+03  0.30316029592E+03  0.00000000000E+00 0.  1.
</event>
<event>
 4    1  0.3555026E+003  0.2455629E+02  0.7546771E-02  0.1473829E+00
          2   -1    0    0  502    0  0.00000000000E+00  0.00000000000E+00  0.14374676136E+03  0.14374676136E+03  0.00000000000E+00 0. -1.
          1   -1    0    0  501    0 -0.00000000000E+00 -0.00000000000E+00 -0.29019725782E+02  0.29019725782E+02  0.00000000000E+00 0. -1.
          2    1    1    2  501    0  0.34410248308E+01 -0.24313998317E+02  0.13725959938E+03  0.13943890701E+03  0.00000000000E+00 0. -1.
          1    1    1    2  502    0 -0.34410248308E+01  0.24313998317E+02 -0.22532563802E+02  0.33327580133E+02  0.00000000000E+00 0. -1.
</event>
<event>
 4    1  0.3555026E+003  0.2672641E+02  0.7546771E-02  0.1450376E+00
          2   -1    0    0  502    0  0.00000000000E+00  0.00000000000E+00  0.19024947278E+02  0.19024947278E+02  0.00000000000E+00 0.  1.
          1   -1    0    0  501    0 -0.00000000000E+00 -0.00000000000E+00 -0.95024021752E+02  0.95024021752E+02  0.00000000000E+00 0.  1.
          2    1    1    2  501    0 -0.25961864274E+02  0.63468416327E+01  0.63508617886E+01  0.27470606851E+02  0.00000000000E+00 0.  1.
          1    1    1    2  502    0  0.25961864274E+02 -0.63468416327E+01 -0.82349936262E+02  0.86578362180E+02  0.00000000000E+00 0.  1.
</event>
<event>
 4    1  0.3555026E+003  0.2098022E+02  0.7546771E-02  0.1519547E+00
          2   -1    0    0  502    0  0.00000000000E+00  0.00000000000E+00  0.78429871119E+03  0.78429871119E+03  0.00000000000E+00 0. -1.
          1   -1    0    0  501    0 -0.00000000000E+00 -0.00000000000E+00 -0.51571600495E+01  0.51571600495E+01  0.00000000000E+00 0. -1.
          2    1    1    2  501    0  0.99987496248E+01 -0.18444366401E+02  0.76220213700E+03  0.76249083096E+03  0.00000000000E+00 0. -1.
          1    1    1    2  502    0 -0.99987496248E+01  0.18444366401E+02  0.16939414139E+02  0.26965040281E+02  0.00000000000E+00 0. -1.
</event>
<event>
 4    1  0.3555026E+003  0.2337681E+02  0.7546771E-02  0.1487820E+00
          2   -1    0    0  502    0  0.00000000000E+00  0.00000000000E+00  0.62193688232E+03  0.62193688232E+03  0.00000000000E+00 0. -1.
          1   -1    0    0  501    0 -0.00000000000E+00 -0.00000000000E+00 -0.64583949183E+01  0.64583949183E+01  0.00000000000E+00 0.  1.
          2    1    1    2  501    0  0.21942921016E+02 -0.80612211349E+01  0.59978247872E+03  0.60023786689E+03  0.00000000000E+00 0. -1.
          1    1    1    2  502    0 -0.21942921016E+02  0.80612211349E+01  0.15696008677E+02  0.28157410344E+02  0.00000000000E+00 0.  1.
</event>
<event>
 4    1  0.3555026E+003  0.2045261E+02  0.7546771E-02  0.1527225E+00
          2   -1    0    0  502    0  0.00000000000E+00  0.00000000000E+00  0.21953441894E+03  0.21953441894E+03  0.00000000000E+00 0. -1.
          1   -1    0    0  501    0 -0.00000000000E+00 -0.00000000000E+00 -0.18197606724E+02  0.18197606724E+02  0.00000000000E+00 0.  1.
          2    1    1    2  501    0  0.13865330729E+02 -0.15035358603E+02  0.21313926101E+03  0.21411831774E+03  0.00000000000E+00 0. -1.
          1    1    1    2  502    0 -0.13865330729E+02  0.15035358603E+02 -0.11802448797E+02  0.23613707929E+02  0.00000000000E+00 0.  1.
</event>
<event>
 4    1  0.3555026E+003  0.2306401E+02  0.7546771E-02  0.1491696E+00
          2   -1    0    0  502    0  0.00000000000E+00  0.00000000000E+00  0.10494132107E+04  0.10494132107E+04  0.00000000000E+00 0. -1.
          1   -1    0    0  501    0 -0.00000000000E+00 -0.00000000000E+00 -0.53184431508E+01  0.53184431508E+01  0.00000000000E+00 0.  1.
          2    1    1    2  501    0  0.23062770121E+02  0.23945800472E+00  0.10236523950E+04  0.10239121908E+04  0.00000000000E+00 0. -1.
          1    1    1    2  502    0 -0.23062770121E+02 -0.23945800472E+00  0.20442372514E+02  0.30819463003E+02  0.00000000000E+00 0.  1.
</event>
<event>
 4    1  0.3555026E+003  0.2023822E+02  0.7546771E-02  0.1530425E+00
          2   -1    0    0  502    0  0.00000000000E+00  0.00000000000E+00  0.11713185847E+02  0.11713185847E+02  0.00000000000E+00 0.  1.
          1   -1    0    0  501    0 -0.00000000000E+00 -0.00000000000E+00 -0.15054951315E+03  0.15054951315E+03  0.00000000000E+00 0.  1.
          2    1    1    2  501    0  0.15278254785E+02 -0.13272544386E+02  0.16693621934E+01  0.20306951368E+02  0.00000000000E+00 0.  1.
          1    1    1    2  502    0 -0.15278254785E+02  0.13272544386E+02 -0.14050568950E+03  0.14195574763E+03  0.00000000000E+00 0.  1.
</event>
<event>
 4    1  0.3555026E+003  0.2060949E+02  0.7546771E-02  0.1524914E+00
          2   -1    0    0  502    0  0.00000000000E+00  0.00000000000E+00  0.14630058285E+04  0.14630058285E+04  0.00000000000E+00 0. -1.
          1   -1    0    0  501    0 -0.00000000000E+00 -0.00000000000E+00 -0.54358392767E+01  0.54358392767E+01  0.00000000000E+00 0. -1.
          2    1    1    2  501    0 -0.11880683012E+02 -0.16840441177E+02  0.14431294541E+04  0.14432766098E+04  0.00000000000E+00 0. -1.
          1    1    1    2  502    0  0.11880683012E+02  0.16840441177E+02  0.14440535088E+02  0.25165057947E+02  0.00000000000E+00 0. -1.
</event>
<event>
 4    1  0.3555026E+003  0.2737876E+02  0.7546771E-02  0.1443840E+00
          2   -1    0    0  502    0  0.00000000000E+00  0.00000000000E+00  0.54016946231E+02  0.54016946231E+02  0.00000000000E+00 0.  1.
          1   -1    0    0  501    0 -0.00000000000E+00 -0.00000000000E+00 -0.83547721089E+03  0.83547721089E+03  0.00000000000E+00 0. -1.
          2    1    1    2  501    0 -0.21404971056E+02 -0.17071135774E+02  0.50307913060E+02  0.57275497196E+02  0.00000000000E+00 0.  1.
          1    1    1    2  502    0  0.21404971056E+02  0.17071135774E+02 -0.83176817772E+03  0.83221865993E+03  0.00000000000E+00 0. -1.
</event>
<event>
 4    1  0.3555026E+003  0.3954926E+02  0.7546771E-02  0.1351148E+00
          2   -1    0    0  502    0  0.00000000000E+00  0.00000000000E+00  0.18029022890E+03  0.18029022890E+03  0.00000000000E+00 0. -1.
          1   -1    0    0  501    0 -0.00000000000E+00 -0.00000000000E+00 -0.24296235238E+02  0.24296235238E+02  0.00000000000E+00 0. -1.
          2    1    1    2  501    0  0.25486998580E+02  0.30241641293E+02  0.16001805396E+03  0.16483301113E+03  0.00000000000E+00 0. -1.
          1    1    1    2  502    0 -0.25486998580E+02 -0.30241641293E+02 -0.40240602999E+01  0.39753453007E+02  0.00000000000E+00 0. -1.
</event>
<event>
 4    1  0.3555026E+003  0.3603009E+02  0.7546771E-02  0.1373462E+00
          2   -1    0    0  502    0  0.00000000000E+00  0.00000000000E+00  0.17715020072E+03  0.17715020072E+03  0.00000000000E+00 0. -1.
          1   -1    0    0  501    0 -0.00000000000E+00 -0.00000000000E+00 -0.73619181519E+01  0.73619181519E+01  0.00000000000E+00 0. -1.
          2    1    1    2  501    0  0.36030031068E+02  0.67054454373E-01  0.91150460480E+02  0.98013132185E+02  0.00000000000E+00 0. -1.
          1    1    1    2  502    0 -0.36030031068E+02 -0.67054454373E-01  0.78637822087E+02  0.86498986685E+02  0.00000000000E+00 0. -1.
</event>
<event>
 4    1  0.3555026E+003  0.2302320E+02  0.7546771E-02  0.1492207E+00
          2   -1    0    0  502    0  0.00000000000E+00  0.00000000000E+00  0.10963277908E+02  0.10963277908E+02  0.00000000000E+00 0. -1.
          1   -1    0    0  501    0 -0.00000000000E+00 -0.00000000000E+00 -0.21108904928E+03  0.21108904928E+03  0.00000000000E+00 0. -1.
          2    1    1    2  501    0  0.20043808690E+02 -0.11327550391E+02 -0.25775707466E+01  0.23167035538E+02  0.00000000000E+00 0. -1.
          1    1    1    2  502    0 -0.20043808690E+02  0.11327550391E+02 -0.19754820062E+03  0.19888529165E+03  0.00000000000E+00 0. -1.
</event>
<event>
 4    1  0.3555026E+003  0.2731192E+02  0.7546771E-02  0.1444500E+00
          2   -1    0    0  502    0  0.00000000000E+00  0.00000000000E+00  0.20871852025E+04  0.20871852025E+04  0.00000000000E+00 0. -1.
          1   -1    0    0  501    0 -0.00000000000E+00 -0.00000000000E+00 -0.35780582439E+00  0.35780582439E+00  0.00000000000E+00 0. -1.
          2    1    1    2  501    0 -0.26310812294E+02  0.73267496332E+01  0.10078513596E+04  0.10082213562E+04  0.00000000000E+00 0. -1.
          1    1    1    2  502    0  0.26310812294E+02 -0.73267496332E+01  0.10789760371E+04  0.10793216521E+04  0.00000000000E+00 0. -1.
</event>
<event>
 4    1  0.3555026E+003  0.3838243E+02  0.7546771E-02  0.1358235E+00
          2   -1    0    0  502    0  0.00000000000E+00  0.00000000000E+00  0.22050909954E+03  0.22050909954E+03  0.00000000000E+00 0.  1.
          1   -1    0    0  501    0 -0.00000000000E+00 -0.00000000000E+00 -0.30063263592E+02  0.30063263592E+02  0.00000000000E+00 0. -1.
          2    1    1    2  501    0  0.35083606028E+02 -0.15567639498E+02  0.20571440750E+03  0.20926449356E+03  0.00000000000E+00 0.  1.
          1    1    1    2  502    0 -0.35083606028E+02  0.15567639498E+02 -0.15268571552E+02  0.41307869573E+02  0.00000000000E+00 0. -1.
</event>
<event>
 4    1  0.3555026E+003  0.2405045E+02  0.7546771E-02  0.1479713E+00
          2   -1    0    0  502    0  0.00000000000E+00  0.00000000000E+00  0.94236736650E+00  0.94236736650E+00  0.00000000000E+00 0. -1.
          1   -1    0    0  501    0 -0.00000000000E+00 -0.00000000000E+00 -0.61389771448E+03  0.61389771448E+03  0.00000000000E+00 0. -1.
          2    1    1    2  501    0  0.31887891031E+01  0.23838119077E+02 -0.30258252088E+03  0.30353682847E+03  0.00000000000E+00 0. -1.
          1    1    1    2  502    0 -0.31887891031E+01 -0.23838119077E+02 -0.31037282623E+03  0.31130325337E+03  0.00000000000E+00 0. -1.
</event>
<event>
 4    1  0.3555026E+003  0.2347270E+02  0.7546771E-02  0.1486646E+00
          2   -1    0    0  502    0  0.00000000000E+00  0.00000000000E+00  0.24104034407E+02  0.24104034407E+02  0.00000000000E+00 0.  1.
          1   -1    0    0  501    0 -0.00000000000E+00 -0.00000000000E+00 -0.44608786484E+03  0.44608786484E+03  0.00000000000E+00 0.  1.
          2    1    1    2  501    0 -0.10783184421E+02 -0.20849233142E+02  0.18001580518E+02  0.29580812869E+02  0.00000000000E+00 0.  1.
          1    1    1    2  502    0  0.10783184421E+02  0.20849233142E+02 -0.43998541095E+03  0.44061108638E+03  0.00000000000E+00 0.  1.
</event>
<event>
 4    1  0.3555026E+003  0.2880081E+02  0.7546771E-02  0.1430312E+00
          2   -1    0    0  502    0  0.00000000000E+00  0.00000000000E+00  0.20550267285E+04  0.20550267285E+04  0.00000000000E+00 0. -1.
          1   -1    0    0  501    0 -0.00000000000E+00 -0.00000000000E+00 -0.59369410890E+00  0.59369410890E+00  0.00000000000E+00 0. -1.
          2    1    1    2  501    0 -0.91269576497E+01 -0.27316395248E+02  0.16087470419E+04  0.16090048264E+04  0.00000000000E+00 0. -1.
          1    1    1    2  502    0  0.91269576497E+01  0.27316395248E+02  0.44568599253E+03  0.44661559617E+03  0.00000000000E+00 0. -1.
</event>
<event>
 4    1  0.3555026E+003  0.4696914E+02  0.7546771E-02  0.1311877E+00
          2   -1    0    0  502    0  0.00000000000E+00  0.00000000000E+00  0.26000630596E+04  0.26000630596E+04  0.00000000000E+00 0.  1.
          1   -1    0    0  501    0 -0.00000000000E+00 -0.00000000000E+00 -0.19264711517E+01  0.19264711517E+01  0.00000000000E+00 0.  1.
          2    1    1    2  501    0 -0.26810624644E+02 -0.38565404903E+02  0.22722680808E+04  0.22727534691E+04  0.00000000000E+00 0.  1.
          1    1    1    2  502    0  0.26810624644E+02  0.38565404903E+02  0.32586850768E+03  0.32923606174E+03  0.00000000000E+00 0.  1.
</event>
<event>
 4    1  0.3555026E+003  0.5062215E+02  0.7546771E-02  0.1295497E+00
          2   -1    0    0  502    0  0.00000000000E+00  0.00000000000E+00  0.59018276250E+01  0.59018276250E+01  0.00000000000E+00 0.  1.
          1   -1    0    0  501    0 -0.00000000000E+00 -0.00000000000E+00 -0.14892384226E+04  0.14892384226E+04  0.00000000000E+00 0. -1.
          2    1    1    2  501    0 -0.37868550203E+02 -0.33594269365E+02 -0.11244764855E+03  0.12331697245E+03  0.00000000000E+00 0.  1.
          1    1    1    2  502    0  0.37868550203E+02  0.33594269365E+02 -0.13708889464E+04  0.13718232777E+04  0.00000000000E+00 0. -1.
</event>
<event>
 4    1  0.3555026E+003  0.3396321E+02  0.7546771E-02  0.1388002E+00
          2   -1    0    0  502    0  0.00000000000E+00  0.00000000000E+00  0.66891560419E+03  0.66891560419E+03  0.00000000000E+00 0. -1.
          1   -1    0    0  501    0 -0.00000000000E+00 -0.00000000000E+00 -0.55078088809E+01  0.55078088809E+01  0.00000000000E+00 0.  1.
          2    1    1    2  501    0 -0.19069164921E+02 -0.28104561686E+02  0.61118536702E+03  0.61212829726E+03  0.00000000000E+00 0. -1.
          1    1    1    2  502    0  0.19069164921E+02  0.28104561686E+02  0.52222428289E+02  0.62295115818E+02  0.00000000000E+00 0.  1.
</event>
<event>
 4    1  0.3555026E+003  0.2354780E+02  0.7546771E-02  0.1485732E+00
          2   -1    0    0  502    0  0.00000000000E+00  0.00000000000E+00  0.15578546655E+02  0.15578546655E+02  0.00000000000E+00 0. -1.
          1   -1    0    0  501    0 -0.00000000000E+00 -0.00000000000E+00 -0.17911408391E+03  0.17911408391E+03  0.00000000000E+00 0. -1.
          2    1    1    2  501    0 -0.20518268559E+02 -0.11554204589E+02  0.53709879131E+01  0.24152567141E+02  0.00000000000E+00 0. -1.
          1    1    1    2  502    0  0.20518268559E+02  0.11554204589E+02 -0.16890652517E+03  0.17054006342E+03  0.00000000000E+00 0. -1.
</event>
<event>
 4    1  0.3555026E+003  0.2807976E+02  0.7546771E-02  0.1437053E+00
          2   -1    0    0  502    0  0.00000000000E+00  0.00000000000E+00  0.76545119457E+03  0.76545119457E+03  0.00000000000E+00 0.  1.
          1   -1    0    0  501    0 -0.00000000000E+00 -0.00000000000E+00 -0.49326255938E+01  0.49326255938E+01  0.00000000000E+00 0.  1.
          2    1    1    2  501    0  0.61011561238E+01 -0.27408922104E+02  0.72287894572E+03  0.72342411024E+03  0.00000000000E+00 0.  1.
          1    1    1    2  502    0 -0.61011561238E+01  0.27408922104E+02  0.37639623261E+02  0.46959709924E+02  0.00000000000E+00 0.  1.
</event>
<event>
 4    1  0.3555026E+003  0.2603512E+02  0.7546771E-02  0.1457549E+00
          2   -1    0    0  502    0  0.00000000000E+00  0.00000000000E+00  0.16390784603E+03  0.16390784603E+03  0.00000000000E+00 0. -1.
          1   -1    0    0  501    0 -0.00000000000E+00 -0.00000000000E+00 -0.42234746197E+01  0.42234746197E+01  0.00000000000E+00 0. -1.
          2    1    1    2  501    0  0.26028981873E+02  0.56529977291E+00  0.91980674555E+02  0.95594309207E+02  0.00000000000E+00 0. -1.
          1    1    1    2  502    0 -0.26028981873E+02 -0.56529977291E+00  0.67703696852E+02  0.72537011440E+02  0.00000000000E+00 0. -1.
</event>
<event>
 4    1  0.3555026E+003  0.4457004E+02  0.7546771E-02  0.1323603E+00
          2   -1    0    0  502    0  0.00000000000E+00  0.00000000000E+00  0.19533998919E+01  0.19533998919E+01  0.00000000000E+00 0. -1.
          1   -1    0    0  501    0 -0.00000000000E+00 -0.00000000000E+00 -0.18810394040E+04  0.18810394040E+04  0.00000000000E+00 0. -1.
          2    1    1    2  501    0  0.22978501617E+02  0.38190013772E+02 -0.30142381673E+03  0.30470117489E+03  0.00000000000E+00 0. -1.
          1    1    1    2  502    0 -0.22978501617E+02 -0.38190013772E+02 -0.15776621874E+04  0.15782916290E+04  0.00000000000E+00 0. -1.
</event>
<event>
 4    1  0.3555026E+003  0.2314570E+02  0.7546771E-02  0.1490677E+00
          2   -1    0    0  502    0  0.00000000000E+00  0.00000000000E+00  0.51396403581E+03  0.51396403581E+03  0.00000000000E+00 0. -1.
          1   -1    0    0  501    0 -0.00000000000E+00 -0.00000000000E+00 -0.36406335815E+01  0.36406335815E+01  0.00000000000E+00 0.  1.
          2    1    1    2  501    0 -0.13132744084E+02  0.19059235089E+02  0.47379893177E+03  0.47436394378E+03  0.00000000000E+00 0. -1.
          1    1    1    2  502    0  0.13132744084E+02 -0.19059235089E+02  0.36524470456E+02  0.43240725612E+02  0.00000000000E+00 0.  1.
</event>
<event>
 4    1  0.3555026E+003  0.4229981E+02  0.7546771E-02  0.1335512E+00
          2   -1    0    0  502    0  0.00000000000E+00  0.00000000000E+00  0.28209541625E+01  0.28209541625E+01  0.00000000000E+00 0.  1.
          1   -1    0    0  501    0 -0.00000000000E+00 -0.00000000000E+00 -0.15964678777E+04  0.15964678777E+04  0.00000000000E+00 0. -1.
          2    1    1    2  501    0  0.32731555041E+02 -0.26794009557E+02 -0.17603040621E+03  0.18104136973E+03  0.00000000000E+00 0.  1.
          1    1    1    2  502    0 -0.32731555041E+02  0.26794009557E+02 -0.14176165174E+04  0.14182474622E+04  0.00000000000E+00 0. -1.
</event>
<event>
 4    1  0.3555026E+003  0.2787117E+02  0.7546771E-02  0.1439048E+00
          2   -1    0    0  502    0  0.00000000000E+00  0.00000000000E+00  0.80913639013E+02  0.80913639013E+02  0.00000000000E+00 0.  1.
          1   -1    0    0  501    0 -0.00000000000E+00 -0.00000000000E+00 -0.14448569591E+02  0.14448569591E+02  0.00000000000E+00 0.  1.
          2    1    1    2  501    0  0.21121746257E+02 -0.18184436055E+02  0.60852527827E+02  0.66931547290E+02  0.00000000000E+00 0.  1.
          1    1    1    2  502    0 -0.21121746257E+02  0.18184436055E+02  0.56125415943E+01  0.28430661314E+02  0.00000000000E+00 0.  1.
</event>
<event>
 4    1  0.3555026E+003  0.2570269E+02  0.7546771E-02  0.1461094E+00
          2   -1    0    0  502    0  0.00000000000E+00  0.00000000000E+00  0.81518211380E+01  0.81518211380E+01  0.00000000000E+00 0. -1.
          1   -1    0    0  501    0 -0.00000000000E+00 -0.00000000000E+00 -0.44795626364E+03  0.44795626364E+03  0.00000000000E+00 0. -1.
          2    1    1    2  501    0  0.24832372096E+02 -0.66318446880E+01 -0.13505343285E+02  0.29034847427E+02  0.00000000000E+00 0. -1.
          1    1    1    2  502    0 -0.24832372096E+02  0.66318446880E+01 -0.42629909921E+03  0.42707323735E+03  0.00000000000E+00 0. -1.
</event>
<event>
 4    1  0.3555026E+003  0.2531008E+02  0.7546771E-02  0.1465364E+00
          2   -1    0    0  502    0  0.00000000000E+00  0.00000000000E+00  0.11600642667E+04  0.11600642667E+04  0.00000000000E+00 0.  1.
          1   -1    0    0  501    0 -0.00000000000E+00 -0.00000000000E+00 -0.55221310843E+00  0.55221310843E+00  0.00000000000E+00 0.  1.
          2    1    1    2  501    0  0.44114805588E+01  0.24922658366E+02  0.58093272292E+03  0.58148381630E+03  0.00000000000E+00 0.  1.
          1    1    1    2  502    0 -0.44114805588E+01 -0.24922658366E+02  0.57857933063E+03  0.57913266346E+03  0.00000000000E+00 0.  1.
</event>
<event>
 4    1  0.3555026E+003  0.2025297E+02  0.7546771E-02  0.1530203E+00
          2   -1    0    0  502    0  0.00000000000E+00  0.00000000000E+00  0.14737264585E+04  0.14737264585E+04  0.00000000000E+00 0.  1.
          1   -1    0    0  501    0 -0.00000000000E+00 -0.00000000000E+00 -0.45525961439E+03  0.45525961439E+03  0.00000000000E+00 0.  1.
          2    1    1    2  501    0 -0.19339435665E+02 -0.60140794242E+01  0.14734315841E+04  0.14735707706E+04  0.00000000000E+00 0.  1.
          1    1    1    2  502    0  0.19339435665E+02  0.60140794242E+01 -0.45496473999E+03  0.45541530229E+03  0.00000000000E+00 0.  1.
</event>
<event>
 4    1  0.3555026E+003  0.2001199E+02  0.7546771E-02  0.1533852E+00
          2   -1    0    0  502    0  0.00000000000E+00  0.00000000000E+00  0.26056708069E+02  0.26056708069E+02  0.00000000000E+00 0.  1.
          1   -1    0    0  501    0 -0.00000000000E+00 -0.00000000000E+00 -0.35198037028E+02  0.35198037028E+02  0.00000000000E+00 0. -1.
          2    1    1    2  501    0 -0.18969625270E+02 -0.63744014630E+01  0.18417028729E+02  0.27196812756E+02  0.00000000000E+00 0.  1.
          1    1    1    2  502    0  0.18969625270E+02  0.63744014630E+01 -0.27558357688E+02  0.34057932341E+02  0.00000000000E+00 0. -1.
</event>
<event>
 4    1  0.3555026E+003  0.3265699E+02  0.7546771E-02  0.1397828E+00
          2   -1    0    0  502    0  0.00000000000E+00  0.00000000000E+00  0.92880693944E+03  0.92880693944E+03  0.00000000000E+00 0.  1.
          1   -1    0    0  501    0 -0.00000000000E+00 -0.00000000000E+00 -0.22839222534E+01  0.22839222534E+01  0.00000000000E+00 0. -1.
          2    1    1    2  501    0  0.31112663937E+02  0.99237703011E+01  0.79154780514E+03  0.79222118559E+03  0.00000000000E+00 0.  1.
          1    1    1    2  502    0 -0.31112663937E+02 -0.99237703011E+01  0.13497521204E+03  0.13886967610E+03  0.00000000000E+00 0. -1.
</event>
<event>
 4    1  0.3555026E+003  0.2601989E+02  0.7546771E-02  0.1457710E+00
          2   -1    0    0  502    0  0.00000000000E+00  0.00000000000E+00  0.21691262805E+03  0.21691262805E+03  0.00000000000E+00 0.  1.
          1   -1    0    0  501    0 -0.00000000000E+00 -0.00000000000E+00 -0.62989043661E+02  0.62989043661E+02  0.00000000000E+00 0. -1.
          2    1    1    2  501    0 -0.21125996894E+02  0.15189692112E+02  0.21340115533E+03  0.21498159826E+03  0.00000000000E+00 0.  1.
          1    1    1    2  502    0  0.21125996894E+02 -0.15189692112E+02 -0.59477570947E+02  0.64920073452E+02  0.00000000000E+00 0. -1.
</event>
<event>
 4    1  0.3555026E+003  0.2625727E+02  0.7546771E-02  0.1455215E+00
          2   -1    0    0  502    0  0.00000000000E+00  0.00000000000E+00  0.43529676817E+01  0.43529676817E+01  0.00000000000E+00 0.  1.
          1   -1    0    0  501    0 -0.00000000000E+00 -0.00000000000E+00 -0.34009970476E+03  0.34009970476E+03  0.00000000000E+00 0. -1.
          2    1    1    2  501    0 -0.25562848980E+02 -0.59987644374E+01 -0.41983270529E+02  0.49518071722E+02  0.00000000000E+00 0.  1.
          1    1    1    2  502    0  0.25562848980E+02  0.59987644374E+01 -0.29376346655E+03  0.29493460072E+03  0.00000000000E+00 0. -1.
</event>
<event>
 4    1  0.3555026E+003  0.2115298E+02  0.7546771E-02  0.1517092E+00
          2   -1    0    0  502    0  0.00000000000E+00  0.00000000000E+00  0.74229043025E+02  0.74229043025E+02  0.00000000000E+00 0. -1.
          1   -1    0    0  501    0 -0.00000000000E+00 -0.00000000000E+00 -0.16662302965E+03  0.16662302965E+03  0.00000000000E+00 0. -1.
          2    1    1    2  501    0 -0.10321968255E+02 -0.18463631519E+02  0.72030641358E+02  0.75072378489E+02  0.00000000000E+00 0. -1.
          1    1    1    2  502    0  0.10321968255E+02  0.18463631519E+02 -0.16442462798E+03  0.16577969419E+03  0.00000000000E+00 0. -1.
</event>
<event>
 4    1  0.3555026E+003  0.7969469E+02  0.7546771E-02  0.1204558E+00
          2   -1    0    0  502    0  0.00000000000E+00  0.00000000000E+00  0.12476936684E+04  0.12476936684E+04  0.00000000000E+00 0. -1.
          1   -1    0    0  501    0 -0.00000000000E+00 -0.00000000000E+00 -0.10322463330E+02  0.10322463330E+02  0.00000000000E+00 0. -1.
          2    1    1    2  501    0  0.85197282531E+01  0.79237983003E+02  0.10665036301E+04  0.10694770857E+04  0.00000000000E+00 0. -1.
          1    1    1    2  502    0 -0.85197282531E+01 -0.79237983003E+02  0.17086757497E+03  0.18853904608E+03  0.00000000000E+00 0. -1.
</event>
<event>
 4    1  0.3555026E+003  0.3431954E+02  0.7546771E-02  0.1385411E+00
          2   -1    0    0  502    0  0.00000000000E+00  0.00000000000E+00  0.12729409276E+01  0.12729409276E+01  0.00000000000E+00 0. -1.
          1   -1    0    0  501    0 -0.00000000000E+00 -0.00000000000E+00 -0.11681139256E+04  0.11681139256E+04  0.00000000000E+00 0. -1.
          2    1    1    2  501    0  0.34036212068E+02  0.44007688588E+01 -0.31683427967E+03  0.31868760766E+03  0.00000000000E+00 0. -1.
          1    1    1    2  502    0 -0.34036212068E+02 -0.44007688588E+01 -0.85000670501E+03  0.85069925888E+03  0.00000000000E+00 0. -1.
</event>
<event>
 4    1  0.3555026E+003  0.2706827E+02  0.7546771E-02  0.1446923E+00
          2   -1    0    0  502    0  0.00000000000E+00  0.00000000000E+00  0.81052270995E+00  0.81052270995E+00  0.00000000000E+00 0.  1.
          1   -1    0    0  501    0 -0.00000000000E+00 -0.00000000000E+00 -0.90512765961E+03  0.90512765961E+03  0.00000000000E+00 0.  1.
          2    1    1    2  501    0 -0.58786131848E+01  0.26422213786E+02 -0.43598714361E+03  0.43682660274E+03  0.00000000000E+00 0.  1.
          1    1    1    2  502    0  0.58786131848E+01 -0.26422213786E+02 -0.46832999329E+03  0.46911157958E+03  0.00000000000E+00 0.  1.
</event>
<event>
 4    1  0.3555026E+003  0.2667261E+02  0.7546771E-02  0.1450925E+00
          2   -1    0    0  502    0  0.00000000000E+00  0.00000000000E+00  0.43312416414E+01  0.43312416414E+01  0.00000000000E+00 0. -1.
          1   -1    0    0  501    0 -0.00000000000E+00 -0.00000000000E+00 -0.73492773640E+03  0.73492773640E+03  0.00000000000E+00 0. -1.
          2    1    1    2  501    0  0.16879036455E+02  0.20652511465E+02 -0.39583175820E+02  0.47731079072E+02  0.00000000000E+00 0. -1.
          1    1    1    2  502    0 -0.16879036455E+02 -0.20652511465E+02 -0.69101331894E+03  0.69152789897E+03  0.00000000000E+00 0. -1.
</event>
<event>
 4    1  0.3555026E+003  0.2273117E+02  0.7546771E-02  0.1495902E+00
          2   -1    0    0  502    0  0.00000000000E+00  0.00000000000E+00  0.12363369902E+02  0.12363369902E+02  0.00000000000E+00 0. -1.
          1   -1    0    0  501    0 -0.00000000000E+00 -0.00000000000E+00 -0.49698782209E+03  0.49698782209E+03  0.00000000000E+00 0. -1.
          2    1    1    2  501    0  0.10371226660E+02  0.20227306177E+02  0.14200040111E+01  0.22775483946E+02  0.00000000000E+00 0. -1.
          1    1    1    2  502    0 -0.10371226660E+02 -0.20227306177E+02 -0.48604445620E+03  0.48657570804E+03  0.00000000000E+00 0. -1.
</event>
<event>
 4    1  0.3555026E+003  0.2164695E+02  0.7546771E-02  0.1510225E+00
          2   -1    0    0  502    0  0.00000000000E+00  0.00000000000E+00  0.49380706431E+00  0.49380706431E+00  0.00000000000E+00 0. -1.
          1   -1    0    0  501    0 -0.00000000000E+00 -0.00000000000E+00 -0.99115031956E+03  0.99115031956E+03  0.00000000000E+00 0.  1.
          2    1    1    2  501    0  0.14469680386E+02  0.16100257974E+02 -0.59765754895E+03  0.59804944258E+03  0.00000000000E+00 0. -1.
          1    1    1    2  502    0 -0.14469680386E+02 -0.16100257974E+02 -0.39299896354E+03  0.39359468404E+03  0.00000000000E+00 0.  1.
</event>
<event>
 4    1  0.3555026E+003  0.2633545E+02  0.7546771E-02  0.1454400E+00
          2   -1    0    0  502    0  0.00000000000E+00  0.00000000000E+00  0.46235479605E+02  0.46235479605E+02  0.00000000000E+00 0.  1.
          1   -1    0    0  501    0 -0.00000000000E+00 -0.00000000000E+00 -0.20204277819E+02  0.20204277819E+02  0.00000000000E+00 0. -1.
          2    1    1    2  501    0 -0.82002871780E+01  0.25026205637E+02  0.29874740952E+02  0.39825316387E+02  0.00000000000E+00 0.  1.
          1    1    1    2  502    0  0.82002871780E+01 -0.25026205637E+02 -0.38435391658E+01  0.26614441037E+02  0.00000000000E+00 0. -1.
</event>
<event>
 4    1  0.3555026E+003  0.2194091E+02  0.7546771E-02  0.1506243E+00
          2   -1    0    0  502    0  0.00000000000E+00  0.00000000000E+00  0.79034148909E+02  0.79034148909E+02  0.00000000000E+00 0. -1.
          1   -1    0    0  501    0 -0.00000000000E+00 -0.00000000000E+00 -0.79322404283E+02  0.79322404283E+02  0.00000000000E+00 0.  1.
          2    1    1    2  501    0  0.20578415088E+02  0.76113326743E+01  0.75933427065E+02  0.79039793132E+02  0.00000000000E+00 0. -1.
          1    1    1    2  502    0 -0.20578415088E+02 -0.76113326743E+01 -0.76221682438E+02  0.79316760059E+02  0.00000000000E+00 0.  1.
</event>
<event>
 4    1  0.3555026E+003  0.3600959E+02  0.7546771E-02  0.1373601E+00
          2   -1    0    0  502    0  0.00000000000E+00  0.00000000000E+00  0.56400464183E+03  0.56400464183E+03  0.00000000000E+00 0.  1.
          1   -1    0    0  501    0 -0.00000000000E+00 -0.00000000000E+00 -0.25880546976E+02  0.25880546976E+02  0.00000000000E+00 0.  1.
          2    1    1    2  501    0  0.18954713747E+02 -0.30617143761E+02  0.55059951409E+03  0.55177578379E+03  0.00000000000E+00 0.  1.
          1    1    1    2  502    0 -0.18954713747E+02  0.30617143761E+02 -0.12475419236E+02  0.38109405012E+02  0.00000000000E+00 0.  1.
</event>
<event>
 4    1  0.3555026E+003  0.2637318E+02  0.7546771E-02  0.1454008E+00
          2   -1    0    0  502    0  0.00000000000E+00  0.00000000000E+00  0.15890191669E+02  0.15890191669E+02  0.00000000000E+00 0.  1.
          1   -1    0    0  501    0 -0.00000000000E+00 -0.00000000000E+00 -0.47398543468E+02  0.47398543468E+02  0.00000000000E+00 0.  1.
          2    1    1    2  501    0 -0.13692772677E+02 -0.22540027265E+02 -0.70010597534E+01  0.27286621087E+02  0.00000000000E+00 0.  1.
          1    1    1    2  502    0  0.13692772677E+02  0.22540027265E+02 -0.24507292045E+02  0.36002114050E+02  0.00000000000E+00 0.  1.
</event>
<event>
 4    1  0.3555026E+003  0.2059844E+02  0.7546771E-02  0.1525076E+00
          2   -1    0    0  502    0  0.00000000000E+00  0.00000000000E+00  0.16668296769E+04  0.16668296769E+04  0.00000000000E+00 0.  1.
          1   -1    0    0  501    0 -0.00000000000E+00 -0.00000000000E+00 -0.71687588963E+00  0.71687588963E+00  0.00000000000E+00 0. -1.
          2    1    1    2  501    0  0.13941073633E+02  0.15163843681E+02  0.15026309058E+04  0.15027720834E+04  0.00000000000E+00 0.  1.
          1    1    1    2  502    0 -0.13941073633E+02 -0.15163843681E+02  0.16348189522E+03  0.16477446937E+03  0.00000000000E+00 0. -1.
</event>
<event>
 4    1  0.3555026E+003  0.2126407E+02  0.7546771E-02  0.1515528E+00
          2   -1    0    0  502    0  0.00000000000E+00  0.00000000000E+00  0.12697863853E+04  0.12697863853E+04  0.00000000000E+00 0.  1.
          1   -1    0    0  501    0 -0.00000000000E+00 -0.00000000000E+00 -0.62831197968E+01  0.62831197968E+01  0.00000000000E+00 0. -1.
          2    1    1    2  501    0  0.17628307227E+02 -0.11891321178E+02  0.12514425739E+04  0.12516232167E+04  0.00000000000E+00 0.  1.
          1    1    1    2  502    0 -0.17628307227E+02  0.11891321178E+02  0.12060691567E+02  0.24446288391E+02  0.00000000000E+00 0. -1.
</event>
<event>
 4    1  0.3555026E+003  0.4623556E+02  0.7546771E-02  0.1315374E+00
          2   -1    0    0  502    0  0.00000000000E+00  0.00000000000E+00  0.25067626637E+04  0.25067626637E+04  0.00000000000E+00 0.  1.
          1   -1    0    0  501    0 -0.00000000000E+00 -0.00000000000E+00 -0.22310170148E+01  0.22310170148E+01  0.00000000000E+00 0.  1.
          2    1    1    2  501    0  0.26298075305E+02  0.38028126246E+02  0.22382715820E+04  0.22387490708E+04  0.00000000000E+00 0.  1.
          1    1    1    2  502    0 -0.26298075305E+02 -0.38028126246E+02  0.26626006473E+03  0.27024460998E+03  0.00000000000E+00 0.  1.
</event>
<event>
 4    1  0.3555026E+003  0.2630452E+02  0.7546771E-02  0.1454722E+00
          2   -1    0    0  502    0  0.00000000000E+00  0.00000000000E+00  0.25301333755E+02  0.25301333755E+02  0.00000000000E+00 0.  1.
          1   -1    0    0  501    0 -0.00000000000E+00 -0.00000000000E+00 -0.48850288192E+02  0.48850288192E+02  0.00000000000E+00 0. -1.
          2    1    1    2  501    0  0.19619907607E+02 -0.17521044655E+02  0.12823798216E+02  0.29263929692E+02  0.00000000000E+00 0.  1.
          1    1    1    2  502    0 -0.19619907607E+02  0.17521044655E+02 -0.36372752654E+02  0.44887692255E+02  0.00000000000E+00 0. -1.
</event>
<event>
 4    1  0.3555026E+003  0.2025386E+02  0.7546771E-02  0.1530190E+00
          2   -1    0    0  502    0  0.00000000000E+00  0.00000000000E+00  0.15255966161E+02  0.15255966161E+02  0.00000000000E+00 0. -1.
          1   -1    0    0  501    0 -0.00000000000E+00 -0.00000000000E+00 -0.37097336078E+03  0.37097336078E+03  0.00000000000E+00 0.  1.
          2    1    1    2  501    0  0.20070449836E+02  0.27195338059E+01  0.81256130942E+01  0.21823024743E+02  0.00000000000E+00 0. -1.
          1    1    1    2  502    0 -0.20070449836E+02 -0.27195338059E+01 -0.36384300772E+03  0.36440630220E+03  0.00000000000E+00 0.  1.
</event>
<event>
 4    1  0.3555026E+003  0.1098972E+03  0.7546771E-02  0.1147681E+00
          2   -1    0    0  502    0  0.00000000000E+00  0.00000000000E+00  0.67123069106E+03  0.67123069106E+03  0.00000000000E+00 0. -1.
          1   -1    0    0  501    0 -0.00000000000E+00 -0.00000000000E+00 -0.21162050149E+03  0.21162050149E+03  0.00000000000E+00 0.  1.
          2    1    1    2  501    0  0.83063327793E+02  0.71957513651E+02  0.65204789503E+03  0.66124417397E+03  0.00000000000E+00 0. -1.
          1    1    1    2  502    0 -0.83063327793E+02 -0.71957513651E+02 -0.19243770547E+03  0.22160701857E+03  0.00000000000E+00 0.  1.
</event>
<event>
 4    1  0.3555026E+003  0.2995641E+02  0.7546771E-02  0.1419976E+00
          2   -1    0    0  502    0  0.00000000000E+00  0.00000000000E+00  0.21001723585E+02  0.21001723585E+02  0.00000000000E+00 0.  1.
          1   -1    0    0  501    0 -0.00000000000E+00 -0.00000000000E+00 -0.46996029946E+02  0.46996029946E+02  0.00000000000E+00 0.  1.
          2    1    1    2  501    0  0.79698336562E+01 -0.28876772920E+02 -0.27527168579E+01  0.30082614795E+02  0.00000000000E+00 0.  1.
          1    1    1    2  502    0 -0.79698336562E+01  0.28876772920E+02 -0.23241589502E+02  0.37915138736E+02  0.00000000000E+00 0.  1.
</event>
<event>
 4    1  0.3555026E+003  0.2518071E+02  0.7546771E-02  0.1466792E+00
          2   -1    0    0  502    0  0.00000000000E+00  0.00000000000E+00  0.50309995841E+03  0.50309995841E+03  0.00000000000E+00 0. -1.
          1   -1    0    0  501    0 -0.00000000000E+00 -0.00000000000E+00 -0.67829736667E+02  0.67829736667E+02  0.00000000000E+00 0. -1.
          2    1    1    2  501    0  0.24911454022E+02 -0.36725550638E+01  0.50043545808E+03  0.50106857406E+03  0.00000000000E+00 0. -1.
          1    1    1    2  502    0 -0.24911454022E+02  0.36725550638E+01 -0.65165236342E+02  0.69861121017E+02  0.00000000000E+00 0. -1.
</event>
<event>
 4    1  0.3555026E+003  0.3057693E+02  0.7546771E-02  0.1414648E+00
          2   -1    0    0  502    0  0.00000000000E+00  0.00000000000E+00  0.41178969797E+01  0.41178969797E+01  0.00000000000E+00 0. -1.
          1   -1    0    0  501    0 -0.00000000000E+00 -0.00000000000E+00 -0.57069624401E+03  0.57069624401E+03  0.00000000000E+00 0.  1.
          2    1    1    2  501    0 -0.16514444582E+02 -0.25733671815E+02 -0.60264057258E+02  0.67577402599E+02  0.00000000000E+00 0. -1.
          1    1    1    2  502    0  0.16514444582E+02  0.25733671815E+02 -0.50631428977E+03  0.50723673839E+03  0.00000000000E+00 0.  1.
</event>
<event>
 4    1  0.3555026E+003  0.2132462E+02  0.7546771E-02  0.1514680E+00
          2   -1    0    0  502    0  0.00000000000E+00  0.00000000000E+00  0.12396183056E+03  0.12396183056E+03  0.00000000000E+00 0.  1.
          1   -1    0    0  501    0 -0.00000000000E+00 -0.00000000000E+00 -0.11018067753E+02  0.11018067753E+02  0.00000000000E+00 0.  1.
          2    1    1    2  501    0 -0.19133273940E+01  0.21238607950E+02  0.11159335012E+03  0.11361256568E+03  0.00000000000E+00 0.  1.
          1    1    1    2  502    0  0.19133273940E+01 -0.21238607950E+02  0.13504126869E+01  0.21367332632E+02  0.00000000000E+00 0.  1.
</event>
<event>
 4    1  0.3555026E+003  0.4785928E+02  0.7546771E-02  0.1307730E+00
          2   -1    0    0  502    0  0.00000000000E+00  0.00000000000E+00  0.15192393990E+04  0.15192393990E+04  0.00000000000E+00 0.  1.
          1   -1    0    0  501    0 -0.00000000000E+00 -0.00000000000E+00 -0.91348378872E+02  0.91348378872E+02  0.00000000000E+00 0. -1.
          2    1    1    2  501    0  0.28350361515E+02  0.38558630074E+02  0.15125662183E+04  0.15133231895E+04  0.00000000000E+00 0.  1.
          1    1    1    2  502    0 -0.28350361515E+02 -0.38558630074E+02 -0.84675198245E+02  0.97264588361E+02  0.00000000000E+00 0. -1.
</event>
<event>
 4    1  0.3555026E+003  0.2397409E+02  0.7546771E-02  0.1480616E+00
          2   -1    0    0  502    0  0.00000000000E+00  0.00000000000E+00  0.11062870528E+02  0.11062870528E+02  0.00000000000E+00 0. -1.
          1   -1    0    0  501    0 -0.00000000000E+00 -0.00000000000E+00 -0.17023931686E+03  0.17023931686E+03  0.00000000000E+00 0. -1.
          2    1    1    2  501    0  0.11928238038E+02 -0.20796011967E+02 -0.40252396738E+01  0.24309659209E+02  0.00000000000E+00 0. -1.
          1    1    1    2  502    0 -0.11928238038E+02  0.20796011967E+02 -0.15515120666E+03  0.15699252818E+03  0.00000000000E+00 0. -1.
</event>
<event>
 4    1  0.3555026E+003  0.3179803E+02  0.7546771E-02  0.1404589E+00
          2   -1    0    0  502    0  0.00000000000E+00  0.00000000000E+00  0.17174594870E+03  0.17174594870E+03  0.00000000000E+00 0.  1.
          1   -1    0    0  501    0 -0.00000000000E+00 -0.00000000000E+00 -0.12326860581E+02  0.12326860581E+02  0.00000000000E+00 0.  1.
          2    1    1    2  501    0 -0.30481087164E+02 -0.90563967537E+01  0.14623111347E+03  0.14964843315E+03  0.00000000000E+00 0.  1.
          1    1    1    2  502    0  0.30481087164E+02  0.90563967537E+01  0.13187974649E+02  0.34424376134E+02  0.00000000000E+00 0.  1.
</event>
<event>
 4    1  0.3555026E+003  0.2404915E+02  0.7546771E-02  0.1479728E+00
          2   -1    0    0  502    0  0.00000000000E+00  0.00000000000E+00  0.11355297135E+02  0.11355297135E+02  0.00000000000E+00 0. -1.
          1   -1    0    0  501    0 -0.00000000000E+00 -0.00000000000E+00 -0.54582524826E+02  0.54582524826E+02  0.00000000000E+00 0. -1.
          2    1    1    2  501    0  0.12011123864E+02 -0.20834937512E+02 -0.13088826762E+02  0.27380268509E+02  0.00000000000E+00 0. -1.
          1    1    1    2  502    0 -0.12011123864E+02  0.20834937512E+02 -0.30138400929E+02  0.38557553452E+02  0.00000000000E+00 0. -1.
</event>
<event>
 4    1  0.3555026E+003  0.7636321E+02  0.7546771E-02  0.1212552E+00
          2   -1    0    0  502    0  0.00000000000E+00  0.00000000000E+00  0.29285582897E+04  0.29285582897E+04  0.00000000000E+00 0.  1.
          1   -1    0    0  501    0 -0.00000000000E+00 -0.00000000000E+00 -0.24845925075E+01  0.24845925075E+01  0.00000000000E+00 0.  1.
          2    1    1    2  501    0  0.75509818981E+02  0.11384480871E+02  0.21161099293E+04  0.21174873251E+04  0.00000000000E+00 0.  1.
          1    1    1    2  502    0 -0.75509818981E+02 -0.11384480871E+02  0.80996376789E+03  0.81355555708E+03  0.00000000000E+00 0.  1.
</event>
<event>
 4    1  0.3555026E+003  0.2880667E+02  0.7546771E-02  0.1430258E+00
          2   -1    0    0  502    0  0.00000000000E+00  0.00000000000E+00  0.17313577912E+03  0.17313577912E+03  0.00000000000E+00 0. -1.
          1   -1    0    0  501    0 -0.00000000000E+00 -0.00000000000E+00 -0.10367981716E+02  0.10367981716E+02  0.00000000000E+00 0.  1.
          2    1    1    2  501    0 -0.71963625870E+01 -0.27893307850E+02  0.14866499824E+03  0.15143020161E+03  0.00000000000E+00 0. -1.
          1    1    1    2  502    0  0.71963625870E+01  0.27893307850E+02  0.14102799165E+02  0.32073559228E+02  0.00000000000E+00 0.  1.
</event>
<event>
 4    1  0.3555026E+003  0.3494082E+02  0.7546771E-02  0.1380980E+00
          2   -1    0    0  502    0  0.00000000000E+00  0.00000000000E+00  0.34850912113E+02  0.34850912113E+02  0.00000000000E+00 0. -1.
          1   -1    0    0  501    0 -0.00000000000E+00 -0.00000000000E+00 -0.11670967492E+03  0.11670967492E+03  0.00000000000E+00 0.  1.
          2    1    1    2  501    0 -0.34936010566E+02  0.57988884028E+00  0.22465951454E+02  0.41540102071E+02  0.00000000000E+00 0. -1.
          1    1    1    2  502    0  0.34936010566E+02 -0.57988884028E+00 -0.10432471426E+03  0.11002048496E+03  0.00000000000E+00 0.  1.
</event>
<event>
 4    1  0.3555026E+003  0.2360022E+02  0.7546771E-02  0.1485096E+00
          2   -1    0    0  502    0  0.00000000000E+00  0.00000000000E+00  0.80952683018E+02  0.80952683018E+02  0.00000000000E+00 0.  1.
          1   -1    0    0  501    0 -0.00000000000E+00 -0.00000000000E+00 -0.30781168851E+03  0.30781168851E+03  0.00000000000E+00 0.  1.
          2    1    1    2  501    0  0.60325395272E+01  0.22816197731E+02  0.78767993786E+02  0.82227533449E+02  0.00000000000E+00 0.  1.
          1    1    1    2  502    0 -0.60325395272E+01 -0.22816197731E+02 -0.30562699928E+03  0.30653683808E+03  0.00000000000E+00 0.  1.
</event>
<event>
 4    1  0.3555026E+003  0.7892329E+02  0.7546771E-02  0.1206369E+00
          2   -1    0    0  502    0  0.00000000000E+00  0.00000000000E+00  0.70746915579E+01  0.70746915579E+01  0.00000000000E+00 0.  1.
          1   -1    0    0  501    0 -0.00000000000E+00 -0.00000000000E+00 -0.14737100479E+04  0.14737100479E+04  0.00000000000E+00 0. -1.
          2    1    1    2  501    0  0.77330550701E+02 -0.15775682521E+02 -0.26355359803E+03  0.27511703921E+03  0.00000000000E+00 0.  1.
          1    1    1    2  502    0 -0.77330550701E+02  0.15775682521E+02 -0.12030817583E+04  0.12056677003E+04  0.00000000000E+00 0. -1.
</event>
<event>
 4    1  0.3555026E+003  0.2139942E+02  0.7546771E-02  0.1513638E+00
          2   -1    0    0  502    0  0.00000000000E+00  0.00000000000E+00  0.78429644027E+01  0.78429644027E+01  0.00000000000E+00 0. -1.
          1   -1    0    0  501    0 -0.00000000000E+00 -0.00000000000E+00 -0.47579465770E+03  0.47579465770E+03  0.00000000000E+00 0. -1.
          2    1    1    2  501    0 -0.18938864246E+02 -0.99626578933E+01 -0.74801377576E+01  0.22669088912E+02  0.00000000000E+00 0. -1.
          1    1    1    2  502    0  0.18938864246E+02  0.99626578933E+01 -0.46047155554E+03  0.46096853319E+03  0.00000000000E+00 0. -1.
</event>
<event>
 4    1  0.3555026E+003  0.4206122E+02  0.7546771E-02  0.1336813E+00
          2   -1    0    0  502    0  0.00000000000E+00  0.00000000000E+00  0.66445895452E+03  0.66445895452E+03  0.00000000000E+00 0.  1.
          1   -1    0    0  501    0 -0.00000000000E+00 -0.00000000000E+00 -0.80398935496E+01  0.80398935496E+01  0.00000000000E+00 0. -1.
          2    1    1    2  501    0  0.13643309525E+02  0.39787016018E+02  0.60320201031E+03  0.60466669478E+03  0.00000000000E+00 0.  1.
          1    1    1    2  502    0 -0.13643309525E+02 -0.39787016018E+02  0.53217050659E+02  0.67832153285E+02  0.00000000000E+00 0. -1.
</event>
<event>
 4    1  0.3555026E+003  0.8551325E+02  0.7546771E-02  0.1191596E+00
          2   -1    0    0  502    0  0.00000000000E+00  0.00000000000E+00  0.66902245430E+03  0.66902245430E+03  0.00000000000E+00 0. -1.
          1   -1    0    0  501    0 -0.00000000000E+00 -0.00000000000E+00 -0.13091015995E+02  0.13091015995E+02  0.00000000000E+00 0. -1.
          2    1    1    2  501    0 -0.79988943758E+02  0.30237137356E+02  0.46653083149E+03  0.47430320717E+03  0.00000000000E+00 0. -1.
          1    1    1    2  502    0  0.79988943758E+02 -0.30237137356E+02  0.18940060682E+03  0.20781026313E+03  0.00000000000E+00 0. -1.
</event>
<event>
 4    1  0.3555026E+003  0.3759117E+02  0.7546771E-02  0.1363210E+00
          2   -1    0    0  502    0  0.00000000000E+00  0.00000000000E+00  0.53845552108E+03  0.53845552108E+03  0.00000000000E+00 0. -1.
          1   -1    0    0  501    0 -0.00000000000E+00 -0.00000000000E+00 -0.76000845105E+01  0.76000845105E+01  0.00000000000E+00 0. -1.
          2    1    1    2  501    0 -0.30565999080E+02  0.21881860463E+02  0.48634324119E+03  0.48779385438E+03  0.00000000000E+00 0. -1.
          1    1    1    2  502    0  0.30565999080E+02 -0.21881860463E+02  0.44512195384E+02  0.58261751218E+02  0.00000000000E+00 0. -1.
</event>
<event>
 4    1  0.3555026E+003  0.2793372E+02  0.7546771E-02  0.1438448E+00
          2   -1    0    0  502    0  0.00000000000E+00  0.00000000000E+00  0.42916920365E+03  0.42916920365E+03  0.00000000000E+00 0.  1.
          1   -1    0    0  501    0 -0.00000000000E+00 -0.00000000000E+00 -0.21715254066E+02  0.21715254066E+02  0.00000000000E+00 0.  1.
          2    1    1    2  501    0 -0.93434514255E+01  0.26324749399E+02  0.41952515854E+03  0.42045410114E+03  0.00000000000E+00 0.  1.
          1    1    1    2  502    0  0.93434514255E+01 -0.26324749399E+02 -0.12071208960E+02  0.30430356574E+02  0.00000000000E+00 0.  1.
</event>
<event>
 4    1  0.3555026E+003  0.2762725E+02  0.7546771E-02  0.1441407E+00
          2   -1    0    0  502    0  0.00000000000E+00  0.00000000000E+00  0.36285790809E+03  0.36285790809E+03  0.00000000000E+00 0.  1.
          1   -1    0    0  501    0 -0.00000000000E+00 -0.00000000000E+00 -0.85796990977E+01  0.85796990977E+01  0.00000000000E+00 0.  1.
          2    1    1    2  501    0  0.16179494526E+02 -0.22393945330E+02  0.33849341475E+03  0.33961898748E+03  0.00000000000E+00 0.  1.
          1    1    1    2  502    0 -0.16179494526E+02  0.22393945330E+02  0.15784794241E+02  0.31818619703E+02  0.00000000000E+00 0.  1.
</event>
<event>
 4    1  0.3555026E+003  0.2671863E+02  0.7546771E-02  0.1450455E+00
          2   -1    0    0  502    0  0.00000000000E+00  0.00000000000E+00  0.88345408603E+03  0.88345408603E+03  0.00000000000E+00 0.  1.
          1   -1    0    0  501    0 -0.00000000000E+00 -0.00000000000E+00 -0.16662158726E+01  0.16662158726E+01  0.00000000000E+00 0. -1.
          2    1    1    2  501    0 -0.11720222605E+02  0.24010858259E+02  0.75850049888E+03  0.75897094262E+03  0.00000000000E+00 0.  1.
          1    1    1    2  502    0  0.11720222605E+02 -0.24010858259E+02  0.12328737128E+03  0.12614935929E+03  0.00000000000E+00 0. -1.
</event>
<event>
 4    1  0.3555026E+003  0.4130715E+02  0.7546771E-02  0.1340992E+00
          2   -1    0    0  502    0  0.00000000000E+00  0.00000000000E+00  0.14733393330E+04  0.14733393330E+04  0.00000000000E+00 0.  1.
          1   -1    0    0  501    0 -0.00000000000E+00 -0.00000000000E+00 -0.78884567059E+01  0.78884567059E+01  0.00000000000E+00 0.  1.
          2    1    1    2  501    0  0.25578630264E+02  0.32434767353E+02  0.14168177952E+04  0.14174198197E+04  0.00000000000E+00 0.  1.
          1    1    1    2  502    0 -0.25578630264E+02 -0.32434767353E+02  0.48633081054E+02  0.63807969974E+02  0.00000000000E+00 0.  1.
</event>
<event>
 4    1  0.3555026E+003  0.2114832E+02  0.7546771E-02  0.1517158E+00
          2   -1    0    0  502    0  0.00000000000E+00  0.00000000000E+00  0.68225962580E+02  0.68225962580E+02  0.00000000000E+00 0.  1.
          1   -1    0    0  501    0 -0.00000000000E+00 -0.00000000000E+00 -0.80775054589E+01  0.80775054589E+01  0.00000000000E+00 0. -1.
          2    1    1    2  501    0  0.10693443903E+02 -0.18245597602E+02  0.46635418671E+02  0.51206580133E+02  0.00000000000E+00 0.  1.
          1    1    1    2  502    0 -0.10693443903E+02  0.18245597602E+02  0.13513038450E+02  0.25096887905E+02  0.00000000000E+00 0. -1.
</event>
<event>
 4    1  0.3555026E+003  0.5425500E+02  0.7546771E-02  0.1280708E+00
          2   -1    0    0  502    0  0.00000000000E+00  0.00000000000E+00  0.51588185451E+03  0.51588185451E+03  0.00000000000E+00 0.  1.
          1   -1    0    0  501    0 -0.00000000000E+00 -0.00000000000E+00 -0.22043063824E+02  0.22043063824E+02  0.00000000000E+00 0. -1.
          2    1    1    2  501    0 -0.40895895270E+02  0.35652914067E+02  0.47846851665E+03  0.48153476090E+03  0.00000000000E+00 0.  1.
          1    1    1    2  502    0  0.40895895270E+02 -0.35652914067E+02  0.15370274036E+02  0.56390157433E+02  0.00000000000E+00 0. -1.
</event>
<event>
 4    1  0.3555026E+003  0.2390532E+02  0.7546771E-02  0.1481432E+00
          2   -1    0    0  502    0  0.00000000000E+00  0.00000000000E+00  0.10668301226E+04  0.10668301226E+04  0.00000000000E+00 0. -1.
          1   -1    0    0  501    0 -0.00000000000E+00 -0.00000000000E+00 -0.19764747940E+01  0.19764747940E+01  0.00000000000E+00 0. -1.
          2    1    1    2  501    0  0.70685902414E+00  0.23894865957E+02  0.98870186790E+03  0.98899082294E+03  0.00000000000E+00 0. -1.
          1    1    1    2  502    0 -0.70685902414E+00 -0.23894865957E+02  0.76151779879E+02  0.79815774427E+02  0.00000000000E+00 0. -1.
</event>
<event>
 4    1  0.3555026E+003  0.2016922E+02  0.7546771E-02  0.1531465E+00
          2   -1    0    0  502    0  0.00000000000E+00  0.00000000000E+00  0.64256358318E+01  0.64256358318E+01  0.00000000000E+00 0. -1.
          1   -1    0    0  501    0 -0.00000000000E+00 -0.00000000000E+00 -0.35732923881E+03  0.35732923881E+03  0.00000000000E+00 0.  1.
          2    1    1    2  501    0  0.16408253582E+02 -0.11728873080E+02 -0.10470948423E+02  0.22725272500E+02  0.00000000000E+00 0. -1.
          1    1    1    2  502    0 -0.16408253582E+02  0.11728873080E+02 -0.34043265455E+03  0.34102960214E+03  0.00000000000E+00 0.  1.
</event>
<event>
 4    1  0.3555026E+003  0.2022103E+02  0.7546771E-02  0.1530683E+00
          2   -1    0    0  502    0  0.00000000000E+00  0.00000000000E+00  0.31532410169E+02  0.31532410169E+02  0.00000000000E+00 0.  1.
          1   -1    0    0  501    0 -0.00000000000E+00 -0.00000000000E+00 -0.15978168965E+02  0.15978168965E+02  0.00000000000E+00 0. -1.
          2    1    1    2  501    0  0.19018227613E+02 -0.68700215352E+01  0.18089119415E+02  0.27131281183E+02  0.00000000000E+00 0.  1.
          1    1    1    2  502    0 -0.19018227613E+02  0.68700215352E+01 -0.25348782115E+01  0.20379297951E+02  0.00000000000E+00 0. -1.
</event>
<event>
 4    1  0.3555026E+003  0.2896856E+02  0.7546771E-02  0.1428776E+00
          2   -1    0    0  502    0  0.00000000000E+00  0.00000000000E+00  0.87845224467E+03  0.87845224467E+03  0.00000000000E+00 0. -1.
          1   -1    0    0  501    0 -0.00000000000E+00 -0.00000000000E+00 -0.70053959181E+02  0.70053959181E+02  0.00000000000E+00 0.  1.
          2    1    1    2  501    0  0.28647139265E+02  0.43033321719E+01  0.87520756939E+03  0.87568685429E+03  0.00000000000E+00 0. -1.
          1    1    1    2  502    0 -0.28647139265E+02 -0.43033321719E+01 -0.66809283899E+02  0.72819349564E+02  0.00000000000E+00 0.  1.
</event>
<event>
 4    1  0.3555026E+003  0.3506155E+02  0.7546771E-02  0.1380131E+00
          2   -1    0    0  502    0  0.00000000000E+00  0.00000000000E+00  0.26433548241E+03  0.26433548241E+03  0.00000000000E+00 0. -1.
          1   -1    0    0  501    0 -0.00000000000E+00 -0.00000000000E+00 -0.16020773755E+02  0.16020773755E+02  0.00000000000E+00 0.  1.
          2    1    1    2  501    0 -0.15343597922E+02 -0.31525965862E+02  0.24224990475E+03  0.24477403635E+03  0.00000000000E+00 0. -1.
          1    1    1    2  502    0  0.15343597922E+02  0.31525965862E+02  0.60648039099E+01  0.35582219818E+02  0.00000000000E+00 0.  1.
</event>
<event>
 4    1  0.3555026E+003  0.3775070E+02  0.7546771E-02  0.1362196E+00
          2   -1    0    0  502    0  0.00000000000E+00  0.00000000000E+00  0.21726102778E+04  0.21726102778E+04  0.00000000000E+00 0.  1.
          1   -1    0    0  501    0 -0.00000000000E+00 -0.00000000000E+00 -0.18919982261E+01  0.18919982261E+01  0.00000000000E+00 0. -1.
          2    1    1    2  501    0  0.15744403159E+02 -0.34310775736E+02  0.19641547427E+04  0.19645174901E+04  0.00000000000E+00 0.  1.
          1    1    1    2  502    0 -0.15744403159E+02  0.34310775736E+02  0.20656353685E+03  0.20998478592E+03  0.00000000000E+00 0. -1.
</event>
<event>
 4    1  0.3555026E+003  0.2044338E+02  0.7546771E-02  0.1527362E+00
          2   -1    0    0  502    0  0.00000000000E+00  0.00000000000E+00  0.66745554282E+01  0.66745554282E+01  0.00000000000E+00 0.  1.
          1   -1    0    0  501    0 -0.00000000000E+00 -0.00000000000E+00 -0.62636382001E+02  0.62636382001E+02  0.00000000000E+00 0.  1.
          2    1    1    2  501    0 -0.11954754440E+02  0.16583586355E+02 -0.28611715353E+02  0.35164779902E+02  0.00000000000E+00 0.  1.
          1    1    1    2  502    0  0.11954754440E+02 -0.16583586355E+02 -0.27350111220E+02  0.34146157527E+02  0.00000000000E+00 0.  1.
</event>
<event>
 4    1  0.3555026E+003  0.2648139E+02  0.7546771E-02  0.1452888E+00
          2   -1    0    0  502    0  0.00000000000E+00  0.00000000000E+00  0.16107631936E+03  0.16107631936E+03  0.00000000000E+00 0. -1.
          1   -1    0    0  501    0 -0.00000000000E+00 -0.00000000000E+00 -0.22083995917E+02  0.22083995917E+02  0.00000000000E+00 0.  1.
          2    1    1    2  501    0 -0.38910408392E+01 -0.26193961495E+02  0.15155429363E+03  0.15385047200E+03  0.00000000000E+00 0. -1.
          1    1    1    2  502    0  0.38910408392E+01  0.26193961495E+02 -0.12561970190E+02  0.29309843272E+02  0.00000000000E+00 0.  1.
</event>
<event>
 4    1  0.3555026E+003  0.2540100E+02  0.7546771E-02  0.1464367E+00
          2   -1    0    0  502    0  0.00000000000E+00  0.00000000000E+00  0.13111712258E+03  0.13111712258E+03  0.00000000000E+00 0. -1.
          1   -1    0    0  501    0 -0.00000000000E+00 -0.00000000000E+00 -0.83677867721E+02  0.83677867721E+02  0.00000000000E+00 0.  1.
          2    1    1    2  501    0  0.15824406684E+02  0.19869544047E+02  0.12791139828E+03  0.13040911178E+03  0.00000000000E+00 0. -1.
          1    1    1    2  502    0 -0.15824406684E+02 -0.19869544047E+02 -0.80472143415E+02  0.84385878519E+02  0.00000000000E+00 0.  1.
</event>
<event>
 4    1  0.3555026E+003  0.2052072E+02  0.7546771E-02  0.1526219E+00
          2   -1    0    0  502    0  0.00000000000E+00  0.00000000000E+00  0.21709982735E+03  0.21709982735E+03  0.00000000000E+00 0.  1.
          1   -1    0    0  501    0 -0.00000000000E+00 -0.00000000000E+00 -0.10540760308E+03  0.10540760308E+03  0.00000000000E+00 0. -1.
          2    1    1    2  501    0 -0.11091664688E+02 -0.17264846134E+02  0.21560928149E+03  0.21658361480E+03  0.00000000000E+00 0.  1.
          1    1    1    2  502    0  0.11091664688E+02  0.17264846134E+02 -0.10391705721E+03  0.10592381563E+03  0.00000000000E+00 0. -1.
</event>
<event>
 4    1  0.3555026E+003  0.2542908E+02  0.7546771E-02  0.1464060E+00
          2   -1    0    0  502    0  0.00000000000E+00  0.00000000000E+00  0.11562075813E+04  0.11562075813E+04  0.00000000000E+00 0. -1.
          1   -1    0    0  501    0 -0.00000000000E+00 -0.00000000000E+00 -0.34045187171E+02  0.34045187171E+02  0.00000000000E+00 0. -1.
          2    1    1    2  501    0  0.13173865615E+02 -0.21750567262E+02  0.11512991410E+04  0.11515799365E+04  0.00000000000E+00 0. -1.
          1    1    1    2  502    0 -0.13173865615E+02  0.21750567262E+02 -0.29136746935E+02  0.38672831981E+02  0.00000000000E+00 0. -1.
</event>
<event>
 4    1  0.3555026E+003  0.2020380E+02  0.7546771E-02  0.1530943E+00
          2   -1    0    0  502    0  0.00000000000E+00  0.00000000000E+00  0.49231559894E+03  0.49231559894E+03  0.00000000000E+00 0.  1.
          1   -1    0    0  501    0 -0.00000000000E+00 -0.00000000000E+00 -0.75930004600E+03  0.75930004600E+03  0.00000000000E+00 0. -1.
          2    1    1    2  501    0 -0.88054807370E+00 -0.20184598819E+02  0.49197382531E+03  0.49238850330E+03  0.00000000000E+00 0.  1.
          1    1    1    2  502    0  0.88054807370E+00  0.20184598819E+02 -0.75895827237E+03  0.75922714164E+03  0.00000000000E+00 0. -1.
</event>
<event>
 4    1  0.3555026E+003  0.2031090E+02  0.7546771E-02  0.1529335E+00
          2   -1    0    0  502    0  0.00000000000E+00  0.00000000000E+00  0.65208901408E+02  0.65208901408E+02  0.00000000000E+00 0. -1.
          1   -1    0    0  501    0 -0.00000000000E+00 -0.00000000000E+00 -0.39370729988E+02  0.39370729988E+02  0.00000000000E+00 0.  1.
          2    1    1    2  501    0 -0.11228393060E+02  0.16925001235E+02  0.60823922877E+02  0.64125518101E+02  0.00000000000E+00 0. -1.
          1    1    1    2  502    0  0.11228393060E+02 -0.16925001235E+02 -0.34985751457E+02  0.40454113295E+02  0.00000000000E+00 0.  1.
</event>
<event>
 4    1  0.3555026E+003  0.3900808E+02  0.7546771E-02  0.1354398E+00
          2   -1    0    0  502    0  0.00000000000E+00  0.00000000000E+00  0.40624673771E+03  0.40624673771E+03  0.00000000000E+00 0. -1.
          1   -1    0    0  501    0 -0.00000000000E+00 -0.00000000000E+00 -0.28103059752E+03  0.28103059752E+03  0.00000000000E+00 0.  1.
          2    1    1    2  501    0 -0.37239090711E+02 -0.11613803464E+02  0.40394904447E+03  0.40582811736E+03  0.00000000000E+00 0. -1.
          1    1    1    2  502    0  0.37239090711E+02  0.11613803464E+02 -0.27873290428E+03  0.28144921787E+03  0.00000000000E+00 0.  1.
</event>
<event>
 4    1  0.3555026E+003  0.2217993E+02  0.7546771E-02  0.1503061E+00
          2   -1    0    0  502    0  0.00000000000E+00  0.00000000000E+00  0.22248943960E+02  0.22248943960E+02  0.00000000000E+00 0. -1.
          1   -1    0    0  501    0 -0.00000000000E+00 -0.00000000000E+00 -0.35061592707E+03  0.35061592707E+03  0.00000000000E+00 0.  1.
          2    1    1    2  501    0  0.85309946698E+01 -0.20473673300E+02  0.16274664141E+02  0.27510250114E+02  0.00000000000E+00 0. -1.
          1    1    1    2  502    0 -0.85309946698E+01  0.20473673300E+02 -0.34464164725E+03  0.34535462091E+03  0.00000000000E+00 0.  1.
</event>
<event>
 4    1  0.3555026E+003  0.3196879E+02  0.7546771E-02  0.1403225E+00
          2   -1    0    0  502    0  0.00000000000E+00  0.00000000000E+00  0.53963010564E+02  0.53963010564E+02  0.00000000000E+00 0. -1.
          1   -1    0    0  501    0 -0.00000000000E+00 -0.00000000000E+00 -0.68062766275E+02  0.68062766275E+02  0.00000000000E+00 0. -1.
          2    1    1    2  501    0 -0.86437950338E+01 -0.30778054792E+02  0.44783886173E+02  0.55023634105E+02  0.00000000000E+00 0. -1.
          1    1    1    2  502    0  0.86437950338E+01  0.30778054792E+02 -0.58883641885E+02  0.67002142734E+02  0.00000000000E+00 0. -1.
</event>
<event>
 4    1  0.3555026E+003  0.2067726E+02  0.7546771E-02  0.1523923E+00
          2   -1    0    0  502    0  0.00000000000E+00  0.00000000000E+00  0.29863958938E+03  0.29863958938E+03  0.00000000000E+00 0.  1.
          1   -1    0    0  501    0 -0.00000000000E+00 -0.00000000000E+00 -0.15049348778E+02  0.15049348778E+02  0.00000000000E+00 0. -1.
          2    1    1    2  501    0  0.89487871122E+01  0.18640499436E+02  0.29099282051E+03  0.29172653393E+03  0.00000000000E+00 0.  1.
          1    1    1    2  502    0 -0.89487871122E+01 -0.18640499436E+02 -0.74025799113E+01  0.21962404225E+02  0.00000000000E+00 0. -1.
</event>
<event>
 4    1  0.3555026E+003  0.2051962E+02  0.7546771E-02  0.1526235E+00
          2   -1    0    0  502    0  0.00000000000E+00  0.00000000000E+00  0.12177625904E+02  0.12177625904E+02  0.00000000000E+00 0. -1.
          1   -1    0    0  501    0 -0.00000000000E+00 -0.00000000000E+00 -0.20305568869E+03  0.20305568869E+03  0.00000000000E+00 0. -1.
          2    1    1    2  501    0  0.87473758775E+01 -0.18561744659E+02  0.25879320655E+01  0.20682174497E+02  0.00000000000E+00 0. -1.
          1    1    1    2  502    0 -0.87473758775E+01  0.18561744659E+02 -0.19346599485E+03  0.19455114009E+03  0.00000000000E+00 0. -1.
</event>
<event>
 4    1  0.3555026E+003  0.5586854E+02  0.7546771E-02  0.1274555E+00
          2   -1    0    0  502    0  0.00000000000E+00  0.00000000000E+00  0.29814654535E+03  0.29814654535E+03  0.00000000000E+00 0. -1.
          1   -1    0    0  501    0 -0.00000000000E+00 -0.00000000000E+00 -0.21473376766E+02  0.21473376766E+02  0.00000000000E+00 0. -1.
          2    1    1    2  501    0  0.34374508085E+02  0.44041876724E+02  0.25273936029E+03  0.25884064200E+03  0.00000000000E+00 0. -1.
          1    1    1    2  502    0 -0.34374508085E+02 -0.44041876724E+02  0.23933808287E+02  0.60779280109E+02  0.00000000000E+00 0. -1.
</event>
<event>
 4    1  0.3555026E+003  0.2102587E+02  0.7546771E-02  0.1518896E+00
          2   -1    0    0  502    0  0.00000000000E+00  0.00000000000E+00  0.12782120734E+02  0.12782120734E+02  0.00000000000E+00 0.  1.
          1   -1    0    0  501    0 -0.00000000000E+00 -0.00000000000E+00 -0.38876895099E+03  0.38876895099E+03  0.00000000000E+00 0.  1.
          2    1    1    2  501    0  0.15454761361E+02 -0.14256143297E+02  0.36432484361E+01  0.21339178278E+02  0.00000000000E+00 0.  1.
          1    1    1    2  502    0 -0.15454761361E+02  0.14256143297E+02 -0.37963007869E+03  0.38021189344E+03  0.00000000000E+00 0.  1.
</event>
<event>
 4    1  0.3555026E+003  0.6079954E+02  0.7546771E-02  0.1257140E+00
          2   -1    0    0  502    0  0.00000000000E+00  0.00000000000E+00  0.37165434700E+03  0.37165434700E+03  0.00000000000E+00 0.  1.
          1   -1    0    0  501    0 -0.00000000000E+00 -0.00000000000E+00 -0.12395811287E+03  0.12395811287E+03  0.00000000000E+00 0. -1.
          2    1    1    2  501    0  0.19153414709E+02  0.57703820879E+02  0.36150460524E+03  0.36658172875E+03  0.00000000000E+00 0.  1.
          1    1    1    2  502    0 -0.19153414709E+02 -0.57703820879E+02 -0.11380837111E+03  0.12903073112E+03  0.00000000000E+00 0. -1.
</event>
<event>
 4    1  0.3555026E+003  0.3597493E+02  0.7546771E-02  0.1373836E+00
          2   -1    0    0  502    0  0.00000000000E+00  0.00000000000E+00  0.55374530388E+00  0.55374530388E+00  0.00000000000E+00 0. -1.
          1   -1    0    0  501    0 -0.00000000000E+00 -0.00000000000E+00 -0.26854337458E+04  0.26854337458E+04  0.00000000000E+00 0. -1.
          2    1    1    2  501    0 -0.28150189959E+02 -0.22400016699E+02 -0.18260822644E+04  0.18264365935E+04  0.00000000000E+00 0. -1.
          1    1    1    2  502    0  0.28150189959E+02  0.22400016699E+02 -0.85879773613E+03  0.85955089758E+03  0.00000000000E+00 0. -1.
</event>
<event>
 4    1  0.3555026E+003  0.3114477E+02  0.7546771E-02  0.1409902E+00
          2   -1    0    0  502    0  0.00000000000E+00  0.00000000000E+00  0.16624879249E+02  0.16624879249E+02  0.00000000000E+00 0.  1.
          1   -1    0    0  501    0 -0.00000000000E+00 -0.00000000000E+00 -0.17762408265E+03  0.17762408265E+03  0.00000000000E+00 0. -1.
          2    1    1    2  501    0  0.23484288843E+02 -0.20456908107E+02 -0.90970800822E+00  0.31158056429E+02  0.00000000000E+00 0.  1.
          1    1    1    2  502    0 -0.23484288843E+02  0.20456908107E+02 -0.16008949539E+03  0.16309090547E+03  0.00000000000E+00 0. -1.
</event>
<event>
 4    1  0.3555026E+003  0.5520677E+02  0.7546771E-02  0.1277050E+00
          2   -1    0    0  502    0  0.00000000000E+00  0.00000000000E+00  0.98272434501E+03  0.98272434501E+03  0.00000000000E+00 0.  1.
          1   -1    0    0  501    0 -0.00000000000E+00 -0.00000000000E+00 -0.42311928011E+02  0.42311928011E+02  0.00000000000E+00 0.  1.
          2    1    1    2  501    0  0.19838853549E+02  0.51518999863E+02  0.96358373887E+03  0.96516392870E+03  0.00000000000E+00 0.  1.
          1    1    1    2  502    0 -0.19838853549E+02 -0.51518999863E+02 -0.23171321869E+02  0.59872344318E+02  0.00000000000E+00 0.  1.
</event>
<event>
 4    1  0.3555026E+003  0.2806602E+02  0.7546771E-02  0.1437184E+00
          2   -1    0    0  502    0  0.00000000000E+00  0.00000000000E+00  0.39803828056E+03  0.39803828056E+03  0.00000000000E+00 0.  1.
          1   -1    0    0  501    0 -0.00000000000E+00 -0.00000000000E+00 -0.49572645363E+01  0.49572645363E+01  0.00000000000E+00 0.  1.
          2    1    1    2  501    0  0.10472100893E+02 -0.26039137850E+02  0.35272352122E+03  0.35383835861E+03  0.00000000000E+00 0.  1.
          1    1    1    2  502    0 -0.10472100893E+02  0.26039137850E+02  0.40357494802E+02  0.49157186492E+02  0.00000000000E+00 0.  1.
</event>
<event>
 4    1  0.3555026E+003  0.2218384E+02  0.7546771E-02  0.1503009E+00
          2   -1    0    0  502    0  0.00000000000E+00  0.00000000000E+00  0.11007023111E+04  0.11007023111E+04  0.00000000000E+00 0. -1.
          1   -1    0    0  501    0 -0.00000000000E+00 -0.00000000000E+00 -0.76398015823E+00  0.76398015823E+00  0.00000000000E+00 0.  1.
          2    1    1    2  501    0 -0.19586609907E+02 -0.10415737846E+02  0.90465871788E+03  0.90493067067E+03  0.00000000000E+00 0. -1.
          1    1    1    2  502    0  0.19586609907E+02  0.10415737846E+02  0.19527961305E+03  0.19653562058E+03  0.00000000000E+00 0.  1.
</event>
<event>
 4    1  0.3555026E+003  0.5720858E+02  0.7546771E-02  0.1269624E+00
          2   -1    0    0  502    0  0.00000000000E+00  0.00000000000E+00  0.10912714688E+03  0.10912714688E+03  0.00000000000E+00 0. -1.
          1   -1    0    0  501    0 -0.00000000000E+00 -0.00000000000E+00 -0.13669933135E+03  0.13669933135E+03  0.00000000000E+00 0.  1.
          2    1    1    2  501    0  0.56642205459E+02  0.80300829841E+01  0.94810158210E+02  0.11073295703E+03  0.00000000000E+00 0. -1.
          1    1    1    2  502    0 -0.56642205459E+02 -0.80300829841E+01 -0.12238234268E+03  0.13509352120E+03  0.00000000000E+00 0.  1.
</event>
<event>
 4    1  0.3555026E+003  0.2138068E+02  0.7546771E-02  0.1513899E+00
          2   -1    0    0  502    0  0.00000000000E+00  0.00000000000E+00  0.12247790048E+02  0.12247790048E+02  0.00000000000E+00 0. -1.
          1   -1    0    0  501    0 -0.00000000000E+00 -0.00000000000E+00 -0.39790106073E+03  0.39790106073E+03  0.00000000000E+00 0.  1.
          2    1    1    2  501    0 -0.16166389920E+02  0.13992194346E+02  0.23928404012E+01  0.21514166283E+02  0.00000000000E+00 0. -1.
          1    1    1    2  502    0  0.16166389920E+02 -0.13992194346E+02 -0.38804611108E+03  0.38863468450E+03  0.00000000000E+00 0.  1.
</event>
<event>
 4    1  0.3555026E+003  0.2502027E+02  0.7546771E-02  0.1468577E+00
          2   -1    0    0  502    0  0.00000000000E+00  0.00000000000E+00  0.80312331020E+03  0.80312331020E+03  0.00000000000E+00 0. -1.
          1   -1    0    0  501    0 -0.00000000000E+00 -0.00000000000E+00 -0.31084300002E+01  0.31084300002E+01  0.00000000000E+00 0. -1.
          2    1    1    2  501    0 -0.11908343571E+02  0.22004660158E+02  0.74893879336E+03  0.74935661064E+03  0.00000000000E+00 0. -1.
          1    1    1    2  502    0  0.11908343571E+02 -0.22004660158E+02  0.51076086841E+02  0.56875129558E+02  0.00000000000E+00 0. -1.
</event>
<event>
 4    1  0.3555026E+003  0.4161645E+02  0.7546771E-02  0.1339265E+00
          2   -1    0    0  502    0  0.00000000000E+00  0.00000000000E+00  0.43808281164E+01  0.43808281164E+01  0.00000000000E+00 0. -1.
          1   -1    0    0  501    0 -0.00000000000E+00 -0.00000000000E+00 -0.10973282046E+04  0.10973282046E+04  0.00000000000E+00 0.  1.
          2    1    1    2  501    0 -0.31576471194E+02  0.27108212400E+02 -0.10588565746E+03  0.11377038792E+03  0.00000000000E+00 0. -1.
          1    1    1    2  502    0  0.31576471194E+02 -0.27108212400E+02 -0.98706171907E+03  0.98793864484E+03  0.00000000000E+00 0.  1.
</event>
<event>
 4    1  0.3555026E+003  0.3913272E+02  0.7546771E-02  0.1353644E+00
          2   -1    0    0  502    0  0.00000000000E+00  0.00000000000E+00  0.53383633072E+03  0.53383633072E+03  0.00000000000E+00 0.  1.
          1   -1    0    0  501    0 -0.00000000000E+00 -0.00000000000E+00 -0.70232656758E+01  0.70232656758E+01  0.00000000000E+00 0.  1.
          2    1    1    2  501    0  0.11895028386E+02 -0.37281066598E+02  0.47140128475E+03  0.47302276995E+03  0.00000000000E+00 0.  1.
          1    1    1    2  502    0 -0.11895028386E+02  0.37281066598E+02  0.55411780298E+02  0.67836826450E+02  0.00000000000E+00 0.  1.
</event>
<event>
 4    1  0.3555026E+003  0.2154834E+02  0.7546771E-02  0.1511578E+00
          2   -1    0    0  502    0  0.00000000000E+00  0.00000000000E+00  0.15537267218E+04  0.15537267218E+04  0.00000000000E+00 0.  1.
          1   -1    0    0  501    0 -0.00000000000E+00 -0.00000000000E+00 -0.32543232455E+00  0.32543232455E+00  0.00000000000E+00 0.  1.
          2    1    1    2  501    0  0.11496394782E+02 -0.18225351871E+02  0.55462274582E+03  0.55504118831E+03  0.00000000000E+00 0.  1.
          1    1    1    2  502    0 -0.11496394782E+02  0.18225351871E+02  0.99877854370E+03  0.99901096585E+03  0.00000000000E+00 0.  1.
</event>
<event>
 4    1  0.3555026E+003  0.2834061E+02  0.7546771E-02  0.1434587E+00
          2   -1    0    0  502    0  0.00000000000E+00  0.00000000000E+00  0.26991477402E+02  0.26991477402E+02  0.00000000000E+00 0.  1.
          1   -1    0    0  501    0 -0.00000000000E+00 -0.00000000000E+00 -0.36111295014E+03  0.36111295014E+03  0.00000000000E+00 0. -1.
          2    1    1    2  501    0 -0.23794746093E+02 -0.15394814323E+02  0.18824260666E+02  0.34022684187E+02  0.00000000000E+00 0.  1.
          1    1    1    2  502    0  0.23794746093E+02  0.15394814323E+02 -0.35294573340E+03  0.35408174335E+03  0.00000000000E+00 0. -1.
</event>
<event>
 4    1  0.3555026E+003  0.2476182E+02  0.7546771E-02  0.1471486E+00
          2   -1    0    0  502    0  0.00000000000E+00  0.00000000000E+00  0.40527495856E+03  0.40527495856E+03  0.00000000000E+00 0.  1.
          1   -1    0    0  501    0 -0.00000000000E+00 -0.00000000000E+00 -0.46475063789E+03  0.46475063789E+03  0.00000000000E+00 0. -1.
          2    1    1    2  501    0 -0.24088527834E+02 -0.57350196787E+01  0.40456632585E+03  0.40532340129E+03  0.00000000000E+00 0.  1.
          1    1    1    2  502    0  0.24088527834E+02  0.57350196787E+01 -0.46404200517E+03  0.46470219516E+03  0.00000000000E+00 0. -1.
</event>
<event>
 4    1  0.3555026E+003  0.2291807E+02  0.7546771E-02  0.1493529E+00
          2   -1    0    0  502    0  0.00000000000E+00  0.00000000000E+00  0.68090623147E+03  0.68090623147E+03  0.00000000000E+00 0. -1.
          1   -1    0    0  501    0 -0.00000000000E+00 -0.00000000000E+00 -0.14013222326E+01  0.14013222326E+01  0.00000000000E+00 0. -1.
          2    1    1    2  501    0 -0.41557205491E+01 -0.22538146663E+02  0.56848671888E+03  0.56894849293E+03  0.00000000000E+00 0. -1.
          1    1    1    2  502    0  0.41557205491E+01  0.22538146663E+02  0.11101819036E+03  0.11335906077E+03  0.00000000000E+00 0. -1.
</event>
<event>
 4    1  0.3555026E+003  0.2536755E+02  0.7546771E-02  0.1464733E+00
          2   -1    0    0  502    0  0.00000000000E+00  0.00000000000E+00  0.52960840859E+03  0.52960840859E+03  0.00000000000E+00 0. -1.
          1   -1    0    0  501    0 -0.00000000000E+00 -0.00000000000E+00 -0.12356743339E+02  0.12356743339E+02  0.00000000000E+00 0. -1.
          2    1    1    2  501    0 -0.60889221849E+01 -0.24625952354E+02  0.51594048660E+03  0.51656374071E+03  0.00000000000E+00 0. -1.
          1    1    1    2  502    0  0.60889221849E+01  0.24625952354E+02  0.13111786568E+01  0.25401411224E+02  0.00000000000E+00 0. -1.
</event>
<event>
 4    1  0.3555026E+003  0.4309607E+02  0.7546771E-02  0.1331239E+00
          2   -1    0    0  502    0  0.00000000000E+00  0.00000000000E+00  0.21203838515E+03  0.21203838515E+03  0.00000000000E+00 0.  1.
          1   -1    0    0  501    0 -0.00000000000E+00 -0.00000000000E+00 -0.48580169020E+02  0.48580169020E+02  0.00000000000E+00 0. -1.
          2    1    1    2  501    0 -0.54477403287E+01  0.42750361330E+02  0.19970740745E+03  0.20430447831E+03  0.00000000000E+00 0.  1.
          1    1    1    2  502    0  0.54477403287E+01 -0.42750361330E+02 -0.36249191318E+02  0.56314075858E+02  0.00000000000E+00 0. -1.
</event>
<event>
 4    1  0.3555026E+003  0.2282646E+02  0.7546771E-02  0.1494689E+00
          2   -1    0    0  502    0  0.00000000000E+00  0.00000000000E+00  0.16260592561E+04  0.16260592561E+04  0.00000000000E+00 0.  1.
          1   -1    0    0  501    0 -0.00000000000E+00 -0.00000000000E+00 -0.19236921848E+01  0.19236921848E+01  0.00000000000E+00 0.  1.
          2    1    1    2  501    0  0.84745968996E+01 -0.21195013778E+02  0.15551785786E+04  0.15553460897E+04  0.00000000000E+00 0.  1.
          1    1    1    2  502    0 -0.84745968996E+01  0.21195013778E+02  0.68956985317E+02  0.72636858589E+02  0.00000000000E+00 0.  1.
</event>
<event>
 4    1  0.3555026E+003  0.2465068E+02  0.7546771E-02  0.1472749E+00
          2   -1    0    0  502    0  0.00000000000E+00  0.00000000000E+00  0.20305659024E+02  0.20305659024E+02  0.00000000000E+00 0.  1.
          1   -1    0    0  501    0 -0.00000000000E+00 -0.00000000000E+00 -0.17274646307E+04  0.17274646307E+04  0.00000000000E+00 0.  1.
          2    1    1    2  501    0 -0.21517261435E+02  0.12027622647E+02  0.12703284341E+02  0.27731384373E+02  0.00000000000E+00 0.  1.
          1    1    1    2  502    0  0.21517261435E+02 -0.12027622647E+02 -0.17198622560E+04  0.17200389054E+04  0.00000000000E+00 0.  1.
</event>
<event>
 4    1  0.3555026E+003  0.2141801E+02  0.7546771E-02  0.1513380E+00
          2   -1    0    0  502    0  0.00000000000E+00  0.00000000000E+00  0.32160397974E+01  0.32160397974E+01  0.00000000000E+00 0. -1.
          1   -1    0    0  501    0 -0.00000000000E+00 -0.00000000000E+00 -0.60547099598E+03  0.60547099598E+03  0.00000000000E+00 0. -1.
          2    1    1    2  501    0  0.20470366489E+02  0.63004304986E+01 -0.35037038032E+02  0.41064892094E+02  0.00000000000E+00 0. -1.
          1    1    1    2  502    0 -0.20470366489E+02 -0.63004304986E+01 -0.56721791815E+03  0.56762214368E+03  0.00000000000E+00 0. -1.
</event>
<event>
 4    1  0.3555026E+003  0.2152451E+02  0.7546771E-02  0.1511906E+00
          2   -1    0    0  502    0  0.00000000000E+00  0.00000000000E+00  0.22305514505E+03  0.22305514505E+03  0.00000000000E+00 0.  1.
          1   -1    0    0  501    0 -0.00000000000E+00 -0.00000000000E+00 -0.22749354790E+01  0.22749354790E+01  0.00000000000E+00 0.  1.
          2    1    1    2  501    0  0.12934527166E+02 -0.17204718999E+02  0.14361578732E+03  0.14521982893E+03  0.00000000000E+00 0.  1.
          1    1    1    2  502    0 -0.12934527166E+02  0.17204718999E+02  0.77164422258E+02  0.80110251599E+02  0.00000000000E+00 0.  1.
</event>
<event>
 4    1  0.3555026E+003  0.4675642E+02  0.7546771E-02  0.1312883E+00
          2   -1    0    0  502    0  0.00000000000E+00  0.00000000000E+00  0.88104850184E+03  0.88104850184E+03  0.00000000000E+00 0. -1.
          1   -1    0    0  501    0 -0.00000000000E+00 -0.00000000000E+00 -0.53192222543E+02  0.53192222543E+02  0.00000000000E+00 0.  1.
          2    1    1    2  501    0  0.46552285381E+02  0.43643523936E+01  0.87002323561E+03  0.87127871163E+03  0.00000000000E+00 0. -1.
          1    1    1    2  502    0 -0.46552285381E+02 -0.43643523936E+01 -0.42166956307E+02  0.62962012755E+02  0.00000000000E+00 0.  1.
</event>
<event>
 4    1  0.3555026E+003  0.3377881E+02  0.7546771E-02  0.1389358E+00
          2   -1    0    0  502    0  0.00000000000E+00  0.00000000000E+00  0.55017406283E+01  0.55017406283E+01  0.00000000000E+00 0.  1.
          1   -1    0    0  501    0 -0.00000000000E+00 -0.00000000000E+00 -0.21369920561E+03  0.21369920561E+03  0.00000000000E+00 0. -1.
          2    1    1    2  501    0  0.20703582105E+02 -0.26690233514E+02 -0.12293057267E+03  0.12748698982E+03  0.00000000000E+00 0.  1.
          1    1    1    2  502    0 -0.20703582105E+02  0.26690233514E+02 -0.85266892311E+02  0.91713956415E+02  0.00000000000E+00 0. -1.
</event>
<event>
 4    1  0.3555026E+003  0.3883848E+02  0.7546771E-02  0.1355430E+00
          2   -1    0    0  502    0  0.00000000000E+00  0.00000000000E+00  0.11324831193E+04  0.11324831193E+04  0.00000000000E+00 0.  1.
          1   -1    0    0  501    0 -0.00000000000E+00 -0.00000000000E+00 -0.38985723964E+01  0.38985723964E+01  0.00000000000E+00 0.  1.
          2    1    1    2  501    0 -0.33489840830E+02  0.19668699426E+02  0.10253137995E+04  0.10260491288E+04  0.00000000000E+00 0.  1.
          1    1    1    2  502    0  0.33489840830E+02 -0.19668699426E+02  0.10327074742E+03  0.11033256296E+03  0.00000000000E+00 0.  1.
</event>
<event>
 4    1  0.3555026E+003  0.2903642E+02  0.7546771E-02  0.1428159E+00
          2   -1    0    0  502    0  0.00000000000E+00  0.00000000000E+00  0.72578324434E+03  0.72578324434E+03  0.00000000000E+00 0. -1.
          1   -1    0    0  501    0 -0.00000000000E+00 -0.00000000000E+00 -0.28978279123E+01  0.28978279123E+01  0.00000000000E+00 0.  1.
          2    1    1    2  501    0 -0.93373108084E+01  0.27494147843E+02  0.64345434547E+03  0.64410915863E+03  0.00000000000E+00 0. -1.
          1    1    1    2  502    0  0.93373108084E+01 -0.27494147843E+02  0.79431070964E+02  0.84571913620E+02  0.00000000000E+00 0.  1.
</event>
<event>
 4    1  0.3555026E+003  0.2797186E+02  0.7546771E-02  0.1438082E+00
          2   -1    0    0  502    0  0.00000000000E+00  0.00000000000E+00  0.10968036834E+04  0.10968036834E+04  0.00000000000E+00 0. -1.
          1   -1    0    0  501    0 -0.00000000000E+00 -0.00000000000E+00 -0.80640437078E+00  0.80640437078E+00  0.00000000000E+00 0. -1.
          2    1    1    2  501    0 -0.14578997319E+02  0.23872113956E+02  0.73440782968E+03  0.73494032771E+03  0.00000000000E+00 0. -1.
          1    1    1    2  502    0  0.14578997319E+02 -0.23872113956E+02  0.36158944933E+03  0.36266976004E+03  0.00000000000E+00 0. -1.
</event>
<event>
 4    1  0.3555026E+003  0.2069143E+02  0.7546771E-02  0.1523716E+00
          2   -1    0    0  502    0  0.00000000000E+00  0.00000000000E+00  0.24277650408E+01  0.24277650408E+01  0.00000000000E+00 0.  1.
          1   -1    0    0  501    0 -0.00000000000E+00 -0.00000000000E+00 -0.27064604397E+03  0.27064604397E+03  0.00000000000E+00 0.  1.
          2    1    1    2  501    0  0.52834876149E+01 -0.20005494338E+02 -0.21470211664E+03  0.21569685658E+03  0.00000000000E+00 0.  1.
          1    1    1    2  502    0 -0.52834876149E+01  0.20005494338E+02 -0.53516162289E+02  0.57376952439E+02  0.00000000000E+00 0.  1.
</event>
<event>
 4    1  0.3555026E+003  0.5056863E+02  0.7546771E-02  0.1295726E+00
          2   -1    0    0  502    0  0.00000000000E+00  0.00000000000E+00  0.59846317869E+02  0.59846317869E+02  0.00000000000E+00 0.  1.
          1   -1    0    0  501    0 -0.00000000000E+00 -0.00000000000E+00 -0.79993727749E+02  0.79993727749E+02  0.00000000000E+00 0. -1.
          2    1    1    2  501    0  0.46019944648E+02 -0.20960692072E+02  0.37648592457E+02  0.63044448063E+02  0.00000000000E+00 0.  1.
          1    1    1    2  502    0 -0.46019944648E+02  0.20960692072E+02 -0.57796002338E+02  0.76795597555E+02  0.00000000000E+00 0. -1.
</event>
<event>
 4    1  0.3555026E+003  0.2550758E+02  0.7546771E-02  0.1463205E+00
          2   -1    0    0  502    0  0.00000000000E+00  0.00000000000E+00  0.60201717206E+01  0.60201717206E+01  0.00000000000E+00 0.  1.
          1   -1    0    0  501    0 -0.00000000000E+00 -0.00000000000E+00 -0.16878192725E+03  0.16878192725E+03  0.00000000000E+00 0. -1.
          2    1    1    2  501    0  0.17502799690E+01  0.25447454715E+02 -0.28964257395E+02  0.38594878389E+02  0.00000000000E+00 0.  1.
          1    1    1    2  502    0 -0.17502799690E+01 -0.25447454715E+02 -0.13379749813E+03  0.13620722058E+03  0.00000000000E+00 0. -1.
</event>
<event>
 4    1  0.3555026E+003  0.2779463E+02  0.7546771E-02  0.1439785E+00
          2   -1    0    0  502    0  0.00000000000E+00  0.00000000000E+00  0.14862180317E+04  0.14862180317E+04  0.00000000000E+00 0. -1.
          1   -1    0    0  501    0 -0.00000000000E+00 -0.00000000000E+00 -0.55110291174E+01  0.55110291174E+01  0.00000000000E+00 0. -1.
          2    1    1    2  501    0 -0.12508079817E+02  0.24821146932E+02  0.14501718163E+04  0.14504381539E+04  0.00000000000E+00 0. -1.
          1    1    1    2  502    0  0.12508079817E+02 -0.24821146932E+02  0.30535186286E+02  0.41290906956E+02  0.00000000000E+00 0. -1.
</event>
<event>
 4    1  0.3555026E+003  0.2426847E+02  0.7546771E-02  0.1477156E+00
          2   -1    0    0  502    0  0.00000000000E+00  0.00000000000E+00  0.17151162329E+04  0.17151162329E+04  0.00000000000E+00 0. -1.
          1   -1    0    0  501    0 -0.00000000000E+00 -0.00000000000E+00 -0.19391744311E+01  0.19391744311E+01  0.00000000000E+00 0. -1.
          2    1    1    2  501    0  0.24193620488E+02 -0.19045657871E+01  0.16354004681E+04  0.16355805238E+04  0.00000000000E+00 0. -1.
          1    1    1    2  502    0 -0.24193620488E+02  0.19045657871E+01  0.77776590336E+02  0.81474883538E+02  0.00000000000E+00 0. -1.
</event>
<event>
 4    1  0.3555026E+003  0.2221949E+02  0.7546771E-02  0.1502539E+00
          2   -1    0    0  502    0  0.00000000000E+00  0.00000000000E+00  0.14496431150E+03  0.14496431150E+03  0.00000000000E+00 0.  1.
          1   -1    0    0  501    0 -0.00000000000E+00 -0.00000000000E+00 -0.14034143100E+02  0.14034143100E+02  0.00000000000E+00 0.  1.
          2    1    1    2  501    0  0.85803714623E+01 -0.20495922788E+02  0.13464892823E+03  0.13646992159E+03  0.00000000000E+00 0.  1.
          1    1    1    2  502    0 -0.85803714623E+01  0.20495922788E+02 -0.37187598205E+01  0.22528533019E+02  0.00000000000E+00 0.  1.
</event>
<event>
 4    1  0.3555026E+003  0.5749357E+02  0.7546771E-02  0.1268595E+00
          2   -1    0    0  502    0  0.00000000000E+00  0.00000000000E+00  0.32903512149E+03  0.32903512149E+03  0.00000000000E+00 0. -1.
          1   -1    0    0  501    0 -0.00000000000E+00 -0.00000000000E+00 -0.11171665815E+03  0.11171665815E+03  0.00000000000E+00 0. -1.
          2    1    1    2  501    0 -0.52110000184E+02 -0.24291109513E+02  0.31889314635E+03  0.32403448722E+03  0.00000000000E+00 0. -1.
          1    1    1    2  502    0  0.52110000184E+02  0.24291109513E+02 -0.10157468301E+03  0.11671729242E+03  0.00000000000E+00 0. -1.
</event>
<event>
 4    1  0.3555026E+003  0.2261105E+02  0.7546771E-02  0.1497441E+00
          2   -1    0    0  502    0  0.00000000000E+00  0.00000000000E+00  0.57795294456E+03  0.57795294456E+03  0.00000000000E+00 0.  1.
          1   -1    0    0  501    0 -0.00000000000E+00 -0.00000000000E+00 -0.52025232258E+01  0.52025232258E+01  0.00000000000E+00 0.  1.
          2    1    1    2  501    0 -0.18107932348E+01  0.22538420917E+02  0.55200978916E+03  0.55247268413E+03  0.00000000000E+00 0.  1.
          1    1    1    2  502    0  0.18107932348E+01 -0.22538420917E+02  0.20740632181E+02  0.30682783656E+02  0.00000000000E+00 0.  1.
</event>
<event>
 4    1  0.3555026E+003  0.2583746E+02  0.7546771E-02  0.1459649E+00
          2   -1    0    0  502    0  0.00000000000E+00  0.00000000000E+00  0.23390604608E+03  0.23390604608E+03  0.00000000000E+00 0.  1.
          1   -1    0    0  501    0 -0.00000000000E+00 -0.00000000000E+00 -0.81459143293E+02  0.81459143293E+02  0.00000000000E+00 0.  1.
          2    1    1    2  501    0 -0.20426264082E+02  0.15822198481E+02  0.23111910984E+03  0.23255884666E+03  0.00000000000E+00 0.  1.
          1    1    1    2  502    0  0.20426264082E+02 -0.15822198481E+02 -0.78672207056E+02  0.82806342705E+02  0.00000000000E+00 0.  1.
</event>
<event>
 4    1  0.3555026E+003  0.3425327E+02  0.7546771E-02  0.1385890E+00
          2   -1    0    0  502    0  0.00000000000E+00  0.00000000000E+00  0.33549855044E+03  0.33549855044E+03  0.00000000000E+00 0. -1.
          1   -1    0    0  501    0 -0.00000000000E+00 -0.00000000000E+00 -0.34992783755E+01  0.34992783755E+01  0.00000000000E+00 0. -1.
          2    1    1    2  501    0 -0.88645066825E+01 -0.33086353148E+02  0.17018722878E+03  0.17360005497E+03  0.00000000000E+00 0. -1.
          1    1    1    2  502    0  0.88645066825E+01  0.33086353148E+02  0.16181204328E+03  0.16539777384E+03  0.00000000000E+00 0. -1.
</event>
<event>
 4    1  0.3555026E+003  0.8845831E+02  0.7546771E-02  0.1185466E+00
          2   -1    0    0  502    0  0.00000000000E+00  0.00000000000E+00  0.30844602432E+01  0.30844602432E+01  0.00000000000E+00 0.  1.
          1   -1    0    0  501    0 -0.00000000000E+00 -0.00000000000E+00 -0.30218051138E+04  0.30218051138E+04  0.00000000000E+00 0.  1.
          2    1    1    2  501    0 -0.46654773909E+02 -0.75154544239E+02 -0.90347798538E+03  0.90779807420E+03  0.00000000000E+00 0.  1.
          1    1    1    2  502    0  0.46654773909E+02  0.75154544239E+02 -0.21152426681E+04  0.21170914998E+04  0.00000000000E+00 0.  1.
</event>
<event>
 4    1  0.3555026E+003  0.2011088E+02  0.7546771E-02  0.1532347E+00
          2   -1    0    0  502    0  0.00000000000E+00  0.00000000000E+00  0.57742784810E+01  0.57742784810E+01  0.00000000000E+00 0.  1.
          1   -1    0    0  501    0 -0.00000000000E+00 -0.00000000000E+00 -0.64907404598E+03  0.64907404598E+03  0.00000000000E+00 0.  1.
          2    1    1    2  501    0 -0.12008361256E+02  0.16132167290E+02 -0.12396441204E+02  0.23624549012E+02  0.00000000000E+00 0.  1.
          1    1    1    2  502    0  0.12008361256E+02 -0.16132167290E+02 -0.63090332630E+03  0.63122377545E+03  0.00000000000E+00 0.  1.
</event>
<event>
 4    1  0.3555026E+003  0.2087036E+02  0.7546771E-02  0.1521124E+00
          2   -1    0    0  502    0  0.00000000000E+00  0.00000000000E+00  0.43557941392E+02  0.43557941392E+02  0.00000000000E+00 0. -1.
          1   -1    0    0  501    0 -0.00000000000E+00 -0.00000000000E+00 -0.18730067822E+02  0.18730067822E+02  0.00000000000E+00 0.  1.
          2    1    1    2  501    0 -0.11883042275E+02 -0.17157080050E+02  0.33676605433E+02  0.39619261011E+02  0.00000000000E+00 0. -1.
          1    1    1    2  502    0  0.11883042275E+02  0.17157080050E+02 -0.88487318629E+01  0.22668748204E+02  0.00000000000E+00 0.  1.
</event>
<event>
 4    1  0.3555026E+003  0.3684852E+02  0.7546771E-02  0.1368013E+00
          2   -1    0    0  502    0  0.00000000000E+00  0.00000000000E+00  0.40739974424E+03  0.40739974424E+03  0.00000000000E+00 0.  1.
          1   -1    0    0  501    0 -0.00000000000E+00 -0.00000000000E+00 -0.74550207868E+03  0.74550207868E+03  0.00000000000E+00 0.  1.
          2    1    1    2  501    0  0.32478307642E+02 -0.17406119477E+02  0.40610974621E+03  0.40777805168E+03  0.00000000000E+00 0.  1.
          1    1    1    2  502    0 -0.32478307642E+02  0.17406119477E+02 -0.74421208066E+03  0.74512377123E+03  0.00000000000E+00 0.  1.
</event>
<event>
 4    1  0.3555026E+003  0.3501168E+02  0.7546771E-02  0.1380481E+00
          2   -1    0    0  502    0  0.00000000000E+00  0.00000000000E+00  0.16074691366E+03  0.16074691366E+03  0.00000000000E+00 0. -1.
          1   -1    0    0  501    0 -0.00000000000E+00 -0.00000000000E+00 -0.12579719241E+03  0.12579719241E+03  0.00000000000E+00 0.  1.
          2    1    1    2  501    0 -0.86312521861E+01  0.33931100351E+02  0.15633648841E+03  0.16020897507E+03  0.00000000000E+00 0. -1.
          1    1    1    2  502    0  0.86312521861E+01 -0.33931100351E+02 -0.12138676716E+03  0.12633513101E+03  0.00000000000E+00 0.  1.
</event>
<event>
 4    1  0.3555026E+003  0.2263156E+02  0.7546771E-02  0.1497177E+00
          2   -1    0    0  502    0  0.00000000000E+00  0.00000000000E+00  0.55349935897E+02  0.55349935897E+02  0.00000000000E+00 0.  1.
          1   -1    0    0  501    0 -0.00000000000E+00 -0.00000000000E+00 -0.25237272515E+03  0.25237272515E+03  0.00000000000E+00 0.  1.
          2    1    1    2  501    0  0.10037851576E+02 -0.20283715101E+02  0.52502815236E+02  0.57172835947E+02  0.00000000000E+00 0.  1.
          1    1    1    2  502    0 -0.10037851576E+02  0.20283715101E+02 -0.24952560448E+03  0.25054982510E+03  0.00000000000E+00 0.  1.
</event>
<event>
 4    1  0.3555026E+003  0.2258613E+02  0.7546771E-02  0.1497761E+00
          2   -1    0    0  502    0  0.00000000000E+00  0.00000000000E+00  0.85559968373E+03  0.85559968373E+03  0.00000000000E+00 0. -1.
          1   -1    0    0  501    0 -0.00000000000E+00 -0.00000000000E+00 -0.10137225927E+01  0.10137225927E+01  0.00000000000E+00 0.  1.
          2    1    1    2  501    0 -0.91733066965E+00 -0.22567498644E+02  0.70215841363E+03  0.70252158068E+03  0.00000000000E+00 0. -1.
          1    1    1    2  502    0  0.91733066965E+00  0.22567498644E+02  0.15242754751E+03  0.15409182564E+03  0.00000000000E+00 0.  1.
</event>
<event>
 4    1  0.3555026E+003  0.3384507E+02  0.7546771E-02  0.1388870E+00
          2   -1    0    0  502    0  0.00000000000E+00  0.00000000000E+00  0.22539392275E+02  0.22539392275E+02  0.00000000000E+00 0.  1.
          1   -1    0    0  501    0 -0.00000000000E+00 -0.00000000000E+00 -0.65930025633E+02  0.65930025633E+02  0.00000000000E+00 0. -1.
          2    1    1    2  501    0 -0.14038200271E+01 -0.33815942213E+02 -0.51996051194E+00  0.33849062282E+02  0.00000000000E+00 0.  1.
          1    1    1    2  502    0  0.14038200271E+01  0.33815942213E+02 -0.42870672846E+02  0.54620355626E+02  0.00000000000E+00 0. -1.
</event>
<event>
 4    1  0.3555026E+003  0.2261172E+02  0.7546771E-02  0.1497432E+00
          2   -1    0    0  502    0  0.00000000000E+00  0.00000000000E+00  0.23175092594E+02  0.23175092594E+02  0.00000000000E+00 0.  1.
          1   -1    0    0  501    0 -0.00000000000E+00 -0.00000000000E+00 -0.59871621480E+02  0.59871621480E+02  0.00000000000E+00 0.  1.
          2    1    1    2  501    0  0.33486734094E+01 -0.22362387487E+02  0.14649372586E+02  0.26942422030E+02  0.00000000000E+00 0.  1.
          1    1    1    2  502    0 -0.33486734094E+01  0.22362387487E+02 -0.51345901472E+02  0.56104292043E+02  0.00000000000E+00 0.  1.
</event>
<event>
 4    1  0.3555026E+003  0.2527870E+02  0.7546771E-02  0.1465710E+00
          2   -1    0    0  502    0  0.00000000000E+00  0.00000000000E+00  0.18615650325E+03  0.18615650325E+03  0.00000000000E+00 0.  1.
          1   -1    0    0  501    0 -0.00000000000E+00 -0.00000000000E+00 -0.17231808265E+03  0.17231808265E+03  0.00000000000E+00 0.  1.
          2    1    1    2  501    0  0.16297537342E+02 -0.19323632289E+02  0.18436227439E+03  0.18608723950E+03  0.00000000000E+00 0.  1.
          1    1    1    2  502    0 -0.16297537342E+02  0.19323632289E+02 -0.17052385379E+03  0.17238734640E+03  0.00000000000E+00 0.  1.
</event>
<event>
 4    1  0.3555026E+003  0.2140058E+02  0.7546771E-02  0.1513622E+00
          2   -1    0    0  502    0  0.00000000000E+00  0.00000000000E+00  0.29099802949E+01  0.29099802949E+01  0.00000000000E+00 0. -1.
          1   -1    0    0  501    0 -0.00000000000E+00 -0.00000000000E+00 -0.23199351400E+03  0.23199351400E+03  0.00000000000E+00 0.  1.
          2    1    1    2  501    0 -0.21009380124E+02 -0.40731613046E+01 -0.47935006944E+02  0.52495233945E+02  0.00000000000E+00 0. -1.
          1    1    1    2  502    0  0.21009380124E+02  0.40731613046E+01 -0.18114852676E+03  0.18240826035E+03  0.00000000000E+00 0.  1.
</event>
<event>
 4    1  0.3555026E+003  0.2212146E+02  0.7546771E-02  0.1503835E+00
          2   -1    0    0  502    0  0.00000000000E+00  0.00000000000E+00  0.15366307966E+04  0.15366307966E+04  0.00000000000E+00 0.  1.
          1   -1    0    0  501    0 -0.00000000000E+00 -0.00000000000E+00 -0.20694775702E+03  0.20694775702E+03  0.00000000000E+00 0. -1.
          2    1    1    2  501    0  0.19263133731E+02 -0.10876148350E+02  0.15359597604E+04  0.15361190529E+04  0.00000000000E+00 0.  1.
          1    1    1    2  502    0 -0.19263133731E+02  0.10876148350E+02 -0.20627672081E+03  0.20745950080E+03  0.00000000000E+00 0. -1.
</event>
<event>
 4    1  0.3555026E+003  0.3565523E+02  0.7546771E-02  0.1376014E+00
          2   -1    0    0  502    0  0.00000000000E+00  0.00000000000E+00  0.19524073533E+04  0.19524073533E+04  0.00000000000E+00 0. -1.
          1   -1    0    0  501    0 -0.00000000000E+00 -0.00000000000E+00 -0.96569070806E+00  0.96569070806E+00  0.00000000000E+00 0. -1.
          2    1    1    2  501    0 -0.35118057997E+02  0.61658363736E+01  0.15331372156E+04  0.15335517654E+04  0.00000000000E+00 0. -1.
          1    1    1    2  502    0  0.35118057997E+02 -0.61658363736E+01  0.41830444709E+03  0.41982127863E+03  0.00000000000E+00 0. -1.
</event>
<event>
 4    1  0.3555026E+003  0.2025737E+02  0.7546771E-02  0.1530137E+00
          2   -1    0    0  502    0  0.00000000000E+00  0.00000000000E+00  0.47201616686E+02  0.47201616686E+02  0.00000000000E+00 0.  1.
          1   -1    0    0  501    0 -0.00000000000E+00 -0.00000000000E+00 -0.10717150104E+02  0.10717150104E+02  0.00000000000E+00 0. -1.
          2    1    1    2  501    0 -0.19642940268E+02 -0.49513537507E+01  0.30825288478E+02  0.36885761699E+02  0.00000000000E+00 0.  1.
          1    1    1    2  502    0  0.19642940268E+02  0.49513537507E+01  0.56591781039E+01  0.21033005091E+02  0.00000000000E+00 0. -1.
</event>
<event>
 4    1  0.3555026E+003  0.2072392E+02  0.7546771E-02  0.1523243E+00
          2   -1    0    0  502    0  0.00000000000E+00  0.00000000000E+00  0.11695021402E+04  0.11695021402E+04  0.00000000000E+00 0. -1.
          1   -1    0    0  501    0 -0.00000000000E+00 -0.00000000000E+00 -0.15062744062E+03  0.15062744062E+03  0.00000000000E+00 0.  1.
          2    1    1    2  501    0 -0.19940730220E+02  0.56434072173E+01  0.11686970211E+04  0.11688807501E+04  0.00000000000E+00 0. -1.
          1    1    1    2  502    0  0.19940730220E+02 -0.56434072173E+01 -0.14982232153E+03  0.15124883073E+03  0.00000000000E+00 0.  1.
</event>
<event>
 4    1  0.3555026E+003  0.4292404E+02  0.7546771E-02  0.1332153E+00
          2   -1    0    0  502    0  0.00000000000E+00  0.00000000000E+00  0.15074102540E+03  0.15074102540E+03  0.00000000000E+00 0. -1.
          1   -1    0    0  501    0 -0.00000000000E+00 -0.00000000000E+00 -0.13262986370E+03  0.13262986370E+03  0.00000000000E+00 0.  1.
          2    1    1    2  501    0 -0.33790561270E+02  0.26470188057E+02  0.14405459977E+03  0.15031367404E+03  0.00000000000E+00 0. -1.
          1    1    1    2  502    0  0.33790561270E+02 -0.26470188057E+02 -0.12594343807E+03  0.13305721506E+03  0.00000000000E+00 0.  1.
</event>
<event>
 4    1  0.3555026E+003  0.2237310E+02  0.7546771E-02  0.1500524E+00
          2   -1    0    0  502    0  0.00000000000E+00  0.00000000000E+00  0.26212670370E+03  0.26212670370E+03  0.00000000000E+00 0. -1.
          1   -1    0    0  501    0 -0.00000000000E+00 -0.00000000000E+00 -0.13522734852E+02  0.13522734852E+02  0.00000000000E+00 0. -1.
          2    1    1    2  501    0  0.18560396120E+02  0.12492692068E+02  0.25202515515E+03  0.25301627317E+03  0.00000000000E+00 0. -1.
          1    1    1    2  502    0 -0.18560396120E+02 -0.12492692068E+02 -0.34211863090E+01  0.22633165377E+02  0.00000000000E+00 0. -1.
</event>
<event>
 4    1  0.3555026E+003  0.3546994E+02  0.7546771E-02  0.1377289E+00
          2   -1    0    0  502    0  0.00000000000E+00  0.00000000000E+00  0.15578894441E+03  0.15578894441E+03  0.00000000000E+00 0. -1.
          1   -1    0    0  501    0 -0.00000000000E+00 -0.00000000000E+00 -0.64869991471E+02  0.64869991471E+02  0.00000000000E+00 0.  1.
          2    1    1    2  501    0  0.19797238475E+02  0.29431042178E+02  0.14869321351E+03  0.15286526303E+03  0.00000000000E+00 0. -1.
          1    1    1    2  502    0 -0.19797238475E+02 -0.29431042178E+02 -0.57774260572E+02  0.67793672858E+02  0.00000000000E+00 0.  1.
</event>
<event>
 4    1  0.3555026E+003  0.3147872E+02  0.7546771E-02  0.1407167E+00
          2   -1    0    0  502    0  0.00000000000E+00  0.00000000000E+00  0.10209293151E+04  0.10209293151E+04  0.00000000000E+00 0.  1.
          1   -1    0    0  501    0 -0.00000000000E+00 -0.00000000000E+00 -0.85166775237E+01  0.85166775237E+01  0.00000000000E+00 0. -1.
          2    1    1    2  501    0 -0.86815656481E+01  0.30257892499E+02  0.99071239060E+03  0.99121236399E+03  0.00000000000E+00 0.  1.
          1    1    1    2  502    0  0.86815656481E+01 -0.30257892499E+02  0.21700247007E+02  0.38233628663E+02  0.00000000000E+00 0. -1.
</event>
<event>
 4    1  0.3555026E+003  0.2936129E+02  0.7546771E-02  0.1425229E+00
          2   -1    0    0  502    0  0.00000000000E+00  0.00000000000E+00  0.11035504344E+03  0.11035504344E+03  0.00000000000E+00 0.  1.
          1   -1    0    0  501    0 -0.00000000000E+00 -0.00000000000E+00 -0.12478610269E+03  0.12478610269E+03  0.00000000000E+00 0.  1.
          2    1    1    2  501    0 -0.25048157083E+02  0.15319112494E+02  0.10661546326E+03  0.11058454859E+03  0.00000000000E+00 0.  1.
          1    1    1    2  502    0  0.25048157083E+02 -0.15319112494E+02 -0.12104652250E+03  0.12455659754E+03  0.00000000000E+00 0.  1.
</event>
<event>
 4    1  0.3555026E+003  0.2254457E+02  0.7546771E-02  0.1498298E+00
          2   -1    0    0  502    0  0.00000000000E+00  0.00000000000E+00  0.56606950258E+01  0.56606950258E+01  0.00000000000E+00 0. -1.
          1   -1    0    0  501    0 -0.00000000000E+00 -0.00000000000E+00 -0.29018806592E+03  0.29018806592E+03  0.00000000000E+00 0. -1.
          2    1    1    2  501    0  0.19213904730E+02 -0.11793366080E+02 -0.19335959777E+02  0.29700790545E+02  0.00000000000E+00 0. -1.
          1    1    1    2  502    0 -0.19213904730E+02  0.11793366080E+02 -0.26519141112E+03  0.26614797040E+03  0.00000000000E+00 0. -1.
</event>
<event>
 4    1  0.3555026E+003  0.2263197E+02  0.7546771E-02  0.1497172E+00
          2   -1    0    0  502    0  0.00000000000E+00  0.00000000000E+00  0.35215742043E+02  0.35215742043E+02  0.00000000000E+00 0.  1.
          1   -1    0    0  501    0 -0.00000000000E+00 -0.00000000000E+00 -0.20194291352E+02  0.20194291352E+02  0.00000000000E+00 0.  1.
          2    1    1    2  501    0 -0.10666092246E+01 -0.22606823596E+02  0.22164467969E+02  0.31677590955E+02  0.00000000000E+00 0.  1.
          1    1    1    2  502    0  0.10666092246E+01  0.22606823596E+02 -0.71430172785E+01  0.23732442440E+02  0.00000000000E+00 0.  1.
</event>
<event>
 4    1  0.3555026E+003  0.3743355E+02  0.7546771E-02  0.1364219E+00
          2   -1    0    0  502    0  0.00000000000E+00  0.00000000000E+00  0.53170805353E+03  0.53170805353E+03  0.00000000000E+00 0. -1.
          1   -1    0    0  501    0 -0.00000000000E+00 -0.00000000000E+00 -0.31529017389E+01  0.31529017389E+01  0.00000000000E+00 0. -1.
          2    1    1    2  501    0  0.80169617710E+01 -0.36564992793E+02  0.37262188098E+03  0.37449744533E+03  0.00000000000E+00 0. -1.
          1    1    1    2  502    0 -0.80169617710E+01  0.36564992793E+02  0.15593327081E+03  0.16036350994E+03  0.00000000000E+00 0. -1.
</event>
<event>
 4    1  0.3555026E+003  0.2335287E+02  0.7546771E-02  0.1488114E+00
          2   -1    0    0  502    0  0.00000000000E+00  0.00000000000E+00  0.93089482288E+02  0.93089482288E+02  0.00000000000E+00 0. -1.
          1   -1    0    0  501    0 -0.00000000000E+00 -0.00000000000E+00 -0.16762401473E+03  0.16762401473E+03  0.00000000000E+00 0. -1.
          2    1    1    2  501    0  0.20894030934E+02  0.10430538195E+02  0.90791256849E+02  0.93746514473E+02  0.00000000000E+00 0. -1.
          1    1    1    2  502    0 -0.20894030934E+02 -0.10430538195E+02 -0.16532578929E+03  0.16696698255E+03  0.00000000000E+00 0. -1.
</event>
<event>
 4    1  0.3555026E+003  0.2170617E+02  0.7546771E-02  0.1509417E+00
          2   -1    0    0  502    0  0.00000000000E+00  0.00000000000E+00  0.64288923686E+02  0.64288923686E+02  0.00000000000E+00 0. -1.
          1   -1    0    0  501    0 -0.00000000000E+00 -0.00000000000E+00 -0.38408033933E+02  0.38408033933E+02  0.00000000000E+00 0. -1.
          2    1    1    2  501    0  0.17988180977E+02  0.12148385385E+02  0.59130873740E+02  0.62989031994E+02  0.00000000000E+00 0. -1.
          1    1    1    2  502    0 -0.17988180977E+02 -0.12148385385E+02 -0.33249983987E+02  0.39707925625E+02  0.00000000000E+00 0. -1.
</event>
<event>
 4    1  0.3555026E+003  0.6258704E+02  0.7546771E-02  0.1251287E+00
          2   -1    0    0  502    0  0.00000000000E+00  0.00000000000E+00  0.47817218112E+03  0.47817218112E+03  0.00000000000E+00 0.  1.
          1   -1    0    0  501    0 -0.00000000000E+00 -0.00000000000E+00 -0.88901571804E+02  0.88901571804E+02  0.00000000000E+00 0.  1.
          2    1    1    2  501    0  0.10963129461E+02  0.61619377125E+02  0.46479317643E+03  0.46898809655E+03  0.00000000000E+00 0.  1.
          1    1    1    2  502    0 -0.10963129461E+02 -0.61619377125E+02 -0.75522567111E+02  0.98085656382E+02  0.00000000000E+00 0.  1.
</event>
<event>
 4    1  0.3555026E+003  0.2332216E+02  0.7546771E-02  0.1488492E+00
          2   -1    0    0  502    0  0.00000000000E+00  0.00000000000E+00  0.17545040496E+03  0.17545040496E+03  0.00000000000E+00 0.  1.
          1   -1    0    0  501    0 -0.00000000000E+00 -0.00000000000E+00 -0.32445650133E+01  0.32445650133E+01  0.00000000000E+00 0.  1.
          2    1    1    2  501    0  0.20945664725E+02  0.10256781765E+02  0.67252918945E+02  0.71182002989E+02  0.00000000000E+00 0.  1.
          1    1    1    2  502    0 -0.20945664725E+02 -0.10256781765E+02  0.10495292101E+03  0.10751296699E+03  0.00000000000E+00 0.  1.
</event>
<event>
 4    1  0.3555026E+003  0.3251034E+02  0.7546771E-02  0.1398965E+00
          2   -1    0    0  502    0  0.00000000000E+00  0.00000000000E+00  0.55784541090E+03  0.55784541090E+03  0.00000000000E+00 0. -1.
          1   -1    0    0  501    0 -0.00000000000E+00 -0.00000000000E+00 -0.36512588815E+01  0.36512588815E+01  0.00000000000E+00 0. -1.
          2    1    1    2  501    0  0.77114842064E+01 -0.31582513812E+02  0.47182728655E+03  0.47294599110E+03  0.00000000000E+00 0. -1.
          1    1    1    2  502    0 -0.77114842064E+01  0.31582513812E+02  0.82366865470E+02  0.88550678680E+02  0.00000000000E+00 0. -1.
</event>
<event>
 4    1  0.3555026E+003  0.2485118E+02  0.7546771E-02  0.1470475E+00
          2   -1    0    0  502    0  0.00000000000E+00  0.00000000000E+00  0.22503145170E+02  0.22503145170E+02  0.00000000000E+00 0. -1.
          1   -1    0    0  501    0 -0.00000000000E+00 -0.00000000000E+00 -0.11881208260E+04  0.11881208260E+04  0.00000000000E+00 0. -1.
          2    1    1    2  501    0  0.24328861265E+02 -0.50683011999E+01  0.15471297998E+02  0.29273575615E+02  0.00000000000E+00 0. -1.
          1    1    1    2  502    0 -0.24328861265E+02  0.50683011999E+01 -0.11810889789E+04  0.11813503956E+04  0.00000000000E+00 0. -1.
</event>
<event>
 4    1  0.3555026E+003  0.3340057E+02  0.7546771E-02  0.1392170E+00
          2   -1    0    0  502    0  0.00000000000E+00  0.00000000000E+00  0.24343379727E+01  0.24343379727E+01  0.00000000000E+00 0. -1.
          1   -1    0    0  501    0 -0.00000000000E+00 -0.00000000000E+00 -0.60086050876E+03  0.60086050876E+03  0.00000000000E+00 0. -1.
          2    1    1    2  501    0  0.24314908743E+02 -0.22899412355E+02 -0.15226989705E+03  0.15589008763E+03  0.00000000000E+00 0. -1.
          1    1    1    2  502    0 -0.24314908743E+02  0.22899412355E+02 -0.44615627374E+03  0.44740475911E+03  0.00000000000E+00 0. -1.
</event>
<event>
 4    1  0.3555026E+003  0.2478744E+02  0.7546771E-02  0.1471195E+00
          2   -1    0    0  502    0  0.00000000000E+00  0.00000000000E+00  0.12529603458E+03  0.12529603458E+03  0.00000000000E+00 0.  1.
          1   -1    0    0  501    0 -0.00000000000E+00 -0.00000000000E+00 -0.10058854856E+02  0.10058854856E+02  0.00000000000E+00 0.  1.
          2    1    1    2  501    0 -0.30462575566E+01 -0.24599543858E+02  0.10606811278E+03  0.10892594637E+03  0.00000000000E+00 0.  1.
          1    1    1    2  502    0  0.30462575566E+01  0.24599543858E+02  0.91690669433E+01  0.26428943068E+02  0.00000000000E+00 0.  1.
</event>
<event>
 4    1  0.3555026E+003  0.2408045E+02  0.7546771E-02  0.1479359E+00
          2   -1    0    0  502    0  0.00000000000E+00  0.00000000000E+00  0.17080674826E+04  0.17080674826E+04  0.00000000000E+00 0. -1.
          1   -1    0    0  501    0 -0.00000000000E+00 -0.00000000000E+00 -0.34171533500E+00  0.34171533500E+00  0.00000000000E+00 0. -1.
          2    1    1    2  501    0  0.22633630404E+02 -0.82211167126E+01  0.92283076486E+03  0.92314489034E+03  0.00000000000E+00 0. -1.
          1    1    1    2  502    0 -0.22633630404E+02  0.82211167126E+01  0.78489500239E+03  0.78526430758E+03  0.00000000000E+00 0. -1.
</event>
<event>
 4    1  0.3555026E+003  0.4095398E+02  0.7546771E-02  0.1342984E+00
          2   -1    0    0  502    0  0.00000000000E+00  0.00000000000E+00  0.21097791703E+04  0.21097791703E+04  0.00000000000E+00 0.  1.
          1   -1    0    0  501    0 -0.00000000000E+00 -0.00000000000E+00 -0.26888664501E+01  0.26888664501E+01  0.00000000000E+00 0.  1.
          2    1    1    2  501    0 -0.15354501813E+02  0.37966661717E+02  0.19399920544E+04  0.19404242833E+04  0.00000000000E+00 0.  1.
          1    1    1    2  502    0  0.15354501813E+02 -0.37966661717E+02  0.16709824941E+03  0.17204375340E+03  0.00000000000E+00 0.  1.
</event>
<event>
 4    1  0.3555026E+003  0.2194538E+02  0.7546771E-02  0.1506183E+00
          2   -1    0    0  502    0  0.00000000000E+00  0.00000000000E+00  0.20882932154E+02  0.20882932154E+02  0.00000000000E+00 0.  1.
          1   -1    0    0  501    0 -0.00000000000E+00 -0.00000000000E+00 -0.13984755318E+03  0.13984755318E+03  0.00000000000E+00 0. -1.
          2    1    1    2  501    0  0.14056549505E+02 -0.16852689639E+02  0.13958185854E+02  0.26008281073E+02  0.00000000000E+00 0.  1.
          1    1    1    2  502    0 -0.14056549505E+02  0.16852689639E+02 -0.13292280688E+03  0.13472220426E+03  0.00000000000E+00 0. -1.
</event>
<event>
 4    1  0.3555026E+003  0.2535423E+02  0.7546771E-02  0.1464879E+00
          2   -1    0    0  502    0  0.00000000000E+00  0.00000000000E+00  0.62033721620E+03  0.62033721620E+03  0.00000000000E+00 0. -1.
          1   -1    0    0  501    0 -0.00000000000E+00 -0.00000000000E+00 -0.23685728808E+03  0.23685728808E+03  0.00000000000E+00 0. -1.
          2    1    1    2  501    0  0.12607352716E+02 -0.21997538975E+02  0.61939861413E+03  0.61991731727E+03  0.00000000000E+00 0. -1.
          1    1    1    2  502    0 -0.12607352716E+02  0.21997538975E+02 -0.23591868601E+03  0.23727718701E+03  0.00000000000E+00 0. -1.
</event>
<event>
 4    1  0.3555026E+003  0.4190932E+02  0.7546771E-02  0.1337646E+00
          2   -1    0    0  502    0  0.00000000000E+00  0.00000000000E+00  0.25968184419E+04  0.25968184419E+04  0.00000000000E+00 0.  1.
          1   -1    0    0  501    0 -0.00000000000E+00 -0.00000000000E+00 -0.19345221631E+03  0.19345221631E+03  0.00000000000E+00 0.  1.
          2    1    1    2  501    0  0.35248907996E+02  0.22669489884E+02  0.25943774158E+04  0.25947158933E+04  0.00000000000E+00 0.  1.
          1    1    1    2  502    0 -0.35248907996E+02 -0.22669489884E+02 -0.19101119023E+03  0.19555476491E+03  0.00000000000E+00 0.  1.
</event>
<event>
 4    1  0.3555026E+003  0.2696227E+02  0.7546771E-02  0.1447988E+00
          2   -1    0    0  502    0  0.00000000000E+00  0.00000000000E+00  0.16869614851E+02  0.16869614851E+02  0.00000000000E+00 0.  1.
          1   -1    0    0  501    0 -0.00000000000E+00 -0.00000000000E+00 -0.10782521464E+03  0.10782521464E+03  0.00000000000E+00 0.  1.
          2    1    1    2  501    0  0.49170956276E+01 -0.26510111053E+02  0.28301067013E+01  0.27110391391E+02  0.00000000000E+00 0.  1.
          1    1    1    2  502    0 -0.49170956276E+01  0.26510111053E+02 -0.93785706489E+02  0.97584438099E+02  0.00000000000E+00 0.  1.
</event>
<event>
 4    1  0.3555026E+003  0.2499825E+02  0.7546771E-02  0.1468823E+00
          2   -1    0    0  502    0  0.00000000000E+00  0.00000000000E+00  0.10959775665E+04  0.10959775665E+04  0.00000000000E+00 0.  1.
          1   -1    0    0  501    0 -0.00000000000E+00 -0.00000000000E+00 -0.74063199854E+01  0.74063199854E+01  0.00000000000E+00 0.  1.
          2    1    1    2  501    0 -0.13413194462E+02 -0.21094989229E+02  0.10743158673E+04  0.10746066699E+04  0.00000000000E+00 0.  1.
          1    1    1    2  502    0  0.13413194462E+02  0.21094989229E+02  0.14255379248E+02  0.28777216574E+02  0.00000000000E+00 0.  1.
</event>
<event>
 4    1  0.5405719E+003  0.2189611E+02  0.7546771E-02  0.1506845E+00
          2   -1    0    0  502    0  0.00000000000E+00  0.00000000000E+00  0.14346758358E+04  0.14346758358E+04  0.00000000000E+00 0.  1.
          1   -1    0    0  501    0 -0.00000000000E+00 -0.00000000000E+00 -0.46288202003E+03  0.46288202003E+03  0.00000000000E+00 0.  1.
          2    1    1    2  501    0  0.16895372590E+02 -0.13927884491E+02  0.14343332864E+04  0.14345004064E+04  0.00000000000E+00 0.  1.
          1    1    1    2  502    0 -0.16895372590E+02  0.13927884491E+02 -0.46253947062E+03  0.46305744942E+03  0.00000000000E+00 0.  1.
</event>
<event>
 4    1  0.3555026E+003  0.6736809E+02  0.7546771E-02  0.1236663E+00
          2   -1    0    0  502    0  0.00000000000E+00  0.00000000000E+00  0.12408913950E+03  0.12408913950E+03  0.00000000000E+00 0. -1.
          1   -1    0    0  501    0 -0.00000000000E+00 -0.00000000000E+00 -0.32561483532E+03  0.32561483532E+03  0.00000000000E+00 0. -1.
          2    1    1    2  501    0  0.45293549931E+02 -0.49869369881E+02  0.11108502031E+03  0.12991667120E+03  0.00000000000E+00 0. -1.
          1    1    1    2  502    0 -0.45293549931E+02  0.49869369881E+02 -0.31261071613E+03  0.31978730363E+03  0.00000000000E+00 0. -1.
</event>
<event>
 4    1  0.3555026E+003  0.3585872E+02  0.7546771E-02  0.1374625E+00
          2   -1    0    0  502    0  0.00000000000E+00  0.00000000000E+00  0.65708780801E+02  0.65708780801E+02  0.00000000000E+00 0. -1.
          1   -1    0    0  501    0 -0.00000000000E+00 -0.00000000000E+00 -0.23456443362E+02  0.23456443362E+02  0.00000000000E+00 0. -1.
          2    1    1    2  501    0 -0.19194119374E+02  0.30289146457E+02  0.29762907656E+01  0.35982008259E+02  0.00000000000E+00 0. -1.
          1    1    1    2  502    0  0.19194119374E+02 -0.30289146457E+02  0.39276046673E+02  0.53183215904E+02  0.00000000000E+00 0. -1.
</event>
<event>
 4    1  0.3555026E+003  0.4335951E+02  0.7546771E-02  0.1329849E+00
          2   -1    0    0  502    0  0.00000000000E+00  0.00000000000E+00  0.48442139867E+03  0.48442139867E+03  0.00000000000E+00 0.  1.
          1   -1    0    0  501    0 -0.00000000000E+00 -0.00000000000E+00 -0.68847705644E+02  0.68847705644E+02  0.00000000000E+00 0. -1.
          2    1    1    2  501    0 -0.33440487457E+02 -0.27600379037E+02  0.47651121867E+03  0.47847987277E+03  0.00000000000E+00 0.  1.
          1    1    1    2  502    0  0.33440487457E+02  0.27600379037E+02 -0.60937525642E+02  0.74789231549E+02  0.00000000000E+00 0. -1.
</event>
<event>
 4    1  0.3555026E+003  0.3235532E+02  0.7546771E-02  0.1400175E+00
          2   -1    0    0  502    0  0.00000000000E+00  0.00000000000E+00  0.79003975808E+02  0.79003975808E+02  0.00000000000E+00 0. -1.
          1   -1    0    0  501    0 -0.00000000000E+00 -0.00000000000E+00 -0.17866820717E+02  0.17866820717E+02  0.00000000000E+00 0. -1.
          2    1    1    2  501    0  0.22779544623E+02 -0.22977363912E+02  0.55187696166E+02  0.63973031144E+02  0.00000000000E+00 0. -1.
          1    1    1    2  502    0 -0.22779544623E+02  0.22977363912E+02  0.59494589247E+01  0.32897765381E+02  0.00000000000E+00 0. -1.
</event>
<event>
 4    1  0.3555026E+003  0.4940673E+02  0.7546771E-02  0.1300765E+00
          2   -1    0    0  502    0  0.00000000000E+00  0.00000000000E+00  0.11008372611E+03  0.11008372611E+03  0.00000000000E+00 0.  1.
          1   -1    0    0  501    0 -0.00000000000E+00 -0.00000000000E+00 -0.18601242745E+03  0.18601242745E+03  0.00000000000E+00 0. -1.
          2    1    1    2  501    0 -0.15873090759E+02  0.46787497805E+02  0.10097950081E+03  0.11241834612E+03  0.00000000000E+00 0.  1.
          1    1    1    2  502    0  0.15873090759E+02 -0.46787497805E+02 -0.17690820215E+03  0.18367780745E+03  0.00000000000E+00 0. -1.
</event>
<event>
 4    1  0.3555026E+003  0.2591445E+02  0.7546771E-02  0.1458828E+00
          2   -1    0    0  502    0  0.00000000000E+00  0.00000000000E+00  0.15797365161E+04  0.15797365161E+04  0.00000000000E+00 0.  1.
          1   -1    0    0  501    0 -0.00000000000E+00 -0.00000000000E+00 -0.28125017905E+03  0.28125017905E+03  0.00000000000E+00 0.  1.
          2    1    1    2  501    0  0.16916066063E+02  0.19631742441E+02  0.15790330326E+04  0.15792456669E+04  0.00000000000E+00 0.  1.
          1    1    1    2  502    0 -0.16916066063E+02 -0.19631742441E+02 -0.28054669553E+03  0.28174102821E+03  0.00000000000E+00 0.  1.
</event>
<event>
 4    1  0.3555026E+003  0.3323027E+02  0.7546771E-02  0.1393451E+00
          2   -1    0    0  502    0  0.00000000000E+00  0.00000000000E+00  0.17630448837E+04  0.17630448837E+04  0.00000000000E+00 0.  1.
          1   -1    0    0  501    0 -0.00000000000E+00 -0.00000000000E+00 -0.12048940854E+02  0.12048940854E+02  0.00000000000E+00 0.  1.
          2    1    1    2  501    0 -0.23014895012E+02 -0.23970101433E+02  0.17396686705E+04  0.17399860155E+04  0.00000000000E+00 0.  1.
          1    1    1    2  502    0  0.23014895012E+02  0.23970101433E+02  0.11327272349E+02  0.35107809017E+02  0.00000000000E+00 0.  1.
</event>
<event>
 4    1  0.3555026E+003  0.2081960E+02  0.7546771E-02  0.1521856E+00
          2   -1    0    0  502    0  0.00000000000E+00  0.00000000000E+00  0.18176425450E+04  0.18176425450E+04  0.00000000000E+00 0.  1.
          1   -1    0    0  501    0 -0.00000000000E+00 -0.00000000000E+00 -0.32690016154E+00  0.32690016154E+00  0.00000000000E+00 0.  1.
          2    1    1    2  501    0 -0.15491355424E+02 -0.13909482938E+02  0.13814232670E+04  0.13815801455E+04  0.00000000000E+00 0.  1.
          1    1    1    2  502    0  0.15491355424E+02  0.13909482938E+02  0.43589237782E+03  0.43638929965E+03  0.00000000000E+00 0.  1.
</event>
<event>
 4    1  0.3555026E+003  0.6050008E+02  0.7546771E-02  0.1258143E+00
          2   -1    0    0  502    0  0.00000000000E+00  0.00000000000E+00  0.95788371039E+02  0.95788371039E+02  0.00000000000E+00 0.  1.
          1   -1    0    0  501    0 -0.00000000000E+00 -0.00000000000E+00 -0.38434179129E+02  0.38434179129E+02  0.00000000000E+00 0.  1.
          2    1    1    2  501    0  0.33770010104E+01  0.60405756760E+02  0.33780335340E+02  0.69291923348E+02  0.00000000000E+00 0.  1.
          1    1    1    2  502    0 -0.33770010104E+01 -0.60405756760E+02  0.23573856570E+02  0.64930626820E+02  0.00000000000E+00 0.  1.
</event>
<event>
 4    1  0.3555026E+003  0.3322515E+02  0.7546771E-02  0.1393489E+00
          2   -1    0    0  502    0  0.00000000000E+00  0.00000000000E+00  0.15923126445E+03  0.15923126445E+03  0.00000000000E+00 0. -1.
          1   -1    0    0  501    0 -0.00000000000E+00 -0.00000000000E+00 -0.60812161839E+03  0.60812161839E+03  0.00000000000E+00 0. -1.
          2    1    1    2  501    0  0.24762312619E+02 -0.22152614581E+02  0.15703798841E+03  0.16051429925E+03  0.00000000000E+00 0. -1.
          1    1    1    2  502    0 -0.24762312619E+02  0.22152614581E+02 -0.60592834236E+03  0.60683858359E+03  0.00000000000E+00 0. -1.
</event>
<event>
 4    1  0.3555026E+003  0.2080766E+02  0.7546771E-02  0.1522029E+00
          2   -1    0    0  502    0  0.00000000000E+00  0.00000000000E+00  0.54308399761E+00  0.54308399761E+00  0.00000000000E+00 0. -1.
          1   -1    0    0  501    0 -0.00000000000E+00 -0.00000000000E+00 -0.79850437350E+03  0.79850437350E+03  0.00000000000E+00 0.  1.
          2    1    1    2  501    0  0.19650606452E+02 -0.68419432926E+01 -0.38297004123E+03  0.38353488890E+03  0.00000000000E+00 0. -1.
          1    1    1    2  502    0 -0.19650606452E+02  0.68419432926E+01 -0.41499124827E+03  0.41551256860E+03  0.00000000000E+00 0.  1.
</event>
<event>
 4    1  0.3555026E+003  0.2708460E+02  0.7546771E-02  0.1446760E+00
          2   -1    0    0  502    0  0.00000000000E+00  0.00000000000E+00  0.16631454385E+04  0.16631454385E+04  0.00000000000E+00 0.  1.
          1   -1    0    0  501    0 -0.00000000000E+00 -0.00000000000E+00 -0.17299107465E+01  0.17299107465E+01  0.00000000000E+00 0.  1.
          2    1    1    2  501    0 -0.25962335508E+02 -0.77157578112E+01  0.15492267849E+04  0.15494635223E+04  0.00000000000E+00 0.  1.
          1    1    1    2  502    0  0.25962335508E+02  0.77157578112E+01  0.11218874283E+03  0.11541182696E+03  0.00000000000E+00 0.  1.
</event>
<event>
 4    1  0.3555026E+003  0.2107904E+02  0.7546771E-02  0.1518139E+00
          2   -1    0    0  502    0  0.00000000000E+00  0.00000000000E+00  0.20299298616E+03  0.20299298616E+03  0.00000000000E+00 0. -1.
          1   -1    0    0  501    0 -0.00000000000E+00 -0.00000000000E+00 -0.20685068744E+02  0.20685068744E+02  0.00000000000E+00 0. -1.
          2    1    1    2  501    0  0.12345455793E+02  0.17085536029E+02  0.19691022426E+03  0.19803525504E+03  0.00000000000E+00 0. -1.
          1    1    1    2  502    0 -0.12345455793E+02 -0.17085536029E+02 -0.14602306839E+02  0.25642799869E+02  0.00000000000E+00 0. -1.
</event>
<event>
 4    1  0.3555026E+003  0.2486146E+02  0.7546771E-02  0.1470359E+00
          2   -1    0    0  502    0  0.00000000000E+00  0.00000000000E+00  0.30450463408E+03  0.30450463408E+03  0.00000000000E+00 0. -1.
          1   -1    0    0  501    0 -0.00000000000E+00 -0.00000000000E+00 -0.79314025838E+01  0.79314025838E+01  0.00000000000E+00 0.  1.
          2    1    1    2  501    0 -0.96576276883E+01 -0.22909004168E+02  0.28304011496E+03  0.28412989797E+03  0.00000000000E+00 0. -1.
          1    1    1    2  502    0  0.96576276883E+01  0.22909004168E+02  0.13533116537E+02  0.28306138693E+02  0.00000000000E+00 0.  1.
</event>
<event>
 4    1  0.3555026E+003  0.5060833E+02  0.7546771E-02  0.1295556E+00
          2   -1    0    0  502    0  0.00000000000E+00  0.00000000000E+00  0.53504490582E+02  0.53504490582E+02  0.00000000000E+00 0. -1.
          1   -1    0    0  501    0 -0.00000000000E+00 -0.00000000000E+00 -0.61154389594E+02  0.61154389594E+02  0.00000000000E+00 0. -1.
          2    1    1    2  501    0 -0.20149810501E+02 -0.46424001735E+02  0.22896016071E+02  0.55546650235E+02  0.00000000000E+00 0. -1.
          1    1    1    2  502    0  0.20149810501E+02  0.46424001735E+02 -0.30545915083E+02  0.59112229941E+02  0.00000000000E+00 0. -1.
</event>
<event>
 4    1  0.3555026E+003  0.2423464E+02  0.7546771E-02  0.1477551E+00
          2   -1    0    0  502    0  0.00000000000E+00  0.00000000000E+00  0.10360787180E+01  0.10360787180E+01  0.00000000000E+00 0.  1.
          1   -1    0    0  501    0 -0.00000000000E+00 -0.00000000000E+00 -0.18381680101E+04  0.18381680101E+04  0.00000000000E+00 0.  1.
          2    1    1    2  501    0 -0.17957452104E+01 -0.24168021651E+02 -0.15379451951E+03  0.15569223553E+03  0.00000000000E+00 0.  1.
          1    1    1    2  502    0  0.17957452104E+01  0.24168021651E+02 -0.16833374119E+04  0.16835118533E+04  0.00000000000E+00 0.  1.
</event>
<event>
 4    1  0.3555026E+003  0.2761589E+02  0.7546771E-02  0.1441518E+00
          2   -1    0    0  502    0  0.00000000000E+00  0.00000000000E+00  0.14937295269E+03  0.14937295269E+03  0.00000000000E+00 0.  1.
          1   -1    0    0  501    0 -0.00000000000E+00 -0.00000000000E+00 -0.63477466603E+01  0.63477466603E+01  0.00000000000E+00 0. -1.
          2    1    1    2  501    0  0.13737818436E+02 -0.23956417046E+02  0.10595506082E+03  0.10949480575E+03  0.00000000000E+00 0.  1.
          1    1    1    2  502    0 -0.13737818436E+02  0.23956417046E+02  0.37070145203E+02  0.46225893593E+02  0.00000000000E+00 0. -1.
</event>
<event>
 4    1  0.3555026E+003  0.2104097E+02  0.7546771E-02  0.1518681E+00
          2   -1    0    0  502    0  0.00000000000E+00  0.00000000000E+00  0.14149815427E+01  0.14149815427E+01  0.00000000000E+00 0.  1.
          1   -1    0    0  501    0 -0.00000000000E+00 -0.00000000000E+00 -0.78029311999E+03  0.78029311999E+03  0.00000000000E+00 0. -1.
          2    1    1    2  501    0 -0.12526796553E+02  0.16905674052E+02 -0.86932238539E+02  0.89442364372E+02  0.00000000000E+00 0.  1.
          1    1    1    2  502    0  0.12526796553E+02 -0.16905674052E+02 -0.69194589991E+03  0.69226573716E+03  0.00000000000E+00 0. -1.
</event>
<event>
 4    1  0.3555026E+003  0.2867263E+02  0.7546771E-02  0.1431493E+00
          2   -1    0    0  502    0  0.00000000000E+00  0.00000000000E+00  0.28141721450E+03  0.28141721450E+03  0.00000000000E+00 0.  1.
          1   -1    0    0  501    0 -0.00000000000E+00 -0.00000000000E+00 -0.11201445717E+02  0.11201445717E+02  0.00000000000E+00 0.  1.
          2    1    1    2  501    0  0.67746855370E+01 -0.27860781891E+02  0.26089974334E+03  0.26247056141E+03  0.00000000000E+00 0.  1.
          1    1    1    2  502    0 -0.67746855370E+01  0.27860781891E+02  0.93160254430E+01  0.30148098809E+02  0.00000000000E+00 0.  1.
</event>
<event>
 4    1  0.3555026E+003  0.2513621E+02  0.7546771E-02  0.1467285E+00
          2   -1    0    0  502    0  0.00000000000E+00  0.00000000000E+00  0.48180780876E+03  0.48180780876E+03  0.00000000000E+00 0.  1.
          1   -1    0    0  501    0 -0.00000000000E+00 -0.00000000000E+00 -0.44035715164E+02  0.44035715164E+02  0.00000000000E+00 0.  1.
          2    1    1    2  501    0  0.24269139066E+02 -0.65450665165E+01  0.47786335182E+03  0.47852399315E+03  0.00000000000E+00 0.  1.
          1    1    1    2  502    0 -0.24269139066E+02  0.65450665165E+01 -0.40091258224E+02  0.47319530774E+02  0.00000000000E+00 0.  1.
</event>
<event>
 4    1  0.3555026E+003  0.2096514E+02  0.7546771E-02  0.1519763E+00
          2   -1    0    0  502    0  0.00000000000E+00  0.00000000000E+00  0.11352693783E+02  0.11352693783E+02  0.00000000000E+00 0. -1.
          1   -1    0    0  501    0 -0.00000000000E+00 -0.00000000000E+00 -0.50614488359E+03  0.50614488359E+03  0.00000000000E+00 0. -1.
          2    1    1    2  501    0 -0.18965787256E+02  0.89350931899E+01  0.12596075119E+01  0.21002942357E+02  0.00000000000E+00 0. -1.
          1    1    1    2  502    0  0.18965787256E+02 -0.89350931899E+01 -0.49605179732E+03  0.49649463501E+03  0.00000000000E+00 0. -1.
</event>
<event>
 4    1  0.3555026E+003  0.2982930E+02  0.7546771E-02  0.1421086E+00
          2   -1    0    0  502    0  0.00000000000E+00  0.00000000000E+00  0.15051767035E+03  0.15051767035E+03  0.00000000000E+00 0.  1.
          1   -1    0    0  501    0 -0.00000000000E+00 -0.00000000000E+00 -0.14240873779E+03  0.14240873779E+03  0.00000000000E+00 0. -1.
          2    1    1    2  501    0  0.11689201378E+01  0.29806385701E+02  0.14744554256E+03  0.15043262620E+03  0.00000000000E+00 0.  1.
          1    1    1    2  502    0 -0.11689201378E+01 -0.29806385701E+02 -0.13933661001E+03  0.14249378194E+03  0.00000000000E+00 0. -1.
</event>
<event>
 4    1  0.3555026E+003  0.4914277E+02  0.7546771E-02  0.1301932E+00
          2   -1    0    0  502    0  0.00000000000E+00  0.00000000000E+00  0.29160158281E+02  0.29160158281E+02  0.00000000000E+00 0. -1.
          1   -1    0    0  501    0 -0.00000000000E+00 -0.00000000000E+00 -0.92137411417E+02  0.92137411417E+02  0.00000000000E+00 0. -1.
          2    1    1    2  501    0 -0.46649281291E+02 -0.15454969862E+02 -0.12201038324E+02  0.50634739800E+02  0.00000000000E+00 0. -1.
          1    1    1    2  502    0  0.46649281291E+02  0.15454969862E+02 -0.50776214813E+02  0.70662829898E+02  0.00000000000E+00 0. -1.
</event>
<event>
 4    1  0.3555026E+003  0.4098586E+02  0.7546771E-02  0.1342804E+00
          2   -1    0    0  502    0  0.00000000000E+00  0.00000000000E+00  0.21084171806E+03  0.21084171806E+03  0.00000000000E+00 0.  1.
          1   -1    0    0  501    0 -0.00000000000E+00 -0.00000000000E+00 -0.22921201054E+02  0.22921201054E+02  0.00000000000E+00 0.  1.
          2    1    1    2  501    0 -0.31553588724E+02 -0.26157440199E+02  0.18836723620E+03  0.19277462570E+03  0.00000000000E+00 0.  1.
          1    1    1    2  502    0  0.31553588724E+02  0.26157440199E+02 -0.44671919486E+00  0.40988293417E+02  0.00000000000E+00 0.  1.
</event>
<event>
 4    1  0.3555026E+003  0.2507160E+02  0.7546771E-02  0.1468004E+00
          2   -1    0    0  502    0  0.00000000000E+00  0.00000000000E+00  0.86357813132E+02  0.86357813132E+02  0.00000000000E+00 0.  1.
          1   -1    0    0  501    0 -0.00000000000E+00 -0.00000000000E+00 -0.81159507754E+03  0.81159507754E+03  0.00000000000E+00 0.  1.
          2    1    1    2  501    0  0.10525664315E+02 -0.22755125543E+02  0.84339940193E+02  0.87987560822E+02  0.00000000000E+00 0.  1.
          1    1    1    2  502    0 -0.10525664315E+02  0.22755125543E+02 -0.80957720460E+03  0.80996532985E+03  0.00000000000E+00 0.  1.
</event>
<event>
 4    1  0.3555026E+003  0.3977785E+02  0.7546771E-02  0.1349793E+00
          2   -1    0    0  502    0  0.00000000000E+00  0.00000000000E+00  0.64309509092E+01  0.64309509092E+01  0.00000000000E+00 0.  1.
          1   -1    0    0  501    0 -0.00000000000E+00 -0.00000000000E+00 -0.67093989468E+03  0.67093989468E+03  0.00000000000E+00 0.  1.
          2    1    1    2  501    0  0.16133479321E+02  0.36359160562E+02 -0.62730444262E+02  0.74279111122E+02  0.00000000000E+00 0.  1.
          1    1    1    2  502    0 -0.16133479321E+02 -0.36359160562E+02 -0.60177849951E+03  0.60309173446E+03  0.00000000000E+00 0.  1.
</event>
<event>
 4    1  0.3555026E+003  0.2785340E+02  0.7546771E-02  0.1439219E+00
          2   -1    0    0  502    0  0.00000000000E+00  0.00000000000E+00  0.13324886654E+04  0.13324886654E+04  0.00000000000E+00 0. -1.
          1   -1    0    0  501    0 -0.00000000000E+00 -0.00000000000E+00 -0.39496112874E+01  0.39496112874E+01  0.00000000000E+00 0. -1.
          2    1    1    2  501    0  0.16474171154E+02 -0.22459149788E+02  0.12812736015E+04  0.12815763159E+04  0.00000000000E+00 0. -1.
          1    1    1    2  502    0 -0.16474171154E+02  0.22459149788E+02  0.47265452614E+02  0.54861960731E+02  0.00000000000E+00 0. -1.
</event>
<event>
 4    1  0.5038737E+003  0.2373120E+02  0.7546771E-02  0.1483515E+00
          2   -1    0    0  502    0  0.00000000000E+00  0.00000000000E+00  0.88164329024E+03  0.88164329024E+03  0.00000000000E+00 0.  1.
          1   -1    0    0  501    0 -0.00000000000E+00 -0.00000000000E+00 -0.80870702288E+03  0.80870702288E+03  0.00000000000E+00 0.  1.
          2    1    1    2  501    0 -0.18223399404E+02  0.15201229979E+02  0.88130943542E+03  0.88162888487E+03  0.00000000000E+00 0.  1.
          1    1    1    2  502    0  0.18223399404E+02 -0.15201229979E+02 -0.80837316805E+03  0.80872142825E+03  0.00000000000E+00 0.  1.
</event>
<event>
 4    1  0.3555026E+003  0.2028033E+02  0.7546771E-02  0.1529793E+00
          2   -1    0    0  502    0  0.00000000000E+00  0.00000000000E+00  0.69718119149E+03  0.69718119149E+03  0.00000000000E+00 0.  1.
          1   -1    0    0  501    0 -0.00000000000E+00 -0.00000000000E+00 -0.82055608086E+02  0.82055608086E+02  0.00000000000E+00 0.  1.
          2    1    1    2  501    0 -0.14273732528E+02 -0.14406682313E+02  0.69577809214E+03  0.69607359197E+03  0.00000000000E+00 0.  1.
          1    1    1    2  502    0  0.14273732528E+02  0.14406682313E+02 -0.80652508731E+02  0.83163207611E+02  0.00000000000E+00 0.  1.
</event>
<event>
 4    1  0.3555026E+003  0.3713543E+02  0.7546771E-02  0.1366142E+00
          2   -1    0    0  502    0  0.00000000000E+00  0.00000000000E+00  0.10869215249E+04  0.10869215249E+04  0.00000000000E+00 0. -1.
          1   -1    0    0  501    0 -0.00000000000E+00 -0.00000000000E+00 -0.46789797954E+02  0.46789797954E+02  0.00000000000E+00 0. -1.
          2    1    1    2  501    0 -0.36737928881E+02  0.54189222579E+01  0.10791832432E+04  0.10798219819E+04  0.00000000000E+00 0. -1.
          1    1    1    2  502    0  0.36737928881E+02 -0.54189222579E+01 -0.39051516321E+02  0.53889340912E+02  0.00000000000E+00 0. -1.
</event>
<event>
 4    1  0.3555026E+003  0.2739688E+02  0.7546771E-02  0.1443662E+00
          2   -1    0    0  502    0  0.00000000000E+00  0.00000000000E+00  0.99768239895E+02  0.99768239895E+02  0.00000000000E+00 0. -1.
          1   -1    0    0  501    0 -0.00000000000E+00 -0.00000000000E+00 -0.48165651562E+02  0.48165651562E+02  0.00000000000E+00 0. -1.
          2    1    1    2  501    0  0.27272307127E+02  0.26096765461E+01  0.93746408402E+02  0.97667692898E+02  0.00000000000E+00 0. -1.
          1    1    1    2  502    0 -0.27272307127E+02 -0.26096765461E+01 -0.42143820068E+02  0.50266198560E+02  0.00000000000E+00 0. -1.
</event>
<event>
 4    1  0.3555026E+003  0.3511213E+02  0.7546771E-02  0.1379777E+00
          2   -1    0    0  502    0  0.00000000000E+00  0.00000000000E+00  0.20233868929E+01  0.20233868929E+01  0.00000000000E+00 0. -1.
          1   -1    0    0  501    0 -0.00000000000E+00 -0.00000000000E+00 -0.10660658362E+04  0.10660658362E+04  0.00000000000E+00 0. -1.
          2    1    1    2  501    0 -0.29773183909E+02  0.18612346527E+02 -0.18245501644E+03  0.18580283891E+03  0.00000000000E+00 0. -1.
          1    1    1    2  502    0  0.29773183909E+02 -0.18612346527E+02 -0.88158743286E+03  0.88228638417E+03  0.00000000000E+00 0. -1.
</event>
<event>
 4    1  0.3555026E+003  0.5037587E+02  0.7546771E-02  0.1296551E+00
          2   -1    0    0  502    0  0.00000000000E+00  0.00000000000E+00  0.78490322336E+03  0.78490322336E+03  0.00000000000E+00 0. -1.
          1   -1    0    0  501    0 -0.00000000000E+00 -0.00000000000E+00 -0.58532585944E+03  0.58532585944E+03  0.00000000000E+00 0.  1.
          2    1    1    2  501    0  0.32557847423E+00  0.50374820002E+02  0.78300841410E+03  0.78462723955E+03  0.00000000000E+00 0. -1.
          1    1    1    2  502    0 -0.32557847423E+00 -0.50374820002E+02 -0.58343105019E+03  0.58560184325E+03  0.00000000000E+00 0.  1.
</event>
<event>
 4    1  0.3555026E+003  0.3406806E+02  0.7546771E-02  0.1387236E+00
          2   -1    0    0  502    0  0.00000000000E+00  0.00000000000E+00  0.43960278912E+03  0.43960278912E+03  0.00000000000E+00 0. -1.
          1   -1    0    0  501    0 -0.00000000000E+00 -0.00000000000E+00 -0.42764472409E+03  0.42764472409E+03  0.00000000000E+00 0.  1.
          2    1    1    2  501    0 -0.11029003209E+02  0.32233431984E+02  0.43826216720E+03  0.43958430392E+03  0.00000000000E+00 0. -1.
          1    1    1    2  502    0  0.11029003209E+02 -0.32233431984E+02 -0.42630410218E+03  0.42766320929E+03  0.00000000000E+00 0.  1.
</event>
<event>
 4    1  0.3555026E+003  0.2345518E+02  0.7546771E-02  0.1486860E+00
          2   -1    0    0  502    0  0.00000000000E+00  0.00000000000E+00  0.44062594572E+02  0.44062594572E+02  0.00000000000E+00 0. -1.
          1   -1    0    0  501    0 -0.00000000000E+00 -0.00000000000E+00 -0.17210335562E+02  0.17210335562E+02  0.00000000000E+00 0. -1.
          2    1    1    2  501    0  0.21082920344E+02  0.10278902607E+02  0.29478360836E+02  0.37671197574E+02  0.00000000000E+00 0. -1.
          1    1    1    2  502    0 -0.21082920344E+02 -0.10278902607E+02 -0.26261018256E+01  0.23601732560E+02  0.00000000000E+00 0. -1.
</event>
<event>
 4    1  0.3555026E+003  0.2148182E+02  0.7546771E-02  0.1512496E+00
          2   -1    0    0  502    0  0.00000000000E+00  0.00000000000E+00  0.15347507472E+02  0.15347507472E+02  0.00000000000E+00 0. -1.
          1   -1    0    0  501    0 -0.00000000000E+00 -0.00000000000E+00 -0.40853951345E+02  0.40853951345E+02  0.00000000000E+00 0. -1.
          2    1    1    2  501    0  0.40245855844E+01 -0.21101449411E+02  0.16855517804E+01  0.21547843075E+02  0.00000000000E+00 0. -1.
          1    1    1    2  502    0 -0.40245855844E+01  0.21101449411E+02 -0.27191995654E+02  0.34653615742E+02  0.00000000000E+00 0. -1.
</event>
<event>
 4    1  0.3555026E+003  0.2008158E+02  0.7546771E-02  0.1532792E+00
          2   -1    0    0  502    0  0.00000000000E+00  0.00000000000E+00  0.48301578768E+03  0.48301578768E+03  0.00000000000E+00 0.  1.
          1   -1    0    0  501    0 -0.00000000000E+00 -0.00000000000E+00 -0.33828253646E+02  0.33828253646E+02  0.00000000000E+00 0. -1.
          2    1    1    2  501    0 -0.12178383246E+02 -0.15967370612E+02  0.47980686483E+03  0.48022692291E+03  0.00000000000E+00 0.  1.
          1    1    1    2  502    0  0.12178383246E+02  0.15967370612E+02 -0.30619330799E+02  0.36617118420E+02  0.00000000000E+00 0. -1.
</event>
<event>
 4    1  0.3555026E+003  0.2047782E+02  0.7546771E-02  0.1526852E+00
          2   -1    0    0  502    0  0.00000000000E+00  0.00000000000E+00  0.33392298190E+02  0.33392298190E+02  0.00000000000E+00 0. -1.
          1   -1    0    0  501    0 -0.00000000000E+00 -0.00000000000E+00 -0.15985801316E+02  0.15985801316E+02  0.00000000000E+00 0. -1.
          2    1    1    2  501    0  0.18840171280E+02  0.80242905016E+01  0.20135807428E+02  0.28719192758E+02  0.00000000000E+00 0. -1.
          1    1    1    2  502    0 -0.18840171280E+02 -0.80242905016E+01 -0.27293105538E+01  0.20658906748E+02  0.00000000000E+00 0. -1.
</event>
<event>
 4    1  0.3555026E+003  0.2053870E+02  0.7546771E-02  0.1525954E+00
          2   -1    0    0  502    0  0.00000000000E+00  0.00000000000E+00  0.10815302977E+04  0.10815302977E+04  0.00000000000E+00 0.  1.
          1   -1    0    0  501    0 -0.00000000000E+00 -0.00000000000E+00 -0.70162361488E+01  0.70162361488E+01  0.00000000000E+00 0.  1.
          2    1    1    2  501    0  0.77841008778E+01 -0.19006468754E+02  0.10661857018E+04  0.10663835093E+04  0.00000000000E+00 0.  1.
          1    1    1    2  502    0 -0.77841008778E+01  0.19006468754E+02  0.83283596724E+01  0.22163024518E+02  0.00000000000E+00 0.  1.
</event>
<event>
 4    1  0.3555026E+003  0.2132940E+02  0.7546771E-02  0.1514614E+00
          2   -1    0    0  502    0  0.00000000000E+00  0.00000000000E+00  0.30309347637E+03  0.30309347637E+03  0.00000000000E+00 0. -1.
          1   -1    0    0  501    0 -0.00000000000E+00 -0.00000000000E+00 -0.66428816891E+01  0.66428816891E+01  0.00000000000E+00 0. -1.
          2    1    1    2  501    0  0.17212238287E+02  0.12596904868E+02  0.28447795861E+03  0.28527644854E+03  0.00000000000E+00 0. -1.
          1    1    1    2  502    0 -0.17212238287E+02 -0.12596904868E+02  0.11972636075E+02  0.24459909519E+02  0.00000000000E+00 0. -1.
</event>
<event>
 4    1  0.3561442E+003  0.4521328E+02  0.7546771E-02  0.1320376E+00
          2   -1    0    0  502    0  0.00000000000E+00  0.00000000000E+00  0.17402103587E+04  0.17402103587E+04  0.00000000000E+00 0. -1.
          1   -1    0    0  501    0 -0.00000000000E+00 -0.00000000000E+00 -0.88938378975E+03  0.88938378975E+03  0.00000000000E+00 0.  1.
          2    1    1    2  501    0  0.12122659722E+02 -0.43557794619E+02  0.17393417719E+04  0.17399293203E+04  0.00000000000E+00 0. -1.
          1    1    1    2  502    0 -0.12122659722E+02  0.43557794619E+02 -0.88851520298E+03  0.88966482806E+03  0.00000000000E+00 0.  1.
</event>
<event>
 4    1  0.3555026E+003  0.2433070E+02  0.7546771E-02  0.1476432E+00
          2   -1    0    0  502    0  0.00000000000E+00  0.00000000000E+00  0.15975106503E+01  0.15975106503E+01  0.00000000000E+00 0.  1.
          1   -1    0    0  501    0 -0.00000000000E+00 -0.00000000000E+00 -0.87827422849E+03  0.87827422849E+03  0.00000000000E+00 0. -1.
          2    1    1    2  501    0 -0.10675919297E+02 -0.21863384241E+02 -0.10384963090E+03  0.10666174882E+03  0.00000000000E+00 0.  1.
          1    1    1    2  502    0  0.10675919297E+02  0.21863384241E+02 -0.77282708693E+03  0.77320999031E+03  0.00000000000E+00 0. -1.
</event>
<event>
 4    1  0.3555026E+003  0.2287535E+02  0.7546771E-02  0.1494069E+00
          2   -1    0    0  502    0  0.00000000000E+00  0.00000000000E+00  0.71928449548E+02  0.71928449548E+02  0.00000000000E+00 0.  1.
          1   -1    0    0  501    0 -0.00000000000E+00 -0.00000000000E+00 -0.90585224534E+01  0.90585224534E+01  0.00000000000E+00 0. -1.
          2    1    1    2  501    0  0.72375400507E+01  0.21700218260E+02  0.49402660281E+02  0.54441751454E+02  0.00000000000E+00 0.  1.
          1    1    1    2  502    0 -0.72375400507E+01 -0.21700218260E+02  0.13467266813E+02  0.26545220548E+02  0.00000000000E+00 0. -1.
</event>
<event>
 4    1  0.3555026E+003  0.2319758E+02  0.7546771E-02  0.1490032E+00
          2   -1    0    0  502    0  0.00000000000E+00  0.00000000000E+00  0.12790575908E+04  0.12790575908E+04  0.00000000000E+00 0. -1.
          1   -1    0    0  501    0 -0.00000000000E+00 -0.00000000000E+00 -0.37989755408E+02  0.37989755408E+02  0.00000000000E+00 0.  1.
          2    1    1    2  501    0 -0.13203119901E+02 -0.19073680435E+02  0.12754009900E+04  0.12756119367E+04  0.00000000000E+00 0. -1.
          1    1    1    2  502    0  0.13203119901E+02  0.19073680435E+02 -0.34333154598E+02  0.41435409557E+02  0.00000000000E+00 0.  1.
</event>
<event>
 4    1  0.3555026E+003  0.2556183E+02  0.7546771E-02  0.1462615E+00
          2   -1    0    0  502    0  0.00000000000E+00  0.00000000000E+00  0.98620986707E+01  0.98620986707E+01  0.00000000000E+00 0. -1.
          1   -1    0    0  501    0 -0.00000000000E+00 -0.00000000000E+00 -0.14746833598E+03  0.14746833598E+03  0.00000000000E+00 0. -1.
          2    1    1    2  501    0 -0.10452293315E+02  0.23327165757E+02 -0.10425183949E+02  0.27606005835E+02  0.00000000000E+00 0. -1.
          1    1    1    2  502    0  0.10452293315E+02 -0.23327165757E+02 -0.12718105336E+03  0.12972442881E+03  0.00000000000E+00 0. -1.
</event>
<event>
 4    1  0.3555026E+003  0.2125895E+02  0.7546771E-02  0.1515600E+00
          2   -1    0    0  502    0  0.00000000000E+00  0.00000000000E+00  0.42533697276E+03  0.42533697276E+03  0.00000000000E+00 0. -1.
          1   -1    0    0  501    0 -0.00000000000E+00 -0.00000000000E+00 -0.28096278817E+01  0.28096278817E+01  0.00000000000E+00 0.  1.
          2    1    1    2  501    0  0.20426781503E+02  0.58897998966E+01  0.38007199031E+03  0.38066607540E+03  0.00000000000E+00 0. -1.
          1    1    1    2  502    0 -0.20426781503E+02 -0.58897998966E+01  0.42455354575E+02  0.47480525245E+02  0.00000000000E+00 0.  1.
</event>
<event>
 4    1  0.3555026E+003  0.5564886E+02  0.7546771E-02  0.1275379E+00
          2   -1    0    0  502    0  0.00000000000E+00  0.00000000000E+00  0.76180603212E+03  0.76180603212E+03  0.00000000000E+00 0.  1.
          1   -1    0    0  501    0 -0.00000000000E+00 -0.00000000000E+00 -0.79528445755E+02  0.79528445755E+02  0.00000000000E+00 0. -1.
          2    1    1    2  501    0 -0.39733701451E+02 -0.38961885447E+02  0.75091388407E+03  0.75297307843E+03  0.00000000000E+00 0.  1.
          1    1    1    2  502    0  0.39733701451E+02  0.38961885447E+02 -0.68636297708E+02  0.88361399443E+02  0.00000000000E+00 0. -1.
</event>
<event>
 4    1  0.3555026E+003  0.2387998E+02  0.7546771E-02  0.1481734E+00
          2   -1    0    0  502    0  0.00000000000E+00  0.00000000000E+00  0.95526657942E+03  0.95526657942E+03  0.00000000000E+00 0. -1.
          1   -1    0    0  501    0 -0.00000000000E+00 -0.00000000000E+00 -0.19286814969E+01  0.19286814969E+01  0.00000000000E+00 0. -1.
          2    1    1    2  501    0  0.23060765599E+02 -0.62011560636E+01  0.87436149538E+03  0.87468753155E+03  0.00000000000E+00 0. -1.
          1    1    1    2  502    0 -0.23060765599E+02  0.62011560636E+01  0.78976402540E+02  0.82507729363E+02  0.00000000000E+00 0. -1.
</event>
<event>
 4    1  0.3555026E+003  0.3477059E+02  0.7546771E-02  0.1382183E+00
          2   -1    0    0  502    0  0.00000000000E+00  0.00000000000E+00  0.15327013612E+03  0.15327013612E+03  0.00000000000E+00 0.  1.
          1   -1    0    0  501    0 -0.00000000000E+00 -0.00000000000E+00 -0.84326708458E+01  0.84326708458E+01  0.00000000000E+00 0.  1.
          2    1    1    2  501    0  0.33142386555E+01 -0.34612258683E+02  0.51870343183E+02  0.62446177873E+02  0.00000000000E+00 0.  1.
          1    1    1    2  502    0 -0.33142386555E+01  0.34612258683E+02  0.92967122095E+02  0.99256629097E+02  0.00000000000E+00 0.  1.
</event>
<event>
 4    1  0.3555026E+003  0.4738867E+02  0.7546771E-02  0.1309909E+00
          2   -1    0    0  502    0  0.00000000000E+00  0.00000000000E+00  0.23707439210E+03  0.23707439210E+03  0.00000000000E+00 0.  1.
          1   -1    0    0  501    0 -0.00000000000E+00 -0.00000000000E+00 -0.27017618333E+02  0.27017618333E+02  0.00000000000E+00 0.  1.
          2    1    1    2  501    0  0.87061833887E+01 -0.46582064088E+02  0.21143777144E+03  0.21668321928E+03  0.00000000000E+00 0.  1.
          1    1    1    2  502    0 -0.87061833887E+01  0.46582064088E+02 -0.13809976781E+01  0.47408791152E+02  0.00000000000E+00 0.  1.
</event>
<event>
 4    1  0.5039149E+003  0.2718343E+02  0.7546771E-02  0.1445774E+00
          2   -1    0    0  502    0  0.00000000000E+00  0.00000000000E+00  0.68953932434E+03  0.68953932434E+03  0.00000000000E+00 0. -1.
          1   -1    0    0  501    0 -0.00000000000E+00 -0.00000000000E+00 -0.10301747618E+04  0.10301747618E+04  0.00000000000E+00 0.  1.
          2    1    1    2  501    0  0.19355894601E+02  0.19086331517E+02  0.68909197405E+03  0.68962793404E+03  0.00000000000E+00 0. -1.
          1    1    1    2  502    0 -0.19355894601E+02 -0.19086331517E+02 -0.10297274115E+04  0.10300861521E+04  0.00000000000E+00 0.  1.
</event>
<event>
 4    1  0.3555026E+003  0.2255145E+02  0.7546771E-02  0.1498209E+00
          2   -1    0    0  502    0  0.00000000000E+00  0.00000000000E+00  0.36666598567E+03  0.36666598567E+03  0.00000000000E+00 0.  1.
          1   -1    0    0  501    0 -0.00000000000E+00 -0.00000000000E+00 -0.44152966917E+01  0.44152966917E+01  0.00000000000E+00 0. -1.
          2    1    1    2  501    0 -0.17135713064E+02  0.14660672742E+02  0.33478429943E+03  0.33554298552E+03  0.00000000000E+00 0.  1.
          1    1    1    2  502    0  0.17135713064E+02 -0.14660672742E+02  0.27466389545E+02  0.35538296837E+02  0.00000000000E+00 0. -1.
</event>
<event>
 4    1  0.3555026E+003  0.2294071E+02  0.7546771E-02  0.1493244E+00
          2   -1    0    0  502    0  0.00000000000E+00  0.00000000000E+00  0.62682238215E+02  0.62682238215E+02  0.00000000000E+00 0.  1.
          1   -1    0    0  501    0 -0.00000000000E+00 -0.00000000000E+00 -0.70778855396E+02  0.70778855396E+02  0.00000000000E+00 0.  1.
          2    1    1    2  501    0  0.54578754573E+01 -0.22282010116E+02  0.58599480058E+02  0.62929924855E+02  0.00000000000E+00 0.  1.
          1    1    1    2  502    0 -0.54578754573E+01  0.22282010116E+02 -0.66696097238E+02  0.70531168756E+02  0.00000000000E+00 0.  1.
</event>
<event>
 4    1  0.3555026E+003  0.2431264E+02  0.7546771E-02  0.1476642E+00
          2   -1    0    0  502    0  0.00000000000E+00  0.00000000000E+00  0.72374642223E+03  0.72374642223E+03  0.00000000000E+00 0. -1.
          1   -1    0    0  501    0 -0.00000000000E+00 -0.00000000000E+00 -0.84097335247E+01  0.84097335247E+01  0.00000000000E+00 0.  1.
          2    1    1    2  501    0 -0.23759242243E+02 -0.51577791387E+01  0.70551629642E+03  0.70593508823E+03  0.00000000000E+00 0. -1.
          1    1    1    2  502    0  0.23759242243E+02  0.51577791387E+01  0.98203922858E+01  0.26221067527E+02  0.00000000000E+00 0.  1.
</event>
<event>
 4    1  0.3555026E+003  0.4292273E+02  0.7546771E-02  0.1332160E+00
          2   -1    0    0  502    0  0.00000000000E+00  0.00000000000E+00  0.18701547774E+03  0.18701547774E+03  0.00000000000E+00 0.  1.
          1   -1    0    0  501    0 -0.00000000000E+00 -0.00000000000E+00 -0.41129606631E+02  0.41129606631E+02  0.00000000000E+00 0. -1.
          2    1    1    2  501    0 -0.33116250004E+02 -0.27307052379E+02  0.17242043995E+03  0.17768277698E+03  0.00000000000E+00 0.  1.
          1    1    1    2  502    0  0.33116250004E+02  0.27307052379E+02 -0.26534568836E+02  0.50462307392E+02  0.00000000000E+00 0. -1.
</event>
<event>
 4    1  0.3555026E+003  0.2047259E+02  0.7546771E-02  0.1526930E+00
          2   -1    0    0  502    0  0.00000000000E+00  0.00000000000E+00  0.24024305640E+02  0.24024305640E+02  0.00000000000E+00 0. -1.
          1   -1    0    0  501    0 -0.00000000000E+00 -0.00000000000E+00 -0.12266210803E+03  0.12266210803E+03  0.00000000000E+00 0. -1.
          2    1    1    2  501    0  0.88387379767E+01 -0.18466281687E+02  0.18608641101E+02  0.27666014748E+02  0.00000000000E+00 0. -1.
          1    1    1    2  502    0 -0.88387379767E+01  0.18466281687E+02 -0.11724644349E+03  0.11902039892E+03  0.00000000000E+00 0. -1.
</event>
<event>
 4    1  0.3555026E+003  0.2495445E+02  0.7546771E-02  0.1469314E+00
          2   -1    0    0  502    0  0.00000000000E+00  0.00000000000E+00  0.38289541665E+02  0.38289541665E+02  0.00000000000E+00 0. -1.
          1   -1    0    0  501    0 -0.00000000000E+00 -0.00000000000E+00 -0.66492984507E+03  0.66492984507E+03  0.00000000000E+00 0. -1.
          2    1    1    2  501    0 -0.13589601366E+00 -0.24954078052E+02  0.33962898374E+02  0.42145022780E+02  0.00000000000E+00 0. -1.
          1    1    1    2  502    0  0.13589601366E+00  0.24954078052E+02 -0.66060320178E+03  0.66107436396E+03  0.00000000000E+00 0. -1.
</event>
<event>
 4    1  0.3555026E+003  0.2202392E+02  0.7546771E-02  0.1505133E+00
          2   -1    0    0  502    0  0.00000000000E+00  0.00000000000E+00  0.86488614617E+00  0.86488614617E+00  0.00000000000E+00 0. -1.
          1   -1    0    0  501    0 -0.00000000000E+00 -0.00000000000E+00 -0.10034436976E+04  0.10034436976E+04  0.00000000000E+00 0.  1.
          2    1    1    2  501    0 -0.20700048967E+02  0.75206926109E+01 -0.16778328428E+03  0.16922258516E+03  0.00000000000E+00 0. -1.
          1    1    1    2  502    0  0.20700048967E+02 -0.75206926109E+01 -0.83479552719E+03  0.83508599860E+03  0.00000000000E+00 0.  1.
</event>
<event>
 4    1  0.3555026E+003  0.4949183E+02  0.7546771E-02  0.1300391E+00
          2   -1    0    0  502    0  0.00000000000E+00  0.00000000000E+00  0.77946715397E+02  0.77946715397E+02  0.00000000000E+00 0. -1.
          1   -1    0    0  501    0 -0.00000000000E+00 -0.00000000000E+00 -0.34987956812E+03  0.34987956812E+03  0.00000000000E+00 0. -1.
          2    1    1    2  501    0  0.42314863925E+02 -0.25668926554E+02  0.68114404932E+02  0.84196280551E+02  0.00000000000E+00 0. -1.
          1    1    1    2  502    0 -0.42314863925E+02  0.25668926554E+02 -0.34004725765E+03  0.34363000296E+03  0.00000000000E+00 0. -1.
</event>
<event>
 4    1  0.3555026E+003  0.2116372E+02  0.7546771E-02  0.1516940E+00
          2   -1    0    0  502    0  0.00000000000E+00  0.00000000000E+00  0.51140576935E+03  0.51140576935E+03  0.00000000000E+00 0. -1.
          1   -1    0    0  501    0 -0.00000000000E+00 -0.00000000000E+00 -0.23517815510E+01  0.23517815510E+01  0.00000000000E+00 0.  1.
          2    1    1    2  501    0 -0.21045239772E+02  0.22363027942E+01  0.45802781752E+03  0.45851650439E+03  0.00000000000E+00 0. -1.
          1    1    1    2  502    0  0.21045239772E+02 -0.22363027942E+01  0.51026170270E+02  0.55241046512E+02  0.00000000000E+00 0.  1.
</event>
<event>
 4    1  0.3555026E+003  0.3774065E+02  0.7546771E-02  0.1362260E+00
          2   -1    0    0  502    0  0.00000000000E+00  0.00000000000E+00  0.15344802790E+04  0.15344802790E+04  0.00000000000E+00 0.  1.
          1   -1    0    0  501    0 -0.00000000000E+00 -0.00000000000E+00 -0.25463001766E+03  0.25463001766E+03  0.00000000000E+00 0.  1.
          2    1    1    2  501    0  0.34117756327E+02 -0.16134903680E+02  0.15328482750E+04  0.15333128156E+04  0.00000000000E+00 0.  1.
          1    1    1    2  502    0 -0.34117756327E+02  0.16134903680E+02 -0.25299801363E+03  0.25579748106E+03  0.00000000000E+00 0.  1.
</event>
<event>
 4    1  0.3555026E+003  0.2749644E+02  0.7546771E-02  0.1442684E+00
          2   -1    0    0  502    0  0.00000000000E+00  0.00000000000E+00  0.16551937739E+03  0.16551937739E+03  0.00000000000E+00 0. -1.
          1   -1    0    0  501    0 -0.00000000000E+00 -0.00000000000E+00 -0.28124843927E+03  0.28124843927E+03  0.00000000000E+00 0. -1.
          2    1    1    2  501    0  0.22468944297E+02  0.15849315107E+02  0.16369795752E+03  0.16599119117E+03  0.00000000000E+00 0. -1.
          1    1    1    2  502    0 -0.22468944297E+02 -0.15849315107E+02 -0.27942701941E+03  0.28077662549E+03  0.00000000000E+00 0. -1.
</event>
<event>
 4    1  0.3555026E+003  0.2385762E+02  0.7546771E-02  0.1482001E+00
          2   -1    0    0  502    0  0.00000000000E+00  0.00000000000E+00  0.15693496990E+03  0.15693496990E+03  0.00000000000E+00 0.  1.
          1   -1    0    0  501    0 -0.00000000000E+00 -0.00000000000E+00 -0.38461778196E+01  0.38461778196E+01  0.00000000000E+00 0. -1.
          2    1    1    2  501    0  0.22330657223E+01 -0.23752880926E+02  0.95739802558E+02  0.98667602224E+02  0.00000000000E+00 0.  1.
          1    1    1    2  502    0 -0.22330657223E+01  0.23752880926E+02  0.57348989526E+02  0.62113545499E+02  0.00000000000E+00 0. -1.
</event>
<event>
 4    1  0.3555026E+003  0.3219794E+02  0.7546771E-02  0.1401411E+00
          2   -1    0    0  502    0  0.00000000000E+00  0.00000000000E+00  0.61319075295E+02  0.61319075295E+02  0.00000000000E+00 0. -1.
          1   -1    0    0  501    0 -0.00000000000E+00 -0.00000000000E+00 -0.58956603653E+03  0.58956603653E+03  0.00000000000E+00 0. -1.
          2    1    1    2  501    0 -0.54133467892E+01  0.31739612915E+02  0.56618835426E+02  0.65133707682E+02  0.00000000000E+00 0. -1.
          1    1    1    2  502    0  0.54133467892E+01 -0.31739612915E+02 -0.58486579666E+03  0.58575140414E+03  0.00000000000E+00 0. -1.
</event>
<event>
 4    1  0.3555026E+003  0.4784011E+02  0.7546771E-02  0.1307819E+00
          2   -1    0    0  502    0  0.00000000000E+00  0.00000000000E+00  0.31119559342E+03  0.31119559342E+03  0.00000000000E+00 0. -1.
          1   -1    0    0  501    0 -0.00000000000E+00 -0.00000000000E+00 -0.11198489711E+03  0.11198489711E+03  0.00000000000E+00 0. -1.
          2    1    1    2  501    0 -0.32482933523E+02 -0.35121722770E+02  0.30412965457E+03  0.30786932808E+03  0.00000000000E+00 0. -1.
          1    1    1    2  502    0  0.32482933523E+02  0.35121722770E+02 -0.10491895827E+03  0.11531116245E+03  0.00000000000E+00 0. -1.
</event>
<event>
 4    1  0.3555026E+003  0.2823597E+02  0.7546771E-02  0.1435573E+00
          2   -1    0    0  502    0  0.00000000000E+00  0.00000000000E+00  0.36860931040E+03  0.36860931040E+03  0.00000000000E+00 0.  1.
          1   -1    0    0  501    0 -0.00000000000E+00 -0.00000000000E+00 -0.28603078036E+01  0.28603078036E+01  0.00000000000E+00 0.  1.
          2    1    1    2  501    0  0.22123972548E+02  0.17544228865E+02  0.27458647790E+03  0.27603442534E+03  0.00000000000E+00 0.  1.
          1    1    1    2  502    0 -0.22123972548E+02 -0.17544228865E+02  0.91162524701E+02  0.95435192868E+02  0.00000000000E+00 0.  1.
</event>
<event>
 4    1  0.3555026E+003  0.2719820E+02  0.7546771E-02  0.1445627E+00
          2   -1    0    0  502    0  0.00000000000E+00  0.00000000000E+00  0.12492286927E+03  0.12492286927E+03  0.00000000000E+00 0.  1.
          1   -1    0    0  501    0 -0.00000000000E+00 -0.00000000000E+00 -0.76708486393E+03  0.76708486393E+03  0.00000000000E+00 0.  1.
          2    1    1    2  501    0  0.82571776607E+00  0.27185658405E+02  0.12319804829E+03  0.12616457877E+03  0.00000000000E+00 0.  1.
          1    1    1    2  502    0 -0.82571776607E+00 -0.27185658405E+02 -0.76536004296E+03  0.76584315443E+03  0.00000000000E+00 0.  1.
</event>
<event>
 4    1  0.3555026E+003  0.2260410E+02  0.7546771E-02  0.1497530E+00
          2   -1    0    0  502    0  0.00000000000E+00  0.00000000000E+00  0.18568374371E+03  0.18568374371E+03  0.00000000000E+00 0.  1.
          1   -1    0    0  501    0 -0.00000000000E+00 -0.00000000000E+00 -0.26535591819E+02  0.26535591819E+02  0.00000000000E+00 0.  1.
          2    1    1    2  501    0 -0.71890846384E+01 -0.21430405476E+02  0.18003150574E+03  0.18144500069E+03  0.00000000000E+00 0.  1.
          1    1    1    2  502    0  0.71890846384E+01  0.21430405476E+02 -0.20883353848E+02  0.30774334838E+02  0.00000000000E+00 0.  1.
</event>
<event>
 4    1  0.3555026E+003  0.2211310E+02  0.7546771E-02  0.1503946E+00
          2   -1    0    0  502    0  0.00000000000E+00  0.00000000000E+00  0.17474358662E+02  0.17474358662E+02  0.00000000000E+00 0.  1.
          1   -1    0    0  501    0 -0.00000000000E+00 -0.00000000000E+00 -0.12954304944E+04  0.12954304944E+04  0.00000000000E+00 0. -1.
          2    1    1    2  501    0  0.79415679832E+01 -0.20637847186E+02  0.10345470763E+02  0.24413479961E+02  0.00000000000E+00 0.  1.
          1    1    1    2  502    0 -0.79415679832E+01  0.20637847186E+02 -0.12883016065E+04  0.12884913731E+04  0.00000000000E+00 0. -1.
</event>
<event>
 4    1  0.3555026E+003  0.6696354E+02  0.7546771E-02  0.1237847E+00
          2   -1    0    0  502    0  0.00000000000E+00  0.00000000000E+00  0.47412174196E+04  0.47412174196E+04  0.00000000000E+00 0. -1.
          1   -1    0    0  501    0 -0.00000000000E+00 -0.00000000000E+00 -0.12953382542E+01  0.12953382542E+01  0.00000000000E+00 0. -1.
          2    1    1    2  501    0  0.62909185134E+02  0.22946690111E+02  0.36017915293E+04  0.36024139596E+04  0.00000000000E+00 0. -1.
          1    1    1    2  502    0 -0.62909185134E+02 -0.22946690111E+02  0.11381305521E+04  0.11400987982E+04  0.00000000000E+00 0. -1.
</event>
<event>
 4    1  0.3555026E+003  0.2666163E+02  0.7546771E-02  0.1451037E+00
          2   -1    0    0  502    0  0.00000000000E+00  0.00000000000E+00  0.16315232531E+03  0.16315232531E+03  0.00000000000E+00 0. -1.
          1   -1    0    0  501    0 -0.00000000000E+00 -0.00000000000E+00 -0.62005798232E+02  0.62005798232E+02  0.00000000000E+00 0.  1.
          2    1    1    2  501    0 -0.67038272659E+00  0.26653205401E+02  0.15912502564E+03  0.16134316396E+03  0.00000000000E+00 0. -1.
          1    1    1    2  502    0  0.67038272659E+00 -0.26653205401E+02 -0.57978498562E+02  0.63814959584E+02  0.00000000000E+00 0.  1.
</event>
<event>
 4    1  0.3555026E+003  0.2757340E+02  0.7546771E-02  0.1441932E+00
          2   -1    0    0  502    0  0.00000000000E+00  0.00000000000E+00  0.50112032265E+03  0.50112032265E+03  0.00000000000E+00 0.  1.
          1   -1    0    0  501    0 -0.00000000000E+00 -0.00000000000E+00 -0.34044285102E+03  0.34044285102E+03  0.00000000000E+00 0.  1.
          2    1    1    2  501    0 -0.97972749155E+00 -0.27555985679E+02  0.50018166828E+03  0.50094110781E+03  0.00000000000E+00 0.  1.
          1    1    1    2  502    0  0.97972749155E+00  0.27555985679E+02 -0.33950419665E+03  0.34062206587E+03  0.00000000000E+00 0.  1.
</event>
<event>
 4    1  0.3555026E+003  0.2088515E+02  0.7546771E-02  0.1520911E+00
          2   -1    0    0  502    0  0.00000000000E+00  0.00000000000E+00  0.25114237963E+02  0.25114237963E+02  0.00000000000E+00 0. -1.
          1   -1    0    0  501    0 -0.00000000000E+00 -0.00000000000E+00 -0.44590825891E+02  0.44590825891E+02  0.00000000000E+00 0.  1.
          2    1    1    2  501    0 -0.20637999412E+02 -0.32035313677E+01  0.17493510264E+02  0.27243577854E+02  0.00000000000E+00 0. -1.
          1    1    1    2  502    0  0.20637999412E+02  0.32035313677E+01 -0.36970098192E+02  0.42461485999E+02  0.00000000000E+00 0.  1.
</event>
<event>
 4    1  0.3555026E+003  0.2944100E+02  0.7546771E-02  0.1424517E+00
          2   -1    0    0  502    0  0.00000000000E+00  0.00000000000E+00  0.23903376170E+03  0.23903376170E+03  0.00000000000E+00 0.  1.
          1   -1    0    0  501    0 -0.00000000000E+00 -0.00000000000E+00 -0.24566168691E+02  0.24566168691E+02  0.00000000000E+00 0. -1.
          2    1    1    2  501    0 -0.27603191701E+02  0.10238959995E+02  0.22891825217E+03  0.23080367993E+03  0.00000000000E+00 0.  1.
          1    1    1    2  502    0  0.27603191701E+02 -0.10238959995E+02 -0.14450659163E+02  0.32796250457E+02  0.00000000000E+00 0. -1.
</event>
<event>
 4    1  0.3555026E+003  0.2562820E+02  0.7546771E-02  0.1461897E+00
          2   -1    0    0  502    0  0.00000000000E+00  0.00000000000E+00  0.37847384193E+02  0.37847384193E+02  0.00000000000E+00 0.  1.
          1   -1    0    0  501    0 -0.00000000000E+00 -0.00000000000E+00 -0.97746774864E+03  0.97746774864E+03  0.00000000000E+00 0. -1.
          2    1    1    2  501    0 -0.18517459068E+02  0.17717461041E+02  0.33320708197E+02  0.42036583006E+02  0.00000000000E+00 0.  1.
          1    1    1    2  502    0  0.18517459068E+02 -0.17717461041E+02 -0.97294107264E+03  0.97327854982E+03  0.00000000000E+00 0. -1.
</event>
<event>
 4    1  0.3555026E+003  0.2537918E+02  0.7546771E-02  0.1464606E+00
          2   -1    0    0  502    0  0.00000000000E+00  0.00000000000E+00  0.90340455060E+00  0.90340455060E+00  0.00000000000E+00 0.  1.
          1   -1    0    0  501    0 -0.00000000000E+00 -0.00000000000E+00 -0.14689993326E+04  0.14689993326E+04  0.00000000000E+00 0.  1.
          2    1    1    2  501    0  0.24915136483E+02 -0.48310317699E+01 -0.20679829552E+03  0.20834979703E+03  0.00000000000E+00 0.  1.
          1    1    1    2  502    0 -0.24915136483E+02  0.48310317699E+01 -0.12612976325E+04  0.12615529401E+04  0.00000000000E+00 0.  1.
</event>
<event>
 4    1  0.3555026E+003  0.2827205E+02  0.7546771E-02  0.1435232E+00
          2   -1    0    0  502    0  0.00000000000E+00  0.00000000000E+00  0.23779489046E+01  0.23779489046E+01  0.00000000000E+00 0.  1.
          1   -1    0    0  501    0 -0.00000000000E+00 -0.00000000000E+00 -0.90011582067E+03  0.90011582067E+03  0.00000000000E+00 0. -1.
          2    1    1    2  501    0 -0.92707180097E+01  0.26708850822E+02 -0.91680276875E+02  0.95940513301E+02  0.00000000000E+00 0.  1.
          1    1    1    2  502    0  0.92707180097E+01 -0.26708850822E+02 -0.80605759489E+03  0.80655325627E+03  0.00000000000E+00 0. -1.
</event>
<event>
 4    1  0.3555026E+003  0.9804141E+02  0.7546771E-02  0.1167246E+00
          2   -1    0    0  502    0  0.00000000000E+00  0.00000000000E+00  0.71179839507E+03  0.71179839507E+03  0.00000000000E+00 0.  1.
          1   -1    0    0  501    0 -0.00000000000E+00 -0.00000000000E+00 -0.24262342038E+03  0.24262342038E+03  0.00000000000E+00 0.  1.
          2    1    1    2  501    0  0.93549081808E+02  0.29337468005E+02  0.69832791992E+03  0.70517657468E+03  0.00000000000E+00 0.  1.
          1    1    1    2  502    0 -0.93549081808E+02 -0.29337468005E+02 -0.22915294524E+03  0.24924524077E+03  0.00000000000E+00 0.  1.
</event>
<event>
 4    1  0.3555026E+003  0.2058912E+02  0.7546771E-02  0.1525213E+00
          2   -1    0    0  502    0  0.00000000000E+00  0.00000000000E+00  0.72907403473E+03  0.72907403473E+03  0.00000000000E+00 0. -1.
          1   -1    0    0  501    0 -0.00000000000E+00 -0.00000000000E+00 -0.88140195111E+00  0.88140195111E+00  0.00000000000E+00 0.  1.
          2    1    1    2  501    0 -0.44654781271E+01  0.20099037594E+02  0.57701482993E+03  0.57738204490E+03  0.00000000000E+00 0. -1.
          1    1    1    2  502    0  0.44654781271E+01 -0.20099037594E+02  0.15117780284E+03  0.15257339178E+03  0.00000000000E+00 0.  1.
</event>
<event>
 4    1  0.3555026E+003  0.3970064E+02  0.7546771E-02  0.1350249E+00
          2   -1    0    0  502    0  0.00000000000E+00  0.00000000000E+00  0.10726959900E+04  0.10726959900E+04  0.00000000000E+00 0.  1.
          1   -1    0    0  501    0 -0.00000000000E+00 -0.00000000000E+00 -0.15619742000E+01  0.15619742000E+01  0.00000000000E+00 0. -1.
          2    1    1    2  501    0  0.23820509157E+02  0.31760416500E+02  0.66638239503E+03  0.66756395733E+03  0.00000000000E+00 0.  1.
          1    1    1    2  502    0 -0.23820509157E+02 -0.31760416500E+02  0.40475162081E+03  0.40669400692E+03  0.00000000000E+00 0. -1.
</event>
<event>
 4    1  0.3555026E+003  0.2285431E+02  0.7546771E-02  0.1494336E+00
          2   -1    0    0  502    0  0.00000000000E+00  0.00000000000E+00  0.14108233673E+04  0.14108233673E+04  0.00000000000E+00 0.  1.
          1   -1    0    0  501    0 -0.00000000000E+00 -0.00000000000E+00 -0.10331399933E+02  0.10331399933E+02  0.00000000000E+00 0. -1.
          2    1    1    2  501    0 -0.20627058406E+02 -0.98409311559E+01  0.13979755357E+04  0.13981623360E+04  0.00000000000E+00 0.  1.
          1    1    1    2  502    0  0.20627058406E+02  0.98409311559E+01  0.25164316676E+01  0.22992431207E+02  0.00000000000E+00 0. -1.
</event>
<event>
 4    1  0.3555026E+003  0.2283092E+02  0.7546771E-02  0.1494632E+00
          2   -1    0    0  502    0  0.00000000000E+00  0.00000000000E+00  0.30849875695E+00  0.30849875695E+00  0.00000000000E+00 0. -1.
          1   -1    0    0  501    0 -0.00000000000E+00 -0.00000000000E+00 -0.19463321503E+04  0.19463321503E+04  0.00000000000E+00 0. -1.
          2    1    1    2  501    0  0.22589477468E+02  0.33115127057E+01 -0.13264854262E+04  0.13266818897E+04  0.00000000000E+00 0. -1.
          1    1    1    2  502    0 -0.22589477468E+02 -0.33115127057E+01 -0.61953822537E+03  0.61995875935E+03  0.00000000000E+00 0. -1.
</event>
<event>
 4    1  0.3555026E+003  0.2159964E+02  0.7546771E-02  0.1510873E+00
          2   -1    0    0  502    0  0.00000000000E+00  0.00000000000E+00  0.28486126912E+03  0.28486126912E+03  0.00000000000E+00 0. -1.
          1   -1    0    0  501    0 -0.00000000000E+00 -0.00000000000E+00 -0.20958096793E+03  0.20958096793E+03  0.00000000000E+00 0. -1.
          2    1    1    2  501    0  0.12063665577E+02 -0.17916816031E+02  0.28389340544E+03  0.28471390899E+03  0.00000000000E+00 0. -1.
          1    1    1    2  502    0 -0.12063665577E+02  0.17916816031E+02 -0.20861310425E+03  0.20972832806E+03  0.00000000000E+00 0. -1.
</event>
<event>
 4    1  0.3555026E+003  0.2461638E+02  0.7546771E-02  0.1473141E+00
          2   -1    0    0  502    0  0.00000000000E+00  0.00000000000E+00  0.28604781725E+03  0.28604781725E+03  0.00000000000E+00 0. -1.
          1   -1    0    0  501    0 -0.00000000000E+00 -0.00000000000E+00 -0.19236676811E+02  0.19236676811E+02  0.00000000000E+00 0. -1.
          2    1    1    2  501    0  0.24429938708E+02  0.30239549575E+01  0.27739799241E+03  0.27848808305E+03  0.00000000000E+00 0. -1.
          1    1    1    2  502    0 -0.24429938708E+02 -0.30239549575E+01 -0.10586851964E+02  0.26796411016E+02  0.00000000000E+00 0. -1.
</event>
<event>
 4    1  0.3555026E+003  0.2150264E+02  0.7546771E-02  0.1512208E+00
          2   -1    0    0  502    0  0.00000000000E+00  0.00000000000E+00  0.60880549995E+03  0.60880549995E+03  0.00000000000E+00 0.  1.
          1   -1    0    0  501    0 -0.00000000000E+00 -0.00000000000E+00 -0.20798496269E+01  0.20798496269E+01  0.00000000000E+00 0. -1.
          2    1    1    2  501    0  0.19127750474E+01 -0.21417400004E+02  0.54673152115E+03  0.54715420125E+03  0.00000000000E+00 0.  1.
          1    1    1    2  502    0 -0.19127750474E+01  0.21417400004E+02  0.59994129181E+02  0.63731148330E+02  0.00000000000E+00 0. -1.
</event>
<event>
 4    1  0.3555026E+003  0.2186536E+02  0.7546771E-02  0.1507259E+00
          2   -1    0    0  502    0  0.00000000000E+00  0.00000000000E+00  0.90070480047E+03  0.90070480047E+03  0.00000000000E+00 0.  1.
          1   -1    0    0  501    0 -0.00000000000E+00 -0.00000000000E+00 -0.15399258715E+01  0.15399258715E+01  0.00000000000E+00 0.  1.
          2    1    1    2  501    0 -0.21522314897E+02 -0.38579873521E+01  0.81477096005E+03  0.81506429896E+03  0.00000000000E+00 0.  1.
          1    1    1    2  502    0  0.21522314897E+02  0.38579873521E+01  0.84393914553E+02  0.87180427382E+02  0.00000000000E+00 0.  1.
</event>
<event>
 4    1  0.3555026E+003  0.4549044E+02  0.7546771E-02  0.1319005E+00
          2   -1    0    0  502    0  0.00000000000E+00  0.00000000000E+00  0.71056642078E+03  0.71056642078E+03  0.00000000000E+00 0.  1.
          1   -1    0    0  501    0 -0.00000000000E+00 -0.00000000000E+00 -0.76995693519E+01  0.76995693519E+01  0.00000000000E+00 0.  1.
          2    1    1    2  501    0  0.45427858192E+02  0.23854136452E+01  0.63461575842E+03  0.63624408943E+03  0.00000000000E+00 0.  1.
          1    1    1    2  502    0 -0.45427858192E+02 -0.23854136452E+01  0.68251093011E+02  0.82021900706E+02  0.00000000000E+00 0.  1.
</event>
<event>
 4    1  0.3555026E+003  0.2350331E+02  0.7546771E-02  0.1486273E+00
          2   -1    0    0  502    0  0.00000000000E+00  0.00000000000E+00  0.69193818688E+03  0.69193818688E+03  0.00000000000E+00 0. -1.
          1   -1    0    0  501    0 -0.00000000000E+00 -0.00000000000E+00 -0.11361661915E+02  0.11361661915E+02  0.00000000000E+00 0.  1.
          2    1    1    2  501    0  0.19905851149E+02  0.12496508395E+02  0.67935855815E+03  0.67976500069E+03  0.00000000000E+00 0. -1.
          1    1    1    2  502    0 -0.19905851149E+02 -0.12496508395E+02  0.12179668133E+01  0.23534848102E+02  0.00000000000E+00 0.  1.
</event>
<event>
 4    1  0.3555026E+003  0.2502160E+02  0.7546771E-02  0.1468562E+00
          2   -1    0    0  502    0  0.00000000000E+00  0.00000000000E+00  0.52282937804E+02  0.52282937804E+02  0.00000000000E+00 0.  1.
          1   -1    0    0  501    0 -0.00000000000E+00 -0.00000000000E+00 -0.12857940112E+03  0.12857940112E+03  0.00000000000E+00 0.  1.
          2    1    1    2  501    0  0.21056624973E+02 -0.13516627238E+02  0.47969025067E+02  0.54102754394E+02  0.00000000000E+00 0.  1.
          1    1    1    2  502    0 -0.21056624973E+02  0.13516627238E+02 -0.12426548838E+03  0.12675958453E+03  0.00000000000E+00 0.  1.
</event>
<event>
 4    1  0.3555026E+003  0.2372362E+02  0.7546771E-02  0.1483606E+00
          2   -1    0    0  502    0  0.00000000000E+00  0.00000000000E+00  0.36940490235E+02  0.36940490235E+02  0.00000000000E+00 0. -1.
          1   -1    0    0  501    0 -0.00000000000E+00 -0.00000000000E+00 -0.20274416294E+03  0.20274416294E+03  0.00000000000E+00 0.  1.
          2    1    1    2  501    0 -0.23243402702E+02 -0.47491539867E+01  0.32349670967E+02  0.40116224205E+02  0.00000000000E+00 0. -1.
          1    1    1    2  502    0  0.23243402702E+02  0.47491539867E+01 -0.19815334367E+03  0.19956842897E+03  0.00000000000E+00 0.  1.
</event>
<event>
 4    1  0.3555026E+003  0.2322687E+02  0.7546771E-02  0.1489669E+00
          2   -1    0    0  502    0  0.00000000000E+00  0.00000000000E+00  0.85130287444E+03  0.85130287444E+03  0.00000000000E+00 0. -1.
          1   -1    0    0  501    0 -0.00000000000E+00 -0.00000000000E+00 -0.59660538463E+01  0.59660538463E+01  0.00000000000E+00 0.  1.
          2    1    1    2  501    0  0.16021060951E+02 -0.16817042815E+02  0.82789896578E+03  0.82822471882E+03  0.00000000000E+00 0. -1.
          1    1    1    2  502    0 -0.16021060951E+02  0.16817042815E+02  0.17437854812E+02  0.29044209465E+02  0.00000000000E+00 0.  1.
</event>
<event>
 4    1  0.3555026E+003  0.2168805E+02  0.7546771E-02  0.1509664E+00
          2   -1    0    0  502    0  0.00000000000E+00  0.00000000000E+00  0.22087838863E+02  0.22087838863E+02  0.00000000000E+00 0. -1.
          1   -1    0    0  501    0 -0.00000000000E+00 -0.00000000000E+00 -0.65980976442E+03  0.65980976442E+03  0.00000000000E+00 0. -1.
          2    1    1    2  501    0 -0.17296802582E+02 -0.13084048715E+02  0.16540613242E+02  0.27275696082E+02  0.00000000000E+00 0. -1.
          1    1    1    2  502    0  0.17296802582E+02  0.13084048715E+02 -0.65426253880E+03  0.65462190720E+03  0.00000000000E+00 0. -1.
</event>
<event>
 4    1  0.3555026E+003  0.3715540E+02  0.7546771E-02  0.1366013E+00
          2   -1    0    0  502    0  0.00000000000E+00  0.00000000000E+00  0.51086696339E+02  0.51086696339E+02  0.00000000000E+00 0. -1.
          1   -1    0    0  501    0 -0.00000000000E+00 -0.00000000000E+00 -0.12221227511E+03  0.12221227511E+03  0.00000000000E+00 0.  1.
          2    1    1    2  501    0  0.35227029545E+02  0.11814388169E+02  0.40909174962E+02  0.55263767284E+02  0.00000000000E+00 0. -1.
          1    1    1    2  502    0 -0.35227029545E+02 -0.11814388169E+02 -0.11203475373E+03  0.11803520416E+03  0.00000000000E+00 0.  1.
</event>
<event>
 4    1  0.3555026E+003  0.2326164E+02  0.7546771E-02  0.1489239E+00
          2   -1    0    0  502    0  0.00000000000E+00  0.00000000000E+00  0.40928115091E+01  0.40928115091E+01  0.00000000000E+00 0.  1.
          1   -1    0    0  501    0 -0.00000000000E+00 -0.00000000000E+00 -0.28452756726E+03  0.28452756726E+03  0.00000000000E+00 0. -1.
          2    1    1    2  501    0  0.23258916516E+02 -0.35580766770E+00 -0.34629954550E+02  0.41717353089E+02  0.00000000000E+00 0.  1.
          1    1    1    2  502    0 -0.23258916516E+02  0.35580766770E+00 -0.24580480120E+03  0.24690302568E+03  0.00000000000E+00 0. -1.
</event>
<event>
 4    1  0.3555026E+003  0.2673934E+02  0.7546771E-02  0.1450244E+00
          2   -1    0    0  502    0  0.00000000000E+00  0.00000000000E+00  0.90748996433E+03  0.90748996433E+03  0.00000000000E+00 0. -1.
          1   -1    0    0  501    0 -0.00000000000E+00 -0.00000000000E+00 -0.34660353621E+02  0.34660353621E+02  0.00000000000E+00 0. -1.
          2    1    1    2  501    0  0.19557361701E+02 -0.18234632500E+02  0.90210508416E+03  0.90250128814E+03  0.00000000000E+00 0. -1.
          1    1    1    2  502    0 -0.19557361701E+02  0.18234632500E+02 -0.29275473454E+02  0.39649029812E+02  0.00000000000E+00 0. -1.
</event>
<event>
 4    1  0.3555026E+003  0.2059180E+02  0.7546771E-02  0.1525173E+00
          2   -1    0    0  502    0  0.00000000000E+00  0.00000000000E+00  0.20063490903E+03  0.20063490903E+03  0.00000000000E+00 0. -1.
          1   -1    0    0  501    0 -0.00000000000E+00 -0.00000000000E+00 -0.49414296019E+03  0.49414296019E+03  0.00000000000E+00 0. -1.
          2    1    1    2  501    0 -0.27297127976E+01  0.20410068558E+02  0.19989123844E+03  0.20094907174E+03  0.00000000000E+00 0. -1.
          1    1    1    2  502    0  0.27297127976E+01 -0.20410068558E+02 -0.49339928960E+03  0.49382879747E+03  0.00000000000E+00 0. -1.
</event>
<event>
 4    1  0.3555026E+003  0.6684533E+02  0.7546771E-02  0.1238195E+00
          2   -1    0    0  502    0  0.00000000000E+00  0.00000000000E+00  0.10815335404E+04  0.10815335404E+04  0.00000000000E+00 0.  1.
          1   -1    0    0  501    0 -0.00000000000E+00 -0.00000000000E+00 -0.93244850226E+01  0.93244850226E+01  0.00000000000E+00 0. -1.
          2    1    1    2  501    0  0.66637641591E+02 -0.52652653366E+01  0.94314403755E+03  0.94550990151E+03  0.00000000000E+00 0.  1.
          1    1    1    2  502    0 -0.66637641591E+02  0.52652653366E+01  0.12906501780E+03  0.14534812388E+03  0.00000000000E+00 0. -1.
</event>
<event>
 4    1  0.3555026E+003  0.2097115E+02  0.7546771E-02  0.1519677E+00
          2   -1    0    0  502    0  0.00000000000E+00  0.00000000000E+00  0.68480680463E+02  0.68480680463E+02  0.00000000000E+00 0.  1.
          1   -1    0    0  501    0 -0.00000000000E+00 -0.00000000000E+00 -0.36826304779E+02  0.36826304779E+02  0.00000000000E+00 0. -1.
          2    1    1    2  501    0  0.20440638855E+02 -0.46871660840E+01  0.63669812035E+02  0.67034574716E+02  0.00000000000E+00 0.  1.
          1    1    1    2  502    0 -0.20440638855E+02  0.46871660840E+01 -0.32015436352E+02  0.38272410526E+02  0.00000000000E+00 0. -1.
</event>
<event>
 4    1  0.3555026E+003  0.2344541E+02  0.7546771E-02  0.1486980E+00
          2   -1    0    0  502    0  0.00000000000E+00  0.00000000000E+00  0.34782235042E+02  0.34782235042E+02  0.00000000000E+00 0. -1.
          1   -1    0    0  501    0 -0.00000000000E+00 -0.00000000000E+00 -0.21925934427E+03  0.21925934427E+03  0.00000000000E+00 0. -1.
          2    1    1    2  501    0 -0.16232179433E+02  0.16917554301E+02  0.30118959793E+02  0.38168560775E+02  0.00000000000E+00 0. -1.
          1    1    1    2  502    0  0.16232179433E+02 -0.16917554301E+02 -0.21459606902E+03  0.21587301854E+03  0.00000000000E+00 0. -1.
</event>
<event>
 4    1  0.3555026E+003  0.2724387E+02  0.7546771E-02  0.1445174E+00
          2   -1    0    0  502    0  0.00000000000E+00  0.00000000000E+00  0.17099604974E+04  0.17099604974E+04  0.00000000000E+00 0.  1.
          1   -1    0    0  501    0 -0.00000000000E+00 -0.00000000000E+00 -0.16920683339E+02  0.16920683339E+02  0.00000000000E+00 0.  1.
          2    1    1    2  501    0 -0.22882855280E+02  0.14785235416E+02  0.16988137448E+04  0.16990321856E+04  0.00000000000E+00 0.  1.
          1    1    1    2  502    0  0.22882855280E+02 -0.14785235416E+02 -0.57739307524E+01  0.27848995105E+02  0.00000000000E+00 0.  1.
</event>
<event>
 4    1  0.3555026E+003  0.2329008E+02  0.7546771E-02  0.1488887E+00
          2   -1    0    0  502    0  0.00000000000E+00  0.00000000000E+00  0.14657676845E+02  0.14657676845E+02  0.00000000000E+00 0.  1.
          1   -1    0    0  501    0 -0.00000000000E+00 -0.00000000000E+00 -0.14151169756E+03  0.14151169756E+03  0.00000000000E+00 0.  1.
          2    1    1    2  501    0  0.20940947497E+01  0.23195749675E+02  0.36755098652E+01  0.23578324973E+02  0.00000000000E+00 0.  1.
          1    1    1    2  502    0 -0.20940947497E+01 -0.23195749675E+02 -0.13052953058E+03  0.13259104943E+03  0.00000000000E+00 0.  1.
</event>
<event>
 4    1  0.3555026E+003  0.2171737E+02  0.7546771E-02  0.1509264E+00
          2   -1    0    0  502    0  0.00000000000E+00  0.00000000000E+00  0.97641248676E+01  0.97641248676E+01  0.00000000000E+00 0.  1.
          1   -1    0    0  501    0 -0.00000000000E+00 -0.00000000000E+00 -0.12341616130E+03  0.12341616130E+03  0.00000000000E+00 0. -1.
          2    1    1    2  501    0  0.70818537124E+01 -0.20530260881E+02 -0.48767230498E+01  0.22258182575E+02  0.00000000000E+00 0.  1.
          1    1    1    2  502    0 -0.70818537124E+01  0.20530260881E+02 -0.10877531338E+03  0.11092210359E+03  0.00000000000E+00 0. -1.
</event>
<event>
 4    1  0.3555026E+003  0.2294928E+02  0.7546771E-02  0.1493136E+00
          2   -1    0    0  502    0  0.00000000000E+00  0.00000000000E+00  0.72391493870E+01  0.72391493870E+01  0.00000000000E+00 0. -1.
          1   -1    0    0  501    0 -0.00000000000E+00 -0.00000000000E+00 -0.23590634514E+03  0.23590634514E+03  0.00000000000E+00 0. -1.
          2    1    1    2  501    0 -0.19993283965E+02  0.11266680632E+02 -0.13230497557E+02  0.26489914341E+02  0.00000000000E+00 0. -1.
          1    1    1    2  502    0  0.19993283965E+02 -0.11266680632E+02 -0.21543669820E+03  0.21665558019E+03  0.00000000000E+00 0. -1.
</event>
<event>
 4    1  0.3555026E+003  0.3079786E+02  0.7546771E-02  0.1412787E+00
          2   -1    0    0  502    0  0.00000000000E+00  0.00000000000E+00  0.30459097746E+03  0.30459097746E+03  0.00000000000E+00 0. -1.
          1   -1    0    0  501    0 -0.00000000000E+00 -0.00000000000E+00 -0.15093895032E+03  0.15093895032E+03  0.00000000000E+00 0.  1.
          2    1    1    2  501    0  0.27443412229E+02 -0.13977389491E+02  0.30222920952E+03  0.30379434389E+03  0.00000000000E+00 0. -1.
          1    1    1    2  502    0 -0.27443412229E+02  0.13977389491E+02 -0.14857718239E+03  0.15173558389E+03  0.00000000000E+00 0.  1.
</event>
<event>
 4    1  0.3555026E+003  0.2180230E+02  0.7546771E-02  0.1508111E+00
          2   -1    0    0  502    0  0.00000000000E+00  0.00000000000E+00  0.97732150243E+00  0.97732150243E+00  0.00000000000E+00 0. -1.
          1   -1    0    0  501    0 -0.00000000000E+00 -0.00000000000E+00 -0.10314117455E+04  0.10314117455E+04  0.00000000000E+00 0. -1.
          2    1    1    2  501    0  0.20611231107E+02 -0.71075726188E+01 -0.13997471885E+03  0.14166249452E+03  0.00000000000E+00 0. -1.
          1    1    1    2  502    0 -0.20611231107E+02  0.71075726188E+01 -0.89045970512E+03  0.89072657245E+03  0.00000000000E+00 0. -1.
</event>
<event>
 4    1  0.3555026E+003  0.2547639E+02  0.7546771E-02  0.1463544E+00
          2   -1    0    0  502    0  0.00000000000E+00  0.00000000000E+00  0.57988506574E+03  0.57988506574E+03  0.00000000000E+00 0.  1.
          1   -1    0    0  501    0 -0.00000000000E+00 -0.00000000000E+00 -0.51800592254E+02  0.51800592254E+02  0.00000000000E+00 0. -1.
          2    1    1    2  501    0 -0.12245644394E+02  0.22340340544E+02  0.57645418607E+03  0.57701687607E+03  0.00000000000E+00 0.  1.
          1    1    1    2  502    0  0.12245644394E+02 -0.22340340544E+02 -0.48369712586E+02  0.54668781931E+02  0.00000000000E+00 0. -1.
</event>
<event>
 4    1  0.3555026E+003  0.2130551E+02  0.7546771E-02  0.1514947E+00
          2   -1    0    0  502    0  0.00000000000E+00  0.00000000000E+00  0.11072922269E+03  0.11072922269E+03  0.00000000000E+00 0. -1.
          1   -1    0    0  501    0 -0.00000000000E+00 -0.00000000000E+00 -0.16721338872E+02  0.16721338872E+02  0.00000000000E+00 0.  1.
          2    1    1    2  501    0 -0.72210539855E+01 -0.20044483627E+02  0.10236941638E+03  0.10456300662E+03  0.00000000000E+00 0. -1.
          1    1    1    2  502    0  0.72210539855E+01  0.20044483627E+02 -0.83615325567E+01  0.22887554943E+02  0.00000000000E+00 0.  1.
</event>
<event>
 4    1  0.3555026E+003  0.2302681E+02  0.7546771E-02  0.1492162E+00
          2   -1    0    0  502    0  0.00000000000E+00  0.00000000000E+00  0.71062212509E+02  0.71062212509E+02  0.00000000000E+00 0. -1.
          1   -1    0    0  501    0 -0.00000000000E+00 -0.00000000000E+00 -0.38052774051E+03  0.38052774051E+03  0.00000000000E+00 0. -1.
          2    1    1    2  501    0  0.20637400391E+02  0.10214279820E+02  0.68837512636E+02  0.72586754666E+02  0.00000000000E+00 0. -1.
          1    1    1    2  502    0 -0.20637400391E+02 -0.10214279820E+02 -0.37830304064E+03  0.37900319836E+03  0.00000000000E+00 0. -1.
</event>
<event>
 4    1  0.3555026E+003  0.2189355E+02  0.7546771E-02  0.1506880E+00
          2   -1    0    0  502    0  0.00000000000E+00  0.00000000000E+00  0.42689500230E+03  0.42689500230E+03  0.00000000000E+00 0.  1.
          1   -1    0    0  501    0 -0.00000000000E+00 -0.00000000000E+00 -0.18437722455E+03  0.18437722455E+03  0.00000000000E+00 0.  1.
          2    1    1    2  501    0  0.93137013265E+01  0.19813698781E+02  0.42596294727E+03  0.42652521630E+03  0.00000000000E+00 0.  1.
          1    1    1    2  502    0 -0.93137013265E+01 -0.19813698781E+02 -0.18344516951E+03  0.18474701056E+03  0.00000000000E+00 0.  1.
</event>
<event>
 4    1  0.3555026E+003  0.2120400E+02  0.7546771E-02  0.1516372E+00
          2   -1    0    0  502    0  0.00000000000E+00  0.00000000000E+00  0.10307732044E+02  0.10307732044E+02  0.00000000000E+00 0.  1.
          1   -1    0    0  501    0 -0.00000000000E+00 -0.00000000000E+00 -0.55553429920E+02  0.55553429920E+02  0.00000000000E+00 0.  1.
          2    1    1    2  501    0  0.13325464430E+00 -0.21203582893E+02 -0.73594736532E+01  0.22444855463E+02  0.00000000000E+00 0.  1.
          1    1    1    2  502    0 -0.13325464430E+00  0.21203582893E+02 -0.37886224223E+02  0.43416306501E+02  0.00000000000E+00 0.  1.
</event>
<event>
 4    1  0.3555026E+003  0.4977503E+02  0.7546771E-02  0.1299151E+00
          2   -1    0    0  502    0  0.00000000000E+00  0.00000000000E+00  0.32343800208E+04  0.32343800208E+04  0.00000000000E+00 0. -1.
          1   -1    0    0  501    0 -0.00000000000E+00 -0.00000000000E+00 -0.17711218079E+03  0.17711218079E+03  0.00000000000E+00 0. -1.
          2    1    1    2  501    0  0.41025371349E+02  0.28186381828E+02  0.32306873699E+04  0.32310707877E+04  0.00000000000E+00 0. -1.
          1    1    1    2  502    0 -0.41025371349E+02 -0.28186381828E+02 -0.17341952992E+03  0.18042141384E+03  0.00000000000E+00 0. -1.
</event>
<event>
 4    1  0.3555026E+003  0.2108385E+02  0.7546771E-02  0.1518071E+00
          2   -1    0    0  502    0  0.00000000000E+00  0.00000000000E+00  0.30346668804E+01  0.30346668804E+01  0.00000000000E+00 0.  1.
          1   -1    0    0  501    0 -0.00000000000E+00 -0.00000000000E+00 -0.17172161174E+03  0.17172161174E+03  0.00000000000E+00 0.  1.
          2    1    1    2  501    0 -0.14465245791E+02  0.15339012484E+02 -0.50845485823E+02  0.55043547018E+02  0.00000000000E+00 0.  1.
          1    1    1    2  502    0  0.14465245791E+02 -0.15339012484E+02 -0.11784145903E+03  0.11971273160E+03  0.00000000000E+00 0.  1.
</event>
<event>
 4    1  0.3555026E+003  0.2055008E+02  0.7546771E-02  0.1525786E+00
          2   -1    0    0  502    0  0.00000000000E+00  0.00000000000E+00  0.74877345002E+03  0.74877345002E+03  0.00000000000E+00 0.  1.
          1   -1    0    0  501    0 -0.00000000000E+00 -0.00000000000E+00 -0.57139524743E+00  0.57139524743E+00  0.00000000000E+00 0.  1.
          2    1    1    2  501    0  0.20194611166E+02 -0.38057274387E+01  0.41673459586E+03  0.41724097266E+03  0.00000000000E+00 0.  1.
          1    1    1    2  502    0 -0.20194611166E+02  0.38057274387E+01  0.33146745891E+03  0.33210387261E+03  0.00000000000E+00 0.  1.
</event>
<event>
 4    1  0.3555026E+003  0.7121199E+02  0.7546771E-02  0.1225865E+00
          2   -1    0    0  502    0  0.00000000000E+00  0.00000000000E+00  0.90587455870E+02  0.90587455870E+02  0.00000000000E+00 0. -1.
          1   -1    0    0  501    0 -0.00000000000E+00 -0.00000000000E+00 -0.14870048992E+04  0.14870048992E+04  0.00000000000E+00 0.  1.
          2    1    1    2  501    0  0.71096881127E+02 -0.40474037743E+01  0.75597270840E+02  0.10385612809E+03  0.00000000000E+00 0. -1.
          1    1    1    2  502    0 -0.71096881127E+02  0.40474037743E+01 -0.14720147142E+04  0.14737362270E+04  0.00000000000E+00 0.  1.
</event>
<event>
 4    1  0.3555026E+003  0.2449453E+02  0.7546771E-02  0.1474538E+00
          2   -1    0    0  502    0  0.00000000000E+00  0.00000000000E+00  0.23441280983E+03  0.23441280983E+03  0.00000000000E+00 0.  1.
          1   -1    0    0  501    0 -0.00000000000E+00 -0.00000000000E+00 -0.73553639677E+02  0.73553639677E+02  0.00000000000E+00 0.  1.
          2    1    1    2  501    0  0.23670125570E+02 -0.63013790982E+01  0.23170994268E+03  0.23300102953E+03  0.00000000000E+00 0.  1.
          1    1    1    2  502    0 -0.23670125570E+02  0.63013790982E+01 -0.70850772535E+02  0.74965419974E+02  0.00000000000E+00 0.  1.
</event>
<event>
 4    1  0.3555026E+003  0.2994055E+02  0.7546771E-02  0.1420114E+00
          2   -1    0    0  502    0  0.00000000000E+00  0.00000000000E+00  0.21048011297E+03  0.21048011297E+03  0.00000000000E+00 0. -1.
          1   -1    0    0  501    0 -0.00000000000E+00 -0.00000000000E+00 -0.68952596041E+01  0.68952596041E+01  0.00000000000E+00 0. -1.
          2    1    1    2  501    0  0.13752364944E+02  0.26595280724E+02  0.16899694243E+03  0.17162867781E+03  0.00000000000E+00 0. -1.
          1    1    1    2  502    0 -0.13752364944E+02 -0.26595280724E+02  0.34587910938E+02  0.45746694759E+02  0.00000000000E+00 0. -1.
</event>
<event>
 4    1  0.3555026E+003  0.2158376E+02  0.7546771E-02  0.1511091E+00
          2   -1    0    0  502    0  0.00000000000E+00  0.00000000000E+00  0.77055242024E+02  0.77055242024E+02  0.00000000000E+00 0. -1.
          1   -1    0    0  501    0 -0.00000000000E+00 -0.00000000000E+00 -0.23730167192E+02  0.23730167192E+02  0.00000000000E+00 0.  1.
          2    1    1    2  501    0 -0.83715526986E+01  0.19894115337E+02  0.70164848284E+02  0.73409567867E+02  0.00000000000E+00 0. -1.
          1    1    1    2  502    0  0.83715526986E+01 -0.19894115337E+02 -0.16839773452E+02  0.27375841349E+02  0.00000000000E+00 0.  1.
</event>
<event>
 4    1  0.3555026E+003  0.2129871E+02  0.7546771E-02  0.1515043E+00
          2   -1    0    0  502    0  0.00000000000E+00  0.00000000000E+00  0.60851150577E+03  0.60851150577E+03  0.00000000000E+00 0.  1.
          1   -1    0    0  501    0 -0.00000000000E+00 -0.00000000000E+00 -0.10895505712E+01  0.10895505712E+01  0.00000000000E+00 0. -1.
          2    1    1    2  501    0 -0.17497056650E+02  0.12144466616E+02  0.47499379932E+03  0.47547107636E+03  0.00000000000E+00 0.  1.
          1    1    1    2  502    0  0.17497056650E+02 -0.12144466616E+02  0.13242815588E+03  0.13412997998E+03  0.00000000000E+00 0. -1.
</event>
<event>
 4    1  0.3555026E+003  0.2019950E+02  0.7546771E-02  0.1531008E+00
          2   -1    0    0  502    0  0.00000000000E+00  0.00000000000E+00  0.38144821472E+03  0.38144821472E+03  0.00000000000E+00 0. -1.
          1   -1    0    0  501    0 -0.00000000000E+00 -0.00000000000E+00 -0.87892050578E+02  0.87892050578E+02  0.00000000000E+00 0. -1.
          2    1    1    2  501    0  0.13895544726E+02  0.14660612426E+02  0.38001585789E+03  0.38055232488E+03  0.00000000000E+00 0. -1.
          1    1    1    2  502    0 -0.13895544726E+02 -0.14660612426E+02 -0.86459693753E+02  0.88787940418E+02  0.00000000000E+00 0. -1.
</event>
<event>
 4    1  0.3555026E+003  0.2046168E+02  0.7546771E-02  0.1527091E+00
          2   -1    0    0  502    0  0.00000000000E+00  0.00000000000E+00  0.29872630293E+03  0.29872630293E+03  0.00000000000E+00 0. -1.
          1   -1    0    0  501    0 -0.00000000000E+00 -0.00000000000E+00 -0.98789034867E+01  0.98789034867E+01  0.00000000000E+00 0.  1.
          2    1    1    2  501    0 -0.13788341791E+02 -0.15118264503E+02  0.28736212401E+03  0.28808969194E+03  0.00000000000E+00 0. -1.
          1    1    1    2  502    0  0.13788341791E+02  0.15118264503E+02  0.14852754361E+01  0.20515514472E+02  0.00000000000E+00 0.  1.
</event>
<event>
 4    1  0.3555026E+003  0.8686468E+02  0.7546771E-02  0.1188749E+00
          2   -1    0    0  502    0  0.00000000000E+00  0.00000000000E+00  0.12374944552E+04  0.12374944552E+04  0.00000000000E+00 0. -1.
          1   -1    0    0  501    0 -0.00000000000E+00 -0.00000000000E+00 -0.21403162657E+02  0.21403162657E+02  0.00000000000E+00 0. -1.
          2    1    1    2  501    0  0.19049218998E+02  0.84750216855E+02  0.11403367813E+04  0.11436404360E+04  0.00000000000E+00 0. -1.
          1    1    1    2  502    0 -0.19049218998E+02 -0.84750216855E+02  0.75754511227E+02  0.11525718187E+03  0.00000000000E+00 0. -1.
</event>
<event>
 4    1  0.3555026E+003  0.2085335E+02  0.7546771E-02  0.1521369E+00
          2   -1    0    0  502    0  0.00000000000E+00  0.00000000000E+00  0.90717298074E+03  0.90717298074E+03  0.00000000000E+00 0.  1.
          1   -1    0    0  501    0 -0.00000000000E+00 -0.00000000000E+00 -0.48269488626E+00  0.48269488626E+00  0.00000000000E+00 0. -1.
          2    1    1    2  501    0  0.82394850189E+01  0.19156539960E+02  0.49106908539E+03  0.49151165679E+03  0.00000000000E+00 0.  1.
          1    1    1    2  502    0 -0.82394850189E+01 -0.19156539960E+02  0.41562120046E+03  0.41614401883E+03  0.00000000000E+00 0. -1.
</event>
<event>
 4    1  0.3555026E+003  0.2496664E+02  0.7546771E-02  0.1469177E+00
          2   -1    0    0  502    0  0.00000000000E+00  0.00000000000E+00  0.55680421559E+02  0.55680421559E+02  0.00000000000E+00 0.  1.
          1   -1    0    0  501    0 -0.00000000000E+00 -0.00000000000E+00 -0.44870706788E+03  0.44870706788E+03  0.00000000000E+00 0. -1.
          2    1    1    2  501    0 -0.66382033953E+01  0.24067975882E+02  0.52514547254E+02  0.58147320494E+02  0.00000000000E+00 0.  1.
          1    1    1    2  502    0  0.66382033953E+01 -0.24067975882E+02 -0.44554119358E+03  0.44624016895E+03  0.00000000000E+00 0. -1.
</event>
<event>
 4    1  0.3555026E+003  0.3773866E+02  0.7546771E-02  0.1362272E+00
          2   -1    0    0  502    0  0.00000000000E+00  0.00000000000E+00  0.16049088241E+04  0.16049088241E+04  0.00000000000E+00 0.  1.
          1   -1    0    0  501    0 -0.00000000000E+00 -0.00000000000E+00 -0.27546181191E+01  0.27546181191E+01  0.00000000000E+00 0.  1.
          2    1    1    2  501    0 -0.33583253888E+02  0.17215442935E+02  0.14628838933E+04  0.14633705927E+04  0.00000000000E+00 0.  1.
          1    1    1    2  502    0  0.33583253888E+02 -0.17215442935E+02  0.13927031272E+03  0.14429284952E+03  0.00000000000E+00 0.  1.
</event>
<event>
 4    1  0.3555026E+003  0.2995137E+02  0.7546771E-02  0.1420020E+00
          2   -1    0    0  502    0  0.00000000000E+00  0.00000000000E+00  0.35877636626E+03  0.35877636626E+03  0.00000000000E+00 0.  1.
          1   -1    0    0  501    0 -0.00000000000E+00 -0.00000000000E+00 -0.82629595174E+02  0.82629595174E+02  0.00000000000E+00 0.  1.
          2    1    1    2  501    0 -0.47589579514E+01  0.29570878259E+02  0.35541144030E+03  0.35667124417E+03  0.00000000000E+00 0.  1.
          1    1    1    2  502    0  0.47589579514E+01 -0.29570878259E+02 -0.79264669221E+02  0.84734717257E+02  0.00000000000E+00 0.  1.
</event>
<event>
 4    1  0.3555026E+003  0.2814534E+02  0.7546771E-02  0.1436430E+00
          2   -1    0    0  502    0  0.00000000000E+00  0.00000000000E+00  0.30453757079E+02  0.30453757079E+02  0.00000000000E+00 0. -1.
          1   -1    0    0  501    0 -0.00000000000E+00 -0.00000000000E+00 -0.12240041047E+04  0.12240041047E+04  0.00000000000E+00 0. -1.
          2    1    1    2  501    0 -0.92723210590E+01 -0.26574131681E+02  0.23753192035E+02  0.36828990541E+02  0.00000000000E+00 0. -1.
          1    1    1    2  502    0  0.92723210590E+01  0.26574131681E+02 -0.12173035397E+04  0.12176288712E+04  0.00000000000E+00 0. -1.
</event>
<event>
 4    1  0.3555026E+003  0.4039308E+02  0.7546771E-02  0.1346198E+00
          2   -1    0    0  502    0  0.00000000000E+00  0.00000000000E+00  0.54825326938E+03  0.54825326938E+03  0.00000000000E+00 0.  1.
          1   -1    0    0  501    0 -0.00000000000E+00 -0.00000000000E+00 -0.30949043636E+01  0.30949043636E+01  0.00000000000E+00 0. -1.
          2    1    1    2  501    0  0.39061032250E+02 -0.10287680538E+02  0.32661415689E+03  0.32910242796E+03  0.00000000000E+00 0.  1.
          1    1    1    2  502    0 -0.39061032250E+02  0.10287680538E+02  0.21854420813E+03  0.22224574578E+03  0.00000000000E+00 0. -1.
</event>
<event>
 4    1  0.3555026E+003  0.2033396E+02  0.7546771E-02  0.1528990E+00
          2   -1    0    0  502    0  0.00000000000E+00  0.00000000000E+00  0.27225949987E+01  0.27225949987E+01  0.00000000000E+00 0.  1.
          1   -1    0    0  501    0 -0.00000000000E+00 -0.00000000000E+00 -0.18226408729E+03  0.18226408729E+03  0.00000000000E+00 0.  1.
          2    1    1    2  501    0 -0.49977131189E+01  0.19710212319E+02 -0.12754388367E+03  0.12915460451E+03  0.00000000000E+00 0.  1.
          1    1    1    2  502    0  0.49977131189E+01 -0.19710212319E+02 -0.51997608622E+02  0.55832077773E+02  0.00000000000E+00 0.  1.
</event>
<event>
 4    1  0.3555026E+003  0.2626074E+02  0.7546771E-02  0.1455179E+00
          2   -1    0    0  502    0  0.00000000000E+00  0.00000000000E+00  0.10618162967E+04  0.10618162967E+04  0.00000000000E+00 0.  1.
          1   -1    0    0  501    0 -0.00000000000E+00 -0.00000000000E+00 -0.11569080359E+03  0.11569080359E+03  0.00000000000E+00 0. -1.
          2    1    1    2  501    0  0.16281367180E+02 -0.20604452121E+02  0.10601613653E+04  0.10604865614E+04  0.00000000000E+00 0.  1.
          1    1    1    2  502    0 -0.16281367180E+02  0.20604452121E+02 -0.11403587223E+03  0.11702053888E+03  0.00000000000E+00 0. -1.
</event>
<event>
 4    1  0.3555026E+003  0.7077865E+02  0.7546771E-02  0.1227043E+00
          2   -1    0    0  502    0  0.00000000000E+00  0.00000000000E+00  0.37390460899E+02  0.37390460899E+02  0.00000000000E+00 0.  1.
          1   -1    0    0  501    0 -0.00000000000E+00 -0.00000000000E+00 -0.15680711303E+03  0.15680711303E+03  0.00000000000E+00 0.  1.
          2    1    1    2  501    0  0.25246074409E+02 -0.66123014582E+02 -0.22661979703E+02  0.74318117943E+02  0.00000000000E+00 0.  1.
          1    1    1    2  502    0 -0.25246074409E+02  0.66123014582E+02 -0.96754672426E+02  0.11987945598E+03  0.00000000000E+00 0.  1.
</event>
<event>
 4    1  0.3555026E+003  0.4069111E+02  0.7546771E-02  0.1344483E+00
          2   -1    0    0  502    0  0.00000000000E+00  0.00000000000E+00  0.30103468903E+03  0.30103468903E+03  0.00000000000E+00 0. -1.
          1   -1    0    0  501    0 -0.00000000000E+00 -0.00000000000E+00 -0.20769286920E+03  0.20769286920E+03  0.00000000000E+00 0.  1.
          2    1    1    2  501    0 -0.31271355497E+02  0.26035920030E+02  0.29764397930E+03  0.30041255836E+03  0.00000000000E+00 0. -1.
          1    1    1    2  502    0  0.31271355497E+02 -0.26035920030E+02 -0.20430215947E+03  0.20831499987E+03  0.00000000000E+00 0.  1.
</event>
<event>
 4    1  0.3555026E+003  0.2530886E+02  0.7546771E-02  0.1465378E+00
          2   -1    0    0  502    0  0.00000000000E+00  0.00000000000E+00  0.62510208966E+00  0.62510208966E+00  0.00000000000E+00 0. -1.
          1   -1    0    0  501    0 -0.00000000000E+00 -0.00000000000E+00 -0.11433623317E+04  0.11433623317E+04  0.00000000000E+00 0. -1.
          2    1    1    2  501    0  0.22750655128E+02  0.11088076375E+02 -0.75564451215E+03  0.75606822873E+03  0.00000000000E+00 0. -1.
          1    1    1    2  502    0 -0.22750655128E+02 -0.11088076375E+02 -0.38709271749E+03  0.38791920509E+03  0.00000000000E+00 0. -1.
</event>
<event>
 4    1  0.3555026E+003  0.2335085E+02  0.7546771E-02  0.1488139E+00
          2   -1    0    0  502    0  0.00000000000E+00  0.00000000000E+00  0.35516133049E+03  0.35516133049E+03  0.00000000000E+00 0. -1.
          1   -1    0    0  501    0 -0.00000000000E+00 -0.00000000000E+00 -0.52836086949E+02  0.52836086949E+02  0.00000000000E+00 0.  1.
          2    1    1    2  501    0  0.21235575344E+02  0.97114702678E+01  0.35217569806E+03  0.35294898303E+03  0.00000000000E+00 0. -1.
          1    1    1    2  502    0 -0.21235575344E+02 -0.97114702678E+01 -0.49850454522E+02  0.55048434410E+02  0.00000000000E+00 0.  1.
</event>
<event>
 4    1  0.3555026E+003  0.2123480E+02  0.7546771E-02  0.1515939E+00
          2   -1    0    0  502    0  0.00000000000E+00  0.00000000000E+00  0.42382955070E+03  0.42382955070E+03  0.00000000000E+00 0. -1.
          1   -1    0    0  501    0 -0.00000000000E+00 -0.00000000000E+00 -0.15474485495E+03  0.15474485495E+03  0.00000000000E+00 0.  1.
          2    1    1    2  501    0 -0.20418591656E+02 -0.58307659394E+01  0.42283337369E+03  0.42336624644E+03  0.00000000000E+00 0. -1.
          1    1    1    2  502    0  0.20418591656E+02  0.58307659394E+01 -0.15374867795E+03  0.15520815921E+03  0.00000000000E+00 0.  1.
</event>
<event>
 4    1  0.3555026E+003  0.2097281E+02  0.7546771E-02  0.1519653E+00
          2   -1    0    0  502    0  0.00000000000E+00  0.00000000000E+00  0.39472112044E+02  0.39472112044E+02  0.00000000000E+00 0.  1.
          1   -1    0    0  501    0 -0.00000000000E+00 -0.00000000000E+00 -0.15740899496E+02  0.15740899496E+02  0.00000000000E+00 0. -1.
          2    1    1    2  501    0  0.20574089158E+02  0.40700697685E+01  0.26785008911E+02  0.34019043416E+02  0.00000000000E+00 0.  1.
          1    1    1    2  502    0 -0.20574089158E+02 -0.40700697685E+01 -0.30537963630E+01  0.21193968123E+02  0.00000000000E+00 0. -1.
</event>
<event>
 4    1  0.3555026E+003  0.3245990E+02  0.7546771E-02  0.1399358E+00
          2   -1    0    0  502    0  0.00000000000E+00  0.00000000000E+00  0.57136874295E+02  0.57136874295E+02  0.00000000000E+00 0. -1.
          1   -1    0    0  501    0 -0.00000000000E+00 -0.00000000000E+00 -0.60398139524E+03  0.60398139524E+03  0.00000000000E+00 0. -1.
          2    1    1    2  501    0 -0.29961323340E+02  0.12488552253E+02  0.52051452929E+02  0.61343284765E+02  0.00000000000E+00 0. -1.
          1    1    1    2  502    0  0.29961323340E+02 -0.12488552253E+02 -0.59889597388E+03  0.59977498477E+03  0.00000000000E+00 0. -1.
</event>
<event>
 4    1  0.3555026E+003  0.3341900E+02  0.7546771E-02  0.1392032E+00
          2   -1    0    0  502    0  0.00000000000E+00  0.00000000000E+00  0.67495062794E+02  0.67495062794E+02  0.00000000000E+00 0.  1.
          1   -1    0    0  501    0 -0.00000000000E+00 -0.00000000000E+00 -0.17584990240E+03  0.17584990240E+03  0.00000000000E+00 0. -1.
          2    1    1    2  501    0 -0.16773529478E+00 -0.33418577525E+02  0.61629197737E+02  0.70106971641E+02  0.00000000000E+00 0.  1.
          1    1    1    2  502    0  0.16773529478E+00  0.33418577525E+02 -0.16998403734E+03  0.17323799355E+03  0.00000000000E+00 0. -1.
</event>
<event>
 4    1  0.3555026E+003  0.2499875E+02  0.7546771E-02  0.1468817E+00
          2   -1    0    0  502    0  0.00000000000E+00  0.00000000000E+00  0.52870842754E+01  0.52870842754E+01  0.00000000000E+00 0.  1.
          1   -1    0    0  501    0 -0.00000000000E+00 -0.00000000000E+00 -0.48115732732E+03  0.48115732732E+03  0.00000000000E+00 0. -1.
          2    1    1    2  501    0  0.18169961728E+02 -0.17169455956E+02 -0.26689867289E+02  0.36568931389E+02  0.00000000000E+00 0.  1.
          1    1    1    2  502    0 -0.18169961728E+02  0.17169455956E+02 -0.44918037576E+03  0.44987548021E+03  0.00000000000E+00 0. -1.
</event>
<event>
 4    1  0.3555026E+003  0.2825418E+02  0.7546771E-02  0.1435401E+00
          2   -1    0    0  502    0  0.00000000000E+00  0.00000000000E+00  0.25686617474E+02  0.25686617474E+02  0.00000000000E+00 0. -1.
          1   -1    0    0  501    0 -0.00000000000E+00 -0.00000000000E+00 -0.80442030848E+02  0.80442030848E+02  0.00000000000E+00 0. -1.
          2    1    1    2  501    0  0.27223771970E+02  0.75607550334E+01  0.14190827038E+02  0.31617690444E+02  0.00000000000E+00 0. -1.
          1    1    1    2  502    0 -0.27223771970E+02 -0.75607550334E+01 -0.68946240413E+02  0.74510957879E+02  0.00000000000E+00 0. -1.
</event>
<event>
 4    1  0.3555026E+003  0.2050869E+02  0.7546771E-02  0.1526396E+00
          2   -1    0    0  502    0  0.00000000000E+00  0.00000000000E+00  0.32516394273E+03  0.32516394273E+03  0.00000000000E+00 0.  1.
          1   -1    0    0  501    0 -0.00000000000E+00 -0.00000000000E+00 -0.48046269508E+01  0.48046269508E+01  0.00000000000E+00 0. -1.
          2    1    1    2  501    0  0.20383133734E+02 -0.22658962933E+01  0.30121719069E+03  0.30191456141E+03  0.00000000000E+00 0.  1.
          1    1    1    2  502    0 -0.20383133734E+02  0.22658962933E+01  0.19142125086E+02  0.28054008263E+02  0.00000000000E+00 0. -1.
</event>
<event>
 4    1  0.3555026E+003  0.2065569E+02  0.7546771E-02  0.1524238E+00
          2   -1    0    0  502    0  0.00000000000E+00  0.00000000000E+00  0.23005846432E+03  0.23005846432E+03  0.00000000000E+00 0.  1.
          1   -1    0    0  501    0 -0.00000000000E+00 -0.00000000000E+00 -0.74240556574E+01  0.74240556574E+01  0.00000000000E+00 0.  1.
          2    1    1    2  501    0  0.72755659269E+01 -0.19331933518E+02  0.21416356530E+03  0.21515736152E+03  0.00000000000E+00 0.  1.
          1    1    1    2  502    0 -0.72755659269E+01  0.19331933518E+02  0.84708433669E+01  0.22325158464E+02  0.00000000000E+00 0.  1.
</event>
<event>
 4    1  0.3555026E+003  0.2474274E+02  0.7546771E-02  0.1471702E+00
          2   -1    0    0  502    0  0.00000000000E+00  0.00000000000E+00  0.57228391554E+03  0.57228391554E+03  0.00000000000E+00 0. -1.
          1   -1    0    0  501    0 -0.00000000000E+00 -0.00000000000E+00 -0.26024345154E+01  0.26024345154E+01  0.00000000000E+00 0. -1.
          2    1    1    2  501    0 -0.23889642867E+00  0.24741587562E+02  0.50543177644E+03  0.50603703804E+03  0.00000000000E+00 0. -1.
          1    1    1    2  502    0  0.23889642867E+00 -0.24741587562E+02  0.64249704578E+02  0.68849312016E+02  0.00000000000E+00 0. -1.
</event>
<event>
 4    1  0.3555026E+003  0.3333475E+02  0.7546771E-02  0.1392664E+00
          2   -1    0    0  502    0  0.00000000000E+00  0.00000000000E+00  0.11675113458E+03  0.11675113458E+03  0.00000000000E+00 0.  1.
          1   -1    0    0  501    0 -0.00000000000E+00 -0.00000000000E+00 -0.28421909935E+03  0.28421909935E+03  0.00000000000E+00 0. -1.
          2    1    1    2  501    0 -0.98756920019E+01 -0.31838283780E+02  0.11336569894E+03  0.11816508496E+03  0.00000000000E+00 0.  1.
          1    1    1    2  502    0  0.98756920019E+01  0.31838283780E+02 -0.28083366372E+03  0.28280514897E+03  0.00000000000E+00 0. -1.
</event>
<event>
 4    1  0.3555026E+003  0.5289490E+02  0.7546771E-02  0.1286086E+00
          2   -1    0    0  502    0  0.00000000000E+00  0.00000000000E+00  0.21899166116E+03  0.21899166116E+03  0.00000000000E+00 0. -1.
          1   -1    0    0  501    0 -0.00000000000E+00 -0.00000000000E+00 -0.11874780537E+04  0.11874780537E+04  0.00000000000E+00 0. -1.
          2    1    1    2  501    0 -0.25003887888E+02 -0.46611967440E+02  0.21519835729E+03  0.22160370687E+03  0.00000000000E+00 0. -1.
          1    1    1    2  502    0  0.25003887888E+02  0.46611967440E+02 -0.11836847499E+04  0.11848660080E+04  0.00000000000E+00 0. -1.
</event>
<event>
 4    1  0.3555026E+003  0.2615697E+02  0.7546771E-02  0.1456265E+00
          2   -1    0    0  502    0  0.00000000000E+00  0.00000000000E+00  0.92702539087E+01  0.92702539087E+01  0.00000000000E+00 0.  1.
          1   -1    0    0  501    0 -0.00000000000E+00 -0.00000000000E+00 -0.95197170891E+02  0.95197170891E+02  0.00000000000E+00 0. -1.
          2    1    1    2  501    0  0.17916764703E+01 -0.26095539950E+02 -0.18202329593E+02  0.31867100786E+02  0.00000000000E+00 0.  1.
          1    1    1    2  502    0 -0.17916764703E+01  0.26095539950E+02 -0.67724587389E+02  0.72600324013E+02  0.00000000000E+00 0. -1.
</event>
<event>
 4    1  0.3555026E+003  0.3859129E+02  0.7546771E-02  0.1356945E+00
          2   -1    0    0  502    0  0.00000000000E+00  0.00000000000E+00  0.52559336702E+00  0.52559336702E+00  0.00000000000E+00 0. -1.
          1   -1    0    0  501    0 -0.00000000000E+00 -0.00000000000E+00 -0.28446716773E+04  0.28446716773E+04  0.00000000000E+00 0. -1.
          2    1    1    2  501    0  0.26325405749E+02 -0.28218090973E+02 -0.13330653316E+04  0.13336238097E+04  0.00000000000E+00 0. -1.
          1    1    1    2  502    0 -0.26325405749E+02  0.28218090973E+02 -0.15110807524E+04  0.15115734610E+04  0.00000000000E+00 0. -1.
</event>
<event>
 4    1  0.3555026E+003  0.2428969E+02  0.7546771E-02  0.1476909E+00
          2   -1    0    0  502    0  0.00000000000E+00  0.00000000000E+00  0.39033075400E+01  0.39033075400E+01  0.00000000000E+00 0. -1.
          1   -1    0    0  501    0 -0.00000000000E+00 -0.00000000000E+00 -0.19881806399E+03  0.19881806399E+03  0.00000000000E+00 0. -1.
          2    1    1    2  501    0 -0.23748813962E+02  0.50973606308E+01 -0.47826685106E+02  0.53641225361E+02  0.00000000000E+00 0. -1.
          1    1    1    2  502    0  0.23748813962E+02 -0.50973606308E+01 -0.14708807134E+03  0.14908014617E+03  0.00000000000E+00 0. -1.
</event>
<event>
 4    1  0.5618249E+003  0.2443489E+02  0.7546771E-02  0.1475226E+00
          2   -1    0    0  502    0  0.00000000000E+00  0.00000000000E+00  0.12074477630E+04  0.12074477630E+04  0.00000000000E+00 0.  1.
          1   -1    0    0  501    0 -0.00000000000E+00 -0.00000000000E+00 -0.53656330096E+03  0.53656330096E+03  0.00000000000E+00 0.  1.
          2    1    1    2  501    0  0.20120660071E+02 -0.13864445019E+02  0.12070458604E+04  0.12072931595E+04  0.00000000000E+00 0.  1.
          1    1    1    2  502    0 -0.20120660071E+02  0.13864445019E+02 -0.53616139842E+03  0.53671790444E+03  0.00000000000E+00 0.  1.
</event>
<event>
 4    1  0.3555026E+003  0.2507005E+02  0.7546771E-02  0.1468021E+00
          2   -1    0    0  502    0  0.00000000000E+00  0.00000000000E+00  0.19989480925E+03  0.19989480925E+03  0.00000000000E+00 0.  1.
          1   -1    0    0  501    0 -0.00000000000E+00 -0.00000000000E+00 -0.59863616442E+01  0.59863616442E+01  0.00000000000E+00 0.  1.
          2    1    1    2  501    0 -0.17342754427E+02  0.18103493091E+02  0.16788426024E+03  0.16974578766E+03  0.00000000000E+00 0.  1.
          1    1    1    2  502    0  0.17342754427E+02 -0.18103493091E+02  0.26024187367E+02  0.36135383232E+02  0.00000000000E+00 0.  1.
</event>
<event>
 4    1  0.3555026E+003  0.3074852E+02  0.7546771E-02  0.1413201E+00
          2   -1    0    0  502    0  0.00000000000E+00  0.00000000000E+00  0.21412126190E+04  0.21412126190E+04  0.00000000000E+00 0. -1.
          1   -1    0    0  501    0 -0.00000000000E+00 -0.00000000000E+00 -0.22536313521E+01  0.22536313521E+01  0.00000000000E+00 0.  1.
          2    1    1    2  501    0  0.29388303187E+02 -0.90442775983E+01  0.20305007742E+04  0.20307335782E+04  0.00000000000E+00 0. -1.
          1    1    1    2  502    0 -0.29388303187E+02  0.90442775983E+01  0.10845821341E+03  0.11273267218E+03  0.00000000000E+00 0.  1.
</event>
<event>
 4    1  0.3555026E+003  0.3511209E+02  0.7546771E-02  0.1379777E+00
          2   -1    0    0  502    0  0.00000000000E+00  0.00000000000E+00  0.16307530523E+04  0.16307530523E+04  0.00000000000E+00 0. -1.
          1   -1    0    0  501    0 -0.00000000000E+00 -0.00000000000E+00 -0.13051827726E+02  0.13051827726E+02  0.00000000000E+00 0.  1.
          2    1    1    2  501    0 -0.14382131319E+02  0.32031436113E+02  0.16065943204E+04  0.16069779616E+04  0.00000000000E+00 0. -1.
          1    1    1    2  502    0  0.14382131319E+02 -0.32031436113E+02  0.11106904124E+02  0.36826918415E+02  0.00000000000E+00 0.  1.
</event>
<event>
 4    1  0.3555026E+003  0.2291686E+02  0.7546771E-02  0.1493545E+00
          2   -1    0    0  502    0  0.00000000000E+00  0.00000000000E+00  0.84368555293E+01  0.84368555293E+01  0.00000000000E+00 0.  1.
          1   -1    0    0  501    0 -0.00000000000E+00 -0.00000000000E+00 -0.11514589356E+03  0.11514589356E+03  0.00000000000E+00 0. -1.
          2    1    1    2  501    0 -0.22352696216E+02 -0.50536374396E+01 -0.11473191822E+02  0.25628429723E+02  0.00000000000E+00 0.  1.
          1    1    1    2  502    0  0.22352696216E+02  0.50536374396E+01 -0.95235846210E+02  0.97954319368E+02  0.00000000000E+00 0. -1.
</event>
<event>
 4    1  0.3555026E+003  0.5580334E+02  0.7546771E-02  0.1274799E+00
          2   -1    0    0  502    0  0.00000000000E+00  0.00000000000E+00  0.24393777870E+01  0.24393777870E+01  0.00000000000E+00 0. -1.
          1   -1    0    0  501    0 -0.00000000000E+00 -0.00000000000E+00 -0.13254610016E+04  0.13254610016E+04  0.00000000000E+00 0. -1.
          2    1    1    2  501    0 -0.55750866642E+02  0.24186872444E+01 -0.78904194847E+03  0.79101277210E+03  0.00000000000E+00 0. -1.
          1    1    1    2  502    0  0.55750866642E+02 -0.24186872444E+01 -0.53397967533E+03  0.53688760727E+03  0.00000000000E+00 0. -1.
</event>
<event>
 4    1  0.3555026E+003  0.2037741E+02  0.7546771E-02  0.1528342E+00
          2   -1    0    0  502    0  0.00000000000E+00  0.00000000000E+00  0.66087814552E+02  0.66087814552E+02  0.00000000000E+00 0.  1.
          1   -1    0    0  501    0 -0.00000000000E+00 -0.00000000000E+00 -0.21793729455E+02  0.21793729455E+02  0.00000000000E+00 0.  1.
          2    1    1    2  501    0 -0.18302067425E+02  0.89595340766E+01  0.59216486454E+02  0.62624525474E+02  0.00000000000E+00 0.  1.
          1    1    1    2  502    0  0.18302067425E+02 -0.89595340766E+01 -0.14922401357E+02  0.25257018533E+02  0.00000000000E+00 0.  1.
</event>
<event>
 4    1  0.3555026E+003  0.2044147E+02  0.7546771E-02  0.1527391E+00
          2   -1    0    0  502    0  0.00000000000E+00  0.00000000000E+00  0.47674094094E+03  0.47674094094E+03  0.00000000000E+00 0.  1.
          1   -1    0    0  501    0 -0.00000000000E+00 -0.00000000000E+00 -0.19847515649E+01  0.19847515649E+01  0.00000000000E+00 0. -1.
          2    1    1    2  501    0  0.84654771868E+01  0.18606160080E+02  0.41624373633E+03  0.41674536774E+03  0.00000000000E+00 0.  1.
          1    1    1    2  502    0 -0.84654771868E+01 -0.18606160080E+02  0.58512453049E+02  0.61980324771E+02  0.00000000000E+00 0. -1.
</event>
<event>
 4    1  0.3555026E+003  0.2115350E+02  0.7546771E-02  0.1517084E+00
          2   -1    0    0  502    0  0.00000000000E+00  0.00000000000E+00  0.28779723082E+03  0.28779723082E+03  0.00000000000E+00 0. -1.
          1   -1    0    0  501    0 -0.00000000000E+00 -0.00000000000E+00 -0.17437748689E+01  0.17437748689E+01  0.00000000000E+00 0. -1.
          2    1    1    2  501    0  0.20967494502E+02 -0.27989858821E+01  0.95369928687E+02  0.97687734365E+02  0.00000000000E+00 0. -1.
          1    1    1    2  502    0 -0.20967494502E+02  0.27989858821E+01  0.19068352726E+03  0.19185327132E+03  0.00000000000E+00 0. -1.
</event>
<event>
 4    1  0.3555026E+003  0.3248891E+02  0.7546771E-02  0.1399132E+00
          2   -1    0    0  502    0  0.00000000000E+00  0.00000000000E+00  0.36546766069E+02  0.36546766069E+02  0.00000000000E+00 0. -1.
          1   -1    0    0  501    0 -0.00000000000E+00 -0.00000000000E+00 -0.47684285333E+02  0.47684285333E+02  0.00000000000E+00 0.  1.
          2    1    1    2  501    0 -0.32283218958E+02  0.36500398659E+01  0.20877517557E+02  0.38618645195E+02  0.00000000000E+00 0. -1.
          1    1    1    2  502    0  0.32283218958E+02 -0.36500398659E+01 -0.32015036821E+02  0.45612406207E+02  0.00000000000E+00 0.  1.
</event>
<event>
 4    1  0.3555026E+003  0.2473984E+02  0.7546771E-02  0.1471735E+00
          2   -1    0    0  502    0  0.00000000000E+00  0.00000000000E+00  0.68324049046E+00  0.68324049046E+00  0.00000000000E+00 0. -1.
          1   -1    0    0  501    0 -0.00000000000E+00 -0.00000000000E+00 -0.10695466650E+04  0.10695466650E+04  0.00000000000E+00 0. -1.
          2    1    1    2  501    0 -0.24510708147E+02  0.33593326689E+01 -0.31876580579E+03  0.31972441082E+03  0.00000000000E+00 0. -1.
          1    1    1    2  502    0  0.24510708147E+02 -0.33593326689E+01 -0.75009761874E+03  0.75050549470E+03  0.00000000000E+00 0. -1.
</event>
<event>
 4    1  0.3555026E+003  0.2406856E+02  0.7546771E-02  0.1479499E+00
          2   -1    0    0  502    0  0.00000000000E+00  0.00000000000E+00  0.19522558762E+03  0.19522558762E+03  0.00000000000E+00 0. -1.
          1   -1    0    0  501    0 -0.00000000000E+00 -0.00000000000E+00 -0.17547454144E+03  0.17547454144E+03  0.00000000000E+00 0.  1.
          2    1    1    2  501    0 -0.21284996366E+02  0.11235850633E+02  0.19365175067E+03  0.19514173298E+03  0.00000000000E+00 0. -1.
          1    1    1    2  502    0  0.21284996366E+02 -0.11235850633E+02 -0.17390070450E+03  0.17555839608E+03  0.00000000000E+00 0.  1.
</event>
<event>
 4    1  0.3555026E+003  0.2377391E+02  0.7546771E-02  0.1483002E+00
          2   -1    0    0  502    0  0.00000000000E+00  0.00000000000E+00  0.20449073521E+01  0.20449073521E+01  0.00000000000E+00 0.  1.
          1   -1    0    0  501    0 -0.00000000000E+00 -0.00000000000E+00 -0.18215276849E+04  0.18215276849E+04  0.00000000000E+00 0.  1.
          2    1    1    2  501    0  0.23500752128E+02 -0.35935594837E+01 -0.69975405653E+02  0.73903696908E+02  0.00000000000E+00 0.  1.
          1    1    1    2  502    0 -0.23500752128E+02  0.35935594837E+01 -0.17495073719E+04  0.17496688953E+04  0.00000000000E+00 0.  1.
</event>
<event>
 4    1  0.3555026E+003  0.2535129E+02  0.7546771E-02  0.1464912E+00
          2   -1    0    0  502    0  0.00000000000E+00  0.00000000000E+00  0.29010803808E+03  0.29010803808E+03  0.00000000000E+00 0. -1.
          1   -1    0    0  501    0 -0.00000000000E+00 -0.00000000000E+00 -0.42528402778E+03  0.42528402778E+03  0.00000000000E+00 0. -1.
          2    1    1    2  501    0 -0.70999505583E+01 -0.24336773328E+02  0.28917518758E+03  0.29028430365E+03  0.00000000000E+00 0. -1.
          1    1    1    2  502    0  0.70999505583E+01  0.24336773328E+02 -0.42435117728E+03  0.42510776221E+03  0.00000000000E+00 0. -1.
</event>
<event>
 4    1  0.3555026E+003  0.2701734E+02  0.7546771E-02  0.1447434E+00
          2   -1    0    0  502    0  0.00000000000E+00  0.00000000000E+00  0.16582489895E+04  0.16582489895E+04  0.00000000000E+00 0. -1.
          1   -1    0    0  501    0 -0.00000000000E+00 -0.00000000000E+00 -0.51541070454E+00  0.51541070454E+00  0.00000000000E+00 0.  1.
          2    1    1    2  501    0 -0.10369947246E+02 -0.24947962911E+02  0.11457217821E+04  0.11460402866E+04  0.00000000000E+00 0. -1.
          1    1    1    2  502    0  0.10369947246E+02  0.24947962911E+02  0.51201179674E+03  0.51272411359E+03  0.00000000000E+00 0.  1.
</event>
<event>
 4    1  0.3555026E+003  0.5251630E+02  0.7546771E-02  0.1287616E+00
          2   -1    0    0  502    0  0.00000000000E+00  0.00000000000E+00  0.83609601627E+01  0.83609601627E+01  0.00000000000E+00 0. -1.
          1   -1    0    0  501    0 -0.00000000000E+00 -0.00000000000E+00 -0.94499170547E+03  0.94499170547E+03  0.00000000000E+00 0. -1.
          2    1    1    2  501    0  0.36790934348E+02  0.37475184222E+02 -0.83729812996E+02  0.98836450094E+02  0.00000000000E+00 0. -1.
          1    1    1    2  502    0 -0.36790934348E+02 -0.37475184222E+02 -0.85290093231E+03  0.85451621554E+03  0.00000000000E+00 0. -1.
</event>
<event>
 4    1  0.3555026E+003  0.2407013E+02  0.7546771E-02  0.1479481E+00
          2   -1    0    0  502    0  0.00000000000E+00  0.00000000000E+00  0.15670070326E+04  0.15670070326E+04  0.00000000000E+00 0.  1.
          1   -1    0    0  501    0 -0.00000000000E+00 -0.00000000000E+00 -0.58943747957E+01  0.58943747957E+01  0.00000000000E+00 0.  1.
          2    1    1    2  501    0  0.22956364446E+02  0.72371673404E+01  0.15419421206E+04  0.15421299798E+04  0.00000000000E+00 0.  1.
          1    1    1    2  502    0 -0.22956364446E+02 -0.72371673404E+01  0.19170537160E+02  0.30771427570E+02  0.00000000000E+00 0.  1.
</event>
<event>
 4    1  0.3555026E+003  0.3673391E+02  0.7546771E-02  0.1368767E+00
          2   -1    0    0  502    0  0.00000000000E+00  0.00000000000E+00  0.81957536618E+02  0.81957536618E+02  0.00000000000E+00 0. -1.
          1   -1    0    0  501    0 -0.00000000000E+00 -0.00000000000E+00 -0.10563307240E+03  0.10563307240E+03  0.00000000000E+00 0. -1.
          2    1    1    2  501    0 -0.31228385722E+02 -0.19343428025E+02  0.74338430842E+02  0.82919132789E+02  0.00000000000E+00 0. -1.
          1    1    1    2  502    0  0.31228385722E+02  0.19343428025E+02 -0.98013966628E+02  0.10467147623E+03  0.00000000000E+00 0. -1.
</event>
<event>
 4    1  0.3555026E+003  0.2763947E+02  0.7546771E-02  0.1441288E+00
          2   -1    0    0  502    0  0.00000000000E+00  0.00000000000E+00  0.36804893004E+03  0.36804893004E+03  0.00000000000E+00 0. -1.
          1   -1    0    0  501    0 -0.00000000000E+00 -0.00000000000E+00 -0.87250777834E+01  0.87250777834E+01  0.00000000000E+00 0.  1.
          2    1    1    2  501    0 -0.16690720824E+02 -0.22030887924E+02  0.34412123983E+03  0.34522944238E+03  0.00000000000E+00 0. -1.
          1    1    1    2  502    0  0.16690720824E+02  0.22030887924E+02  0.15202612425E+02  0.31544565441E+02  0.00000000000E+00 0.  1.
</event>
<event>
 4    1  0.3555026E+003  0.5463026E+02  0.7546771E-02  0.1279256E+00
          2   -1    0    0  502    0  0.00000000000E+00  0.00000000000E+00  0.93854807462E+03  0.93854807462E+03  0.00000000000E+00 0.  1.
          1   -1    0    0  501    0 -0.00000000000E+00 -0.00000000000E+00 -0.18957017378E+02  0.18957017378E+02  0.00000000000E+00 0.  1.
          2    1    1    2  501    0 -0.48915196713E+02  0.24326303296E+02  0.89655292228E+03  0.89821579141E+03  0.00000000000E+00 0.  1.
          1    1    1    2  502    0  0.48915196713E+02 -0.24326303296E+02  0.23038134970E+02  0.59289300590E+02  0.00000000000E+00 0.  1.
</event>
<event>
 4    1  0.3555026E+003  0.2099391E+02  0.7546771E-02  0.1519352E+00
          2   -1    0    0  502    0  0.00000000000E+00  0.00000000000E+00  0.47298644970E+02  0.47298644970E+02  0.00000000000E+00 0.  1.
          1   -1    0    0  501    0 -0.00000000000E+00 -0.00000000000E+00 -0.20995327732E+02  0.20995327732E+02  0.00000000000E+00 0.  1.
          2    1    1    2  501    0  0.20933979508E+02  0.15851400971E+01  0.38617424048E+02  0.43955086250E+02  0.00000000000E+00 0.  1.
          1    1    1    2  502    0 -0.20933979508E+02 -0.15851400971E+01 -0.12314106811E+02  0.24338886451E+02  0.00000000000E+00 0.  1.
</event>
<event>
 4    1  0.3555026E+003  0.2289743E+02  0.7546771E-02  0.1493790E+00
          2   -1    0    0  502    0  0.00000000000E+00  0.00000000000E+00  0.19873083482E+03  0.19873083482E+03  0.00000000000E+00 0. -1.
          1   -1    0    0  501    0 -0.00000000000E+00 -0.00000000000E+00 -0.11648160996E+03  0.11648160996E+03  0.00000000000E+00 0. -1.
          2    1    1    2  501    0 -0.14344920382E+02  0.17847001913E+02  0.19693579371E+03  0.19826244995E+03  0.00000000000E+00 0. -1.
          1    1    1    2  502    0  0.14344920382E+02 -0.17847001913E+02 -0.11468656885E+03  0.11694999484E+03  0.00000000000E+00 0. -1.
</event>
<event>
 4    1  0.4878690E+003  0.2101420E+02  0.7546771E-02  0.1519062E+00
          2   -1    0    0  502    0  0.00000000000E+00  0.00000000000E+00  0.89792191633E+03  0.89792191633E+03  0.00000000000E+00 0. -1.
          1   -1    0    0  501    0 -0.00000000000E+00 -0.00000000000E+00 -0.13894442077E+04  0.13894442077E+04  0.00000000000E+00 0.  1.
          2    1    1    2  501    0  0.90843472256E+01 -0.18949172215E+02  0.89771949323E+03  0.89796541416E+03  0.00000000000E+00 0. -1.
          1    1    1    2  502    0 -0.90843472256E+01  0.18949172215E+02 -0.13892417846E+04  0.13894007099E+04  0.00000000000E+00 0.  1.
</event>
<event>
 4    1  0.3555026E+003  0.2774358E+02  0.7546771E-02  0.1440278E+00
          2   -1    0    0  502    0  0.00000000000E+00  0.00000000000E+00  0.18648182025E+02  0.18648182025E+02  0.00000000000E+00 0.  1.
          1   -1    0    0  501    0 -0.00000000000E+00 -0.00000000000E+00 -0.21994470962E+03  0.21994470962E+03  0.00000000000E+00 0. -1.
          2    1    1    2  501    0  0.76389502289E+01 -0.26671192716E+02  0.68734198667E+01  0.28582336891E+02  0.00000000000E+00 0.  1.
          1    1    1    2  502    0 -0.76389502289E+01  0.26671192716E+02 -0.20816994746E+03  0.21001055475E+03  0.00000000000E+00 0. -1.
</event>
<event>
 4    1  0.3555026E+003  0.3781648E+02  0.7546771E-02  0.1361779E+00
          2   -1    0    0  502    0  0.00000000000E+00  0.00000000000E+00  0.22755136096E+02  0.22755136096E+02  0.00000000000E+00 0.  1.
          1   -1    0    0  501    0 -0.00000000000E+00 -0.00000000000E+00 -0.11639606402E+03  0.11639606402E+03  0.00000000000E+00 0.  1.
          2    1    1    2  501    0 -0.37594782874E+02  0.40887855665E+01  0.37115267482E+00  0.37818297437E+02  0.00000000000E+00 0.  1.
          1    1    1    2  502    0  0.37594782874E+02 -0.40887855665E+01 -0.94012080596E+02  0.10133290268E+03  0.00000000000E+00 0.  1.
</event>
<event>
 4    1  0.3555026E+003  0.3076651E+02  0.7546771E-02  0.1413050E+00
          2   -1    0    0  502    0  0.00000000000E+00  0.00000000000E+00  0.10558838199E+03  0.10558838199E+03  0.00000000000E+00 0. -1.
          1   -1    0    0  501    0 -0.00000000000E+00 -0.00000000000E+00 -0.16622552501E+02  0.16622552501E+02  0.00000000000E+00 0. -1.
          2    1    1    2  501    0  0.51132867672E+01 -0.30338631181E+02  0.85957495570E+02  0.91297695963E+02  0.00000000000E+00 0. -1.
          1    1    1    2  502    0 -0.51132867672E+01  0.30338631181E+02  0.30083339232E+01  0.30913238532E+02  0.00000000000E+00 0. -1.
</event>
<event>
 4    1  0.3555026E+003  0.2792992E+02  0.7546771E-02  0.1438484E+00
          2   -1    0    0  502    0  0.00000000000E+00  0.00000000000E+00  0.41497341287E+03  0.41497341287E+03  0.00000000000E+00 0. -1.
          1   -1    0    0  501    0 -0.00000000000E+00 -0.00000000000E+00 -0.10999938298E+04  0.10999938298E+04  0.00000000000E+00 0. -1.
          2    1    1    2  501    0 -0.40109713681E+01  0.27640413603E+02  0.41432588609E+03  0.41526620406E+03  0.00000000000E+00 0. -1.
          1    1    1    2  502    0  0.40109713681E+01 -0.27640413603E+02 -0.10993463030E+04  0.10997010386E+04  0.00000000000E+00 0. -1.
</event>
<event>
 4    1  0.3555026E+003  0.2051054E+02  0.7546771E-02  0.1526369E+00
          2   -1    0    0  502    0  0.00000000000E+00  0.00000000000E+00  0.17159673289E+03  0.17159673289E+03  0.00000000000E+00 0.  1.
          1   -1    0    0  501    0 -0.00000000000E+00 -0.00000000000E+00 -0.51403062527E+01  0.51403062527E+01  0.00000000000E+00 0.  1.
          2    1    1    2  501    0 -0.18424224615E+02  0.90127587053E+01  0.19317014708E+02  0.28174969908E+02  0.00000000000E+00 0.  1.
          1    1    1    2  502    0  0.18424224615E+02 -0.90127587053E+01  0.14713941193E+03  0.14856206923E+03  0.00000000000E+00 0.  1.
</event>
<event>
 4    1  0.3555026E+003  0.2434081E+02  0.7546771E-02  0.1476315E+00
          2   -1    0    0  502    0  0.00000000000E+00  0.00000000000E+00  0.36141352482E+01  0.36141352482E+01  0.00000000000E+00 0. -1.
          1   -1    0    0  501    0 -0.00000000000E+00 -0.00000000000E+00 -0.17981904502E+04  0.17981904502E+04  0.00000000000E+00 0.  1.
          2    1    1    2  501    0  0.18457809508E+02 -0.15867710473E+02 -0.38432611008E+02  0.45492203248E+02  0.00000000000E+00 0. -1.
          1    1    1    2  502    0 -0.18457809508E+02  0.15867710473E+02 -0.17561437039E+04  0.17563123822E+04  0.00000000000E+00 0.  1.
</event>
<event>
 4    1  0.3555026E+003  0.3549245E+02  0.7546771E-02  0.1377134E+00
          2   -1    0    0  502    0  0.00000000000E+00  0.00000000000E+00  0.10750903278E+03  0.10750903278E+03  0.00000000000E+00 0. -1.
          1   -1    0    0  501    0 -0.00000000000E+00 -0.00000000000E+00 -0.10953125508E+03  0.10953125508E+03  0.00000000000E+00 0.  1.
          2    1    1    2  501    0  0.35054400439E+02  0.55590419442E+01  0.10154033123E+03  0.10756464477E+03  0.00000000000E+00 0. -1.
          1    1    1    2  502    0 -0.35054400439E+02 -0.55590419442E+01 -0.10356255353E+03  0.10947564310E+03  0.00000000000E+00 0.  1.
</event>
<event>
 4    1  0.3555026E+003  0.2232628E+02  0.7546771E-02  0.1501136E+00
          2   -1    0    0  502    0  0.00000000000E+00  0.00000000000E+00  0.36169765581E+02  0.36169765581E+02  0.00000000000E+00 0.  1.
          1   -1    0    0  501    0 -0.00000000000E+00 -0.00000000000E+00 -0.39502703391E+02  0.39502703391E+02  0.00000000000E+00 0. -1.
          2    1    1    2  501    0  0.21901019226E+02  0.43368205719E+01  0.28864648643E+02  0.36491514042E+02  0.00000000000E+00 0.  1.
          1    1    1    2  502    0 -0.21901019226E+02 -0.43368205719E+01 -0.32197586453E+02  0.39180954930E+02  0.00000000000E+00 0. -1.
</event>
<event>
 4    1  0.3555026E+003  0.3643808E+02  0.7546771E-02  0.1370725E+00
          2   -1    0    0  502    0  0.00000000000E+00  0.00000000000E+00  0.51656218903E+01  0.51656218903E+01  0.00000000000E+00 0.  1.
          1   -1    0    0  501    0 -0.00000000000E+00 -0.00000000000E+00 -0.59869945825E+03  0.59869945825E+03  0.00000000000E+00 0.  1.
          2    1    1    2  501    0 -0.31807823193E+02  0.17776269962E+02 -0.68676576996E+02  0.77744489309E+02  0.00000000000E+00 0.  1.
          1    1    1    2  502    0  0.31807823193E+02 -0.17776269962E+02 -0.52485725936E+03  0.52612059083E+03  0.00000000000E+00 0.  1.
</event>
<event>
 4    1  0.3555026E+003  0.2096193E+02  0.7546771E-02  0.1519809E+00
          2   -1    0    0  502    0  0.00000000000E+00  0.00000000000E+00  0.63119506662E+03  0.63119506662E+03  0.00000000000E+00 0.  1.
          1   -1    0    0  501    0 -0.00000000000E+00 -0.00000000000E+00 -0.26042353007E+01  0.26042353007E+01  0.00000000000E+00 0. -1.
          2    1    1    2  501    0  0.13920984143E+01  0.20915656531E+02  0.58555258890E+03  0.58592767215E+03  0.00000000000E+00 0.  1.
          1    1    1    2  502    0 -0.13920984143E+01 -0.20915656531E+02  0.43038242415E+02  0.47871629765E+02  0.00000000000E+00 0. -1.
</event>
<event>
 4    1  0.3555026E+003  0.3387250E+02  0.7546771E-02  0.1388668E+00
          2   -1    0    0  502    0  0.00000000000E+00  0.00000000000E+00  0.11258850984E+03  0.11258850984E+03  0.00000000000E+00 0.  1.
          1   -1    0    0  501    0 -0.00000000000E+00 -0.00000000000E+00 -0.11176783056E+03  0.11176783056E+03  0.00000000000E+00 0. -1.
          2    1    1    2  501    0  0.19186370497E+01 -0.33818116446E+02  0.10735228814E+03  0.11256935612E+03  0.00000000000E+00 0.  1.
          1    1    1    2  502    0 -0.19186370497E+01  0.33818116446E+02 -0.10653160886E+03  0.11178698428E+03  0.00000000000E+00 0. -1.
</event>
<event>
 4    1  0.3555026E+003  0.3090676E+02  0.7546771E-02  0.1411877E+00
          2   -1    0    0  502    0  0.00000000000E+00  0.00000000000E+00  0.45666987235E+01  0.45666987235E+01  0.00000000000E+00 0.  1.
          1   -1    0    0  501    0 -0.00000000000E+00 -0.00000000000E+00 -0.28060601977E+03  0.28060601977E+03  0.00000000000E+00 0.  1.
          2    1    1    2  501    0  0.85608431361E+01  0.29697466372E+02 -0.66077963856E+02  0.72948782385E+02  0.00000000000E+00 0.  1.
          1    1    1    2  502    0 -0.85608431361E+01 -0.29697466372E+02 -0.20996135719E+03  0.21222393611E+03  0.00000000000E+00 0.  1.
</event>
<event>
 4    1  0.3555026E+003  0.5850308E+02  0.7546771E-02  0.1265005E+00
          2   -1    0    0  502    0  0.00000000000E+00  0.00000000000E+00  0.21647447809E+02  0.21647447809E+02  0.00000000000E+00 0. -1.
          1   -1    0    0  501    0 -0.00000000000E+00 -0.00000000000E+00 -0.58361908914E+03  0.58361908914E+03  0.00000000000E+00 0.  1.
          2    1    1    2  501    0 -0.36147897471E+02 -0.45999349312E+02 -0.22576643998E+02  0.62708177161E+02  0.00000000000E+00 0. -1.
          1    1    1    2  502    0  0.36147897471E+02  0.45999349312E+02 -0.53939499733E+03  0.54255835979E+03  0.00000000000E+00 0.  1.
</event>
<event>
 4    1  0.3555026E+003  0.2819072E+02  0.7546771E-02  0.1436000E+00
          2   -1    0    0  502    0  0.00000000000E+00  0.00000000000E+00  0.30170140254E+01  0.30170140254E+01  0.00000000000E+00 0. -1.
          1   -1    0    0  501    0 -0.00000000000E+00 -0.00000000000E+00 -0.26794596892E+03  0.26794596892E+03  0.00000000000E+00 0. -1.
          2    1    1    2  501    0  0.24191548344E+02  0.14473592454E+02 -0.15008928299E+03  0.15271381326E+03  0.00000000000E+00 0. -1.
          1    1    1    2  502    0 -0.24191548344E+02 -0.14473592454E+02 -0.11483967190E+03  0.11824916969E+03  0.00000000000E+00 0. -1.
</event>
<event>
 4    1  0.3555026E+003  0.2803202E+02  0.7546771E-02  0.1437508E+00
          2   -1    0    0  502    0  0.00000000000E+00  0.00000000000E+00  0.31585652687E+03  0.31585652687E+03  0.00000000000E+00 0. -1.
          1   -1    0    0  501    0 -0.00000000000E+00 -0.00000000000E+00 -0.16917128233E+04  0.16917128233E+04  0.00000000000E+00 0.  1.
          2    1    1    2  501    0 -0.27693634919E+02  0.43424178351E+01  0.31511817644E+03  0.31636254381E+03  0.00000000000E+00 0. -1.
          1    1    1    2  502    0  0.27693634919E+02 -0.43424178351E+01 -0.16909744729E+04  0.16912068064E+04  0.00000000000E+00 0.  1.
</event>
<event>
 4    1  0.3555026E+003  0.3286662E+02  0.7546771E-02  0.1396216E+00
          2   -1    0    0  502    0  0.00000000000E+00  0.00000000000E+00  0.10398254288E+04  0.10398254288E+04  0.00000000000E+00 0.  1.
          1   -1    0    0  501    0 -0.00000000000E+00 -0.00000000000E+00 -0.28898334578E+01  0.28898334578E+01  0.00000000000E+00 0.  1.
          2    1    1    2  501    0 -0.25713750095E+01 -0.32765875663E+02  0.93572275619E+03  0.93629978694E+03  0.00000000000E+00 0.  1.
          1    1    1    2  502    0  0.25713750095E+01  0.32765875663E+02  0.10121283917E+03  0.10641547533E+03  0.00000000000E+00 0.  1.
</event>
<event>
 4    1  0.3555026E+003  0.2413474E+02  0.7546771E-02  0.1478720E+00
          2   -1    0    0  502    0  0.00000000000E+00  0.00000000000E+00  0.26791409244E+02  0.26791409244E+02  0.00000000000E+00 0.  1.
          1   -1    0    0  501    0 -0.00000000000E+00 -0.00000000000E+00 -0.27359182476E+02  0.27359182476E+02  0.00000000000E+00 0.  1.
          2    1    1    2  501    0  0.24112703383E+02  0.10310198174E+01  0.11984859690E+02  0.26946657086E+02  0.00000000000E+00 0.  1.
          1    1    1    2  502    0 -0.24112703383E+02 -0.10310198174E+01 -0.12552632922E+02  0.27203934635E+02  0.00000000000E+00 0.  1.
</event>
<event>
 4    1  0.3555026E+003  0.2121862E+02  0.7546771E-02  0.1516166E+00
          2   -1    0    0  502    0  0.00000000000E+00  0.00000000000E+00  0.25604300577E+03  0.25604300577E+03  0.00000000000E+00 0.  1.
          1   -1    0    0  501    0 -0.00000000000E+00 -0.00000000000E+00 -0.22479800730E+01  0.22479800730E+01  0.00000000000E+00 0.  1.
          2    1    1    2  501    0 -0.64609938407E+01  0.20211018527E+02  0.18716575158E+03  0.18836466833E+03  0.00000000000E+00 0.  1.
          1    1    1    2  502    0  0.64609938407E+01 -0.20211018527E+02  0.66629274113E+02  0.69926317508E+02  0.00000000000E+00 0.  1.
</event>
<event>
 4    1  0.3555026E+003  0.2205413E+02  0.7546771E-02  0.1504730E+00
          2   -1    0    0  502    0  0.00000000000E+00  0.00000000000E+00  0.31127683084E+01  0.31127683084E+01  0.00000000000E+00 0. -1.
          1   -1    0    0  501    0 -0.00000000000E+00 -0.00000000000E+00 -0.12020673769E+04  0.12020673769E+04  0.00000000000E+00 0.  1.
          2    1    1    2  501    0 -0.15109217180E+02  0.16065378185E+02 -0.37414936505E+02  0.43431121258E+02  0.00000000000E+00 0. -1.
          1    1    1    2  502    0  0.15109217180E+02 -0.16065378185E+02 -0.11615396721E+04  0.11617490240E+04  0.00000000000E+00 0.  1.
</event>
<event>
 4    1  0.3555026E+003  0.3023160E+02  0.7546771E-02  0.1417594E+00
          2   -1    0    0  502    0  0.00000000000E+00  0.00000000000E+00  0.10504259443E+03  0.10504259443E+03  0.00000000000E+00 0. -1.
          1   -1    0    0  501    0 -0.00000000000E+00 -0.00000000000E+00 -0.91046058372E+02  0.91046058372E+02  0.00000000000E+00 0. -1.
          2    1    1    2  501    0 -0.94557994667E+01  0.28714757860E+02  0.10024021215E+03  0.10469980704E+03  0.00000000000E+00 0. -1.
          1    1    1    2  502    0  0.94557994667E+01 -0.28714757860E+02 -0.86243676095E+02  0.91388845758E+02  0.00000000000E+00 0. -1.
</event>
<event>
 4    1  0.3555026E+003  0.2115121E+02  0.7546771E-02  0.1517117E+00
          2   -1    0    0  502    0  0.00000000000E+00  0.00000000000E+00  0.67175000110E+01  0.67175000110E+01  0.00000000000E+00 0. -1.
          1   -1    0    0  501    0 -0.00000000000E+00 -0.00000000000E+00 -0.10358192637E+04  0.10358192637E+04  0.00000000000E+00 0.  1.
          2    1    1    2  501    0 -0.16436325533E+02 -0.13312428886E+02 -0.10318412258E+02  0.23533873277E+02  0.00000000000E+00 0. -1.
          1    1    1    2  502    0  0.16436325533E+02  0.13312428886E+02 -0.10187833514E+04  0.10190028904E+04  0.00000000000E+00 0.  1.
</event>
<event>
 4    1  0.3555026E+003  0.2130718E+02  0.7546771E-02  0.1514924E+00
          2   -1    0    0  502    0  0.00000000000E+00  0.00000000000E+00  0.91934689421E+03  0.91934689421E+03  0.00000000000E+00 0. -1.
          1   -1    0    0  501    0 -0.00000000000E+00 -0.00000000000E+00 -0.69259512781E+01  0.69259512781E+01  0.00000000000E+00 0.  1.
          2    1    1    2  501    0 -0.12439719296E+02  0.17298822085E+02  0.90253065247E+03  0.90278213015E+03  0.00000000000E+00 0. -1.
          1    1    1    2  502    0  0.12439719296E+02 -0.17298822085E+02  0.98902904545E+01  0.23490715335E+02  0.00000000000E+00 0.  1.
</event>
<event>
 4    1  0.3555026E+003  0.2086597E+02  0.7546771E-02  0.1521187E+00
          2   -1    0    0  502    0  0.00000000000E+00  0.00000000000E+00  0.78134304717E+02  0.78134304717E+02  0.00000000000E+00 0.  1.
          1   -1    0    0  501    0 -0.00000000000E+00 -0.00000000000E+00 -0.12823292152E+02  0.12823292152E+02  0.00000000000E+00 0. -1.
          2    1    1    2  501    0  0.14010797643E+02 -0.15462412322E+02  0.66854049127E+02  0.70034652353E+02  0.00000000000E+00 0.  1.
          1    1    1    2  502    0 -0.14010797643E+02  0.15462412322E+02 -0.15430365630E+01  0.20922944516E+02  0.00000000000E+00 0. -1.
</event>
<event>
 4    1  0.3555026E+003  0.2013647E+02  0.7546771E-02  0.1531960E+00
          2   -1    0    0  502    0  0.00000000000E+00  0.00000000000E+00  0.73011738014E+01  0.73011738014E+01  0.00000000000E+00 0.  1.
          1   -1    0    0  501    0 -0.00000000000E+00 -0.00000000000E+00 -0.49062316557E+03  0.49062316557E+03  0.00000000000E+00 0. -1.
          2    1    1    2  501    0  0.19042477212E+02 -0.65468776026E+01 -0.72124726191E+01  0.21389186660E+02  0.00000000000E+00 0.  1.
          1    1    1    2  502    0 -0.19042477212E+02  0.65468776026E+01 -0.47610951915E+03  0.47653515271E+03  0.00000000000E+00 0. -1.
</event>
<event>
 4    1  0.3555026E+003  0.2303334E+02  0.7546771E-02  0.1492080E+00
          2   -1    0    0  502    0  0.00000000000E+00  0.00000000000E+00  0.30916397262E+03  0.30916397262E+03  0.00000000000E+00 0. -1.
          1   -1    0    0  501    0 -0.00000000000E+00 -0.00000000000E+00 -0.17774022567E+01  0.17774022567E+01  0.00000000000E+00 0.  1.
          2    1    1    2  501    0  0.12548738875E+02  0.19314865423E+02  0.18258272789E+03  0.18402985464E+03  0.00000000000E+00 0. -1.
          1    1    1    2  502    0 -0.12548738875E+02 -0.19314865423E+02  0.12480384248E+03  0.12691152024E+03  0.00000000000E+00 0.  1.
</event>
<event>
 4    1  0.3555026E+003  0.2035669E+02  0.7546771E-02  0.1528651E+00
          2   -1    0    0  502    0  0.00000000000E+00  0.00000000000E+00  0.42829836527E+03  0.42829836527E+03  0.00000000000E+00 0.  1.
          1   -1    0    0  501    0 -0.00000000000E+00 -0.00000000000E+00 -0.16992059453E+03  0.16992059453E+03  0.00000000000E+00 0. -1.
          2    1    1    2  501    0 -0.14308087238E+02 -0.14480099531E+02  0.42744557659E+03  0.42793003586E+03  0.00000000000E+00 0.  1.
          1    1    1    2  502    0  0.14308087238E+02  0.14480099531E+02 -0.16906780585E+03  0.17028892394E+03  0.00000000000E+00 0. -1.
</event>
<event>
 4    1  0.3555026E+003  0.2002357E+02  0.7546771E-02  0.1533676E+00
          2   -1    0    0  502    0  0.00000000000E+00  0.00000000000E+00  0.95362327615E+02  0.95362327615E+02  0.00000000000E+00 0. -1.
          1   -1    0    0  501    0 -0.00000000000E+00 -0.00000000000E+00 -0.94935127887E+02  0.94935127887E+02  0.00000000000E+00 0.  1.
          2    1    1    2  501    0 -0.17657059408E+02  0.94430745762E+01  0.93231528069E+02  0.95357544172E+02  0.00000000000E+00 0. -1.
          1    1    1    2  502    0  0.17657059408E+02 -0.94430745762E+01 -0.92804328342E+02  0.94939911330E+02  0.00000000000E+00 0.  1.
</event>
<event>
 4    1  0.3555026E+003  0.2548338E+02  0.7546771E-02  0.1463468E+00
          2   -1    0    0  502    0  0.00000000000E+00  0.00000000000E+00  0.27930384428E+03  0.27930384428E+03  0.00000000000E+00 0.  1.
          1   -1    0    0  501    0 -0.00000000000E+00 -0.00000000000E+00 -0.43857443321E+01  0.43857443321E+01  0.00000000000E+00 0.  1.
          2    1    1    2  501    0  0.24885905543E+02 -0.54858547805E+01  0.23468802495E+03  0.23606751567E+03  0.00000000000E+00 0.  1.
          1    1    1    2  502    0 -0.24885905543E+02  0.54858547805E+01  0.40230074994E+02  0.47622072943E+02  0.00000000000E+00 0.  1.
</event>
<event>
 4    1  0.3555026E+003  0.3338668E+02  0.7546771E-02  0.1392274E+00
          2   -1    0    0  502    0  0.00000000000E+00  0.00000000000E+00  0.16766455638E+03  0.16766455638E+03  0.00000000000E+00 0. -1.
          1   -1    0    0  501    0 -0.00000000000E+00 -0.00000000000E+00 -0.19993767340E+02  0.19993767340E+02  0.00000000000E+00 0. -1.
          2    1    1    2  501    0 -0.30849893711E+02 -0.12765354311E+02  0.15049362278E+03  0.15415252418E+03  0.00000000000E+00 0. -1.
          1    1    1    2  502    0  0.30849893711E+02  0.12765354311E+02 -0.28228337401E+01  0.33505799543E+02  0.00000000000E+00 0. -1.
</event>
<event>
 4    1  0.3555026E+003  0.2283443E+02  0.7546771E-02  0.1494588E+00
          2   -1    0    0  502    0  0.00000000000E+00  0.00000000000E+00  0.49288192706E+03  0.49288192706E+03  0.00000000000E+00 0.  1.
          1   -1    0    0  501    0 -0.00000000000E+00 -0.00000000000E+00 -0.13393444493E+01  0.13393444493E+01  0.00000000000E+00 0.  1.
          2    1    1    2  501    0  0.21753762867E+02 -0.69415261244E+01  0.35905186153E+03  0.35977722308E+03  0.00000000000E+00 0.  1.
          1    1    1    2  502    0 -0.21753762867E+02  0.69415261244E+01  0.13249072109E+03  0.13444404843E+03  0.00000000000E+00 0.  1.
</event>
<event>
 4    1  0.3555026E+003  0.2289804E+02  0.7546771E-02  0.1493782E+00
          2   -1    0    0  502    0  0.00000000000E+00  0.00000000000E+00  0.56463114388E+01  0.56463114388E+01  0.00000000000E+00 0. -1.
          1   -1    0    0  501    0 -0.00000000000E+00 -0.00000000000E+00 -0.45033345786E+03  0.45033345786E+03  0.00000000000E+00 0. -1.
          2    1    1    2  501    0 -0.22580619023E+02 -0.37994763712E+01 -0.19215498055E+02  0.29892402742E+02  0.00000000000E+00 0. -1.
          1    1    1    2  502    0  0.22580619023E+02  0.37994763712E+01 -0.42547164836E+03  0.42608736655E+03  0.00000000000E+00 0. -1.
</event>
<event>
 4    1  0.3555026E+003  0.3205103E+02  0.7546771E-02  0.1402572E+00
          2   -1    0    0  502    0  0.00000000000E+00  0.00000000000E+00  0.27384211608E+01  0.27384211608E+01  0.00000000000E+00 0.  1.
          1   -1    0    0  501    0 -0.00000000000E+00 -0.00000000000E+00 -0.37859315807E+03  0.37859315807E+03  0.00000000000E+00 0.  1.
          2    1    1    2  501    0  0.18012479795E+02  0.26510737404E+02 -0.16969617913E+03  0.17269644420E+03  0.00000000000E+00 0.  1.
          1    1    1    2  502    0 -0.18012479795E+02 -0.26510737404E+02 -0.20615855777E+03  0.20863513503E+03  0.00000000000E+00 0.  1.
</event>
<event>
 4    1  0.3555026E+003  0.4981767E+02  0.7546771E-02  0.1298965E+00
          2   -1    0    0  502    0  0.00000000000E+00  0.00000000000E+00  0.10884233407E+02  0.10884233407E+02  0.00000000000E+00 0.  1.
          1   -1    0    0  501    0 -0.00000000000E+00 -0.00000000000E+00 -0.30769389285E+03  0.30769389285E+03  0.00000000000E+00 0.  1.
          2    1    1    2  501    0  0.41438542952E+02  0.27652258804E+02 -0.67347889074E+02  0.83770749200E+02  0.00000000000E+00 0.  1.
          1    1    1    2  502    0 -0.41438542952E+02 -0.27652258804E+02 -0.22946177037E+03  0.23480737706E+03  0.00000000000E+00 0.  1.
</event>
<event>
 4    1  0.3555026E+003  0.2769139E+02  0.7546771E-02  0.1440784E+00
          2   -1    0    0  502    0  0.00000000000E+00  0.00000000000E+00  0.26853023172E+01  0.26853023172E+01  0.00000000000E+00 0. -1.
          1   -1    0    0  501    0 -0.00000000000E+00 -0.00000000000E+00 -0.94165874406E+03  0.94165874406E+03  0.00000000000E+00 0.  1.
          2    1    1    2  501    0  0.22020680098E+02 -0.16789955672E+02 -0.75357781354E+02  0.80284545051E+02  0.00000000000E+00 0. -1.
          1    1    1    2  502    0 -0.22020680098E+02  0.16789955672E+02 -0.86361566039E+03  0.86405950133E+03  0.00000000000E+00 0.  1.
</event>
<event>
 4    1  0.3555026E+003  0.2914536E+02  0.7546771E-02  0.1427171E+00
          2   -1    0    0  502    0  0.00000000000E+00  0.00000000000E+00  0.64727397790E+03  0.64727397790E+03  0.00000000000E+00 0. -1.
          1   -1    0    0  501    0 -0.00000000000E+00 -0.00000000000E+00 -0.21997046300E+01  0.21997046300E+01  0.00000000000E+00 0. -1.
          2    1    1    2  501    0 -0.16725740127E+01 -0.29097326438E+02  0.52878870858E+03  0.52959130491E+03  0.00000000000E+00 0. -1.
          1    1    1    2  502    0  0.16725740127E+01  0.29097326438E+02  0.11628556469E+03  0.11988237762E+03  0.00000000000E+00 0. -1.
</event>
<event>
 4    1  0.3555026E+003  0.2137189E+02  0.7546771E-02  0.1514021E+00
          2   -1    0    0  502    0  0.00000000000E+00  0.00000000000E+00  0.58552902178E+03  0.58552902178E+03  0.00000000000E+00 0. -1.
          1   -1    0    0  501    0 -0.00000000000E+00 -0.00000000000E+00 -0.16097468576E+01  0.16097468576E+01  0.00000000000E+00 0. -1.
          2    1    1    2  501    0 -0.18267963633E+02  0.11092307243E+02  0.50271789611E+03  0.50317197940E+03  0.00000000000E+00 0. -1.
          1    1    1    2  502    0  0.18267963633E+02 -0.11092307243E+02  0.81201378806E+02  0.83966789240E+02  0.00000000000E+00 0. -1.
</event>
<event>
 4    1  0.3555026E+003  0.2670289E+02  0.7546771E-02  0.1450616E+00
          2   -1    0    0  502    0  0.00000000000E+00  0.00000000000E+00  0.10910527611E+04  0.10910527611E+04  0.00000000000E+00 0. -1.
          1   -1    0    0  501    0 -0.00000000000E+00 -0.00000000000E+00 -0.18141906682E+02  0.18141906682E+02  0.00000000000E+00 0. -1.
          2    1    1    2  501    0  0.80102305624E+01  0.25473131340E+02  0.10809718288E+04  0.10813015948E+04  0.00000000000E+00 0. -1.
          1    1    1    2  502    0 -0.80102305624E+01 -0.25473131340E+02 -0.80609743765E+01  0.27893073008E+02  0.00000000000E+00 0. -1.
</event>
<event>
 4    1  0.3555026E+003  0.4161983E+02  0.7546771E-02  0.1339246E+00
          2   -1    0    0  502    0  0.00000000000E+00  0.00000000000E+00  0.13145757470E+04  0.13145757470E+04  0.00000000000E+00 0. -1.
          1   -1    0    0  501    0 -0.00000000000E+00 -0.00000000000E+00 -0.37953196160E+02  0.37953196160E+02  0.00000000000E+00 0.  1.
          2    1    1    2  501    0 -0.80991811725E+01 -0.40824176745E+02  0.13027324454E+04  0.13033971131E+04  0.00000000000E+00 0. -1.
          1    1    1    2  502    0  0.80991811725E+01  0.40824176745E+02 -0.26109894483E+02  0.49131830136E+02  0.00000000000E+00 0.  1.
</event>
<event>
 4    1  0.3555026E+003  0.5125166E+02  0.7546771E-02  0.1292835E+00
          2   -1    0    0  502    0  0.00000000000E+00  0.00000000000E+00  0.15738091210E+03  0.15738091210E+03  0.00000000000E+00 0.  1.
          1   -1    0    0  501    0 -0.00000000000E+00 -0.00000000000E+00 -0.59762694114E+02  0.59762694114E+02  0.00000000000E+00 0.  1.
          2    1    1    2  501    0  0.86759175032E+01  0.50511986380E+02  0.14098164724E+03  0.15000852366E+03  0.00000000000E+00 0.  1.
          1    1    1    2  502    0 -0.86759175032E+01 -0.50511986380E+02 -0.43363429255E+02  0.67135082552E+02  0.00000000000E+00 0.  1.
</event>
<event>
 4    1  0.3555026E+003  0.2188615E+02  0.7546771E-02  0.1506979E+00
          2   -1    0    0  502    0  0.00000000000E+00  0.00000000000E+00  0.15689225878E+04  0.15689225878E+04  0.00000000000E+00 0.  1.
          1   -1    0    0  501    0 -0.00000000000E+00 -0.00000000000E+00 -0.38931067476E+01  0.38931067476E+01  0.00000000000E+00 0. -1.
          2    1    1    2  501    0  0.12998763744E+02  0.17607834218E+02  0.15374570327E+04  0.15376128027E+04  0.00000000000E+00 0.  1.
          1    1    1    2  502    0 -0.12998763744E+02 -0.17607834218E+02  0.27572448333E+02  0.35202891810E+02  0.00000000000E+00 0. -1.
</event>
<event>
 4    1  0.3555026E+003  0.2234122E+02  0.7546771E-02  0.1500940E+00
          2   -1    0    0  502    0  0.00000000000E+00  0.00000000000E+00  0.78864096839E+03  0.78864096839E+03  0.00000000000E+00 0. -1.
          1   -1    0    0  501    0 -0.00000000000E+00 -0.00000000000E+00 -0.91504966358E+02  0.91504966358E+02  0.00000000000E+00 0.  1.
          2    1    1    2  501    0  0.15395650185E+02  0.16189632149E+02  0.78711643309E+03  0.78743343177E+03  0.00000000000E+00 0. -1.
          1    1    1    2  502    0 -0.15395650185E+02 -0.16189632149E+02 -0.89980431060E+02  0.92712502973E+02  0.00000000000E+00 0.  1.
</event>
<event>
 4    1  0.3555026E+003  0.2052295E+02  0.7546771E-02  0.1526186E+00
          2   -1    0    0  502    0  0.00000000000E+00  0.00000000000E+00  0.40424978904E+01  0.40424978904E+01  0.00000000000E+00 0.  1.
          1   -1    0    0  501    0 -0.00000000000E+00 -0.00000000000E+00 -0.10427375852E+03  0.10427375852E+03  0.00000000000E+00 0. -1.
          2    1    1    2  501    0 -0.18098913073E+02  0.96757754639E+01 -0.48588487549E+02  0.52744975188E+02  0.00000000000E+00 0.  1.
          1    1    1    2  502    0  0.18098913073E+02 -0.96757754639E+01 -0.51642773077E+02  0.55571281220E+02  0.00000000000E+00 0. -1.
</event>
<event>
 4    1  0.3555026E+003  0.2172081E+02  0.7546771E-02  0.1509218E+00
          2   -1    0    0  502    0  0.00000000000E+00  0.00000000000E+00  0.15565133114E+04  0.15565133114E+04  0.00000000000E+00 0. -1.
          1   -1    0    0  501    0 -0.00000000000E+00 -0.00000000000E+00 -0.38652286490E+00  0.38652286490E+00  0.00000000000E+00 0.  1.
          2    1    1    2  501    0 -0.20921531894E+02  0.58380615845E+01  0.11396911517E+04  0.11398981160E+04  0.00000000000E+00 0. -1.
          1    1    1    2  502    0  0.20921531894E+02 -0.58380615845E+01  0.41643563685E+03  0.41700171834E+03  0.00000000000E+00 0.  1.
</event>
<event>
 4    1  0.3555026E+003  0.4876423E+02  0.7546771E-02  0.1303621E+00
          2   -1    0    0  502    0  0.00000000000E+00  0.00000000000E+00  0.72882471070E+02  0.72882471070E+02  0.00000000000E+00 0.  1.
          1   -1    0    0  501    0 -0.00000000000E+00 -0.00000000000E+00 -0.12924345315E+03  0.12924345315E+03  0.00000000000E+00 0. -1.
          2    1    1    2  501    0  0.13285034153E+02 -0.46919695669E+02  0.59199676393E+02  0.76697794357E+02  0.00000000000E+00 0.  1.
          1    1    1    2  502    0 -0.13285034153E+02  0.46919695669E+02 -0.11556065847E+03  0.12542812986E+03  0.00000000000E+00 0. -1.
</event>
<event>
 4    1  0.3555026E+003  0.2218608E+02  0.7546771E-02  0.1502979E+00
          2   -1    0    0  502    0  0.00000000000E+00  0.00000000000E+00  0.59210224672E+03  0.59210224672E+03  0.00000000000E+00 0. -1.
          1   -1    0    0  501    0 -0.00000000000E+00 -0.00000000000E+00 -0.16202727076E+03  0.16202727076E+03  0.00000000000E+00 0. -1.
          2    1    1    2  501    0  0.11876840226E+02  0.18739343264E+02  0.59113370004E+03  0.59154989108E+03  0.00000000000E+00 0. -1.
          1    1    1    2  502    0 -0.11876840226E+02 -0.18739343264E+02 -0.16105872407E+03  0.16257962640E+03  0.00000000000E+00 0. -1.
</event>
<event>
 4    1  0.3555026E+003  0.2094518E+02  0.7546771E-02  0.1520049E+00
          2   -1    0    0  502    0  0.00000000000E+00  0.00000000000E+00  0.10753638673E+01  0.10753638673E+01  0.00000000000E+00 0.  1.
          1   -1    0    0  501    0 -0.00000000000E+00 -0.00000000000E+00 -0.12539911117E+04  0.12539911117E+04  0.00000000000E+00 0.  1.
          2    1    1    2  501    0  0.37421247356E+01 -0.20608179909E+02 -0.11101109155E+03  0.11296974384E+03  0.00000000000E+00 0.  1.
          1    1    1    2  502    0 -0.37421247356E+01  0.20608179909E+02 -0.11419046563E+04  0.11420967317E+04  0.00000000000E+00 0.  1.
</event>
<event>
 4    1  0.3555026E+003  0.6516608E+02  0.7546771E-02  0.1243223E+00
          2   -1    0    0  502    0  0.00000000000E+00  0.00000000000E+00  0.20931875881E+02  0.20931875881E+02  0.00000000000E+00 0.  1.
          1   -1    0    0  501    0 -0.00000000000E+00 -0.00000000000E+00 -0.28396873985E+03  0.28396873985E+03  0.00000000000E+00 0.  1.
          2    1    1    2  501    0  0.56838484095E+02 -0.31874838924E+02 -0.50052041198E+02  0.82169492263E+02  0.00000000000E+00 0.  1.
          1    1    1    2  502    0 -0.56838484095E+02  0.31874838924E+02 -0.21298482277E+03  0.22273112346E+03  0.00000000000E+00 0.  1.
</event>
<event>
 4    1  0.3555026E+003  0.3863281E+02  0.7546771E-02  0.1356689E+00
          2   -1    0    0  502    0  0.00000000000E+00  0.00000000000E+00  0.19228405675E+04  0.19228405675E+04  0.00000000000E+00 0.  1.
          1   -1    0    0  501    0 -0.00000000000E+00 -0.00000000000E+00 -0.32119201948E+01  0.32119201948E+01  0.00000000000E+00 0. -1.
          2    1    1    2  501    0  0.13741903677E+02  0.36106147420E+02  0.17984438438E+04  0.17988587363E+04  0.00000000000E+00 0.  1.
          1    1    1    2  502    0 -0.13741903677E+02 -0.36106147420E+02  0.12118480354E+03  0.12719375145E+03  0.00000000000E+00 0. -1.
</event>
<event>
 4    1  0.3555026E+003  0.3036598E+02  0.7546771E-02  0.1416442E+00
          2   -1    0    0  502    0  0.00000000000E+00  0.00000000000E+00  0.21297526712E+04  0.21297526712E+04  0.00000000000E+00 0. -1.
          1   -1    0    0  501    0 -0.00000000000E+00 -0.00000000000E+00 -0.72569839454E+00  0.72569839454E+00  0.00000000000E+00 0.  1.
          2    1    1    2  501    0  0.27129694095E+02  0.13640844381E+02  0.17410800960E+04  0.17413448807E+04  0.00000000000E+00 0. -1.
          1    1    1    2  502    0 -0.27129694095E+02 -0.13640844381E+02  0.38794687675E+03  0.38913348881E+03  0.00000000000E+00 0.  1.
</event>
<event>
 4    1  0.3555026E+003  0.2104933E+02  0.7546771E-02  0.1518562E+00
          2   -1    0    0  502    0  0.00000000000E+00  0.00000000000E+00  0.28076971891E+02  0.28076971891E+02  0.00000000000E+00 0.  1.
          1   -1    0    0  501    0 -0.00000000000E+00 -0.00000000000E+00 -0.46734690658E+03  0.46734690658E+03  0.00000000000E+00 0.  1.
          2    1    1    2  501    0  0.10570890416E+02  0.18202492672E+02  0.23858865810E+02  0.31816975680E+02  0.00000000000E+00 0.  1.
          1    1    1    2  502    0 -0.10570890416E+02 -0.18202492672E+02 -0.46312880050E+03  0.46360690280E+03  0.00000000000E+00 0.  1.
</event>
<event>
 4    1  0.3555026E+003  0.2984379E+02  0.7546771E-02  0.1420959E+00
          2   -1    0    0  502    0  0.00000000000E+00  0.00000000000E+00  0.47988099924E+03  0.47988099924E+03  0.00000000000E+00 0.  1.
          1   -1    0    0  501    0 -0.00000000000E+00 -0.00000000000E+00 -0.44435210130E+01  0.44435210130E+01  0.00000000000E+00 0. -1.
          2    1    1    2  501    0 -0.25953852600E+02  0.14732594791E+02  0.42251197272E+03  0.42356465729E+03  0.00000000000E+00 0.  1.
          1    1    1    2  502    0  0.25953852600E+02 -0.14732594791E+02  0.52925505511E+02  0.60759862966E+02  0.00000000000E+00 0. -1.
</event>
<event>
 4    1  0.3555026E+003  0.3556202E+02  0.7546771E-02  0.1376655E+00
          2   -1    0    0  502    0  0.00000000000E+00  0.00000000000E+00  0.51459757452E+02  0.51459757452E+02  0.00000000000E+00 0. -1.
          1   -1    0    0  501    0 -0.00000000000E+00 -0.00000000000E+00 -0.80507850774E+02  0.80507850774E+02  0.00000000000E+00 0.  1.
          2    1    1    2  501    0 -0.23342330710E+02 -0.26828958868E+02  0.40474239152E+02  0.53877838411E+02  0.00000000000E+00 0. -1.
          1    1    1    2  502    0  0.23342330710E+02  0.26828958868E+02 -0.69522332474E+02  0.78089769814E+02  0.00000000000E+00 0.  1.
</event>
<event>
 4    1  0.3555026E+003  0.2316778E+02  0.7546771E-02  0.1490402E+00
          2   -1    0    0  502    0  0.00000000000E+00  0.00000000000E+00  0.22342928614E+03  0.22342928614E+03  0.00000000000E+00 0. -1.
          1   -1    0    0  501    0 -0.00000000000E+00 -0.00000000000E+00 -0.52450176545E+02  0.52450176545E+02  0.00000000000E+00 0.  1.
          2    1    1    2  501    0  0.15696509390E+02  0.17040119294E+02  0.22023332334E+03  0.22144855561E+03  0.00000000000E+00 0. -1.
          1    1    1    2  502    0 -0.15696509390E+02 -0.17040119294E+02 -0.49254213749E+02  0.54430907071E+02  0.00000000000E+00 0.  1.
</event>
<event>
 4    1  0.3555026E+003  0.2324906E+02  0.7546771E-02  0.1489394E+00
          2   -1    0    0  502    0  0.00000000000E+00  0.00000000000E+00  0.34488164647E+03  0.34488164647E+03  0.00000000000E+00 0.  1.
          1   -1    0    0  501    0 -0.00000000000E+00 -0.00000000000E+00 -0.15943429684E+01  0.15943429684E+01  0.00000000000E+00 0. -1.
          2    1    1    2  501    0 -0.73551183210E+01 -0.22054959234E+02  0.19422269044E+03  0.19560923412E+03  0.00000000000E+00 0.  1.
          1    1    1    2  502    0  0.73551183210E+01  0.22054959234E+02  0.14906461306E+03  0.15086675532E+03  0.00000000000E+00 0. -1.
</event>
<event>
 4    1  0.3555026E+003  0.2298830E+02  0.7546771E-02  0.1492645E+00
          2   -1    0    0  502    0  0.00000000000E+00  0.00000000000E+00  0.11661156402E+04  0.11661156402E+04  0.00000000000E+00 0.  1.
          1   -1    0    0  501    0 -0.00000000000E+00 -0.00000000000E+00 -0.48352117449E+00  0.48352117449E+00  0.00000000000E+00 0.  1.
          2    1    1    2  501    0  0.22774261476E+02  0.31296061908E+01  0.43670161740E+03  0.43730625888E+03  0.00000000000E+00 0.  1.
          1    1    1    2  502    0 -0.22774261476E+02 -0.31296061908E+01  0.72893050159E+03  0.72929290246E+03  0.00000000000E+00 0.  1.
</event>
<event>
 4    1  0.3555026E+003  0.2603861E+02  0.7546771E-02  0.1457512E+00
          2   -1    0    0  502    0  0.00000000000E+00  0.00000000000E+00  0.19486811894E+03  0.19486811894E+03  0.00000000000E+00 0.  1.
          1   -1    0    0  501    0 -0.00000000000E+00 -0.00000000000E+00 -0.63152425877E+02  0.63152425877E+02  0.00000000000E+00 0. -1.
          2    1    1    2  501    0  0.25716965128E+02 -0.40800777836E+01  0.19126392287E+03  0.19302822986E+03  0.00000000000E+00 0.  1.
          1    1    1    2  502    0 -0.25716965128E+02  0.40800777836E+01 -0.59548229810E+02  0.64992314958E+02  0.00000000000E+00 0. -1.
</event>
<event>
 4    1  0.3555026E+003  0.2016672E+02  0.7546771E-02  0.1531502E+00
          2   -1    0    0  502    0  0.00000000000E+00  0.00000000000E+00  0.10177174595E+03  0.10177174595E+03  0.00000000000E+00 0. -1.
          1   -1    0    0  501    0 -0.00000000000E+00 -0.00000000000E+00 -0.19140493739E+02  0.19140493739E+02  0.00000000000E+00 0. -1.
          2    1    1    2  501    0  0.26215309553E+01  0.19995607928E+02  0.95091652206E+02  0.97206579408E+02  0.00000000000E+00 0. -1.
          1    1    1    2  502    0 -0.26215309553E+01 -0.19995607928E+02 -0.12460400000E+02  0.23705660276E+02  0.00000000000E+00 0. -1.
</event>
<event>
 4    1  0.3555026E+003  0.2040486E+02  0.7546771E-02  0.1527934E+00
          2   -1    0    0  502    0  0.00000000000E+00  0.00000000000E+00  0.51872551132E+02  0.51872551132E+02  0.00000000000E+00 0. -1.
          1   -1    0    0  501    0 -0.00000000000E+00 -0.00000000000E+00 -0.79913714392E+03  0.79913714392E+03  0.00000000000E+00 0. -1.
          2    1    1    2  501    0 -0.19420174818E+02  0.62622139532E+01  0.49730263948E+02  0.53753675836E+02  0.00000000000E+00 0. -1.
          1    1    1    2  502    0  0.19420174818E+02 -0.62622139532E+01 -0.79699485674E+03  0.79725601922E+03  0.00000000000E+00 0. -1.
</event>
<event>
 4    1  0.3555026E+003  0.2712900E+02  0.7546771E-02  0.1446317E+00
          2   -1    0    0  502    0  0.00000000000E+00  0.00000000000E+00  0.16853877174E+04  0.16853877174E+04  0.00000000000E+00 0.  1.
          1   -1    0    0  501    0 -0.00000000000E+00 -0.00000000000E+00 -0.36016813924E+01  0.36016813924E+01  0.00000000000E+00 0. -1.
          2    1    1    2  501    0  0.27057084259E+02 -0.19740557981E+01  0.16325388425E+04  0.16327642374E+04  0.00000000000E+00 0.  1.
          1    1    1    2  502    0 -0.27057084259E+02  0.19740557981E+01  0.49247193590E+02  0.56225161462E+02  0.00000000000E+00 0. -1.
</event>
<event>
 4    1  0.3555026E+003  0.3474249E+02  0.7546771E-02  0.1382383E+00
          2   -1    0    0  502    0  0.00000000000E+00  0.00000000000E+00  0.11464293708E+02  0.11464293708E+02  0.00000000000E+00 0. -1.
          1   -1    0    0  501    0 -0.00000000000E+00 -0.00000000000E+00 -0.25388543081E+03  0.25388543081E+03  0.00000000000E+00 0. -1.
          2    1    1    2  501    0  0.24695649685E+02 -0.24436972178E+02 -0.19708027586E+02  0.39943047880E+02  0.00000000000E+00 0. -1.
          1    1    1    2  502    0 -0.24695649685E+02  0.24436972178E+02 -0.22271310952E+03  0.22540667664E+03  0.00000000000E+00 0. -1.
</event>
<event>
 4    1  0.3555026E+003  0.2091322E+02  0.7546771E-02  0.1520507E+00
          2   -1    0    0  502    0  0.00000000000E+00  0.00000000000E+00  0.28240896196E+03  0.28240896196E+03  0.00000000000E+00 0.  1.
          1   -1    0    0  501    0 -0.00000000000E+00 -0.00000000000E+00 -0.31927094090E+01  0.31927094090E+01  0.00000000000E+00 0.  1.
          2    1    1    2  501    0  0.17161601807E+02 -0.11951660358E+02  0.24208009308E+03  0.24298175699E+03  0.00000000000E+00 0.  1.
          1    1    1    2  502    0 -0.17161601807E+02  0.11951660358E+02  0.37136159473E+02  0.42619914386E+02  0.00000000000E+00 0.  1.
</event>
<event>
 4    1  0.3555026E+003  0.2363382E+02  0.7546771E-02  0.1484689E+00
          2   -1    0    0  502    0  0.00000000000E+00  0.00000000000E+00  0.15109169416E+04  0.15109169416E+04  0.00000000000E+00 0.  1.
          1   -1    0    0  501    0 -0.00000000000E+00 -0.00000000000E+00 -0.26801449959E+03  0.26801449959E+03  0.00000000000E+00 0.  1.
          2    1    1    2  501    0 -0.23518708727E+02  0.23297595495E+01  0.15103032954E+04  0.15104881998E+04  0.00000000000E+00 0.  1.
          1    1    1    2  502    0  0.23518708727E+02 -0.23297595495E+01 -0.26740085344E+03  0.26844324141E+03  0.00000000000E+00 0.  1.
</event>
<event>
 4    1  0.3555026E+003  0.2021033E+02  0.7546771E-02  0.1530844E+00
          2   -1    0    0  502    0  0.00000000000E+00  0.00000000000E+00  0.86309510573E+01  0.86309510573E+01  0.00000000000E+00 0. -1.
          1   -1    0    0  501    0 -0.00000000000E+00 -0.00000000000E+00 -0.12855065944E+04  0.12855065944E+04  0.00000000000E+00 0.  1.
          2    1    1    2  501    0 -0.12793412785E+02  0.15645644783E+02 -0.33913569945E+01  0.20492899103E+02  0.00000000000E+00 0. -1.
          1    1    1    2  502    0  0.12793412785E+02 -0.15645644783E+02 -0.12734842864E+04  0.12736446464E+04  0.00000000000E+00 0.  1.
</event>
<event>
 4    1  0.3555026E+003  0.2621147E+02  0.7546771E-02  0.1455694E+00
          2   -1    0    0  502    0  0.00000000000E+00  0.00000000000E+00  0.89081439219E+01  0.89081439219E+01  0.00000000000E+00 0. -1.
          1   -1    0    0  501    0 -0.00000000000E+00 -0.00000000000E+00 -0.39168084130E+03  0.39168084130E+03  0.00000000000E+00 0. -1.
          2    1    1    2  501    0  0.17897012977E+02 -0.19150411863E+02 -0.11891634998E+02  0.28782847860E+02  0.00000000000E+00 0. -1.
          1    1    1    2  502    0 -0.17897012977E+02  0.19150411863E+02 -0.37088106237E+03  0.37180613736E+03  0.00000000000E+00 0. -1.
</event>
<event>
 4    1  0.3555026E+003  0.2122787E+02  0.7546771E-02  0.1516036E+00
          2   -1    0    0  502    0  0.00000000000E+00  0.00000000000E+00  0.74177101033E+02  0.74177101033E+02  0.00000000000E+00 0. -1.
          1   -1    0    0  501    0 -0.00000000000E+00 -0.00000000000E+00 -0.14632247382E+03  0.14632247382E+03  0.00000000000E+00 0.  1.
          2    1    1    2  501    0  0.78872338072E+01 -0.19708224130E+02  0.71864187702E+02  0.74933864371E+02  0.00000000000E+00 0. -1.
          1    1    1    2  502    0 -0.78872338072E+01  0.19708224130E+02 -0.14400956049E+03  0.14556571048E+03  0.00000000000E+00 0.  1.
</event>
<event>
 4    1  0.3555026E+003  0.7072824E+02  0.7546771E-02  0.1227180E+00
          2   -1    0    0  502    0  0.00000000000E+00  0.00000000000E+00  0.83489238981E+02  0.83489238981E+02  0.00000000000E+00 0.  1.
          1   -1    0    0  501    0 -0.00000000000E+00 -0.00000000000E+00 -0.62795252046E+03  0.62795252046E+03  0.00000000000E+00 0.  1.
          2    1    1    2  501    0  0.23871271841E+01  0.70687943205E+02  0.66092845279E+02  0.96802623352E+02  0.00000000000E+00 0.  1.
          1    1    1    2  502    0 -0.23871271841E+01 -0.70687943205E+02 -0.61055612676E+03  0.61463913609E+03  0.00000000000E+00 0.  1.
</event>
<event>
 4    1  0.3555026E+003  0.2629373E+02  0.7546771E-02  0.1454835E+00
          2   -1    0    0  502    0  0.00000000000E+00  0.00000000000E+00  0.76255268633E+03  0.76255268633E+03  0.00000000000E+00 0.  1.
          1   -1    0    0  501    0 -0.00000000000E+00 -0.00000000000E+00 -0.13683516840E+01  0.13683516840E+01  0.00000000000E+00 0.  1.
          2    1    1    2  501    0  0.13236949770E+02 -0.22718790222E+02  0.60246562404E+03  0.60303912677E+03  0.00000000000E+00 0.  1.
          1    1    1    2  502    0 -0.13236949770E+02  0.22718790222E+02  0.15871871061E+03  0.16088191125E+03  0.00000000000E+00 0.  1.
</event>
<event>
 4    1  0.3555026E+003  0.2425990E+02  0.7546771E-02  0.1477256E+00
          2   -1    0    0  502    0  0.00000000000E+00  0.00000000000E+00  0.42589439772E+03  0.42589439772E+03  0.00000000000E+00 0. -1.
          1   -1    0    0  501    0 -0.00000000000E+00 -0.00000000000E+00 -0.12724491755E+02  0.12724491755E+02  0.00000000000E+00 0.  1.
          2    1    1    2  501    0  0.32365910561E+00 -0.24257738268E+02  0.41364356651E+03  0.41435436855E+03  0.00000000000E+00 0. -1.
          1    1    1    2  502    0 -0.32365910561E+00  0.24257738268E+02 -0.47366055221E+00  0.24264520919E+02  0.00000000000E+00 0.  1.
</event>
<event>
 4    1  0.3555026E+003  0.2464660E+02  0.7546771E-02  0.1472796E+00
          2   -1    0    0  502    0  0.00000000000E+00  0.00000000000E+00  0.19162310823E+02  0.19162310823E+02  0.00000000000E+00 0.  1.
          1   -1    0    0  501    0 -0.00000000000E+00 -0.00000000000E+00 -0.10054916308E+04  0.10054916308E+04  0.00000000000E+00 0. -1.
          2    1    1    2  501    0 -0.10375246352E+01 -0.24624748222E+02  0.11021474932E+02  0.26998659079E+02  0.00000000000E+00 0.  1.
          1    1    1    2  502    0  0.10375246352E+01  0.24624748222E+02 -0.99735079492E+03  0.99765528256E+03  0.00000000000E+00 0. -1.
</event>
<event>
 4    1  0.3555026E+003  0.4915252E+02  0.7546771E-02  0.1301889E+00
          2   -1    0    0  502    0  0.00000000000E+00  0.00000000000E+00  0.11181060033E+04  0.11181060033E+04  0.00000000000E+00 0. -1.
          1   -1    0    0  501    0 -0.00000000000E+00 -0.00000000000E+00 -0.97109249393E+01  0.97109249393E+01  0.00000000000E+00 0.  1.
          2    1    1    2  501    0  0.22994081452E+02 -0.43442401546E+02  0.10514263025E+04  0.10525745768E+04  0.00000000000E+00 0. -1.
          1    1    1    2  502    0 -0.22994081452E+02  0.43442401546E+02  0.56968775846E+02  0.75242351474E+02  0.00000000000E+00 0.  1.
</event>
<event>
 4    1  0.3555026E+003  0.3003723E+02  0.7546771E-02  0.1419273E+00
          2   -1    0    0  502    0  0.00000000000E+00  0.00000000000E+00  0.80674828569E+02  0.80674828569E+02  0.00000000000E+00 0. -1.
          1   -1    0    0  501    0 -0.00000000000E+00 -0.00000000000E+00 -0.39527364757E+02  0.39527364757E+02  0.00000000000E+00 0. -1.
          2    1    1    2  501    0 -0.11917639443E+01 -0.30013574397E+02  0.71467222600E+02  0.77522892461E+02  0.00000000000E+00 0. -1.
          1    1    1    2  502    0  0.11917639443E+01  0.30013574397E+02 -0.30319758787E+02  0.42679300865E+02  0.00000000000E+00 0. -1.
</event>
<event>
 4    1  0.3555026E+003  0.2023634E+02  0.7546771E-02  0.1530453E+00
          2   -1    0    0  502    0  0.00000000000E+00  0.00000000000E+00  0.93487944991E+02  0.93487944991E+02  0.00000000000E+00 0. -1.
          1   -1    0    0  501    0 -0.00000000000E+00 -0.00000000000E+00 -0.43835196602E+01  0.43835196602E+01  0.00000000000E+00 0. -1.
          2    1    1    2  501    0 -0.19731480774E+02 -0.44919553986E+01  0.43234270646E+02  0.47735847695E+02  0.00000000000E+00 0. -1.
          1    1    1    2  502    0  0.19731480774E+02  0.44919553986E+01  0.45870154685E+02  0.50135616957E+02  0.00000000000E+00 0. -1.
</event>
<event>
 4    1  0.3555026E+003  0.2078273E+02  0.7546771E-02  0.1522390E+00
          2   -1    0    0  502    0  0.00000000000E+00  0.00000000000E+00  0.34080070040E+03  0.34080070040E+03  0.00000000000E+00 0. -1.
          1   -1    0    0  501    0 -0.00000000000E+00 -0.00000000000E+00 -0.13326006687E+01  0.13326006687E+01  0.00000000000E+00 0. -1.
          2    1    1    2  501    0  0.12547823896E+02 -0.16567240328E+02  0.13188683732E+03  0.13351426589E+03  0.00000000000E+00 0. -1.
          1    1    1    2  502    0 -0.12547823896E+02  0.16567240328E+02  0.20758126241E+03  0.20861903518E+03  0.00000000000E+00 0. -1.
</event>
<event>
 4    1  0.3555026E+003  0.2102570E+02  0.7546771E-02  0.1518898E+00
          2   -1    0    0  502    0  0.00000000000E+00  0.00000000000E+00  0.76433371209E+03  0.76433371209E+03  0.00000000000E+00 0. -1.
          1   -1    0    0  501    0 -0.00000000000E+00 -0.00000000000E+00 -0.94283801690E+00  0.94283801690E+00  0.00000000000E+00 0.  1.
          2    1    1    2  501    0 -0.12952441559E+02  0.16562438955E+02  0.61959294022E+03  0.61994958803E+03  0.00000000000E+00 0. -1.
          1    1    1    2  502    0  0.12952441559E+02 -0.16562438955E+02  0.14379793386E+03  0.14532696208E+03  0.00000000000E+00 0.  1.
</event>
<event>
 4    1  0.3555026E+003  0.2631527E+02  0.7546771E-02  0.1454610E+00
          2   -1    0    0  502    0  0.00000000000E+00  0.00000000000E+00  0.11532813355E+04  0.11532813355E+04  0.00000000000E+00 0.  1.
          1   -1    0    0  501    0 -0.00000000000E+00 -0.00000000000E+00 -0.32383198363E+01  0.32383198363E+01  0.00000000000E+00 0. -1.
          2    1    1    2  501    0 -0.26013493402E+02  0.39738932102E+01  0.10969240509E+04  0.10972396580E+04  0.00000000000E+00 0.  1.
          1    1    1    2  502    0  0.26013493402E+02 -0.39738932102E+01  0.53118964825E+02  0.59279997388E+02  0.00000000000E+00 0. -1.
</event>
<event>
 4    1  0.3555026E+003  0.3090443E+02  0.7546771E-02  0.1411896E+00
          2   -1    0    0  502    0  0.00000000000E+00  0.00000000000E+00  0.21589607858E+04  0.21589607858E+04  0.00000000000E+00 0. -1.
          1   -1    0    0  501    0 -0.00000000000E+00 -0.00000000000E+00 -0.44245586154E+00  0.44245586154E+00  0.00000000000E+00 0. -1.
          2    1    1    2  501    0  0.13594098498E+02  0.27754000920E+02  0.10932664384E+04  0.10937031541E+04  0.00000000000E+00 0. -1.
          1    1    1    2  502    0 -0.13594098498E+02 -0.27754000920E+02  0.10652518915E+04  0.10657000875E+04  0.00000000000E+00 0. -1.
</event>
<event>
 4    1  0.3555026E+003  0.3350175E+02  0.7546771E-02  0.1391414E+00
          2   -1    0    0  502    0  0.00000000000E+00  0.00000000000E+00  0.61227443612E+03  0.61227443612E+03  0.00000000000E+00 0.  1.
          1   -1    0    0  501    0 -0.00000000000E+00 -0.00000000000E+00 -0.21250792547E+01  0.21250792547E+01  0.00000000000E+00 0.  1.
          2    1    1    2  501    0  0.30293082527E+02  0.14307210263E+02  0.41894249300E+03  0.42027988241E+03  0.00000000000E+00 0.  1.
          1    1    1    2  502    0 -0.30293082527E+02 -0.14307210263E+02  0.19120686386E+03  0.19411963296E+03  0.00000000000E+00 0.  1.
</event>
<event>
 4    1  0.3555026E+003  0.2083945E+02  0.7546771E-02  0.1521569E+00
          2   -1    0    0  502    0  0.00000000000E+00  0.00000000000E+00  0.55951745443E+03  0.55951745443E+03  0.00000000000E+00 0.  1.
          1   -1    0    0  501    0 -0.00000000000E+00 -0.00000000000E+00 -0.40474531622E+01  0.40474531622E+01  0.00000000000E+00 0.  1.
          2    1    1    2  501    0 -0.79831186848E+01  0.19249743474E+02  0.53106221379E+03  0.53147093779E+03  0.00000000000E+00 0.  1.
          1    1    1    2  502    0  0.79831186848E+01 -0.19249743474E+02  0.24407787486E+02  0.32093969803E+02  0.00000000000E+00 0.  1.
</event>
<event>
 4    1  0.3555026E+003  0.2595545E+02  0.7546771E-02  0.1458393E+00
          2   -1    0    0  502    0  0.00000000000E+00  0.00000000000E+00  0.47875663467E+03  0.47875663467E+03  0.00000000000E+00 0. -1.
          1   -1    0    0  501    0 -0.00000000000E+00 -0.00000000000E+00 -0.21417819667E+01  0.21417819667E+01  0.00000000000E+00 0. -1.
          2    1    1    2  501    0  0.25949076422E+02  0.57532162693E+00  0.37912883379E+03  0.38001626041E+03  0.00000000000E+00 0. -1.
          1    1    1    2  502    0 -0.25949076422E+02 -0.57532162693E+00  0.97486018910E+02  0.10088215623E+03  0.00000000000E+00 0. -1.
</event>
<event>
 4    1  0.3555026E+003  0.3530356E+02  0.7546771E-02  0.1378442E+00
          2   -1    0    0  502    0  0.00000000000E+00  0.00000000000E+00  0.14767297881E+04  0.14767297881E+04  0.00000000000E+00 0.  1.
          1   -1    0    0  501    0 -0.00000000000E+00 -0.00000000000E+00 -0.49549719929E+01  0.49549719929E+01  0.00000000000E+00 0. -1.
          2    1    1    2  501    0  0.22184076689E+02 -0.27462848193E+02  0.14106921759E+04  0.14111338549E+04  0.00000000000E+00 0.  1.
          1    1    1    2  502    0 -0.22184076689E+02  0.27462848193E+02  0.61082640210E+02  0.70550905199E+02  0.00000000000E+00 0. -1.
</event>
<event>
 4    1  0.3555026E+003  0.2289047E+02  0.7546771E-02  0.1493878E+00
          2   -1    0    0  502    0  0.00000000000E+00  0.00000000000E+00  0.56280158029E+03  0.56280158029E+03  0.00000000000E+00 0.  1.
          1   -1    0    0  501    0 -0.00000000000E+00 -0.00000000000E+00 -0.40234521440E+01  0.40234521440E+01  0.00000000000E+00 0.  1.
          2    1    1    2  501    0 -0.66729913868E+01 -0.21896228428E+02  0.52785704485E+03  0.52835313327E+03  0.00000000000E+00 0.  1.
          1    1    1    2  502    0  0.66729913868E+01  0.21896228428E+02  0.30921083292E+02  0.38471899165E+02  0.00000000000E+00 0.  1.
</event>
<event>
 4    1  0.3555026E+003  0.2110960E+02  0.7546771E-02  0.1517706E+00
          2   -1    0    0  502    0  0.00000000000E+00  0.00000000000E+00  0.86627898125E+03  0.86627898125E+03  0.00000000000E+00 0. -1.
          1   -1    0    0  501    0 -0.00000000000E+00 -0.00000000000E+00 -0.28609975021E+01  0.28609975021E+01  0.00000000000E+00 0.  1.
          2    1    1    2  501    0 -0.15594334706E+02  0.14227864873E+02  0.82527731217E+03  0.82554724722E+03  0.00000000000E+00 0. -1.
          1    1    1    2  502    0  0.15594334706E+02 -0.14227864873E+02  0.38140671575E+02  0.43592731527E+02  0.00000000000E+00 0.  1.
</event>
<event>
 4    1  0.3555026E+003  0.3726668E+02  0.7546771E-02  0.1365293E+00
          2   -1    0    0  502    0  0.00000000000E+00  0.00000000000E+00  0.22850347941E+04  0.22850347941E+04  0.00000000000E+00 0. -1.
          1   -1    0    0  501    0 -0.00000000000E+00 -0.00000000000E+00 -0.15518158066E+01  0.15518158066E+01  0.00000000000E+00 0.  1.
          2    1    1    2  501    0 -0.21791151338E+01  0.37202914197E+02  0.20334668363E+04  0.20338082948E+04  0.00000000000E+00 0. -1.
          1    1    1    2  502    0  0.21791151338E+01 -0.37202914197E+02  0.25001614193E+03  0.25277831511E+03  0.00000000000E+00 0.  1.
</event>
<event>
 4    1  0.3555026E+003  0.4676811E+02  0.7546771E-02  0.1312828E+00
          2   -1    0    0  502    0  0.00000000000E+00  0.00000000000E+00  0.33595842226E+04  0.33595842226E+04  0.00000000000E+00 0. -1.
          1   -1    0    0  501    0 -0.00000000000E+00 -0.00000000000E+00 -0.12405839796E+01  0.12405839796E+01  0.00000000000E+00 0. -1.
          2    1    1    2  501    0  0.46021415580E+02  0.83237957761E+01  0.28375685662E+04  0.28379539503E+04  0.00000000000E+00 0. -1.
          1    1    1    2  502    0 -0.46021415580E+02 -0.83237957761E+01  0.52077507245E+03  0.52287085628E+03  0.00000000000E+00 0. -1.
</event>
<event>
 4    1  0.3555026E+003  0.2609733E+02  0.7546771E-02  0.1456892E+00
          2   -1    0    0  502    0  0.00000000000E+00  0.00000000000E+00  0.19597822950E+04  0.19597822950E+04  0.00000000000E+00 0. -1.
          1   -1    0    0  501    0 -0.00000000000E+00 -0.00000000000E+00 -0.12227471895E+01  0.12227471895E+01  0.00000000000E+00 0. -1.
          2    1    1    2  501    0  0.20470965507E+02 -0.16186733699E+02  0.18088246072E+04  0.18090128607E+04  0.00000000000E+00 0. -1.
          1    1    1    2  502    0 -0.20470965507E+02  0.16186733699E+02  0.14973494062E+03  0.15199218145E+03  0.00000000000E+00 0. -1.
</event>
<event>
 4    1  0.3555026E+003  0.4278322E+02  0.7546771E-02  0.1332905E+00
          2   -1    0    0  502    0  0.00000000000E+00  0.00000000000E+00  0.20521421126E+02  0.20521421126E+02  0.00000000000E+00 0. -1.
          1   -1    0    0  501    0 -0.00000000000E+00 -0.00000000000E+00 -0.18136954667E+04  0.18136954667E+04  0.00000000000E+00 0. -1.
          2    1    1    2  501    0  0.30770793345E+02 -0.29724780655E+02 -0.23138758198E+01  0.42845750424E+02  0.00000000000E+00 0. -1.
          1    1    1    2  502    0 -0.30770793345E+02  0.29724780655E+02 -0.17908601698E+04  0.17913711374E+04  0.00000000000E+00 0. -1.
</event>
<event>
 4    1  0.3555026E+003  0.2142885E+02  0.7546771E-02  0.1513229E+00
          2   -1    0    0  502    0  0.00000000000E+00  0.00000000000E+00  0.14891858579E+02  0.14891858579E+02  0.00000000000E+00 0.  1.
          1   -1    0    0  501    0 -0.00000000000E+00 -0.00000000000E+00 -0.31926563235E+02  0.31926563235E+02  0.00000000000E+00 0. -1.
          2    1    1    2  501    0  0.15258660818E+02 -0.15045540104E+02 -0.12845224058E+02  0.24983890571E+02  0.00000000000E+00 0.  1.
          1    1    1    2  502    0 -0.15258660818E+02  0.15045540104E+02 -0.41894805981E+01  0.21834531244E+02  0.00000000000E+00 0. -1.
</event>
<event>
 4    1  0.3555026E+003  0.3102428E+02  0.7546771E-02  0.1410899E+00
          2   -1    0    0  502    0  0.00000000000E+00  0.00000000000E+00  0.40248349263E+02  0.40248349263E+02  0.00000000000E+00 0. -1.
          1   -1    0    0  501    0 -0.00000000000E+00 -0.00000000000E+00 -0.21259040407E+03  0.21259040407E+03  0.00000000000E+00 0. -1.
          2    1    1    2  501    0  0.20352284583E+02 -0.23415598112E+02  0.32925862283E+02  0.45239563766E+02  0.00000000000E+00 0. -1.
          1    1    1    2  502    0 -0.20352284583E+02  0.23415598112E+02 -0.20526791709E+03  0.20759918957E+03  0.00000000000E+00 0. -1.
</event>
<event>
 4    1  0.3555026E+003  0.3183025E+02  0.7546771E-02  0.1404331E+00
          2   -1    0    0  502    0  0.00000000000E+00  0.00000000000E+00  0.51345442352E+03  0.51345442352E+03  0.00000000000E+00 0. -1.
          1   -1    0    0  501    0 -0.00000000000E+00 -0.00000000000E+00 -0.10757663724E+02  0.10757663724E+02  0.00000000000E+00 0.  1.
          2    1    1    2  501    0 -0.48659151302E+01  0.31456122181E+02  0.48819919629E+03  0.48923575096E+03  0.00000000000E+00 0. -1.
          1    1    1    2  502    0  0.48659151302E+01 -0.31456122181E+02  0.14497563506E+02  0.34976336291E+02  0.00000000000E+00 0.  1.
</event>
<event>
 4    1  0.3555026E+003  0.2180005E+02  0.7546771E-02  0.1508142E+00
          2   -1    0    0  502    0  0.00000000000E+00  0.00000000000E+00  0.80504592011E+01  0.80504592011E+01  0.00000000000E+00 0.  1.
          1   -1    0    0  501    0 -0.00000000000E+00 -0.00000000000E+00 -0.11619039441E+03  0.11619039441E+03  0.00000000000E+00 0. -1.
          2    1    1    2  501    0  0.80224828369E+01  0.20270222345E+02 -0.10500142288E+02  0.24197006692E+02  0.00000000000E+00 0.  1.
          1    1    1    2  502    0 -0.80224828369E+01 -0.20270222345E+02 -0.97639792925E+02  0.10004384692E+03  0.00000000000E+00 0. -1.
</event>
<event>
 4    1  0.3555026E+003  0.2279972E+02  0.7546771E-02  0.1495028E+00
          2   -1    0    0  502    0  0.00000000000E+00  0.00000000000E+00  0.30386118991E+02  0.30386118991E+02  0.00000000000E+00 0.  1.
          1   -1    0    0  501    0 -0.00000000000E+00 -0.00000000000E+00 -0.95342624630E+02  0.95342624630E+02  0.00000000000E+00 0.  1.
          2    1    1    2  501    0  0.67011073987E+01 -0.21792718663E+02  0.24467613119E+02  0.33443856219E+02  0.00000000000E+00 0.  1.
          1    1    1    2  502    0 -0.67011073987E+01  0.21792718663E+02 -0.89424118758E+02  0.92284887402E+02  0.00000000000E+00 0.  1.
</event>
<event>
 4    1  0.3555026E+003  0.2497427E+02  0.7546771E-02  0.1469092E+00
          2   -1    0    0  502    0  0.00000000000E+00  0.00000000000E+00  0.15822753429E+01  0.15822753429E+01  0.00000000000E+00 0. -1.
          1   -1    0    0  501    0 -0.00000000000E+00 -0.00000000000E+00 -0.15164970470E+04  0.15164970470E+04  0.00000000000E+00 0.  1.
          2    1    1    2  501    0  0.11955336889E+02  0.21926785073E+02 -0.10447733586E+03  0.10742079730E+03  0.00000000000E+00 0. -1.
          1    1    1    2  502    0 -0.11955336889E+02 -0.21926785073E+02 -0.14104374358E+04  0.14106585250E+04  0.00000000000E+00 0.  1.
</event>
<event>
 4    1  0.3555026E+003  0.2593283E+02  0.7546771E-02  0.1458633E+00
          2   -1    0    0  502    0  0.00000000000E+00  0.00000000000E+00  0.10734513362E+01  0.10734513362E+01  0.00000000000E+00 0. -1.
          1   -1    0    0  501    0 -0.00000000000E+00 -0.00000000000E+00 -0.70537197008E+03  0.70537197008E+03  0.00000000000E+00 0. -1.
          2    1    1    2  501    0  0.95128242498E+01 -0.24125042467E+02 -0.23403137910E+03  0.23546379319E+03  0.00000000000E+00 0. -1.
          1    1    1    2  502    0 -0.95128242498E+01  0.24125042467E+02 -0.47026713964E+03  0.47098162823E+03  0.00000000000E+00 0. -1.
</event>
<event>
 4    1  0.3555026E+003  0.3494117E+02  0.7546771E-02  0.1380977E+00
          2   -1    0    0  502    0  0.00000000000E+00  0.00000000000E+00  0.14031761143E+01  0.14031761143E+01  0.00000000000E+00 0.  1.
          1   -1    0    0  501    0 -0.00000000000E+00 -0.00000000000E+00 -0.13145599937E+04  0.13145599937E+04  0.00000000000E+00 0. -1.
          2    1    1    2  501    0  0.33842744266E+02 -0.86921953331E+01 -0.27397739452E+03  0.27619648497E+03  0.00000000000E+00 0.  1.
          1    1    1    2  502    0 -0.33842744266E+02  0.86921953331E+01 -0.10391794230E+04  0.10397666848E+04  0.00000000000E+00 0. -1.
</event>
<event>
 4    1  0.3555026E+003  0.3402579E+02  0.7546771E-02  0.1387545E+00
          2   -1    0    0  502    0  0.00000000000E+00  0.00000000000E+00  0.43279512600E+02  0.43279512600E+02  0.00000000000E+00 0.  1.
          1   -1    0    0  501    0 -0.00000000000E+00 -0.00000000000E+00 -0.10377898990E+03  0.10377898990E+03  0.00000000000E+00 0.  1.
          2    1    1    2  501    0  0.31520564430E+02 -0.12814383618E+02  0.33097944751E+02  0.47468182568E+02  0.00000000000E+00 0.  1.
          1    1    1    2  502    0 -0.31520564430E+02  0.12814383618E+02 -0.93597422054E+02  0.99590319934E+02  0.00000000000E+00 0.  1.
</event>
<event>
 4    1  0.3555026E+003  0.2409095E+02  0.7546771E-02  0.1479235E+00
          2   -1    0    0  502    0  0.00000000000E+00  0.00000000000E+00  0.13025030627E+01  0.13025030627E+01  0.00000000000E+00 0. -1.
          1   -1    0    0  501    0 -0.00000000000E+00 -0.00000000000E+00 -0.10076726453E+04  0.10076726453E+04  0.00000000000E+00 0. -1.
          2    1    1    2  501    0 -0.23836416926E+02  0.34927302653E+01 -0.12640031859E+03  0.12867561725E+03  0.00000000000E+00 0. -1.
          1    1    1    2  502    0  0.23836416926E+02 -0.34927302653E+01 -0.87996982360E+03  0.88029953106E+03  0.00000000000E+00 0. -1.
</event>
<event>
 4    1  0.3555026E+003  0.2037838E+02  0.7546771E-02  0.1528328E+00
          2   -1    0    0  502    0  0.00000000000E+00  0.00000000000E+00  0.10966172180E+04  0.10966172180E+04  0.00000000000E+00 0. -1.
          1   -1    0    0  501    0 -0.00000000000E+00 -0.00000000000E+00 -0.72755892102E+00  0.72755892102E+00  0.00000000000E+00 0.  1.
          2    1    1    2  501    0 -0.13787971333E+02 -0.15005669350E+02  0.92788043529E+03  0.92810418621E+03  0.00000000000E+00 0. -1.
          1    1    1    2  502    0  0.13787971333E+02  0.15005669350E+02  0.16800922379E+03  0.16924059071E+03  0.00000000000E+00 0.  1.
</event>
<event>
 4    1  0.3555026E+003  0.3783550E+02  0.7546771E-02  0.1361659E+00
          2   -1    0    0  502    0  0.00000000000E+00  0.00000000000E+00  0.14081812413E+04  0.14081812413E+04  0.00000000000E+00 0. -1.
          1   -1    0    0  501    0 -0.00000000000E+00 -0.00000000000E+00 -0.37879593216E+01  0.37879593216E+01  0.00000000000E+00 0. -1.
          2    1    1    2  501    0 -0.34901419387E+01 -0.37674186499E+02  0.13060628854E+04  0.13066108013E+04  0.00000000000E+00 0. -1.
          1    1    1    2  502    0  0.34901419387E+01  0.37674186499E+02  0.98330396575E+02  0.10535839933E+03  0.00000000000E+00 0. -1.
</event>
<event>
 4    1  0.3555026E+003  0.2343105E+02  0.7546771E-02  0.1487155E+00
          2   -1    0    0  502    0  0.00000000000E+00  0.00000000000E+00  0.38190063980E+02  0.38190063980E+02  0.00000000000E+00 0. -1.
          1   -1    0    0  501    0 -0.00000000000E+00 -0.00000000000E+00 -0.23067317176E+02  0.23067317176E+02  0.00000000000E+00 0.  1.
          2    1    1    2  501    0 -0.18312472425E+02 -0.14617370583E+02  0.26362191018E+02  0.35270090506E+02  0.00000000000E+00 0. -1.
          1    1    1    2  502    0  0.18312472425E+02  0.14617370583E+02 -0.11239444214E+02  0.25987290650E+02  0.00000000000E+00 0.  1.
</event>
<event>
 4    1  0.3555026E+003  0.2132174E+02  0.7546771E-02  0.1514721E+00
          2   -1    0    0  502    0  0.00000000000E+00  0.00000000000E+00  0.27941464872E+03  0.27941464872E+03  0.00000000000E+00 0. -1.
          1   -1    0    0  501    0 -0.00000000000E+00 -0.00000000000E+00 -0.20738545759E+01  0.20738545759E+01  0.00000000000E+00 0. -1.
          2    1    1    2  501    0 -0.17588156675E+02 -0.12052913279E+02  0.73340779510E+02  0.76377260444E+02  0.00000000000E+00 0. -1.
          1    1    1    2  502    0  0.17588156675E+02  0.12052913279E+02  0.20400001463E+03  0.20511124285E+03  0.00000000000E+00 0. -1.
</event>
<event>
 4    1  0.3555026E+003  0.2711468E+02  0.7546771E-02  0.1446460E+00
          2   -1    0    0  502    0  0.00000000000E+00  0.00000000000E+00  0.13749771825E+04  0.13749771825E+04  0.00000000000E+00 0. -1.
          1   -1    0    0  501    0 -0.00000000000E+00 -0.00000000000E+00 -0.67040174328E+00  0.67040174328E+00  0.00000000000E+00 0. -1.
          2    1    1    2  501    0 -0.10332012190E+02 -0.25069015013E+02  0.99660711757E+03  0.99697590381E+03  0.00000000000E+00 0. -1.
          1    1    1    2  502    0  0.10332012190E+02  0.25069015013E+02  0.37769966317E+03  0.37867168042E+03  0.00000000000E+00 0. -1.
</event>
<event>
 4    1  0.3555026E+003  0.2933622E+02  0.7546771E-02  0.1425454E+00
          2   -1    0    0  502    0  0.00000000000E+00  0.00000000000E+00  0.15196034873E+04  0.15196034873E+04  0.00000000000E+00 0. -1.
          1   -1    0    0  501    0 -0.00000000000E+00 -0.00000000000E+00 -0.19818089773E+01  0.19818089773E+01  0.00000000000E+00 0.  1.
          2    1    1    2  501    0 -0.71809508622E+01 -0.28443763787E+02  0.14017730317E+04  0.14020799713E+04  0.00000000000E+00 0. -1.
          1    1    1    2  502    0  0.71809508622E+01  0.28443763787E+02  0.11584864663E+03  0.11950532490E+03  0.00000000000E+00 0.  1.
</event>
<event>
 4    1  0.3555026E+003  0.5883840E+02  0.7546771E-02  0.1263831E+00
          2   -1    0    0  502    0  0.00000000000E+00  0.00000000000E+00  0.41418370472E+01  0.41418370472E+01  0.00000000000E+00 0.  1.
          1   -1    0    0  501    0 -0.00000000000E+00 -0.00000000000E+00 -0.11108229186E+04  0.11108229186E+04  0.00000000000E+00 0.  1.
          2    1    1    2  501    0  0.53882454708E+02  0.23635539774E+02 -0.27597462901E+03  0.28217716691E+03  0.00000000000E+00 0.  1.
          1    1    1    2  502    0 -0.53882454708E+02 -0.23635539774E+02 -0.83070645257E+03  0.83278758877E+03  0.00000000000E+00 0.  1.
</event>
<event>
 4    1  0.3555026E+003  0.2358359E+02  0.7546771E-02  0.1485297E+00
          2   -1    0    0  502    0  0.00000000000E+00  0.00000000000E+00  0.61129890220E+02  0.61129890220E+02  0.00000000000E+00 0.  1.
          1   -1    0    0  501    0 -0.00000000000E+00 -0.00000000000E+00 -0.24318927986E+02  0.24318927986E+02  0.00000000000E+00 0. -1.
          2    1    1    2  501    0 -0.22733526577E+02 -0.62747515100E+01  0.52205609532E+02  0.57285350690E+02  0.00000000000E+00 0.  1.
          1    1    1    2  502    0  0.22733526577E+02  0.62747515100E+01 -0.15394647298E+02  0.28163467516E+02  0.00000000000E+00 0. -1.
</event>
<event>
 4    1  0.3555026E+003  0.2155916E+02  0.7546771E-02  0.1511429E+00
          2   -1    0    0  502    0  0.00000000000E+00  0.00000000000E+00  0.65287170503E+03  0.65287170503E+03  0.00000000000E+00 0. -1.
          1   -1    0    0  501    0 -0.00000000000E+00 -0.00000000000E+00 -0.85467535627E+02  0.85467535627E+02  0.00000000000E+00 0. -1.
          2    1    1    2  501    0 -0.10888882379E+01  0.21531639868E+02  0.65133093557E+03  0.65168764360E+03  0.00000000000E+00 0. -1.
          1    1    1    2  502    0  0.10888882379E+01 -0.21531639868E+02 -0.83926766167E+02  0.86651597055E+02  0.00000000000E+00 0. -1.
</event>
<event>
 4    1  0.3555026E+003  0.2094561E+02  0.7546771E-02  0.1520043E+00
          2   -1    0    0  502    0  0.00000000000E+00  0.00000000000E+00  0.54842418976E+00  0.54842418976E+00  0.00000000000E+00 0. -1.
          1   -1    0    0  501    0 -0.00000000000E+00 -0.00000000000E+00 -0.13253823802E+04  0.13253823802E+04  0.00000000000E+00 0.  1.
          2    1    1    2  501    0 -0.15645703570E+02 -0.13925892175E+02 -0.24499652556E+03  0.24589025204E+03  0.00000000000E+00 0. -1.
          1    1    1    2  502    0  0.15645703570E+02  0.13925892175E+02 -0.10798374305E+04  0.10800405524E+04  0.00000000000E+00 0.  1.
</event>
<event>
 4    1  0.3555026E+003  0.2875013E+02  0.7546771E-02  0.1430778E+00
          2   -1    0    0  502    0  0.00000000000E+00  0.00000000000E+00  0.91256311930E+03  0.91256311930E+03  0.00000000000E+00 0.  1.
          1   -1    0    0  501    0 -0.00000000000E+00 -0.00000000000E+00 -0.50198702249E+02  0.50198702249E+02  0.00000000000E+00 0. -1.
          2    1    1    2  501    0  0.26924221260E+02  0.10082486674E+02  0.90820041600E+03  0.90865536143E+03  0.00000000000E+00 0.  1.
          1    1    1    2  502    0 -0.26924221260E+02 -0.10082486674E+02 -0.45835998945E+02  0.54106460125E+02  0.00000000000E+00 0. -1.
</event>
<event>
 4    1  0.3555026E+003  0.2459758E+02  0.7546771E-02  0.1473356E+00
          2   -1    0    0  502    0  0.00000000000E+00  0.00000000000E+00  0.11728384742E+04  0.11728384742E+04  0.00000000000E+00 0. -1.
          1   -1    0    0  501    0 -0.00000000000E+00 -0.00000000000E+00 -0.17362634141E+02  0.17362634141E+02  0.00000000000E+00 0.  1.
          2    1    1    2  501    0 -0.24520831801E+02  0.19416086288E+01  0.11639310148E+04  0.11641908985E+04  0.00000000000E+00 0. -1.
          1    1    1    2  502    0  0.24520831801E+02 -0.19416086288E+01 -0.84551747052E+01  0.26010209833E+02  0.00000000000E+00 0.  1.
</event>
<event>
 4    1  0.3555026E+003  0.2070968E+02  0.7546771E-02  0.1523451E+00
          2   -1    0    0  502    0  0.00000000000E+00  0.00000000000E+00  0.49577747548E+03  0.49577747548E+03  0.00000000000E+00 0.  1.
          1   -1    0    0  501    0 -0.00000000000E+00 -0.00000000000E+00 -0.42493954943E+02  0.42493954943E+02  0.00000000000E+00 0.  1.
          2    1    1    2  501    0  0.24071834165E+01  0.20569301405E+02  0.49302387193E+03  0.49345863959E+03  0.00000000000E+00 0.  1.
          1    1    1    2  502    0 -0.24071834165E+01 -0.20569301405E+02 -0.39740351400E+02  0.44812790827E+02  0.00000000000E+00 0.  1.
</event>
<event>
 4    1  0.3555026E+003  0.4707792E+02  0.7546771E-02  0.1311364E+00
          2   -1    0    0  502    0  0.00000000000E+00  0.00000000000E+00  0.11003307231E+04  0.11003307231E+04  0.00000000000E+00 0.  1.
          1   -1    0    0  501    0 -0.00000000000E+00 -0.00000000000E+00 -0.39200434942E+02  0.39200434942E+02  0.00000000000E+00 0.  1.
          2    1    1    2  501    0  0.42992975022E+02  0.19181617863E+02  0.10854995294E+04  0.10865199302E+04  0.00000000000E+00 0.  1.
          1    1    1    2  502    0 -0.42992975022E+02 -0.19181617863E+02 -0.24369241210E+02  0.53011227888E+02  0.00000000000E+00 0.  1.
</event>
<event>
 4    1  0.3555026E+003  0.2004120E+02  0.7546771E-02  0.1533407E+00
          2   -1    0    0  502    0  0.00000000000E+00  0.00000000000E+00  0.35497138657E+00  0.35497138657E+00  0.00000000000E+00 0.  1.
          1   -1    0    0  501    0 -0.00000000000E+00 -0.00000000000E+00 -0.15213550082E+04  0.15213550082E+04  0.00000000000E+00 0.  1.
          2    1    1    2  501    0  0.19605888412E+02  0.41543629457E+01 -0.37534194783E+03  0.37587661193E+03  0.00000000000E+00 0.  1.
          1    1    1    2  502    0 -0.19605888412E+02 -0.41543629457E+01 -0.11456580890E+04  0.11458333676E+04  0.00000000000E+00 0.  1.
</event>
<event>
 4    1  0.3555026E+003  0.2053678E+02  0.7546771E-02  0.1525982E+00
          2   -1    0    0  502    0  0.00000000000E+00  0.00000000000E+00  0.36732911477E+02  0.36732911477E+02  0.00000000000E+00 0.  1.
          1   -1    0    0  501    0 -0.00000000000E+00 -0.00000000000E+00 -0.53397755227E+02  0.53397755227E+02  0.00000000000E+00 0. -1.
          2    1    1    2  501    0  0.12496281373E+02 -0.16297308237E+02  0.31594962605E+02  0.37682900179E+02  0.00000000000E+00 0.  1.
          1    1    1    2  502    0 -0.12496281373E+02  0.16297308237E+02 -0.48259806355E+02  0.52447766524E+02  0.00000000000E+00 0. -1.
</event>
<event>
 4    1  0.3555026E+003  0.2893538E+02  0.7546771E-02  0.1429079E+00
          2   -1    0    0  502    0  0.00000000000E+00  0.00000000000E+00  0.81991043761E+03  0.81991043761E+03  0.00000000000E+00 0.  1.
          1   -1    0    0  501    0 -0.00000000000E+00 -0.00000000000E+00 -0.57382505016E+01  0.57382505016E+01  0.00000000000E+00 0.  1.
          2    1    1    2  501    0  0.13450841943E+02 -0.25618954390E+02  0.78138009224E+03  0.78191566330E+03  0.00000000000E+00 0.  1.
          1    1    1    2  502    0 -0.13450841943E+02  0.25618954390E+02  0.32792094874E+02  0.43733024812E+02  0.00000000000E+00 0.  1.
</event>
<event>
 4    1  0.3555026E+003  0.2335018E+02  0.7546771E-02  0.1488147E+00
          2   -1    0    0  502    0  0.00000000000E+00  0.00000000000E+00  0.34274614071E+03  0.34274614071E+03  0.00000000000E+00 0. -1.
          1   -1    0    0  501    0 -0.00000000000E+00 -0.00000000000E+00 -0.41576770682E+03  0.41576770682E+03  0.00000000000E+00 0. -1.
          2    1    1    2  501    0 -0.19094006548E+02 -0.13440603184E+02  0.34201990656E+03  0.34281605473E+03  0.00000000000E+00 0. -1.
          1    1    1    2  502    0  0.19094006548E+02  0.13440603184E+02 -0.41504147267E+03  0.41569779279E+03  0.00000000000E+00 0. -1.
</event>
<event>
 4    1  0.3555026E+003  0.2726899E+02  0.7546771E-02  0.1444925E+00
          2   -1    0    0  502    0  0.00000000000E+00  0.00000000000E+00  0.40888770142E+01  0.40888770142E+01  0.00000000000E+00 0. -1.
          1   -1    0    0  501    0 -0.00000000000E+00 -0.00000000000E+00 -0.90823318992E+03  0.90823318992E+03  0.00000000000E+00 0. -1.
          2    1    1    2  501    0  0.23588545044E+02 -0.13681313880E+02 -0.44128865438E+02  0.51874411530E+02  0.00000000000E+00 0. -1.
          1    1    1    2  502    0 -0.23588545044E+02  0.13681313880E+02 -0.86001544746E+03  0.86044765540E+03  0.00000000000E+00 0. -1.
</event>
<event>
 4    1  0.3555026E+003  0.2679613E+02  0.7546771E-02  0.1449667E+00
          2   -1    0    0  502    0  0.00000000000E+00  0.00000000000E+00  0.10325356666E+03  0.10325356666E+03  0.00000000000E+00 0. -1.
          1   -1    0    0  501    0 -0.00000000000E+00 -0.00000000000E+00 -0.81529795518E+01  0.81529795518E+01  0.00000000000E+00 0. -1.
          2    1    1    2  501    0  0.23310811667E+02  0.13215099972E+02  0.68910982779E+02  0.73937516563E+02  0.00000000000E+00 0. -1.
          1    1    1    2  502    0 -0.23310811667E+02 -0.13215099972E+02  0.26189604326E+02  0.37469029646E+02  0.00000000000E+00 0. -1.
</event>
<event>
 4    1  0.3555026E+003  0.2541035E+02  0.7546771E-02  0.1464265E+00
          2   -1    0    0  502    0  0.00000000000E+00  0.00000000000E+00  0.15973252271E+04  0.15973252271E+04  0.00000000000E+00 0. -1.
          1   -1    0    0  501    0 -0.00000000000E+00 -0.00000000000E+00 -0.51905532158E+02  0.51905532158E+02  0.00000000000E+00 0.  1.
          2    1    1    2  501    0 -0.20064426943E+02  0.15591808233E+02  0.15941079858E+04  0.15943104955E+04  0.00000000000E+00 0. -1.
          1    1    1    2  502    0  0.20064426943E+02 -0.15591808233E+02 -0.48688290813E+02  0.54920263791E+02  0.00000000000E+00 0.  1.
</event>
<event>
 4    1  0.3555026E+003  0.4888281E+02  0.7546771E-02  0.1303090E+00
          2   -1    0    0  502    0  0.00000000000E+00  0.00000000000E+00  0.30821378075E+04  0.30821378075E+04  0.00000000000E+00 0.  1.
          1   -1    0    0  501    0 -0.00000000000E+00 -0.00000000000E+00 -0.60867782121E+03  0.60867782121E+03  0.00000000000E+00 0. -1.
          2    1    1    2  501    0 -0.48715484134E+02  0.40411480666E+01  0.30809621697E+04  0.30813499348E+04  0.00000000000E+00 0.  1.
          1    1    1    2  502    0  0.48715484134E+02 -0.40411480666E+01 -0.60750218340E+03  0.60946569396E+03  0.00000000000E+00 0. -1.
</event>
<event>
 4    1  0.3555026E+003  0.3109859E+02  0.7546771E-02  0.1410284E+00
          2   -1    0    0  502    0  0.00000000000E+00  0.00000000000E+00  0.57537957486E+02  0.57537957486E+02  0.00000000000E+00 0. -1.
          1   -1    0    0  501    0 -0.00000000000E+00 -0.00000000000E+00 -0.50487340602E+03  0.50487340602E+03  0.00000000000E+00 0.  1.
          2    1    1    2  501    0 -0.82170709273E+01 -0.29993368565E+02  0.52817335114E+02  0.61292685543E+02  0.00000000000E+00 0. -1.
          1    1    1    2  502    0  0.82170709273E+01  0.29993368565E+02 -0.50015278365E+03  0.50111867796E+03  0.00000000000E+00 0.  1.
</event>
<event>
 4    1  0.3555026E+003  0.2422226E+02  0.7546771E-02  0.1477695E+00
          2   -1    0    0  502    0  0.00000000000E+00  0.00000000000E+00  0.49861789434E+03  0.49861789434E+03  0.00000000000E+00 0. -1.
          1   -1    0    0  501    0 -0.00000000000E+00 -0.00000000000E+00 -0.35785314512E+03  0.35785314512E+03  0.00000000000E+00 0.  1.
          2    1    1    2  501    0  0.22804123783E+02  0.81663709665E+01  0.49791325544E+03  0.49850208387E+03  0.00000000000E+00 0. -1.
          1    1    1    2  502    0 -0.22804123783E+02 -0.81663709665E+01 -0.35714850622E+03  0.35796895559E+03  0.00000000000E+00 0.  1.
</event>
<event>
 4    1  0.3555026E+003  0.2279337E+02  0.7546771E-02  0.1495109E+00
          2   -1    0    0  502    0  0.00000000000E+00  0.00000000000E+00  0.77399904787E+02  0.77399904787E+02  0.00000000000E+00 0. -1.
          1   -1    0    0  501    0 -0.00000000000E+00 -0.00000000000E+00 -0.60291863153E+03  0.60291863153E+03  0.00000000000E+00 0.  1.
          2    1    1    2  501    0 -0.21519342010E+02 -0.75137102168E+01  0.75501082682E+02  0.78866668548E+02  0.00000000000E+00 0. -1.
          1    1    1    2  502    0  0.21519342010E+02  0.75137102168E+01 -0.60101980943E+03  0.60145186777E+03  0.00000000000E+00 0.  1.
</event>
<event>
 4    1  0.3555026E+003  0.2003761E+02  0.7546771E-02  0.1533461E+00
          2   -1    0    0  502    0  0.00000000000E+00  0.00000000000E+00  0.16301508097E+03  0.16301508097E+03  0.00000000000E+00 0.  1.
          1   -1    0    0  501    0 -0.00000000000E+00 -0.00000000000E+00 -0.77705875543E+02  0.77705875543E+02  0.00000000000E+00 0. -1.
          2    1    1    2  501    0 -0.10264690171E+01  0.20011302667E+02  0.16109222300E+03  0.16233363849E+03  0.00000000000E+00 0.  1.
          1    1    1    2  502    0  0.10264690171E+01 -0.20011302667E+02 -0.75783017579E+02  0.78387318020E+02  0.00000000000E+00 0. -1.
</event>
<event>
 4    1  0.3555026E+003  0.2833271E+02  0.7546771E-02  0.1434661E+00
          2   -1    0    0  502    0  0.00000000000E+00  0.00000000000E+00  0.27459034786E+01  0.27459034786E+01  0.00000000000E+00 0. -1.
          1   -1    0    0  501    0 -0.00000000000E+00 -0.00000000000E+00 -0.97516743621E+03  0.97516743621E+03  0.00000000000E+00 0.  1.
          2    1    1    2  501    0 -0.28284896434E+02  0.16453358012E+01 -0.77057829013E+02  0.82101470805E+02  0.00000000000E+00 0. -1.
          1    1    1    2  502    0  0.28284896434E+02 -0.16453358012E+01 -0.89536370371E+03  0.89581186888E+03  0.00000000000E+00 0.  1.
</event>
<event>
 4    1  0.3555026E+003  0.5403161E+02  0.7546771E-02  0.1281579E+00
          2   -1    0    0  502    0  0.00000000000E+00  0.00000000000E+00  0.34810925514E+03  0.34810925514E+03  0.00000000000E+00 0. -1.
          1   -1    0    0  501    0 -0.00000000000E+00 -0.00000000000E+00 -0.91483609158E+02  0.91483609158E+02  0.00000000000E+00 0.  1.
          2    1    1    2  501    0  0.25220865711E+02  0.47784129122E+02  0.33779253846E+03  0.34208655938E+03  0.00000000000E+00 0. -1.
          1    1    1    2  502    0 -0.25220865711E+02 -0.47784129122E+02 -0.81166892486E+02  0.97506304919E+02  0.00000000000E+00 0.  1.
</event>
<event>
 4    1  0.3555026E+003  0.3513475E+02  0.7546771E-02  0.1379618E+00
          2   -1    0    0  502    0  0.00000000000E+00  0.00000000000E+00  0.98741185827E+03  0.98741185827E+03  0.00000000000E+00 0. -1.
          1   -1    0    0  501    0 -0.00000000000E+00 -0.00000000000E+00 -0.27395001723E+01  0.27395001723E+01  0.00000000000E+00 0.  1.
          2    1    1    2  501    0 -0.27125874333E+02  0.22330201907E+02  0.85736631383E+03  0.85808592056E+03  0.00000000000E+00 0. -1.
          1    1    1    2  502    0  0.27125874333E+02 -0.22330201907E+02  0.12730604427E+03  0.13206543788E+03  0.00000000000E+00 0.  1.
</event>
<event>
 4    1  0.3555026E+003  0.3479724E+02  0.7546771E-02  0.1381994E+00
          2   -1    0    0  502    0  0.00000000000E+00  0.00000000000E+00  0.51332688236E+02  0.51332688236E+02  0.00000000000E+00 0.  1.
          1   -1    0    0  501    0 -0.00000000000E+00 -0.00000000000E+00 -0.36147757810E+02  0.36147757810E+02  0.00000000000E+00 0.  1.
          2    1    1    2  501    0 -0.96885929052E+01 -0.33421234194E+02  0.33375071010E+02  0.48215589724E+02  0.00000000000E+00 0.  1.
          1    1    1    2  502    0  0.96885929052E+01  0.33421234194E+02 -0.18190140584E+02  0.39264856322E+02  0.00000000000E+00 0.  1.
</event>
<event>
 4    1  0.3555026E+003  0.2470865E+02  0.7546771E-02  0.1472089E+00
          2   -1    0    0  502    0  0.00000000000E+00  0.00000000000E+00  0.10744017355E+02  0.10744017355E+02  0.00000000000E+00 0.  1.
          1   -1    0    0  501    0 -0.00000000000E+00 -0.00000000000E+00 -0.26396332573E+03  0.26396332573E+03  0.00000000000E+00 0. -1.
          2    1    1    2  501    0 -0.16272649949E+02  0.18593502769E+02 -0.49350867660E+01  0.25196677618E+02  0.00000000000E+00 0.  1.
          1    1    1    2  502    0  0.16272649949E+02 -0.18593502769E+02 -0.24828422161E+03  0.24951066546E+03  0.00000000000E+00 0. -1.
</event>
<event>
 4    1  0.3555026E+003  0.2328744E+02  0.7546771E-02  0.1488920E+00
          2   -1    0    0  502    0  0.00000000000E+00  0.00000000000E+00  0.52877149136E+03  0.52877149136E+03  0.00000000000E+00 0.  1.
          1   -1    0    0  501    0 -0.00000000000E+00 -0.00000000000E+00 -0.13613870910E+02  0.13613870910E+02  0.00000000000E+00 0.  1.
          2    1    1    2  501    0  0.98143611919E+01  0.21118316898E+02  0.51835641402E+03  0.51887925084E+03  0.00000000000E+00 0.  1.
          1    1    1    2  502    0 -0.98143611919E+01 -0.21118316898E+02 -0.31987935738E+01  0.23506111429E+02  0.00000000000E+00 0.  1.
</event>
<event>
 4    1  0.3555026E+003  0.2924959E+02  0.7546771E-02  0.1426231E+00
          2   -1    0    0  502    0  0.00000000000E+00  0.00000000000E+00  0.35399103111E+02  0.35399103111E+02  0.00000000000E+00 0.  1.
          1   -1    0    0  501    0 -0.00000000000E+00 -0.00000000000E+00 -0.53916063567E+02  0.53916063567E+02  0.00000000000E+00 0.  1.
          2    1    1    2  501    0 -0.17060083711E+02 -0.23759046285E+02  0.23912839847E+02  0.37780453229E+02  0.00000000000E+00 0.  1.
          1    1    1    2  502    0  0.17060083711E+02  0.23759046285E+02 -0.42429800302E+02  0.51534713449E+02  0.00000000000E+00 0.  1.
</event>
<event>
 4    1  0.3555026E+003  0.2080295E+02  0.7546771E-02  0.1522097E+00
          2   -1    0    0  502    0  0.00000000000E+00  0.00000000000E+00  0.34441497623E+01  0.34441497623E+01  0.00000000000E+00 0. -1.
          1   -1    0    0  501    0 -0.00000000000E+00 -0.00000000000E+00 -0.58426006305E+03  0.58426006305E+03  0.00000000000E+00 0.  1.
          2    1    1    2  501    0  0.20630142284E+02  0.26757810424E+01 -0.30064426987E+02  0.36559982835E+02  0.00000000000E+00 0. -1.
          1    1    1    2  502    0 -0.20630142284E+02 -0.26757810424E+01 -0.55075148630E+03  0.55114422998E+03  0.00000000000E+00 0.  1.
</event>
<event>
 4    1  0.3555026E+003  0.2717496E+02  0.7546771E-02  0.1445858E+00
          2   -1    0    0  502    0  0.00000000000E+00  0.00000000000E+00  0.46290416196E+03  0.46290416196E+03  0.00000000000E+00 0. -1.
          1   -1    0    0  501    0 -0.00000000000E+00 -0.00000000000E+00 -0.17424027971E+01  0.17424027971E+01  0.00000000000E+00 0. -1.
          2    1    1    2  501    0  0.14106356187E+01 -0.27138311801E+02  0.16308036661E+03  0.16532901692E+03  0.00000000000E+00 0. -1.
          1    1    1    2  502    0 -0.14106356187E+01  0.27138311801E+02  0.29808139255E+03  0.29931754784E+03  0.00000000000E+00 0. -1.
</event>
<event>
 4    1  0.3555026E+003  0.2074998E+02  0.7546771E-02  0.1522865E+00
          2   -1    0    0  502    0  0.00000000000E+00  0.00000000000E+00  0.68590459159E+02  0.68590459159E+02  0.00000000000E+00 0.  1.
          1   -1    0    0  501    0 -0.00000000000E+00 -0.00000000000E+00 -0.15800978880E+03  0.15800978880E+03  0.00000000000E+00 0. -1.
          2    1    1    2  501    0  0.11851415003E+02 -0.17032489851E+02  0.66317104630E+02  0.69487553667E+02  0.00000000000E+00 0.  1.
          1    1    1    2  502    0 -0.11851415003E+02  0.17032489851E+02 -0.15573643427E+03  0.15711269430E+03  0.00000000000E+00 0. -1.
</event>
<event>
 4    1  0.3555026E+003  0.4642699E+02  0.7546771E-02  0.1314454E+00
          2   -1    0    0  502    0  0.00000000000E+00  0.00000000000E+00  0.20196140758E+04  0.20196140758E+04  0.00000000000E+00 0. -1.
          1   -1    0    0  501    0 -0.00000000000E+00 -0.00000000000E+00 -0.42344296337E+03  0.42344296337E+03  0.00000000000E+00 0.  1.
          2    1    1    2  501    0 -0.18307565195E+02  0.42664957220E+02  0.20180737050E+04  0.20186076746E+04  0.00000000000E+00 0. -1.
          1    1    1    2  502    0  0.18307565195E+02 -0.42664957220E+02 -0.42190259249E+03  0.42444936455E+03  0.00000000000E+00 0.  1.
</event>
<event>
 4    1  0.3555026E+003  0.4131820E+02  0.7546771E-02  0.1340930E+00
          2   -1    0    0  502    0  0.00000000000E+00  0.00000000000E+00  0.41112289626E+03  0.41112289626E+03  0.00000000000E+00 0.  1.
          1   -1    0    0  501    0 -0.00000000000E+00 -0.00000000000E+00 -0.43429559808E+02  0.43429559808E+02  0.00000000000E+00 0.  1.
          2    1    1    2  501    0  0.26451530938E+02  0.31741305732E+02  0.39998445578E+03  0.40211286829E+03  0.00000000000E+00 0.  1.
          1    1    1    2  502    0 -0.26451530938E+02 -0.31741305732E+02 -0.32291119330E+02  0.52439587776E+02  0.00000000000E+00 0.  1.
</event>
<event>
 4    1  0.3555026E+003  0.2376671E+02  0.7546771E-02  0.1483089E+00
          2   -1    0    0  502    0  0.00000000000E+00  0.00000000000E+00  0.10080203928E+04  0.10080203928E+04  0.00000000000E+00 0.  1.
          1   -1    0    0  501    0 -0.00000000000E+00 -0.00000000000E+00 -0.27778281181E+01  0.27778281181E+01  0.00000000000E+00 0.  1.
          2    1    1    2  501    0 -0.21889825043E+02 -0.92570046783E+01  0.95417587125E+03  0.95447181721E+03  0.00000000000E+00 0.  1.
          1    1    1    2  502    0  0.21889825043E+02  0.92570046783E+01  0.51066693396E+02  0.56326403670E+02  0.00000000000E+00 0.  1.
</event>
<event>
 4    1  0.3555026E+003  0.8858711E+02  0.7546771E-02  0.1185204E+00
          2   -1    0    0  502    0  0.00000000000E+00  0.00000000000E+00  0.24397555365E+03  0.24397555365E+03  0.00000000000E+00 0. -1.
          1   -1    0    0  501    0 -0.00000000000E+00 -0.00000000000E+00 -0.42517945228E+03  0.42517945228E+03  0.00000000000E+00 0.  1.
          2    1    1    2  501    0  0.47012516679E+02 -0.75083285747E+02  0.23107089752E+03  0.24747007133E+03  0.00000000000E+00 0. -1.
          1    1    1    2  502    0 -0.47012516679E+02  0.75083285747E+02 -0.41227479615E+03  0.42168493459E+03  0.00000000000E+00 0.  1.
</event>
<event>
 4    1  0.3555026E+003  0.2134769E+02  0.7546771E-02  0.1514358E+00
          2   -1    0    0  502    0  0.00000000000E+00  0.00000000000E+00  0.15403731448E+04  0.15403731448E+04  0.00000000000E+00 0.  1.
          1   -1    0    0  501    0 -0.00000000000E+00 -0.00000000000E+00 -0.25279511815E+01  0.25279511815E+01  0.00000000000E+00 0.  1.
          2    1    1    2  501    0 -0.12889232291E+02 -0.17017389568E+02  0.14938264485E+04  0.14939789765E+04  0.00000000000E+00 0.  1.
          1    1    1    2  502    0  0.12889232291E+02  0.17017389568E+02  0.44018745097E+02  0.48922119503E+02  0.00000000000E+00 0.  1.
</event>
<event>
 4    1  0.3555026E+003  0.2012128E+02  0.7546771E-02  0.1532190E+00
          2   -1    0    0  502    0  0.00000000000E+00  0.00000000000E+00  0.60421615163E+00  0.60421615163E+00  0.00000000000E+00 0.  1.
          1   -1    0    0  501    0 -0.00000000000E+00 -0.00000000000E+00 -0.12458316400E+04  0.12458316400E+04  0.00000000000E+00 0.  1.
          2    1    1    2  501    0 -0.18464725157E+02  0.79949960662E+01 -0.19893923964E+03  0.19995421253E+03  0.00000000000E+00 0.  1.
          1    1    1    2  502    0  0.18464725157E+02 -0.79949960662E+01 -0.10462881842E+04  0.10464816436E+04  0.00000000000E+00 0.  1.
</event>
<event>
 4    1  0.3555026E+003  0.4187399E+02  0.7546771E-02  0.1337841E+00
          2   -1    0    0  502    0  0.00000000000E+00  0.00000000000E+00  0.11301465839E+03  0.11301465839E+03  0.00000000000E+00 0.  1.
          1   -1    0    0  501    0 -0.00000000000E+00 -0.00000000000E+00 -0.18860607517E+02  0.18860607517E+02  0.00000000000E+00 0.  1.
          2    1    1    2  501    0 -0.11457667622E+02 -0.40275955244E+02  0.74847816211E+02  0.85764948025E+02  0.00000000000E+00 0.  1.
          1    1    1    2  502    0  0.11457667622E+02  0.40275955244E+02  0.19306234660E+02  0.46110317880E+02  0.00000000000E+00 0.  1.
</event>
<event>
 4    1  0.3555026E+003  0.2201010E+02  0.7546771E-02  0.1505317E+00
          2   -1    0    0  502    0  0.00000000000E+00  0.00000000000E+00  0.10534973651E+04  0.10534973651E+04  0.00000000000E+00 0.  1.
          1   -1    0    0  501    0 -0.00000000000E+00 -0.00000000000E+00 -0.36139062888E+02  0.36139062888E+02  0.00000000000E+00 0. -1.
          2    1    1    2  501    0 -0.20877225035E+02 -0.69703729254E+01  0.10500200537E+04  0.10502507118E+04  0.00000000000E+00 0.  1.
          1    1    1    2  502    0  0.20877225035E+02  0.69703729254E+01 -0.32661751485E+02  0.39385716116E+02  0.00000000000E+00 0. -1.
</event>
<event>
 4    1  0.3555026E+003  0.2242292E+02  0.7546771E-02  0.1499875E+00
          2   -1    0    0  502    0  0.00000000000E+00  0.00000000000E+00  0.15602441158E+03  0.15602441158E+03  0.00000000000E+00 0. -1.
          1   -1    0    0  501    0 -0.00000000000E+00 -0.00000000000E+00 -0.11420230095E+03  0.11420230095E+03  0.00000000000E+00 0. -1.
          2    1    1    2  501    0 -0.21812604372E+02 -0.51959093290E+01  0.15410449801E+03  0.15572727279E+03  0.00000000000E+00 0. -1.
          1    1    1    2  502    0  0.21812604372E+02  0.51959093290E+01 -0.11228238739E+03  0.11449943974E+03  0.00000000000E+00 0. -1.
</event>
<event>
 4    1  0.3555026E+003  0.3257024E+02  0.7546771E-02  0.1398500E+00
          2   -1    0    0  502    0  0.00000000000E+00  0.00000000000E+00  0.59869883108E+01  0.59869883108E+01  0.00000000000E+00 0. -1.
          1   -1    0    0  501    0 -0.00000000000E+00 -0.00000000000E+00 -0.26107776232E+03  0.26107776232E+03  0.00000000000E+00 0.  1.
          2    1    1    2  501    0  0.30575221478E+02 -0.11223906039E+02 -0.51852148256E+02  0.61232879354E+02  0.00000000000E+00 0. -1.
          1    1    1    2  502    0 -0.30575221478E+02  0.11223906039E+02 -0.20323862575E+03  0.20583187127E+03  0.00000000000E+00 0.  1.
</event>
<event>
 4    1  0.3555026E+003  0.3231122E+02  0.7546771E-02  0.1400520E+00
          2   -1    0    0  502    0  0.00000000000E+00  0.00000000000E+00  0.11061420937E+02  0.11061420937E+02  0.00000000000E+00 0.  1.
          1   -1    0    0  501    0 -0.00000000000E+00 -0.00000000000E+00 -0.21124803053E+03  0.21124803053E+03  0.00000000000E+00 0.  1.
          2    1    1    2  501    0 -0.26447914900E+02 -0.18561324777E+02 -0.17418521650E+02  0.36707218316E+02  0.00000000000E+00 0.  1.
          1    1    1    2  502    0  0.26447914900E+02  0.18561324777E+02 -0.18276808794E+03  0.18560223315E+03  0.00000000000E+00 0.  1.
</event>
<event>
 4    1  0.3555026E+003  0.3778893E+02  0.7546771E-02  0.1361953E+00
          2   -1    0    0  502    0  0.00000000000E+00  0.00000000000E+00  0.42181137034E+03  0.42181137034E+03  0.00000000000E+00 0.  1.
          1   -1    0    0  501    0 -0.00000000000E+00 -0.00000000000E+00 -0.82666778485E+03  0.82666778485E+03  0.00000000000E+00 0. -1.
          2    1    1    2  501    0 -0.52825523666E+01 -0.37417881243E+02  0.42053185203E+03  0.42222629213E+03  0.00000000000E+00 0.  1.
          1    1    1    2  502    0  0.52825523666E+01  0.37417881243E+02 -0.82538826653E+03  0.82625286307E+03  0.00000000000E+00 0. -1.
</event>
<event>
 4    1  0.3555026E+003  0.2191867E+02  0.7546771E-02  0.1506542E+00
          2   -1    0    0  502    0  0.00000000000E+00  0.00000000000E+00  0.11093754096E+02  0.11093754096E+02  0.00000000000E+00 0.  1.
          1   -1    0    0  501    0 -0.00000000000E+00 -0.00000000000E+00 -0.13391482628E+03  0.13391482628E+03  0.00000000000E+00 0. -1.
          2    1    1    2  501    0  0.17851535736E+02  0.12718135879E+02 -0.17710142879E+01  0.21990106866E+02  0.00000000000E+00 0.  1.
          1    1    1    2  502    0 -0.17851535736E+02 -0.12718135879E+02 -0.12105005790E+03  0.12301847351E+03  0.00000000000E+00 0. -1.
</event>
<event>
 4    1  0.3555026E+003  0.3440118E+02  0.7546771E-02  0.1384823E+00
          2   -1    0    0  502    0  0.00000000000E+00  0.00000000000E+00  0.20721751971E+02  0.20721751971E+02  0.00000000000E+00 0.  1.
          1   -1    0    0  501    0 -0.00000000000E+00 -0.00000000000E+00 -0.93332796544E+02  0.93332796544E+02  0.00000000000E+00 0.  1.
          2    1    1    2  501    0 -0.95506301654E+01  0.33048854713E+02 -0.77921439978E+00  0.34410005950E+02  0.00000000000E+00 0.  1.
          1    1    1    2  502    0  0.95506301654E+01 -0.33048854713E+02 -0.71831830173E+02  0.79644542565E+02  0.00000000000E+00 0.  1.
</event>
<event>
 4    1  0.3555026E+003  0.2226451E+02  0.7546771E-02  0.1501946E+00
          2   -1    0    0  502    0  0.00000000000E+00  0.00000000000E+00  0.20046225032E+01  0.20046225032E+01  0.00000000000E+00 0.  1.
          1   -1    0    0  501    0 -0.00000000000E+00 -0.00000000000E+00 -0.25019076540E+03  0.25019076540E+03  0.00000000000E+00 0. -1.
          2    1    1    2  501    0  0.20647529917E+02  0.83299388886E+01 -0.11049814073E+03  0.11271888696E+03  0.00000000000E+00 0.  1.
          1    1    1    2  502    0 -0.20647529917E+02 -0.83299388886E+01 -0.13768800217E+03  0.13947650094E+03  0.00000000000E+00 0. -1.
</event>
<event>
 4    1  0.3555026E+003  0.2598607E+02  0.7546771E-02  0.1458068E+00
          2   -1    0    0  502    0  0.00000000000E+00  0.00000000000E+00  0.18453576330E+04  0.18453576330E+04  0.00000000000E+00 0.  1.
          1   -1    0    0  501    0 -0.00000000000E+00 -0.00000000000E+00 -0.11724007614E+01  0.11724007614E+01  0.00000000000E+00 0.  1.
          2    1    1    2  501    0  0.12321736992E+02 -0.22879046467E+02  0.16878338387E+04  0.16880338690E+04  0.00000000000E+00 0.  1.
          1    1    1    2  502    0 -0.12321736992E+02  0.22879046467E+02  0.15635139360E+03  0.15849616478E+03  0.00000000000E+00 0.  1.
</event>
<event>
 4    1  0.3555026E+003  0.2083279E+02  0.7546771E-02  0.1521666E+00
          2   -1    0    0  502    0  0.00000000000E+00  0.00000000000E+00  0.46943226727E+02  0.46943226727E+02  0.00000000000E+00 0. -1.
          1   -1    0    0  501    0 -0.00000000000E+00 -0.00000000000E+00 -0.14732826942E+03  0.14732826942E+03  0.00000000000E+00 0.  1.
          2    1    1    2  501    0 -0.20439420369E+02 -0.40293219570E+01  0.43846059524E+02  0.48543612106E+02  0.00000000000E+00 0. -1.
          1    1    1    2  502    0  0.20439420369E+02  0.40293219570E+01 -0.14423110222E+03  0.14572788404E+03  0.00000000000E+00 0.  1.
</event>
<event>
 4    1  0.3555026E+003  0.2865136E+02  0.7546771E-02  0.1431690E+00
          2   -1    0    0  502    0  0.00000000000E+00  0.00000000000E+00  0.21110648926E+04  0.21110648926E+04  0.00000000000E+00 0. -1.
          1   -1    0    0  501    0 -0.00000000000E+00 -0.00000000000E+00 -0.22124708350E+01  0.22124708350E+01  0.00000000000E+00 0.  1.
          2    1    1    2  501    0 -0.24105902118E+02 -0.15485660843E+02  0.20137258669E+04  0.20139296828E+04  0.00000000000E+00 0. -1.
          1    1    1    2  502    0  0.24105902118E+02  0.15485660843E+02  0.95126554866E+02  0.99347680644E+02  0.00000000000E+00 0.  1.
</event>
<event>
 4    1  0.3555026E+003  0.2012798E+02  0.7546771E-02  0.1532088E+00
          2   -1    0    0  502    0  0.00000000000E+00  0.00000000000E+00  0.52270601080E+03  0.52270601080E+03  0.00000000000E+00 0.  1.
          1   -1    0    0  501    0 -0.00000000000E+00 -0.00000000000E+00 -0.27477325067E+02  0.27477325067E+02  0.00000000000E+00 0. -1.
          2    1    1    2  501    0 -0.16404089619E+02  0.11663678034E+02  0.51879839938E+03  0.51918870822E+03  0.00000000000E+00 0.  1.
          1    1    1    2  502    0  0.16404089619E+02 -0.11663678034E+02 -0.23569713649E+02  0.30994627647E+02  0.00000000000E+00 0. -1.
</event>
<event>
 4    1  0.3555026E+003  0.2779617E+02  0.7546771E-02  0.1439770E+00
          2   -1    0    0  502    0  0.00000000000E+00  0.00000000000E+00  0.38825035690E+02  0.38825035690E+02  0.00000000000E+00 0. -1.
          1   -1    0    0  501    0 -0.00000000000E+00 -0.00000000000E+00 -0.20246714219E+02  0.20246714219E+02  0.00000000000E+00 0.  1.
          2    1    1    2  501    0  0.22243197574E+02  0.16669342237E+02  0.13153005213E+02  0.30751070796E+02  0.00000000000E+00 0. -1.
          1    1    1    2  502    0 -0.22243197574E+02 -0.16669342237E+02  0.54253162568E+01  0.28320679113E+02  0.00000000000E+00 0.  1.
</event>
<event>
 4    1  0.3555026E+003  0.2270362E+02  0.7546771E-02  0.1496254E+00
          2   -1    0    0  502    0  0.00000000000E+00  0.00000000000E+00  0.35186323918E+01  0.35186323918E+01  0.00000000000E+00 0. -1.
          1   -1    0    0  501    0 -0.00000000000E+00 -0.00000000000E+00 -0.10427058741E+04  0.10427058741E+04  0.00000000000E+00 0. -1.
          2    1    1    2  501    0  0.21083526739E+02 -0.84225433954E+01 -0.34618322721E+02  0.41399065267E+02  0.00000000000E+00 0. -1.
          1    1    1    2  502    0 -0.21083526739E+02  0.84225433954E+01 -0.10045689190E+04  0.10048254412E+04  0.00000000000E+00 0. -1.
</event>
<event>
 4    1  0.3555026E+003  0.2176394E+02  0.7546771E-02  0.1508631E+00
          2   -1    0    0  502    0  0.00000000000E+00  0.00000000000E+00  0.17994770911E+01  0.17994770911E+01  0.00000000000E+00 0. -1.
          1   -1    0    0  501    0 -0.00000000000E+00 -0.00000000000E+00 -0.26370350580E+03  0.26370350580E+03  0.00000000000E+00 0.  1.
          2    1    1    2  501    0  0.21612344169E+02  0.25642831962E+01 -0.12530240675E+03  0.12717846558E+03  0.00000000000E+00 0. -1.
          1    1    1    2  502    0 -0.21612344169E+02 -0.25642831962E+01 -0.13660162196E+03  0.13832451732E+03  0.00000000000E+00 0.  1.
</event>
<event>
 4    1  0.3555026E+003  0.2422859E+02  0.7546771E-02  0.1477621E+00
          2   -1    0    0  502    0  0.00000000000E+00  0.00000000000E+00  0.51947599062E+03  0.51947599062E+03  0.00000000000E+00 0.  1.
          1   -1    0    0  501    0 -0.00000000000E+00 -0.00000000000E+00 -0.46231703278E+02  0.46231703278E+02  0.00000000000E+00 0.  1.
          2    1    1    2  501    0  0.13760199133E+02 -0.19941947112E+02  0.51599773634E+03  0.51656624768E+03  0.00000000000E+00 0.  1.
          1    1    1    2  502    0 -0.13760199133E+02  0.19941947112E+02 -0.42753449000E+02  0.49141446216E+02  0.00000000000E+00 0.  1.
</event>
<event>
 4    1  0.3555026E+003  0.2578829E+02  0.7546771E-02  0.1460175E+00
          2   -1    0    0  502    0  0.00000000000E+00  0.00000000000E+00  0.23811928054E+03  0.23811928054E+03  0.00000000000E+00 0. -1.
          1   -1    0    0  501    0 -0.00000000000E+00 -0.00000000000E+00 -0.34379420065E+01  0.34379420065E+01  0.00000000000E+00 0. -1.
          2    1    1    2  501    0 -0.22574289072E+02  0.12467426899E+02  0.65023266319E+02  0.69950414033E+02  0.00000000000E+00 0. -1.
          1    1    1    2  502    0  0.22574289072E+02 -0.12467426899E+02  0.16965807221E+03  0.17160680851E+03  0.00000000000E+00 0. -1.
</event>
<event>
 4    1  0.3555026E+003  0.2742299E+02  0.7546771E-02  0.1443405E+00
          2   -1    0    0  502    0  0.00000000000E+00  0.00000000000E+00  0.21031017185E+04  0.21031017185E+04  0.00000000000E+00 0.  1.
          1   -1    0    0  501    0 -0.00000000000E+00 -0.00000000000E+00 -0.11423133411E+01  0.11423133411E+01  0.00000000000E+00 0.  1.
          2    1    1    2  501    0 -0.24288727219E+02  0.12730999130E+02  0.19230176663E+04  0.19232131878E+04  0.00000000000E+00 0.  1.
          1    1    1    2  502    0  0.24288727219E+02 -0.12730999130E+02  0.17894173884E+03  0.18103084408E+03  0.00000000000E+00 0.  1.
</event>
<event>
 4    1  0.3555026E+003  0.2362243E+02  0.7546771E-02  0.1484827E+00
          2   -1    0    0  502    0  0.00000000000E+00  0.00000000000E+00  0.40257848446E+01  0.40257848446E+01  0.00000000000E+00 0. -1.
          1   -1    0    0  501    0 -0.00000000000E+00 -0.00000000000E+00 -0.24585407522E+03  0.24585407522E+03  0.00000000000E+00 0.  1.
          2    1    1    2  501    0  0.42193972675E+01 -0.23242544797E+02 -0.38396541155E+02  0.45081188700E+02  0.00000000000E+00 0. -1.
          1    1    1    2  502    0 -0.42193972675E+01  0.23242544797E+02 -0.20343174922E+03  0.20479867137E+03  0.00000000000E+00 0.  1.
</event>
<event>
 4    1  0.3555026E+003  0.3057937E+02  0.7546771E-02  0.1414627E+00
          2   -1    0    0  502    0  0.00000000000E+00  0.00000000000E+00  0.74161426956E+01  0.74161426956E+01  0.00000000000E+00 0.  1.
          1   -1    0    0  501    0 -0.00000000000E+00 -0.00000000000E+00 -0.12131918214E+04  0.12131918214E+04  0.00000000000E+00 0. -1.
          2    1    1    2  501    0 -0.27600405054E+02 -0.13164943523E+02 -0.25168816274E+02  0.39605143728E+02  0.00000000000E+00 0.  1.
          1    1    1    2  502    0  0.27600405054E+02  0.13164943523E+02 -0.11806068625E+04  0.11810028204E+04  0.00000000000E+00 0. -1.
</event>
<event>
 4    1  0.3555026E+003  0.2234973E+02  0.7546771E-02  0.1500829E+00
          2   -1    0    0  502    0  0.00000000000E+00  0.00000000000E+00  0.12148071446E+04  0.12148071446E+04  0.00000000000E+00 0. -1.
          1   -1    0    0  501    0 -0.00000000000E+00 -0.00000000000E+00 -0.18871093852E+03  0.18871093852E+03  0.00000000000E+00 0. -1.
          2    1    1    2  501    0 -0.58323555698E+01 -0.21575310851E+02  0.12140421913E+04  0.12142478959E+04  0.00000000000E+00 0. -1.
          1    1    1    2  502    0  0.58323555698E+01  0.21575310851E+02 -0.18794598523E+03  0.18927018722E+03  0.00000000000E+00 0. -1.
</event>
<event>
 4    1  0.3555026E+003  0.2812651E+02  0.7546771E-02  0.1436609E+00
          2   -1    0    0  502    0  0.00000000000E+00  0.00000000000E+00  0.66772513281E+03  0.66772513281E+03  0.00000000000E+00 0. -1.
          1   -1    0    0  501    0 -0.00000000000E+00 -0.00000000000E+00 -0.13871342536E+01  0.13871342536E+01  0.00000000000E+00 0.  1.
          2    1    1    2  501    0 -0.27060253241E+02 -0.76708709590E+01  0.20538441096E+03  0.20730136476E+03  0.00000000000E+00 0. -1.
          1    1    1    2  502    0  0.27060253241E+02  0.76708709590E+01  0.46095358760E+03  0.46181090230E+03  0.00000000000E+00 0.  1.
</event>
<event>
 4    1  0.3555026E+003  0.2233161E+02  0.7546771E-02  0.1501066E+00
          2   -1    0    0  502    0  0.00000000000E+00  0.00000000000E+00  0.28258667527E+02  0.28258667527E+02  0.00000000000E+00 0. -1.
          1   -1    0    0  501    0 -0.00000000000E+00 -0.00000000000E+00 -0.14990621951E+03  0.14990621951E+03  0.00000000000E+00 0. -1.
          2    1    1    2  501    0  0.98077565849E+01 -0.20062615575E+02  0.22850914623E+02  0.31950977013E+02  0.00000000000E+00 0. -1.
          1    1    1    2  502    0 -0.98077565849E+01  0.20062615575E+02 -0.14449846661E+03  0.14621391003E+03  0.00000000000E+00 0. -1.
</event>
<event>
 4    1  0.3555026E+003  0.2495995E+02  0.7546771E-02  0.1469252E+00
          2   -1    0    0  502    0  0.00000000000E+00  0.00000000000E+00  0.56584155324E+03  0.56584155324E+03  0.00000000000E+00 0.  1.
          1   -1    0    0  501    0 -0.00000000000E+00 -0.00000000000E+00 -0.82359139378E+02  0.82359139378E+02  0.00000000000E+00 0.  1.
          2    1    1    2  501    0  0.35666375236E+01 -0.24703808656E+02  0.56366790607E+03  0.56422026497E+03  0.00000000000E+00 0.  1.
          1    1    1    2  502    0 -0.35666375236E+01  0.24703808656E+02 -0.80185492216E+02  0.83980427643E+02  0.00000000000E+00 0.  1.
</event>
<event>
 4    1  0.3555026E+003  0.5238174E+02  0.7546771E-02  0.1288164E+00
          2   -1    0    0  502    0  0.00000000000E+00  0.00000000000E+00  0.52936046959E+02  0.52936046959E+02  0.00000000000E+00 0.  1.
          1   -1    0    0  501    0 -0.00000000000E+00 -0.00000000000E+00 -0.61814025507E+02  0.61814025507E+02  0.00000000000E+00 0.  1.
          2    1    1    2  501    0 -0.34875058911E+02  0.39084230634E+02  0.18615835406E+02  0.55591331574E+02  0.00000000000E+00 0.  1.
          1    1    1    2  502    0  0.34875058911E+02 -0.39084230634E+02 -0.27493813954E+02  0.59158740893E+02  0.00000000000E+00 0.  1.
</event>
<event>
 4    1  0.3555026E+003  0.2653508E+02  0.7546771E-02  0.1452335E+00
          2   -1    0    0  502    0  0.00000000000E+00  0.00000000000E+00  0.40682468417E+01  0.40682468417E+01  0.00000000000E+00 0.  1.
          1   -1    0    0  501    0 -0.00000000000E+00 -0.00000000000E+00 -0.69204544505E+03  0.69204544505E+03  0.00000000000E+00 0. -1.
          2    1    1    2  501    0  0.12519282232E+02  0.23396107633E+02 -0.42580897961E+02  0.50172135206E+02  0.00000000000E+00 0.  1.
          1    1    1    2  502    0 -0.12519282232E+02 -0.23396107633E+02 -0.64539630025E+03  0.64594155669E+03  0.00000000000E+00 0. -1.
</event>
<event>
 4    1  0.3555026E+003  0.2182668E+02  0.7546771E-02  0.1507782E+00
          2   -1    0    0  502    0  0.00000000000E+00  0.00000000000E+00  0.14207214994E+03  0.14207214994E+03  0.00000000000E+00 0.  1.
          1   -1    0    0  501    0 -0.00000000000E+00 -0.00000000000E+00 -0.11861156622E+03  0.11861156622E+03  0.00000000000E+00 0.  1.
          2    1    1    2  501    0  0.15710058119E+02 -0.15152486335E+02  0.14021650176E+03  0.14190514837E+03  0.00000000000E+00 0.  1.
          1    1    1    2  502    0 -0.15710058119E+02  0.15152486335E+02 -0.11675591804E+03  0.11877856779E+03  0.00000000000E+00 0.  1.
</event>
<event>
 4    1  0.3555026E+003  0.2428405E+02  0.7546771E-02  0.1476974E+00
          2   -1    0    0  502    0  0.00000000000E+00  0.00000000000E+00  0.34756706805E+01  0.34756706805E+01  0.00000000000E+00 0. -1.
          1   -1    0    0  501    0 -0.00000000000E+00 -0.00000000000E+00 -0.66866158070E+03  0.66866158070E+03  0.00000000000E+00 0. -1.
          2    1    1    2  501    0 -0.18527652708E+02 -0.15698438665E+02 -0.42276492594E+02  0.48754658418E+02  0.00000000000E+00 0. -1.
          1    1    1    2  502    0  0.18527652708E+02  0.15698438665E+02 -0.62290941743E+03  0.62338259297E+03  0.00000000000E+00 0. -1.
</event>
<event>
 4    1  0.3555026E+003  0.2736925E+02  0.7546771E-02  0.1443934E+00
          2   -1    0    0  502    0  0.00000000000E+00  0.00000000000E+00  0.14064675061E+04  0.14064675061E+04  0.00000000000E+00 0.  1.
          1   -1    0    0  501    0 -0.00000000000E+00 -0.00000000000E+00 -0.72044640828E+00  0.72044640828E+00  0.00000000000E+00 0. -1.
          2    1    1    2  501    0  0.26547137472E+02 -0.66577086264E+01  0.10621511113E+04  0.10625036747E+04  0.00000000000E+00 0.  1.
          1    1    1    2  502    0 -0.26547137472E+02  0.66577086264E+01  0.34359594841E+03  0.34468427780E+03  0.00000000000E+00 0. -1.
</event>
<event>
 4    1  0.3902547E+003  0.2969410E+02  0.7546771E-02  0.1422274E+00
          2   -1    0    0  502    0  0.00000000000E+00  0.00000000000E+00  0.51692995900E+03  0.51692995900E+03  0.00000000000E+00 0.  1.
          1   -1    0    0  501    0 -0.00000000000E+00 -0.00000000000E+00 -0.64231586586E+03  0.64231586586E+03  0.00000000000E+00 0. -1.
          2    1    1    2  501    0  0.17393664944E+02 -0.24066571035E+02  0.51615982895E+03  0.51701325751E+03  0.00000000000E+00 0.  1.
          1    1    1    2  502    0 -0.17393664944E+02  0.24066571035E+02 -0.64154573581E+03  0.64223256735E+03  0.00000000000E+00 0. -1.
</event>
<event>
 4    1  0.3555026E+003  0.3093889E+02  0.7546771E-02  0.1411609E+00
          2   -1    0    0  502    0  0.00000000000E+00  0.00000000000E+00  0.14623922097E+04  0.14623922097E+04  0.00000000000E+00 0.  1.
          1   -1    0    0  501    0 -0.00000000000E+00 -0.00000000000E+00 -0.18288611780E+01  0.18288611780E+01  0.00000000000E+00 0.  1.
          2    1    1    2  501    0  0.30782975202E+02  0.31021041474E+01  0.13169290755E+04  0.13172924522E+04  0.00000000000E+00 0.  1.
          1    1    1    2  502    0 -0.30782975202E+02 -0.31021041474E+01  0.14363427297E+03  0.14692861867E+03  0.00000000000E+00 0.  1.
</event>
<event>
 4    1  0.3555026E+003  0.3291903E+02  0.7546771E-02  0.1395814E+00
          2   -1    0    0  502    0  0.00000000000E+00  0.00000000000E+00  0.83879220401E+01  0.83879220401E+01  0.00000000000E+00 0.  1.
          1   -1    0    0  501    0 -0.00000000000E+00 -0.00000000000E+00 -0.13052472309E+03  0.13052472309E+03  0.00000000000E+00 0.  1.
          2    1    1    2  501    0  0.32911261459E+02  0.71514291950E+00 -0.54053227695E+02  0.63288340035E+02  0.00000000000E+00 0.  1.
          1    1    1    2  502    0 -0.32911261459E+02 -0.71514291950E+00 -0.68083573351E+02  0.75624305091E+02  0.00000000000E+00 0.  1.
</event>
<event>
 4    1  0.3555026E+003  0.2009086E+02  0.7546771E-02  0.1532651E+00
          2   -1    0    0  502    0  0.00000000000E+00  0.00000000000E+00  0.33871872655E+01  0.33871872655E+01  0.00000000000E+00 0. -1.
          1   -1    0    0  501    0 -0.00000000000E+00 -0.00000000000E+00 -0.99017717200E+03  0.99017717200E+03  0.00000000000E+00 0.  1.
          2    1    1    2  501    0  0.19093983726E+02 -0.62499999187E+01 -0.27464603330E+02  0.34028622506E+02  0.00000000000E+00 0. -1.
          1    1    1    2  502    0 -0.19093983726E+02  0.62499999187E+01 -0.95932538141E+03  0.95953573676E+03  0.00000000000E+00 0.  1.
</event>
<event>
 4    1  0.3555026E+003  0.6245009E+02  0.7546771E-02  0.1251728E+00
          2   -1    0    0  502    0  0.00000000000E+00  0.00000000000E+00  0.77228808064E+03  0.77228808064E+03  0.00000000000E+00 0. -1.
          1   -1    0    0  501    0 -0.00000000000E+00 -0.00000000000E+00 -0.10816273608E+02  0.10816273608E+02  0.00000000000E+00 0.  1.
          2    1    1    2  501    0 -0.27925252668E+02  0.55858693298E+02  0.66662688457E+03  0.66954567924E+03  0.00000000000E+00 0. -1.
          1    1    1    2  502    0  0.27925252668E+02 -0.55858693298E+02  0.94844922462E+02  0.11355867501E+03  0.00000000000E+00 0.  1.
</event>
<event>
 4    1  0.3555026E+003  0.2093724E+02  0.7546771E-02  0.1520163E+00
          2   -1    0    0  502    0  0.00000000000E+00  0.00000000000E+00  0.20767879449E+03  0.20767879449E+03  0.00000000000E+00 0. -1.
          1   -1    0    0  501    0 -0.00000000000E+00 -0.00000000000E+00 -0.58701874377E+02  0.58701874377E+02  0.00000000000E+00 0.  1.
          2    1    1    2  501    0 -0.16165240642E+02  0.13306130935E+02  0.20526224684E+03  0.20632730818E+03  0.00000000000E+00 0. -1.
          1    1    1    2  502    0  0.16165240642E+02 -0.13306130935E+02 -0.56285326722E+02  0.60053360686E+02  0.00000000000E+00 0.  1.
</event>
<event>
 4    1  0.3555026E+003  0.3525371E+02  0.7546771E-02  0.1378788E+00
          2   -1    0    0  502    0  0.00000000000E+00  0.00000000000E+00  0.21510889697E+04  0.21510889697E+04  0.00000000000E+00 0. -1.
          1   -1    0    0  501    0 -0.00000000000E+00 -0.00000000000E+00 -0.83862257736E+00  0.83862257736E+00  0.00000000000E+00 0. -1.
          2    1    1    2  501    0 -0.18631495119E+02  0.29928105464E+02  0.16752146887E+04  0.16755855923E+04  0.00000000000E+00 0. -1.
          1    1    1    2  502    0  0.18631495119E+02 -0.29928105464E+02  0.47503565850E+03  0.47634199999E+03  0.00000000000E+00 0. -1.
</event>
<event>
 4    1  0.3555026E+003  0.2457515E+02  0.7546771E-02  0.1473613E+00
          2   -1    0    0  502    0  0.00000000000E+00  0.00000000000E+00  0.23444569126E+02  0.23444569126E+02  0.00000000000E+00 0.  1.
          1   -1    0    0  501    0 -0.00000000000E+00 -0.00000000000E+00 -0.27007169255E+03  0.27007169255E+03  0.00000000000E+00 0.  1.
          2    1    1    2  501    0  0.17216830479E+02  0.17536205966E+02  0.16270088080E+02  0.29472928893E+02  0.00000000000E+00 0.  1.
          1    1    1    2  502    0 -0.17216830479E+02 -0.17536205966E+02 -0.26289721150E+03  0.26404333278E+03  0.00000000000E+00 0.  1.
</event>
<event>
 4    1  0.3555026E+003  0.2003667E+02  0.7546771E-02  0.1533476E+00
          2   -1    0    0  502    0  0.00000000000E+00  0.00000000000E+00  0.11365685759E+04  0.11365685759E+04  0.00000000000E+00 0. -1.
          1   -1    0    0  501    0 -0.00000000000E+00 -0.00000000000E+00 -0.32835967182E+01  0.32835967182E+01  0.00000000000E+00 0. -1.
          2    1    1    2  501    0 -0.18915318864E+02 -0.66089878271E+01  0.11050421204E+04  0.11052237583E+04  0.00000000000E+00 0. -1.
          1    1    1    2  502    0  0.18915318864E+02  0.66089878271E+01  0.28242858813E+02  0.34628414370E+02  0.00000000000E+00 0. -1.
</event>
<event>
 4    1  0.3555026E+003  0.2305462E+02  0.7546771E-02  0.1491813E+00
          2   -1    0    0  502    0  0.00000000000E+00  0.00000000000E+00  0.47442192638E+01  0.47442192638E+01  0.00000000000E+00 0. -1.
          1   -1    0    0  501    0 -0.00000000000E+00 -0.00000000000E+00 -0.13030336111E+03  0.13030336111E+03  0.00000000000E+00 0. -1.
          2    1    1    2  501    0  0.18812106280E+02 -0.13327416787E+02 -0.37496089465E+02  0.44016725299E+02  0.00000000000E+00 0. -1.
          1    1    1    2  502    0 -0.18812106280E+02  0.13327416787E+02 -0.88063052379E+02  0.91030855072E+02  0.00000000000E+00 0. -1.
</event>
<event>
 4    1  0.3555026E+003  0.4244534E+02  0.7546771E-02  0.1334723E+00
          2   -1    0    0  502    0  0.00000000000E+00  0.00000000000E+00  0.17388722582E+04  0.17388722582E+04  0.00000000000E+00 0. -1.
          1   -1    0    0  501    0 -0.00000000000E+00 -0.00000000000E+00 -0.14224798354E+01  0.14224798354E+01  0.00000000000E+00 0. -1.
          2    1    1    2  501    0  0.29763529387E+02 -0.30261183846E+02  0.13222375955E+04  0.13229186921E+04  0.00000000000E+00 0. -1.
          1    1    1    2  502    0 -0.29763529387E+02  0.30261183846E+02  0.41521218289E+03  0.41737604597E+03  0.00000000000E+00 0. -1.
</event>
<event>
 4    1  0.3555026E+003  0.5059373E+02  0.7546771E-02  0.1295619E+00
          2   -1    0    0  502    0  0.00000000000E+00  0.00000000000E+00  0.11394148666E+04  0.11394148666E+04  0.00000000000E+00 0.  1.
          1   -1    0    0  501    0 -0.00000000000E+00 -0.00000000000E+00 -0.59270253127E+01  0.59270253127E+01  0.00000000000E+00 0.  1.
          2    1    1    2  501    0 -0.50581719524E+02  0.11025166454E+01  0.10180176891E+04  0.10192741247E+04  0.00000000000E+00 0.  1.
          1    1    1    2  502    0  0.50581719524E+02 -0.11025166454E+01  0.11547015221E+03  0.12606776727E+03  0.00000000000E+00 0.  1.
</event>
<event>
 4    1  0.3555026E+003  0.4315438E+02  0.7546771E-02  0.1330931E+00
          2   -1    0    0  502    0  0.00000000000E+00  0.00000000000E+00  0.57999326024E+01  0.57999326024E+01  0.00000000000E+00 0. -1.
          1   -1    0    0  501    0 -0.00000000000E+00 -0.00000000000E+00 -0.51457218685E+03  0.51457218685E+03  0.00000000000E+00 0. -1.
          2    1    1    2  501    0  0.60765799903E+01  0.42724416487E+02 -0.94841817420E+02  0.10419822897E+03  0.00000000000E+00 0. -1.
          1    1    1    2  502    0 -0.60765799903E+01 -0.42724416487E+02 -0.41393043683E+03  0.41617389048E+03  0.00000000000E+00 0. -1.
</event>
<event>
 4    1  0.3555026E+003  0.3142046E+02  0.7546771E-02  0.1407642E+00
          2   -1    0    0  502    0  0.00000000000E+00  0.00000000000E+00  0.21669029834E+04  0.21669029834E+04  0.00000000000E+00 0.  1.
          1   -1    0    0  501    0 -0.00000000000E+00 -0.00000000000E+00 -0.10163626230E+01  0.10163626230E+01  0.00000000000E+00 0.  1.
          2    1    1    2  501    0 -0.19082668874E+02  0.24961906052E+02  0.18880947912E+04  0.18883562125E+04  0.00000000000E+00 0.  1.
          1    1    1    2  502    0  0.19082668874E+02 -0.24961906052E+02  0.27779182964E+03  0.27956313352E+03  0.00000000000E+00 0.  1.
</event>
<event>
 4    1  0.3555026E+003  0.2327283E+02  0.7546771E-02  0.1489100E+00
          2   -1    0    0  502    0  0.00000000000E+00  0.00000000000E+00  0.24565264288E+02  0.24565264288E+02  0.00000000000E+00 0. -1.
          1   -1    0    0  501    0 -0.00000000000E+00 -0.00000000000E+00 -0.70725582990E+02  0.70725582990E+02  0.00000000000E+00 0. -1.
          2    1    1    2  501    0  0.22148491343E+02 -0.71462637863E+01  0.16447003833E+02  0.28497871674E+02  0.00000000000E+00 0. -1.
          1    1    1    2  502    0 -0.22148491343E+02  0.71462637863E+01 -0.62607322536E+02  0.66792975604E+02  0.00000000000E+00 0. -1.
</event>
<event>
 4    1  0.3555026E+003  0.2322810E+02  0.7546771E-02  0.1489654E+00
          2   -1    0    0  502    0  0.00000000000E+00  0.00000000000E+00  0.51959938689E+01  0.51959938689E+01  0.00000000000E+00 0. -1.
          1   -1    0    0  501    0 -0.00000000000E+00 -0.00000000000E+00 -0.15772821779E+04  0.15772821779E+04  0.00000000000E+00 0. -1.
          2    1    1    2  501    0 -0.91738972344E+01 -0.21339732416E+02 -0.21292548921E+02  0.31510588849E+02  0.00000000000E+00 0. -1.
          1    1    1    2  502    0  0.91738972344E+01  0.21339732416E+02 -0.15507936351E+04  0.15509675829E+04  0.00000000000E+00 0. -1.
</event>
<event>
 4    1  0.3555026E+003  0.2557910E+02  0.7546771E-02  0.1462428E+00
          2   -1    0    0  502    0  0.00000000000E+00  0.00000000000E+00  0.14355680125E+04  0.14355680125E+04  0.00000000000E+00 0. -1.
          1   -1    0    0  501    0 -0.00000000000E+00 -0.00000000000E+00 -0.22484312953E+01  0.22484312953E+01  0.00000000000E+00 0.  1.
          2    1    1    2  501    0 -0.51987685556E+01  0.25045222679E+02  0.13585823384E+04  0.13588231160E+04  0.00000000000E+00 0. -1.
          1    1    1    2  502    0  0.51987685556E+01 -0.25045222679E+02  0.74737242805E+02  0.78993327792E+02  0.00000000000E+00 0.  1.
</event>
<event>
 4    1  0.3555026E+003  0.2292258E+02  0.7546771E-02  0.1493473E+00
          2   -1    0    0  502    0  0.00000000000E+00  0.00000000000E+00  0.16304649980E+04  0.16304649980E+04  0.00000000000E+00 0.  1.
          1   -1    0    0  501    0 -0.00000000000E+00 -0.00000000000E+00 -0.32377498530E+00  0.32377498530E+00  0.00000000000E+00 0. -1.
          2    1    1    2  501    0  0.13232243774E+02  0.18717689785E+02  0.75941331666E+03  0.75975919192E+03  0.00000000000E+00 0.  1.
          1    1    1    2  502    0 -0.13232243774E+02 -0.18717689785E+02  0.87072790631E+03  0.87102958102E+03  0.00000000000E+00 0. -1.
</event>
<event>
 4    1  0.3555026E+003  0.2764000E+02  0.7546771E-02  0.1441283E+00
          2   -1    0    0  502    0  0.00000000000E+00  0.00000000000E+00  0.12279129209E+04  0.12279129209E+04  0.00000000000E+00 0. -1.
          1   -1    0    0  501    0 -0.00000000000E+00 -0.00000000000E+00 -0.85120855116E+00  0.85120855116E+00  0.00000000000E+00 0. -1.
          2    1    1    2  501    0  0.12150961766E+01  0.27613280102E+02  0.93222605261E+03  0.93263571820E+03  0.00000000000E+00 0. -1.
          1    1    1    2  502    0 -0.12150961766E+01 -0.27613280102E+02  0.29483565970E+03  0.29612841122E+03  0.00000000000E+00 0. -1.
</event>
<event>
 4    1  0.3555026E+003  0.2330376E+02  0.7546771E-02  0.1488719E+00
          2   -1    0    0  502    0  0.00000000000E+00  0.00000000000E+00  0.11735260792E+02  0.11735260792E+02  0.00000000000E+00 0. -1.
          1   -1    0    0  501    0 -0.00000000000E+00 -0.00000000000E+00 -0.66516291957E+02  0.66516291957E+02  0.00000000000E+00 0.  1.
          2    1    1    2  501    0  0.15667424705E+02  0.17251003591E+02 -0.58079374007E+01  0.24016607976E+02  0.00000000000E+00 0. -1.
          1    1    1    2  502    0 -0.15667424705E+02 -0.17251003591E+02 -0.48973093764E+02  0.54234944774E+02  0.00000000000E+00 0.  1.
</event>
<event>
 4    1  0.3555026E+003  0.2410219E+02  0.7546771E-02  0.1479103E+00
          2   -1    0    0  502    0  0.00000000000E+00  0.00000000000E+00  0.49911366130E+00  0.49911366130E+00  0.00000000000E+00 0. -1.
          1   -1    0    0  501    0 -0.00000000000E+00 -0.00000000000E+00 -0.15417079489E+04  0.15417079489E+04  0.00000000000E+00 0. -1.
          2    1    1    2  501    0 -0.63428639014E+01  0.23252601218E+02 -0.38887938445E+03  0.38962557800E+03  0.00000000000E+00 0. -1.
          1    1    1    2  502    0  0.63428639014E+01 -0.23252601218E+02 -0.11523294508E+04  0.11525814846E+04  0.00000000000E+00 0. -1.
</event>
<event>
 4    1  0.3555026E+003  0.2302001E+02  0.7546771E-02  0.1492247E+00
          2   -1    0    0  502    0  0.00000000000E+00  0.00000000000E+00  0.57829789796E+03  0.57829789796E+03  0.00000000000E+00 0.  1.
          1   -1    0    0  501    0 -0.00000000000E+00 -0.00000000000E+00 -0.91644199115E+00  0.91644199115E+00  0.00000000000E+00 0.  1.
          2    1    1    2  501    0 -0.21326267280E+02  0.86666442766E+01  0.28571168198E+03  0.28663755096E+03  0.00000000000E+00 0.  1.
          1    1    1    2  502    0  0.21326267280E+02 -0.86666442766E+01  0.29166977400E+03  0.29257678900E+03  0.00000000000E+00 0.  1.
</event>
<event>
 4    1  0.3555026E+003  0.2582251E+02  0.7546771E-02  0.1459809E+00
          2   -1    0    0  502    0  0.00000000000E+00  0.00000000000E+00  0.30028399597E+02  0.30028399597E+02  0.00000000000E+00 0. -1.
          1   -1    0    0  501    0 -0.00000000000E+00 -0.00000000000E+00 -0.22943515071E+02  0.22943515071E+02  0.00000000000E+00 0. -1.
          2    1    1    2  501    0 -0.25551082050E+02 -0.37341261169E+01 -0.12071993649E+01  0.25850702545E+02  0.00000000000E+00 0. -1.
          1    1    1    2  502    0  0.25551082050E+02  0.37341261169E+01  0.82920838912E+01  0.27121212123E+02  0.00000000000E+00 0. -1.
</event>
<event>
 4    1  0.3555026E+003  0.2903808E+02  0.7546771E-02  0.1428144E+00
          2   -1    0    0  502    0  0.00000000000E+00  0.00000000000E+00  0.13179588107E+01  0.13179588107E+01  0.00000000000E+00 0. -1.
          1   -1    0    0  501    0 -0.00000000000E+00 -0.00000000000E+00 -0.81716424466E+03  0.81716424466E+03  0.00000000000E+00 0. -1.
          2    1    1    2  501    0 -0.12503367990E+02 -0.26208313183E+02 -0.21725579442E+03  0.21918779642E+03  0.00000000000E+00 0. -1.
          1    1    1    2  502    0  0.12503367990E+02  0.26208313183E+02 -0.59859049143E+03  0.59929440705E+03  0.00000000000E+00 0. -1.
</event>
<event>
 4    1  0.3555026E+003  0.2559622E+02  0.7546771E-02  0.1462243E+00
          2   -1    0    0  502    0  0.00000000000E+00  0.00000000000E+00  0.14570775713E+03  0.14570775713E+03  0.00000000000E+00 0. -1.
          1   -1    0    0  501    0 -0.00000000000E+00 -0.00000000000E+00 -0.45974347064E+01  0.45974347064E+01  0.00000000000E+00 0. -1.
          2    1    1    2  501    0 -0.25247955437E+02  0.42080046033E+01  0.81693747208E+02  0.85609782673E+02  0.00000000000E+00 0. -1.
          1    1    1    2  502    0  0.25247955437E+02 -0.42080046033E+01  0.59416575220E+02  0.64695409168E+02  0.00000000000E+00 0. -1.
</event>
<event>
 4    1  0.3555026E+003  0.2632381E+02  0.7546771E-02  0.1454521E+00
          2   -1    0    0  502    0  0.00000000000E+00  0.00000000000E+00  0.92210121316E+03  0.92210121316E+03  0.00000000000E+00 0. -1.
          1   -1    0    0  501    0 -0.00000000000E+00 -0.00000000000E+00 -0.22705196759E+03  0.22705196759E+03  0.00000000000E+00 0.  1.
          2    1    1    2  501    0 -0.19251505856E+02 -0.17953342494E+02  0.92114957605E+03  0.92152562875E+03  0.00000000000E+00 0. -1.
          1    1    1    2  502    0  0.19251505856E+02  0.17953342494E+02 -0.22610033048E+03  0.22762755200E+03  0.00000000000E+00 0.  1.
</event>
<event>
 4    1  0.3555026E+003  0.2953560E+02  0.7546771E-02  0.1423676E+00
          2   -1    0    0  502    0  0.00000000000E+00  0.00000000000E+00  0.77701438180E+02  0.77701438180E+02  0.00000000000E+00 0. -1.
          1   -1    0    0  501    0 -0.00000000000E+00 -0.00000000000E+00 -0.20176074007E+03  0.20176074007E+03  0.00000000000E+00 0. -1.
          2    1    1    2  501    0  0.11344966553E+01  0.29513803179E+02  0.73758130989E+02  0.79451957482E+02  0.00000000000E+00 0. -1.
          1    1    1    2  502    0 -0.11344966553E+01 -0.29513803179E+02 -0.19781743288E+03  0.20001022077E+03  0.00000000000E+00 0. -1.
</event>
<event>
 4    1  0.3555026E+003  0.2881685E+02  0.7546771E-02  0.1430164E+00
          2   -1    0    0  502    0  0.00000000000E+00  0.00000000000E+00  0.11499690584E+04  0.11499690584E+04  0.00000000000E+00 0. -1.
          1   -1    0    0  501    0 -0.00000000000E+00 -0.00000000000E+00 -0.92060998945E+00  0.92060998945E+00  0.00000000000E+00 0. -1.
          2    1    1    2  501    0  0.25708709486E+02 -0.13018181007E+02  0.84172628132E+03  0.84221941526E+03  0.00000000000E+00 0. -1.
          1    1    1    2  502    0 -0.25708709486E+02  0.13018181007E+02  0.30732216704E+03  0.30867025308E+03  0.00000000000E+00 0. -1.
</event>
<event>
 4    1  0.3555026E+003  0.2035366E+02  0.7546771E-02  0.1528696E+00
          2   -1    0    0  502    0  0.00000000000E+00  0.00000000000E+00  0.17089610277E+01  0.17089610277E+01  0.00000000000E+00 0. -1.
          1   -1    0    0  501    0 -0.00000000000E+00 -0.00000000000E+00 -0.24965931547E+03  0.24965931547E+03  0.00000000000E+00 0. -1.
          2    1    1    2  501    0 -0.18713842130E+02 -0.80039614323E+01 -0.10256011854E+03  0.10456026588E+03  0.00000000000E+00 0. -1.
          1    1    1    2  502    0  0.18713842130E+02  0.80039614323E+01 -0.14539023590E+03  0.14680801062E+03  0.00000000000E+00 0. -1.
</event>
<event>
 4    1  0.3555026E+003  0.2060785E+02  0.7546771E-02  0.1524938E+00
          2   -1    0    0  502    0  0.00000000000E+00  0.00000000000E+00  0.60864660113E+01  0.60864660113E+01  0.00000000000E+00 0.  1.
          1   -1    0    0  501    0 -0.00000000000E+00 -0.00000000000E+00 -0.70410710029E+02  0.70410710029E+02  0.00000000000E+00 0. -1.
          2    1    1    2  501    0  0.20272639535E+02 -0.37018214100E+01 -0.28527889618E+02  0.35192668008E+02  0.00000000000E+00 0.  1.
          1    1    1    2  502    0 -0.20272639535E+02  0.37018214100E+01 -0.35796354400E+02  0.41304508032E+02  0.00000000000E+00 0. -1.
</event>
<event>
 4    1  0.3555026E+003  0.6181427E+02  0.7546771E-02  0.1253790E+00
          2   -1    0    0  502    0  0.00000000000E+00  0.00000000000E+00  0.44360649052E+01  0.44360649052E+01  0.00000000000E+00 0. -1.
          1   -1    0    0  501    0 -0.00000000000E+00 -0.00000000000E+00 -0.23764343749E+04  0.23764343749E+04  0.00000000000E+00 0.  1.
          2    1    1    2  501    0  0.61651939250E+02  0.44768398730E+01 -0.23547908820E+03  0.24345719272E+03  0.00000000000E+00 0. -1.
          1    1    1    2  502    0 -0.61651939250E+02 -0.44768398730E+01 -0.21365192218E+04  0.21374132471E+04  0.00000000000E+00 0.  1.
</event>
<event>
 4    1  0.3555026E+003  0.2781770E+02  0.7546771E-02  0.1439563E+00
          2   -1    0    0  502    0  0.00000000000E+00  0.00000000000E+00  0.86200925673E+02  0.86200925673E+02  0.00000000000E+00 0. -1.
          1   -1    0    0  501    0 -0.00000000000E+00 -0.00000000000E+00 -0.17139590979E+02  0.17139590979E+02  0.00000000000E+00 0. -1.
          2    1    1    2  501    0 -0.24707800857E+02 -0.12780797851E+02  0.70188495212E+02  0.75499993888E+02  0.00000000000E+00 0. -1.
          1    1    1    2  502    0  0.24707800857E+02  0.12780797851E+02 -0.11271605183E+01  0.27840522764E+02  0.00000000000E+00 0. -1.
</event>
<event>
 4    1  0.3555026E+003  0.2302136E+02  0.7546771E-02  0.1492230E+00
          2   -1    0    0  502    0  0.00000000000E+00  0.00000000000E+00  0.10134100412E+02  0.10134100412E+02  0.00000000000E+00 0.  1.
          1   -1    0    0  501    0 -0.00000000000E+00 -0.00000000000E+00 -0.58588568423E+02  0.58588568423E+02  0.00000000000E+00 0.  1.
          2    1    1    2  501    0  0.15836240330E+02 -0.16709163436E+02 -0.35487389762E+02  0.42300561257E+02  0.00000000000E+00 0.  1.
          1    1    1    2  502    0 -0.15836240330E+02  0.16709163436E+02 -0.12967078249E+02  0.26422107578E+02  0.00000000000E+00 0.  1.
</event>
<event>
 4    1  0.3555026E+003  0.4596989E+02  0.7546771E-02  0.1316660E+00
          2   -1    0    0  502    0  0.00000000000E+00  0.00000000000E+00  0.61045863177E+03  0.61045863177E+03  0.00000000000E+00 0. -1.
          1   -1    0    0  501    0 -0.00000000000E+00 -0.00000000000E+00 -0.51748077262E+02  0.51748077262E+02  0.00000000000E+00 0.  1.
          2    1    1    2  501    0  0.34429852980E+02  0.30460069749E+02  0.59919230388E+03  0.60095311602E+03  0.00000000000E+00 0. -1.
          1    1    1    2  502    0 -0.34429852980E+02 -0.30460069749E+02 -0.40481749368E+02  0.61253593015E+02  0.00000000000E+00 0.  1.
</event>
<event>
 4    1  0.3555026E+003  0.3150952E+02  0.7546771E-02  0.1406917E+00
          2   -1    0    0  502    0  0.00000000000E+00  0.00000000000E+00  0.21493908594E+01  0.21493908594E+01  0.00000000000E+00 0.  1.
          1   -1    0    0  501    0 -0.00000000000E+00 -0.00000000000E+00 -0.21026469230E+04  0.21026469230E+04  0.00000000000E+00 0. -1.
          2    1    1    2  501    0 -0.50790292480E+01 -0.31097483171E+02 -0.12060866868E+03  0.12465673251E+03  0.00000000000E+00 0.  1.
          1    1    1    2  502    0  0.50790292480E+01  0.31097483171E+02 -0.19798888634E+04  0.19801395813E+04  0.00000000000E+00 0. -1.
</event>
<event>
 4    1  0.3555026E+003  0.2049521E+02  0.7546771E-02  0.1526595E+00
          2   -1    0    0  502    0  0.00000000000E+00  0.00000000000E+00  0.37920254527E+02  0.37920254527E+02  0.00000000000E+00 0.  1.
          1   -1    0    0  501    0 -0.00000000000E+00 -0.00000000000E+00 -0.92518506349E+03  0.92518506349E+03  0.00000000000E+00 0. -1.
          2    1    1    2  501    0 -0.20349270443E+02 -0.24415115275E+01  0.35028744713E+02  0.40584070056E+02  0.00000000000E+00 0.  1.
          1    1    1    2  502    0  0.20349270443E+02  0.24415115275E+01 -0.92229355368E+03  0.92252124796E+03  0.00000000000E+00 0. -1.
</event>
<event>
 4    1  0.3555026E+003  0.2247425E+02  0.7546771E-02  0.1499208E+00
          2   -1    0    0  502    0  0.00000000000E+00  0.00000000000E+00  0.27792164872E+00  0.27792164872E+00  0.00000000000E+00 0.  1.
          1   -1    0    0  501    0 -0.00000000000E+00 -0.00000000000E+00 -0.21118754782E+04  0.21118754782E+04  0.00000000000E+00 0.  1.
          2    1    1    2  501    0  0.80451662668E+01  0.20984928582E+02 -0.66143818878E+03  0.66181989204E+03  0.00000000000E+00 0.  1.
          1    1    1    2  502    0 -0.80451662668E+01 -0.20984928582E+02 -0.14501593677E+04  0.14503335078E+04  0.00000000000E+00 0.  1.
</event>
<event>
 4    1  0.3555026E+003  0.2901677E+02  0.7546771E-02  0.1428337E+00
          2   -1    0    0  502    0  0.00000000000E+00  0.00000000000E+00  0.45440493662E+02  0.45440493662E+02  0.00000000000E+00 0.  1.
          1   -1    0    0  501    0 -0.00000000000E+00 -0.00000000000E+00 -0.66574402842E+03  0.66574402842E+03  0.00000000000E+00 0. -1.
          2    1    1    2  501    0 -0.27193548411E+02  0.10123423078E+02  0.40457114741E+02  0.49787055578E+02  0.00000000000E+00 0.  1.
          1    1    1    2  502    0  0.27193548411E+02 -0.10123423078E+02 -0.66076064950E+03  0.66139746651E+03  0.00000000000E+00 0. -1.
</event>
<event>
 4    1  0.3555026E+003  0.3393106E+02  0.7546771E-02  0.1388238E+00
          2   -1    0    0  502    0  0.00000000000E+00  0.00000000000E+00  0.15861474850E+04  0.15861474850E+04  0.00000000000E+00 0.  1.
          1   -1    0    0  501    0 -0.00000000000E+00 -0.00000000000E+00 -0.72617234587E+00  0.72617234587E+00  0.00000000000E+00 0.  1.
          2    1    1    2  501    0 -0.32320532114E+01  0.33776756181E+02  0.77616265069E+03  0.77690396817E+03  0.00000000000E+00 0.  1.
          1    1    1    2  502    0  0.32320532114E+01 -0.33776756181E+02  0.80925866194E+03  0.80996968916E+03  0.00000000000E+00 0.  1.
</event>
<event>
 4    1  0.3555026E+003  0.2716555E+02  0.7546771E-02  0.1445952E+00
          2   -1    0    0  502    0  0.00000000000E+00  0.00000000000E+00  0.44944605999E+03  0.44944605999E+03  0.00000000000E+00 0. -1.
          1   -1    0    0  501    0 -0.00000000000E+00 -0.00000000000E+00 -0.70831257916E+01  0.70831257916E+01  0.00000000000E+00 0.  1.
          2    1    1    2  501    0  0.18908355467E+02  0.19504903819E+02  0.42124711359E+03  0.42212213622E+03  0.00000000000E+00 0. -1.
          1    1    1    2  502    0 -0.18908355467E+02 -0.19504903819E+02  0.21115820605E+02  0.34407049557E+02  0.00000000000E+00 0.  1.
</event>
<event>
 4    1  0.3555026E+003  0.2038257E+02  0.7546771E-02  0.1528266E+00
          2   -1    0    0  502    0  0.00000000000E+00  0.00000000000E+00  0.77374625466E+01  0.77374625466E+01  0.00000000000E+00 0. -1.
          1   -1    0    0  501    0 -0.00000000000E+00 -0.00000000000E+00 -0.12553901259E+03  0.12553901259E+03  0.00000000000E+00 0.  1.
          2    1    1    2  501    0  0.17201425122E+02  0.10934352571E+02 -0.84886631754E+01  0.22079549245E+02  0.00000000000E+00 0. -1.
          1    1    1    2  502    0 -0.17201425122E+02 -0.10934352571E+02 -0.10931288687E+03  0.11119692589E+03  0.00000000000E+00 0.  1.
</event>
<event>
 4    1  0.3555026E+003  0.2110132E+02  0.7546771E-02  0.1517823E+00
          2   -1    0    0  502    0  0.00000000000E+00  0.00000000000E+00  0.11350494614E+04  0.11350494614E+04  0.00000000000E+00 0.  1.
          1   -1    0    0  501    0 -0.00000000000E+00 -0.00000000000E+00 -0.27836870620E+01  0.27836870620E+01  0.00000000000E+00 0. -1.
          2    1    1    2  501    0  0.10085837264E+01 -0.21077200978E+02  0.10934410075E+04  0.10936445960E+04  0.00000000000E+00 0.  1.
          1    1    1    2  502    0 -0.10085837264E+01  0.21077200978E+02  0.38824766857E+02  0.44188552405E+02  0.00000000000E+00 0. -1.
</event>
<event>
 4    1  0.3555026E+003  0.3703173E+02  0.7546771E-02  0.1366816E+00
          2   -1    0    0  502    0  0.00000000000E+00  0.00000000000E+00  0.58155926406E+01  0.58155926406E+01  0.00000000000E+00 0. -1.
          1   -1    0    0  501    0 -0.00000000000E+00 -0.00000000000E+00 -0.25442670049E+03  0.25442670049E+03  0.00000000000E+00 0. -1.
          2    1    1    2  501    0  0.63946175981E+01 -0.36475447149E+02 -0.89103413088E+02  0.96492318880E+02  0.00000000000E+00 0. -1.
          1    1    1    2  502    0 -0.63946175981E+01  0.36475447149E+02 -0.15950769476E+03  0.16374997425E+03  0.00000000000E+00 0. -1.
</event>
<event>
 4    1  0.3555026E+003  0.2521260E+02  0.7546771E-02  0.1466439E+00
          2   -1    0    0  502    0  0.00000000000E+00  0.00000000000E+00  0.17413083689E+03  0.17413083689E+03  0.00000000000E+00 0.  1.
          1   -1    0    0  501    0 -0.00000000000E+00 -0.00000000000E+00 -0.16296744882E+03  0.16296744882E+03  0.00000000000E+00 0. -1.
          2    1    1    2  501    0 -0.25129050684E+02  0.20508532181E+01  0.17223234802E+03  0.17406796630E+03  0.00000000000E+00 0.  1.
          1    1    1    2  502    0  0.25129050684E+02 -0.20508532181E+01 -0.16106895995E+03  0.16303031940E+03  0.00000000000E+00 0. -1.
</event>
<event>
 4    1  0.3555026E+003  0.2639419E+02  0.7546771E-02  0.1453790E+00
          2   -1    0    0  502    0  0.00000000000E+00  0.00000000000E+00  0.23135531338E+03  0.23135531338E+03  0.00000000000E+00 0. -1.
          1   -1    0    0  501    0 -0.00000000000E+00 -0.00000000000E+00 -0.35382820685E+01  0.35382820685E+01  0.00000000000E+00 0.  1.
          2    1    1    2  501    0 -0.24208634086E+02 -0.10516429360E+02  0.15923906313E+03  0.16141168631E+03  0.00000000000E+00 0. -1.
          1    1    1    2  502    0  0.24208634086E+02  0.10516429360E+02  0.68577968177E+02  0.73481909135E+02  0.00000000000E+00 0.  1.
</event>
<event>
 4    1  0.3555026E+003  0.2196610E+02  0.7546771E-02  0.1505906E+00
          2   -1    0    0  502    0  0.00000000000E+00  0.00000000000E+00  0.29371390006E+01  0.29371390006E+01  0.00000000000E+00 0. -1.
          1   -1    0    0  501    0 -0.00000000000E+00 -0.00000000000E+00 -0.30157017601E+03  0.30157017601E+03  0.00000000000E+00 0.  1.
          2    1    1    2  501    0  0.18408002897E+02 -0.11985615803E+02 -0.46587005437E+02  0.51505908713E+02  0.00000000000E+00 0. -1.
          1    1    1    2  502    0 -0.18408002897E+02  0.11985615803E+02 -0.25204603157E+03  0.25300140629E+03  0.00000000000E+00 0.  1.
</event>
<event>
 4    1  0.3555026E+003  0.3201566E+02  0.7546771E-02  0.1402853E+00
          2   -1    0    0  502    0  0.00000000000E+00  0.00000000000E+00  0.55638549886E+02  0.55638549886E+02  0.00000000000E+00 0.  1.
          1   -1    0    0  501    0 -0.00000000000E+00 -0.00000000000E+00 -0.16389011986E+03  0.16389011986E+03  0.00000000000E+00 0.  1.
          2    1    1    2  501    0 -0.15328061022E+02 -0.28107885081E+02  0.49285513319E+02  0.58771289602E+02  0.00000000000E+00 0.  1.
          1    1    1    2  502    0  0.15328061022E+02  0.28107885081E+02 -0.15753708329E+03  0.16075738014E+03  0.00000000000E+00 0.  1.
</event>
<event>
 4    1  0.3555026E+003  0.2658396E+02  0.7546771E-02  0.1451833E+00
          2   -1    0    0  502    0  0.00000000000E+00  0.00000000000E+00  0.55484668212E+02  0.55484668212E+02  0.00000000000E+00 0. -1.
          1   -1    0    0  501    0 -0.00000000000E+00 -0.00000000000E+00 -0.13019344004E+02  0.13019344004E+02  0.00000000000E+00 0. -1.
          2    1    1    2  501    0  0.25744337342E+02  0.66284159061E+01  0.26276955965E+02  0.37378940827E+02  0.00000000000E+00 0. -1.
          1    1    1    2  502    0 -0.25744337342E+02 -0.66284159061E+01  0.16188368243E+02  0.31125071389E+02  0.00000000000E+00 0. -1.
</event>
<event>
 4    1  0.3555026E+003  0.3267632E+02  0.7546771E-02  0.1397679E+00
          2   -1    0    0  502    0  0.00000000000E+00  0.00000000000E+00  0.53204716243E+02  0.53204716243E+02  0.00000000000E+00 0.  1.
          1   -1    0    0  501    0 -0.00000000000E+00 -0.00000000000E+00 -0.55306926206E+02  0.55306926206E+02  0.00000000000E+00 0. -1.
          2    1    1    2  501    0 -0.27370086521E+02  0.17849943085E+02  0.42256528746E+02  0.53416816884E+02  0.00000000000E+00 0.  1.
          1    1    1    2  502    0  0.27370086521E+02 -0.17849943085E+02 -0.44358738709E+02  0.55094825566E+02  0.00000000000E+00 0. -1.
</event>
<event>
 4    1  0.3555026E+003  0.2515877E+02  0.7546771E-02  0.1467035E+00
          2   -1    0    0  502    0  0.00000000000E+00  0.00000000000E+00  0.18796099637E+03  0.18796099637E+03  0.00000000000E+00 0.  1.
          1   -1    0    0  501    0 -0.00000000000E+00 -0.00000000000E+00 -0.38080124181E+02  0.38080124181E+02  0.00000000000E+00 0. -1.
          2    1    1    2  501    0  0.15317454999E+02 -0.19958437706E+02  0.18284798666E+03  0.18457071786E+03  0.00000000000E+00 0.  1.
          1    1    1    2  502    0 -0.15317454999E+02  0.19958437706E+02 -0.32967114472E+02  0.41470402697E+02  0.00000000000E+00 0. -1.
</event>
<event>
 4    1  0.3555026E+003  0.2749984E+02  0.7546771E-02  0.1442651E+00
          2   -1    0    0  502    0  0.00000000000E+00  0.00000000000E+00  0.43863120505E+03  0.43863120505E+03  0.00000000000E+00 0. -1.
          1   -1    0    0  501    0 -0.00000000000E+00 -0.00000000000E+00 -0.12399170442E+03  0.12399170442E+03  0.00000000000E+00 0.  1.
          2    1    1    2  501    0  0.20650198611E+02 -0.18160679771E+02  0.43666855387E+03  0.43753361805E+03  0.00000000000E+00 0. -1.
          1    1    1    2  502    0 -0.20650198611E+02  0.18160679771E+02 -0.12202905324E+03  0.12508929141E+03  0.00000000000E+00 0.  1.
</event>
<event>
 4    1  0.3555026E+003  0.3084787E+02  0.7546771E-02  0.1412369E+00
          2   -1    0    0  502    0  0.00000000000E+00  0.00000000000E+00  0.16114358554E+03  0.16114358554E+03  0.00000000000E+00 0. -1.
          1   -1    0    0  501    0 -0.00000000000E+00 -0.00000000000E+00 -0.52583282838E+02  0.52583282838E+02  0.00000000000E+00 0.  1.
          2    1    1    2  501    0  0.17650817334E+02  0.25299008826E+02  0.15496441720E+03  0.15800494232E+03  0.00000000000E+00 0. -1.
          1    1    1    2  502    0 -0.17650817334E+02 -0.25299008826E+02 -0.46404114502E+02  0.55721926051E+02  0.00000000000E+00 0.  1.
</event>
<event>
 4    1  0.3555026E+003  0.3393500E+02  0.7546771E-02  0.1388209E+00
          2   -1    0    0  502    0  0.00000000000E+00  0.00000000000E+00  0.21741756096E+02  0.21741756096E+02  0.00000000000E+00 0. -1.
          1   -1    0    0  501    0 -0.00000000000E+00 -0.00000000000E+00 -0.84448186842E+03  0.84448186842E+03  0.00000000000E+00 0. -1.
          2    1    1    2  501    0  0.31078477554E+02  0.13627642111E+02  0.79392909809E+01  0.34851352023E+02  0.00000000000E+00 0. -1.
          1    1    1    2  502    0 -0.31078477554E+02 -0.13627642111E+02 -0.83067940331E+03  0.83137227250E+03  0.00000000000E+00 0. -1.
</event>
<event>
 4    1  0.3555026E+003  0.2208745E+02  0.7546771E-02  0.1504286E+00
          2   -1    0    0  502    0  0.00000000000E+00  0.00000000000E+00  0.15181847870E+02  0.15181847870E+02  0.00000000000E+00 0.  1.
          1   -1    0    0  501    0 -0.00000000000E+00 -0.00000000000E+00 -0.32313662162E+02  0.32313662162E+02  0.00000000000E+00 0. -1.
          2    1    1    2  501    0 -0.10623252630E+02  0.19364957362E+02 -0.10336149411E+02  0.24386288253E+02  0.00000000000E+00 0.  1.
          1    1    1    2  502    0  0.10623252630E+02 -0.19364957362E+02 -0.67956648807E+01  0.23109221779E+02  0.00000000000E+00 0. -1.
</event>
<event>
 4    1  0.3555026E+003  0.2196421E+02  0.7546771E-02  0.1505931E+00
          2   -1    0    0  502    0  0.00000000000E+00  0.00000000000E+00  0.16300782941E+01  0.16300782941E+01  0.00000000000E+00 0.  1.
          1   -1    0    0  501    0 -0.00000000000E+00 -0.00000000000E+00 -0.95460516229E+03  0.95460516229E+03  0.00000000000E+00 0.  1.
          2    1    1    2  501    0  0.11766569593E+02  0.18546544822E+02 -0.79340861977E+02  0.82324958938E+02  0.00000000000E+00 0.  1.
          1    1    1    2  502    0 -0.11766569593E+02 -0.18546544822E+02 -0.87363422202E+03  0.87391028164E+03  0.00000000000E+00 0.  1.
</event>
<event>
 4    1  0.3555026E+003  0.2350623E+02  0.7546771E-02  0.1486237E+00
          2   -1    0    0  502    0  0.00000000000E+00  0.00000000000E+00  0.15276571392E+01  0.15276571392E+01  0.00000000000E+00 0.  1.
          1   -1    0    0  501    0 -0.00000000000E+00 -0.00000000000E+00 -0.61251608533E+03  0.61251608533E+03  0.00000000000E+00 0. -1.
          2    1    1    2  501    0  0.23488668777E+02 -0.90841881453E+00 -0.10902505821E+03  0.11153029231E+03  0.00000000000E+00 0.  1.
          1    1    1    2  502    0 -0.23488668777E+02  0.90841881453E+00 -0.50196336998E+03  0.50251345016E+03  0.00000000000E+00 0. -1.
</event>
<event>
 4    1  0.3555026E+003  0.2198812E+02  0.7546771E-02  0.1505611E+00
          2   -1    0    0  502    0  0.00000000000E+00  0.00000000000E+00  0.53940513048E+01  0.53940513048E+01  0.00000000000E+00 0. -1.
          1   -1    0    0  501    0 -0.00000000000E+00 -0.00000000000E+00 -0.55320193552E+03  0.55320193552E+03  0.00000000000E+00 0.  1.
          2    1    1    2  501    0 -0.20480288010E+02  0.80021912915E+01 -0.18231567623E+02  0.28563391263E+02  0.00000000000E+00 0. -1.
          1    1    1    2  502    0  0.20480288010E+02 -0.80021912915E+01 -0.52957631659E+03  0.53003259556E+03  0.00000000000E+00 0.  1.
</event>
<event>
 4    1  0.3555026E+003  0.3015152E+02  0.7546771E-02  0.1418284E+00
          2   -1    0    0  502    0  0.00000000000E+00  0.00000000000E+00  0.51727612252E+03  0.51727612252E+03  0.00000000000E+00 0. -1.
          1   -1    0    0  501    0 -0.00000000000E+00 -0.00000000000E+00 -0.34980534038E+01  0.34980534038E+01  0.00000000000E+00 0. -1.
          2    1    1    2  501    0 -0.23336756115E+02  0.19092145318E+02  0.44056382901E+03  0.44159438587E+03  0.00000000000E+00 0. -1.
          1    1    1    2  502    0  0.23336756115E+02 -0.19092145318E+02  0.73214240107E+02  0.79179790056E+02  0.00000000000E+00 0. -1.
</event>
<event>
 4    1  0.3555026E+003  0.2426337E+02  0.7546771E-02  0.1477215E+00
          2   -1    0    0  502    0  0.00000000000E+00  0.00000000000E+00  0.76130090782E+03  0.76130090782E+03  0.00000000000E+00 0. -1.
          1   -1    0    0  501    0 -0.00000000000E+00 -0.00000000000E+00 -0.83871808166E+02  0.83871808166E+02  0.00000000000E+00 0.  1.
          2    1    1    2  501    0 -0.22092844598E+02 -0.10030816671E+02  0.75934827831E+03  0.75973582175E+03  0.00000000000E+00 0. -1.
          1    1    1    2  502    0  0.22092844598E+02  0.10030816671E+02 -0.81919178659E+02  0.85436894242E+02  0.00000000000E+00 0.  1.
</event>
<event>
 4    1  0.3555026E+003  0.3029027E+02  0.7546771E-02  0.1417090E+00
          2   -1    0    0  502    0  0.00000000000E+00  0.00000000000E+00  0.20737315891E+02  0.20737315891E+02  0.00000000000E+00 0. -1.
          1   -1    0    0  501    0 -0.00000000000E+00 -0.00000000000E+00 -0.23286457457E+03  0.23286457457E+03  0.00000000000E+00 0. -1.
          2    1    1    2  501    0 -0.69106867265E+01 -0.29491399956E+02  0.80573252877E+01  0.31343591900E+02  0.00000000000E+00 0. -1.
          1    1    1    2  502    0  0.69106867265E+01  0.29491399956E+02 -0.22018458397E+03  0.22225829856E+03  0.00000000000E+00 0. -1.
</event>
<event>
 4    1  0.3555026E+003  0.2872313E+02  0.7546771E-02  0.1431027E+00
          2   -1    0    0  502    0  0.00000000000E+00  0.00000000000E+00  0.78514313263E+03  0.78514313263E+03  0.00000000000E+00 0. -1.
          1   -1    0    0  501    0 -0.00000000000E+00 -0.00000000000E+00 -0.19653509502E+02  0.19653509502E+02  0.00000000000E+00 0.  1.
          2    1    1    2  501    0  0.18572498213E+02 -0.21910745863E+02  0.77423812895E+03  0.77477073951E+03  0.00000000000E+00 0. -1.
          1    1    1    2  502    0 -0.18572498213E+02  0.21910745863E+02 -0.87485058259E+01  0.30025902623E+02  0.00000000000E+00 0.  1.
</event>
<event>
 4    1  0.3555026E+003  0.2911488E+02  0.7546771E-02  0.1427447E+00
          2   -1    0    0  502    0  0.00000000000E+00  0.00000000000E+00  0.13834561141E+04  0.13834561141E+04  0.00000000000E+00 0.  1.
          1   -1    0    0  501    0 -0.00000000000E+00 -0.00000000000E+00 -0.61540648407E+00  0.61540648407E+00  0.00000000000E+00 0.  1.
          2    1    1    2  501    0  0.15964369787E+01 -0.29071067289E+02  0.64572350353E+03  0.64637954685E+03  0.00000000000E+00 0.  1.
          1    1    1    2  502    0 -0.15964369787E+01  0.29071067289E+02  0.73711720413E+03  0.73769197379E+03  0.00000000000E+00 0.  1.
</event>
<event>
 4    1  0.3555026E+003  0.3002577E+02  0.7546771E-02  0.1419373E+00
          2   -1    0    0  502    0  0.00000000000E+00  0.00000000000E+00  0.50215716846E+01  0.50215716846E+01  0.00000000000E+00 0.  1.
          1   -1    0    0  501    0 -0.00000000000E+00 -0.00000000000E+00 -0.45078718491E+03  0.45078718491E+03  0.00000000000E+00 0.  1.
          2    1    1    2  501    0 -0.84833478228E+01  0.28802424990E+02 -0.46094445682E+02  0.55011315184E+02  0.00000000000E+00 0.  1.
          1    1    1    2  502    0  0.84833478228E+01 -0.28802424990E+02 -0.39967116754E+03  0.40079744141E+03  0.00000000000E+00 0.  1.
</event>
<event>
 4    1  0.3555026E+003  0.5009005E+02  0.7546771E-02  0.1297782E+00
          2   -1    0    0  502    0  0.00000000000E+00  0.00000000000E+00  0.69375802719E+03  0.69375802719E+03  0.00000000000E+00 0. -1.
          1   -1    0    0  501    0 -0.00000000000E+00 -0.00000000000E+00 -0.56533653059E+01  0.56533653059E+01  0.00000000000E+00 0. -1.
          2    1    1    2  501    0  0.12041008874E+02  0.48621262350E+02  0.55395822310E+03  0.55621823594E+03  0.00000000000E+00 0. -1.
          1    1    1    2  502    0 -0.12041008874E+02 -0.48621262350E+02  0.13414643878E+03  0.14319315656E+03  0.00000000000E+00 0. -1.
</event>
<event>
 4    1  0.3555026E+003  0.2230183E+02  0.7546771E-02  0.1501456E+00
          2   -1    0    0  502    0  0.00000000000E+00  0.00000000000E+00  0.26357599619E+01  0.26357599619E+01  0.00000000000E+00 0. -1.
          1   -1    0    0  501    0 -0.00000000000E+00 -0.00000000000E+00 -0.37877218230E+03  0.37877218230E+03  0.00000000000E+00 0.  1.
          2    1    1    2  501    0  0.16236745421E+02  0.15288554738E+02 -0.52976629213E+02  0.57479518531E+02  0.00000000000E+00 0. -1.
          1    1    1    2  502    0 -0.16236745421E+02 -0.15288554738E+02 -0.32315979313E+03  0.32392842374E+03  0.00000000000E+00 0.  1.
</event>
<event>
 4    1  0.3555026E+003  0.2386252E+02  0.7546771E-02  0.1481942E+00
          2   -1    0    0  502    0  0.00000000000E+00  0.00000000000E+00  0.63406791418E+03  0.63406791418E+03  0.00000000000E+00 0. -1.
          1   -1    0    0  501    0 -0.00000000000E+00 -0.00000000000E+00 -0.52467709461E+02  0.52467709461E+02  0.00000000000E+00 0.  1.
          2    1    1    2  501    0 -0.15264167138E+02 -0.18341891035E+02  0.63111753293E+03  0.63156849203E+03  0.00000000000E+00 0. -1.
          1    1    1    2  502    0  0.15264167138E+02  0.18341891035E+02 -0.49517328202E+02  0.54967131610E+02  0.00000000000E+00 0.  1.
</event>
<event>
 4    1  0.3555026E+003  0.2573750E+02  0.7546771E-02  0.1460720E+00
          2   -1    0    0  502    0  0.00000000000E+00  0.00000000000E+00  0.96253208068E+02  0.96253208068E+02  0.00000000000E+00 0.  1.
          1   -1    0    0  501    0 -0.00000000000E+00 -0.00000000000E+00 -0.77865268675E+02  0.77865268675E+02  0.00000000000E+00 0.  1.
          2    1    1    2  501    0 -0.23403502460E+02  0.10709576967E+02  0.92316896736E+02  0.95837510346E+02  0.00000000000E+00 0.  1.
          1    1    1    2  502    0  0.23403502460E+02 -0.10709576967E+02 -0.73928957343E+02  0.78280966397E+02  0.00000000000E+00 0.  1.
</event>
<event>
 4    1  0.3555026E+003  0.2613036E+02  0.7546771E-02  0.1456545E+00
          2   -1    0    0  502    0  0.00000000000E+00  0.00000000000E+00  0.66685662174E+03  0.66685662174E+03  0.00000000000E+00 0.  1.
          1   -1    0    0  501    0 -0.00000000000E+00 -0.00000000000E+00 -0.16440116481E+01  0.16440116481E+01  0.00000000000E+00 0. -1.
          2    1    1    2  501    0  0.25239033413E+02  0.67666071231E+01  0.53788962007E+03  0.53852394483E+03  0.00000000000E+00 0.  1.
          1    1    1    2  502    0 -0.25239033413E+02 -0.67666071231E+01  0.12732299002E+03  0.12997668855E+03  0.00000000000E+00 0. -1.
</event>
<event>
 4    1  0.3555026E+003  0.2580821E+02  0.7546771E-02  0.1459962E+00
          2   -1    0    0  502    0  0.00000000000E+00  0.00000000000E+00  0.35154693417E+03  0.35154693417E+03  0.00000000000E+00 0. -1.
          1   -1    0    0  501    0 -0.00000000000E+00 -0.00000000000E+00 -0.26482323027E+01  0.26482323027E+01  0.00000000000E+00 0. -1.
          2    1    1    2  501    0 -0.38303077258E+01  0.25522388164E+02  0.26891974226E+03  0.27015530965E+03  0.00000000000E+00 0. -1.
          1    1    1    2  502    0  0.38303077258E+01 -0.25522388164E+02  0.79978959600E+02  0.84039856815E+02  0.00000000000E+00 0. -1.
</event>
<event>
 4    1  0.3555026E+003  0.4602914E+02  0.7546771E-02  0.1316372E+00
          2   -1    0    0  502    0  0.00000000000E+00  0.00000000000E+00  0.12723106566E+04  0.12723106566E+04  0.00000000000E+00 0. -1.
          1   -1    0    0  501    0 -0.00000000000E+00 -0.00000000000E+00 -0.15830164901E+02  0.15830164901E+02  0.00000000000E+00 0. -1.
          2    1    1    2  501    0  0.42182284506E+02  0.18421083516E+02  0.12374937297E+04  0.12383494711E+04  0.00000000000E+00 0. -1.
          1    1    1    2  502    0 -0.42182284506E+02 -0.18421083516E+02  0.18986761952E+02  0.49791350388E+02  0.00000000000E+00 0. -1.
</event>
<event>
 4    1  0.3555026E+003  0.4795821E+02  0.7546771E-02  0.1307276E+00
          2   -1    0    0  502    0  0.00000000000E+00  0.00000000000E+00  0.38459161172E+02  0.38459161172E+02  0.00000000000E+00 0.  1.
          1   -1    0    0  501    0 -0.00000000000E+00 -0.00000000000E+00 -0.25901926902E+03  0.25901926902E+03  0.00000000000E+00 0. -1.
          2    1    1    2  501    0 -0.22671657682E+01  0.47904590031E+02  0.20163126809E+02  0.52024431466E+02  0.00000000000E+00 0.  1.
          1    1    1    2  502    0  0.22671657682E+01 -0.47904590031E+02 -0.24072323466E+03  0.24545399873E+03  0.00000000000E+00 0. -1.
</event>
<event>
 4    1  0.3555026E+003  0.2133570E+02  0.7546771E-02  0.1514525E+00
          2   -1    0    0  502    0  0.00000000000E+00  0.00000000000E+00  0.12253138133E+01  0.12253138133E+01  0.00000000000E+00 0. -1.
          1   -1    0    0  501    0 -0.00000000000E+00 -0.00000000000E+00 -0.40604228687E+03  0.40604228687E+03  0.00000000000E+00 0.  1.
          2    1    1    2  501    0  0.14544547982E+02 -0.15609880618E+02 -0.14302059982E+03  0.14460326491E+03  0.00000000000E+00 0. -1.
          1    1    1    2  502    0 -0.14544547982E+02  0.15609880618E+02 -0.26179637324E+03  0.26266433578E+03  0.00000000000E+00 0.  1.
</event>
<event>
 4    1  0.3555026E+003  0.2077840E+02  0.7546771E-02  0.1522452E+00
          2   -1    0    0  502    0  0.00000000000E+00  0.00000000000E+00  0.31326847636E+03  0.31326847636E+03  0.00000000000E+00 0. -1.
          1   -1    0    0  501    0 -0.00000000000E+00 -0.00000000000E+00 -0.27774253398E+02  0.27774253398E+02  0.00000000000E+00 0. -1.
          2    1    1    2  501    0  0.76576667730E+01  0.19315844402E+02  0.30898393489E+03  0.30968179431E+03  0.00000000000E+00 0. -1.
          1    1    1    2  502    0 -0.76576667730E+01 -0.19315844402E+02 -0.23489711932E+02  0.31360935446E+02  0.00000000000E+00 0. -1.
</event>
<event>
 4    1  0.3555026E+003  0.4759533E+02  0.7546771E-02  0.1308949E+00
          2   -1    0    0  502    0  0.00000000000E+00  0.00000000000E+00  0.52407675407E+01  0.52407675407E+01  0.00000000000E+00 0. -1.
          1   -1    0    0  501    0 -0.00000000000E+00 -0.00000000000E+00 -0.45678202592E+03  0.45678202592E+03  0.00000000000E+00 0. -1.
          2    1    1    2  501    0  0.33940783294E+02 -0.33366693580E+02 -0.27930841458E+03  0.28333461396E+03  0.00000000000E+00 0. -1.
          1    1    1    2  502    0 -0.33940783294E+02  0.33366693580E+02 -0.17223284380E+03  0.17868817950E+03  0.00000000000E+00 0. -1.
</event>
<event>
 4    1  0.3555026E+003  0.3187612E+02  0.7546771E-02  0.1403964E+00
          2   -1    0    0  502    0  0.00000000000E+00  0.00000000000E+00  0.14850896765E+01  0.14850896765E+01  0.00000000000E+00 0.  1.
          1   -1    0    0  501    0 -0.00000000000E+00 -0.00000000000E+00 -0.87617615558E+03  0.87617615558E+03  0.00000000000E+00 0. -1.
          2    1    1    2  501    0  0.11490503689E+01  0.31855405838E+02 -0.23192996475E+03  0.23411022137E+03  0.00000000000E+00 0.  1.
          1    1    1    2  502    0 -0.11490503689E+01 -0.31855405838E+02 -0.64276110115E+03  0.64355102389E+03  0.00000000000E+00 0. -1.
</event>
<event>
 4    1  0.3555026E+003  0.2527383E+02  0.7546771E-02  0.1465763E+00
          2   -1    0    0  502    0  0.00000000000E+00  0.00000000000E+00  0.51309732017E+03  0.51309732017E+03  0.00000000000E+00 0.  1.
          1   -1    0    0  501    0 -0.00000000000E+00 -0.00000000000E+00 -0.54835370883E+02  0.54835370883E+02  0.00000000000E+00 0. -1.
          2    1    1    2  501    0  0.17236700017E+02  0.18484123447E+02  0.50985538169E+03  0.51048141679E+03  0.00000000000E+00 0.  1.
          1    1    1    2  502    0 -0.17236700017E+02 -0.18484123447E+02 -0.51593432406E+02  0.57451274263E+02  0.00000000000E+00 0. -1.
</event>
<event>
 4    1  0.3555026E+003  0.4069503E+02  0.7546771E-02  0.1344460E+00
          2   -1    0    0  502    0  0.00000000000E+00  0.00000000000E+00  0.72317429696E+02  0.72317429696E+02  0.00000000000E+00 0. -1.
          1   -1    0    0  501    0 -0.00000000000E+00 -0.00000000000E+00 -0.20638202494E+03  0.20638202494E+03  0.00000000000E+00 0. -1.
          2    1    1    2  501    0 -0.35379374288E+02 -0.20109332217E+02  0.64359025258E+02  0.76145712285E+02  0.00000000000E+00 0. -1.
          1    1    1    2  502    0  0.35379374288E+02  0.20109332217E+02 -0.19842362050E+03  0.20255374235E+03  0.00000000000E+00 0. -1.
</event>
<event>
 4    1  0.3555026E+003  0.2174238E+02  0.7546771E-02  0.1508924E+00
          2   -1    0    0  502    0  0.00000000000E+00  0.00000000000E+00  0.29084334567E+03  0.29084334567E+03  0.00000000000E+00 0. -1.
          1   -1    0    0  501    0 -0.00000000000E+00 -0.00000000000E+00 -0.20611228869E+01  0.20611228869E+01  0.00000000000E+00 0.  1.
          2    1    1    2  501    0  0.21618558405E+02  0.23171576166E+01  0.21172886854E+03  0.21284230092E+03  0.00000000000E+00 0. -1.
          1    1    1    2  502    0 -0.21618558405E+02 -0.23171576166E+01  0.77053354244E+02  0.80062167640E+02  0.00000000000E+00 0.  1.
</event>
<event>
 4    1  0.3555026E+003  0.2215118E+02  0.7546771E-02  0.1503441E+00
          2   -1    0    0  502    0  0.00000000000E+00  0.00000000000E+00  0.19019380283E+03  0.19019380283E+03  0.00000000000E+00 0.  1.
          1   -1    0    0  501    0 -0.00000000000E+00 -0.00000000000E+00 -0.27676998924E+03  0.27676998924E+03  0.00000000000E+00 0. -1.
          2    1    1    2  501    0  0.12084829478E+02  0.18564259348E+02  0.18910307287E+03  0.19039602673E+03  0.00000000000E+00 0.  1.
          1    1    1    2  502    0 -0.12084829478E+02 -0.18564259348E+02 -0.27567925927E+03  0.27656776533E+03  0.00000000000E+00 0. -1.
</event>
<event>
 4    1  0.3555026E+003  0.3763613E+02  0.7546771E-02  0.1362924E+00
          2   -1    0    0  502    0  0.00000000000E+00  0.00000000000E+00  0.62307718894E+03  0.62307718894E+03  0.00000000000E+00 0. -1.
          1   -1    0    0  501    0 -0.00000000000E+00 -0.00000000000E+00 -0.94807481606E+01  0.94807481606E+01  0.00000000000E+00 0.  1.
          2    1    1    2  501    0 -0.12899437149E+02  0.35356506651E+02  0.58256249298E+03  0.58377695764E+03  0.00000000000E+00 0. -1.
          1    1    1    2  502    0  0.12899437149E+02 -0.35356506651E+02  0.31033947798E+02  0.48780979462E+02  0.00000000000E+00 0.  1.
</event>
<event>
 4    1  0.3555026E+003  0.2223452E+02  0.7546771E-02  0.1502341E+00
          2   -1    0    0  502    0  0.00000000000E+00  0.00000000000E+00  0.28324790717E+02  0.28324790717E+02  0.00000000000E+00 0. -1.
          1   -1    0    0  501    0 -0.00000000000E+00 -0.00000000000E+00 -0.66940993059E+02  0.66940993059E+02  0.00000000000E+00 0. -1.
          2    1    1    2  501    0  0.22215010474E+02  0.93111818528E+00  0.21646955022E+02  0.31031666619E+02  0.00000000000E+00 0. -1.
          1    1    1    2  502    0 -0.22215010474E+02 -0.93111818528E+00 -0.60263157364E+02  0.64234117157E+02  0.00000000000E+00 0. -1.
</event>
<event>
 4    1  0.3555026E+003  0.2420761E+02  0.7546771E-02  0.1477866E+00
          2   -1    0    0  502    0  0.00000000000E+00  0.00000000000E+00  0.81530972871E+03  0.81530972871E+03  0.00000000000E+00 0. -1.
          1   -1    0    0  501    0 -0.00000000000E+00 -0.00000000000E+00 -0.15056086337E+01  0.15056086337E+01  0.00000000000E+00 0. -1.
          2    1    1    2  501    0 -0.88966682687E+01 -0.22513497053E+02  0.70214852868E+03  0.70256570125E+03  0.00000000000E+00 0. -1.
          1    1    1    2  502    0  0.88966682687E+01  0.22513497053E+02  0.11165559140E+03  0.11424963609E+03  0.00000000000E+00 0. -1.
</event>
<event>
 4    1  0.3555026E+003  0.4906054E+02  0.7546771E-02  0.1302298E+00
          2   -1    0    0  502    0  0.00000000000E+00  0.00000000000E+00  0.12560157882E+03  0.12560157882E+03  0.00000000000E+00 0. -1.
          1   -1    0    0  501    0 -0.00000000000E+00 -0.00000000000E+00 -0.20460406593E+02  0.20460406593E+02  0.00000000000E+00 0. -1.
          2    1    1    2  501    0 -0.49006469820E+02  0.23027450743E+01  0.70958957254E+02  0.86267666791E+02  0.00000000000E+00 0. -1.
          1    1    1    2  502    0  0.49006469820E+02 -0.23027450743E+01  0.34182214975E+02  0.59794318624E+02  0.00000000000E+00 0. -1.
</event>
<event>
 4    1  0.3555026E+003  0.5563123E+02  0.7546771E-02  0.1275445E+00
          2   -1    0    0  502    0  0.00000000000E+00  0.00000000000E+00  0.10067883302E+03  0.10067883302E+03  0.00000000000E+00 0. -1.
          1   -1    0    0  501    0 -0.00000000000E+00 -0.00000000000E+00 -0.24766296470E+03  0.24766296470E+03  0.00000000000E+00 0. -1.
          2    1    1    2  501    0 -0.31505465254E+02  0.45850186467E+02  0.89511894848E+02  0.10539076458E+03  0.00000000000E+00 0. -1.
          1    1    1    2  502    0  0.31505465254E+02 -0.45850186467E+02 -0.23649602653E+03  0.24295103314E+03  0.00000000000E+00 0. -1.
</event>
<event>
 4    1  0.3555026E+003  0.2353668E+02  0.7546771E-02  0.1485867E+00
          2   -1    0    0  502    0  0.00000000000E+00  0.00000000000E+00  0.11070591073E+01  0.11070591073E+01  0.00000000000E+00 0. -1.
          1   -1    0    0  501    0 -0.00000000000E+00 -0.00000000000E+00 -0.56132302361E+03  0.56132302361E+03  0.00000000000E+00 0. -1.
          2    1    1    2  501    0 -0.21459497001E+02  0.96677381504E+01 -0.18746471920E+03  0.18893648700E+03  0.00000000000E+00 0. -1.
          1    1    1    2  502    0  0.21459497001E+02 -0.96677381504E+01 -0.37275124530E+03  0.37349359572E+03  0.00000000000E+00 0. -1.
</event>
<event>
 4    1  0.3555026E+003  0.2166932E+02  0.7546771E-02  0.1509919E+00
          2   -1    0    0  502    0  0.00000000000E+00  0.00000000000E+00  0.37305576517E+03  0.37305576517E+03  0.00000000000E+00 0. -1.
          1   -1    0    0  501    0 -0.00000000000E+00 -0.00000000000E+00 -0.65181255275E+01  0.65181255275E+01  0.00000000000E+00 0.  1.
          2    1    1    2  501    0 -0.26749521130E+01 -0.21503578955E+02  0.35374935361E+03  0.35441242142E+03  0.00000000000E+00 0. -1.
          1    1    1    2  502    0  0.26749521130E+01  0.21503578955E+02  0.12788286036E+02  0.25161469282E+02  0.00000000000E+00 0.  1.
</event>
<event>
 4    1  0.3555026E+003  0.2319090E+02  0.7546771E-02  0.1490115E+00
          2   -1    0    0  502    0  0.00000000000E+00  0.00000000000E+00  0.12139427335E+01  0.12139427335E+01  0.00000000000E+00 0.  1.
          1   -1    0    0  501    0 -0.00000000000E+00 -0.00000000000E+00 -0.88294527319E+03  0.88294527319E+03  0.00000000000E+00 0. -1.
          2    1    1    2  501    0  0.22587286657E+02 -0.52566237278E+01 -0.12882136479E+03  0.13089217562E+03  0.00000000000E+00 0.  1.
          1    1    1    2  502    0 -0.22587286657E+02  0.52566237278E+01 -0.75290996567E+03  0.75326704031E+03  0.00000000000E+00 0. -1.
</event>
<event>
 4    1  0.3555026E+003  0.2431226E+02  0.7546771E-02  0.1476646E+00
          2   -1    0    0  502    0  0.00000000000E+00  0.00000000000E+00  0.15280598248E+01  0.15280598248E+01  0.00000000000E+00 0. -1.
          1   -1    0    0  501    0 -0.00000000000E+00 -0.00000000000E+00 -0.13238194154E+04  0.13238194154E+04  0.00000000000E+00 0.  1.
          2    1    1    2  501    0  0.23668303165E+02  0.55585243361E+01 -0.10363294102E+03  0.10644656985E+03  0.00000000000E+00 0. -1.
          1    1    1    2  502    0 -0.23668303165E+02 -0.55585243361E+01 -0.12186584145E+04  0.12189009053E+04  0.00000000000E+00 0.  1.
</event>
<event>
 4    1  0.3555026E+003  0.2724070E+02  0.7546771E-02  0.1445205E+00
          2   -1    0    0  502    0  0.00000000000E+00  0.00000000000E+00  0.11360561119E+02  0.11360561119E+02  0.00000000000E+00 0. -1.
          1   -1    0    0  501    0 -0.00000000000E+00 -0.00000000000E+00 -0.68142622196E+02  0.68142622196E+02  0.00000000000E+00 0. -1.
          2    1    1    2  501    0  0.25523173837E+02  0.95196252417E+01 -0.20298561429E+02  0.33971859877E+02  0.00000000000E+00 0. -1.
          1    1    1    2  502    0 -0.25523173837E+02 -0.95196252417E+01 -0.36483499648E+02  0.45531323438E+02  0.00000000000E+00 0. -1.
</event>
<event>
 4    1  0.3555026E+003  0.3102606E+02  0.7546771E-02  0.1410884E+00
          2   -1    0    0  502    0  0.00000000000E+00  0.00000000000E+00  0.25113332143E+03  0.25113332143E+03  0.00000000000E+00 0.  1.
          1   -1    0    0  501    0 -0.00000000000E+00 -0.00000000000E+00 -0.18880108495E+02  0.18880108495E+02  0.00000000000E+00 0. -1.
          2    1    1    2  501    0  0.26579068912E+02  0.16005303084E+02  0.23665194336E+03  0.23867710180E+03  0.00000000000E+00 0.  1.
          1    1    1    2  502    0 -0.26579068912E+02 -0.16005303084E+02 -0.43987304177E+01  0.31336328124E+02  0.00000000000E+00 0. -1.
</event>
<event>
 4    1  0.3555026E+003  0.3799559E+02  0.7546771E-02  0.1360649E+00
          2   -1    0    0  502    0  0.00000000000E+00  0.00000000000E+00  0.19475922072E+04  0.19475922072E+04  0.00000000000E+00 0. -1.
          1   -1    0    0  501    0 -0.00000000000E+00 -0.00000000000E+00 -0.58431680912E+02  0.58431680912E+02  0.00000000000E+00 0.  1.
          2    1    1    2  501    0  0.26168069419E+02  0.27548088787E+02  0.19412098649E+04  0.19415816760E+04  0.00000000000E+00 0. -1.
          1    1    1    2  502    0 -0.26168069419E+02 -0.27548088787E+02 -0.52049338599E+02  0.64442212109E+02  0.00000000000E+00 0.  1.
</event>
<event>
 4    1  0.3555026E+003  0.3440979E+02  0.7546771E-02  0.1384761E+00
          2   -1    0    0  502    0  0.00000000000E+00  0.00000000000E+00  0.35761648232E+03  0.35761648232E+03  0.00000000000E+00 0.  1.
          1   -1    0    0  501    0 -0.00000000000E+00 -0.00000000000E+00 -0.38261389550E+01  0.38261389550E+01  0.00000000000E+00 0.  1.
          2    1    1    2  501    0 -0.12556580557E+02 -0.32036951137E+02  0.24321318786E+03  0.24563527577E+03  0.00000000000E+00 0.  1.
          1    1    1    2  502    0  0.12556580557E+02  0.32036951137E+02  0.11057715551E+03  0.11580734551E+03  0.00000000000E+00 0.  1.
</event>
<event>
 4    1  0.3555026E+003  0.2409728E+02  0.7546771E-02  0.1479161E+00
          2   -1    0    0  502    0  0.00000000000E+00  0.00000000000E+00  0.12863627058E+03  0.12863627058E+03  0.00000000000E+00 0. -1.
          1   -1    0    0  501    0 -0.00000000000E+00 -0.00000000000E+00 -0.11719503105E+03  0.11719503105E+03  0.00000000000E+00 0. -1.
          2    1    1    2  501    0  0.11347194544E+02  0.21258406631E+02  0.12624579564E+03  0.12852501544E+03  0.00000000000E+00 0. -1.
          1    1    1    2  502    0 -0.11347194544E+02 -0.21258406631E+02 -0.11480455611E+03  0.11730628619E+03  0.00000000000E+00 0. -1.
</event>
<event>
 4    1  0.3555026E+003  0.2807051E+02  0.7546771E-02  0.1437141E+00
          2   -1    0    0  502    0  0.00000000000E+00  0.00000000000E+00  0.23271553956E+01  0.23271553956E+01  0.00000000000E+00 0. -1.
          1   -1    0    0  501    0 -0.00000000000E+00 -0.00000000000E+00 -0.10510911225E+04  0.10510911225E+04  0.00000000000E+00 0.  1.
          2    1    1    2  501    0  0.93957565173E+01 -0.26451341664E+02 -0.90728177933E+02  0.94971342980E+02  0.00000000000E+00 0. -1.
          1    1    1    2  502    0 -0.93957565173E+01  0.26451341664E+02 -0.95803578914E+03  0.95844693489E+03  0.00000000000E+00 0.  1.
</event>
<event>
 4    1  0.3555026E+003  0.3290276E+02  0.7546771E-02  0.1395939E+00
          2   -1    0    0  502    0  0.00000000000E+00  0.00000000000E+00  0.10149496432E+04  0.10149496432E+04  0.00000000000E+00 0.  1.
          1   -1    0    0  501    0 -0.00000000000E+00 -0.00000000000E+00 -0.26425165602E+03  0.26425165602E+03  0.00000000000E+00 0.  1.
          2    1    1    2  501    0 -0.21827720164E+02 -0.24619960136E+02  0.10136574712E+04  0.10141913334E+04  0.00000000000E+00 0.  1.
          1    1    1    2  502    0  0.21827720164E+02  0.24619960136E+02 -0.26295948397E+03  0.26500996588E+03  0.00000000000E+00 0.  1.
</event>
<event>
 4    1  0.3555026E+003  0.2032048E+02  0.7546771E-02  0.1529192E+00
          2   -1    0    0  502    0  0.00000000000E+00  0.00000000000E+00  0.35606657593E+03  0.35606657593E+03  0.00000000000E+00 0. -1.
          1   -1    0    0  501    0 -0.00000000000E+00 -0.00000000000E+00 -0.47284788430E+03  0.47284788430E+03  0.00000000000E+00 0. -1.
          2    1    1    2  501    0  0.19316654453E+02 -0.63078322241E+01  0.35555802847E+03  0.35613822246E+03  0.00000000000E+00 0. -1.
          1    1    1    2  502    0 -0.19316654453E+02  0.63078322241E+01 -0.47233933684E+03  0.47277623778E+03  0.00000000000E+00 0. -1.
</event>
<event>
 4    1  0.3555026E+003  0.3242103E+02  0.7546771E-02  0.1399661E+00
          2   -1    0    0  502    0  0.00000000000E+00  0.00000000000E+00  0.26677787825E+04  0.26677787825E+04  0.00000000000E+00 0.  1.
          1   -1    0    0  501    0 -0.00000000000E+00 -0.00000000000E+00 -0.47836693291E+00  0.47836693291E+00  0.00000000000E+00 0.  1.
          2    1    1    2  501    0  0.24830433512E+02 -0.20846406915E+02  0.18939050440E+04  0.18941825252E+04  0.00000000000E+00 0.  1.
          1    1    1    2  502    0 -0.24830433512E+02  0.20846406915E+02  0.77339537158E+03  0.77407462424E+03  0.00000000000E+00 0.  1.
</event>
<event>
 4    1  0.3555026E+003  0.2014940E+02  0.7546771E-02  0.1531764E+00
          2   -1    0    0  502    0  0.00000000000E+00  0.00000000000E+00  0.73213188094E+03  0.73213188094E+03  0.00000000000E+00 0.  1.
          1   -1    0    0  501    0 -0.00000000000E+00 -0.00000000000E+00 -0.46050346338E+01  0.46050346338E+01  0.00000000000E+00 0.  1.
          2    1    1    2  501    0  0.17116078373E+02 -0.10631948620E+02  0.70924100046E+03  0.70952716312E+03  0.00000000000E+00 0.  1.
          1    1    1    2  502    0 -0.17116078373E+02  0.10631948620E+02  0.18285845844E+02  0.27209752453E+02  0.00000000000E+00 0.  1.
</event>
<event>
 4    1  0.3555026E+003  0.2777559E+02  0.7546771E-02  0.1439969E+00
          2   -1    0    0  502    0  0.00000000000E+00  0.00000000000E+00  0.99823583314E+03  0.99823583314E+03  0.00000000000E+00 0. -1.
          1   -1    0    0  501    0 -0.00000000000E+00 -0.00000000000E+00 -0.15115947005E+01  0.15115947005E+01  0.00000000000E+00 0.  1.
          2    1    1    2  501    0  0.19484132535E+02  0.19795255445E+02  0.84781666439E+03  0.84827152491E+03  0.00000000000E+00 0. -1.
          1    1    1    2  502    0 -0.19484132535E+02 -0.19795255445E+02  0.14890757405E+03  0.15147590293E+03  0.00000000000E+00 0.  1.
</event>
<event>
 4    1  0.3555026E+003  0.5226349E+02  0.7546771E-02  0.1288646E+00
          2   -1    0    0  502    0  0.00000000000E+00  0.00000000000E+00  0.12513324773E+03  0.12513324773E+03  0.00000000000E+00 0. -1.
          1   -1    0    0  501    0 -0.00000000000E+00 -0.00000000000E+00 -0.18480506025E+03  0.18480506025E+03  0.00000000000E+00 0. -1.
          2    1    1    2  501    0 -0.51829760133E+02 -0.67192281042E+01  0.11569354650E+03  0.12695065483E+03  0.00000000000E+00 0. -1.
          1    1    1    2  502    0  0.51829760133E+02  0.67192281042E+01 -0.17536535901E+03  0.18298765315E+03  0.00000000000E+00 0. -1.
</event>
<event>
 4    1  0.3555026E+003  0.2772607E+02  0.7546771E-02  0.1440448E+00
          2   -1    0    0  502    0  0.00000000000E+00  0.00000000000E+00  0.84879343807E+03  0.84879343807E+03  0.00000000000E+00 0.  1.
          1   -1    0    0  501    0 -0.00000000000E+00 -0.00000000000E+00 -0.88715967375E+02  0.88715967375E+02  0.00000000000E+00 0.  1.
          2    1    1    2  501    0 -0.24046967654E+02 -0.13801390696E+02  0.84639459862E+03  0.84684860017E+03  0.00000000000E+00 0.  1.
          1    1    1    2  502    0  0.24046967654E+02  0.13801390696E+02 -0.86317127929E+02  0.90660805271E+02  0.00000000000E+00 0.  1.
</event>
<event>
 4    1  0.3555026E+003  0.3565809E+02  0.7546771E-02  0.1375995E+00
          2   -1    0    0  502    0  0.00000000000E+00  0.00000000000E+00  0.31786075724E+03  0.31786075724E+03  0.00000000000E+00 0. -1.
          1   -1    0    0  501    0 -0.00000000000E+00 -0.00000000000E+00 -0.10534694058E+02  0.10534694058E+02  0.00000000000E+00 0.  1.
          2    1    1    2  501    0 -0.33706701949E+02 -0.11634336656E+02  0.28298219749E+03  0.28521995660E+03  0.00000000000E+00 0. -1.
          1    1    1    2  502    0  0.33706701949E+02  0.11634336656E+02  0.24343865689E+02  0.43175494697E+02  0.00000000000E+00 0.  1.
</event>
<event>
 4    1  0.3555026E+003  0.2410719E+02  0.7546771E-02  0.1479044E+00
          2   -1    0    0  502    0  0.00000000000E+00  0.00000000000E+00  0.51243114609E+03  0.51243114609E+03  0.00000000000E+00 0. -1.
          1   -1    0    0  501    0 -0.00000000000E+00 -0.00000000000E+00 -0.40493074927E+03  0.40493074927E+03  0.00000000000E+00 0. -1.
          2    1    1    2  501    0 -0.17762924379E+02 -0.16298309995E+02  0.51178836683E+03  0.51235582246E+03  0.00000000000E+00 0. -1.
          1    1    1    2  502    0  0.17762924379E+02  0.16298309995E+02 -0.40428797001E+03  0.40500607290E+03  0.00000000000E+00 0. -1.
</event>
<event>
 4    1  0.3555026E+003  0.2535620E+02  0.7546771E-02  0.1464858E+00
          2   -1    0    0  502    0  0.00000000000E+00  0.00000000000E+00  0.14890746941E+04  0.14890746941E+04  0.00000000000E+00 0.  1.
          1   -1    0    0  501    0 -0.00000000000E+00 -0.00000000000E+00 -0.26880815200E+02  0.26880815200E+02  0.00000000000E+00 0.  1.
          2    1    1    2  501    0  0.24772781336E+02  0.54079856276E+01  0.14829625932E+04  0.14831793518E+04  0.00000000000E+00 0.  1.
          1    1    1    2  502    0 -0.24772781336E+02 -0.54079856276E+01 -0.20768714282E+02  0.32776157441E+02  0.00000000000E+00 0.  1.
</event>
<event>
 4    1  0.3555026E+003  0.2505597E+02  0.7546771E-02  0.1468178E+00
          2   -1    0    0  502    0  0.00000000000E+00  0.00000000000E+00  0.49813782539E+03  0.49813782539E+03  0.00000000000E+00 0.  1.
          1   -1    0    0  501    0 -0.00000000000E+00 -0.00000000000E+00 -0.18780256225E+01  0.18780256225E+01  0.00000000000E+00 0.  1.
          2    1    1    2  501    0 -0.15154592142E+02  0.19953441224E+02  0.39151432260E+03  0.39231526389E+03  0.00000000000E+00 0.  1.
          1    1    1    2  502    0  0.15154592142E+02 -0.19953441224E+02  0.10474547717E+03  0.10770058713E+03  0.00000000000E+00 0.  1.
</event>
<event>
 4    1  0.3555026E+003  0.3332882E+02  0.7546771E-02  0.1392709E+00
          2   -1    0    0  502    0  0.00000000000E+00  0.00000000000E+00  0.36540813650E+02  0.36540813650E+02  0.00000000000E+00 0.  1.
          1   -1    0    0  501    0 -0.00000000000E+00 -0.00000000000E+00 -0.33685257620E+03  0.33685257620E+03  0.00000000000E+00 0.  1.
          2    1    1    2  501    0 -0.28976821025E+02 -0.16466758352E+02  0.27917465846E+02  0.43476375040E+02  0.00000000000E+00 0.  1.
          1    1    1    2  502    0  0.28976821025E+02  0.16466758352E+02 -0.32822922839E+03  0.32991701481E+03  0.00000000000E+00 0.  1.
</event>
<event>
 4    1  0.3555026E+003  0.3507352E+02  0.7546771E-02  0.1380047E+00
          2   -1    0    0  502    0  0.00000000000E+00  0.00000000000E+00  0.17437261003E+04  0.17437261003E+04  0.00000000000E+00 0.  1.
          1   -1    0    0  501    0 -0.00000000000E+00 -0.00000000000E+00 -0.14585255307E+01  0.14585255307E+01  0.00000000000E+00 0. -1.
          2    1    1    2  501    0  0.89287356584E+01 -0.33917980756E+02  0.14981329949E+04  0.14985435003E+04  0.00000000000E+00 0.  1.
          1    1    1    2  502    0 -0.89287356584E+01  0.33917980756E+02  0.24413457989E+03  0.24664112560E+03  0.00000000000E+00 0. -1.
</event>
<event>
 4    1  0.3555026E+003  0.2327765E+02  0.7546771E-02  0.1489041E+00
          2   -1    0    0  502    0  0.00000000000E+00  0.00000000000E+00  0.24138117801E+02  0.24138117801E+02  0.00000000000E+00 0.  1.
          1   -1    0    0  501    0 -0.00000000000E+00 -0.00000000000E+00 -0.23353366338E+02  0.23353366338E+02  0.00000000000E+00 0. -1.
          2    1    1    2  501    0 -0.11765605196E+02  0.20085289688E+02 -0.42835145641E+01  0.23668477444E+02  0.00000000000E+00 0.  1.
          1    1    1    2  502    0  0.11765605196E+02 -0.20085289688E+02  0.50682660268E+01  0.23823006695E+02  0.00000000000E+00 0. -1.
</event>
<event>
 4    1  0.3555026E+003  0.4098787E+02  0.7546771E-02  0.1342792E+00
          2   -1    0    0  502    0  0.00000000000E+00  0.00000000000E+00  0.12491386562E+02  0.12491386562E+02  0.00000000000E+00 0. -1.
          1   -1    0    0  501    0 -0.00000000000E+00 -0.00000000000E+00 -0.72721377335E+03  0.72721377335E+03  0.00000000000E+00 0. -1.
          2    1    1    2  501    0  0.31541143443E+02  0.26175586927E+02 -0.23456403798E+02  0.47225077658E+02  0.00000000000E+00 0. -1.
          1    1    1    2  502    0 -0.31541143443E+02 -0.26175586927E+02 -0.69126598299E+03  0.69248008226E+03  0.00000000000E+00 0. -1.
</event>
<event>
 4    1  0.3555026E+003  0.2348331E+02  0.7546771E-02  0.1486517E+00
          2   -1    0    0  502    0  0.00000000000E+00  0.00000000000E+00  0.50234009024E+03  0.50234009024E+03  0.00000000000E+00 0.  1.
          1   -1    0    0  501    0 -0.00000000000E+00 -0.00000000000E+00 -0.18208604076E+01  0.18208604076E+01  0.00000000000E+00 0.  1.
          2    1    1    2  501    0  0.18339265466E+02 -0.14667563484E+02  0.40911059258E+03  0.40978401999E+03  0.00000000000E+00 0.  1.
          1    1    1    2  502    0 -0.18339265466E+02  0.14667563484E+02  0.91408637258E+02  0.94376930665E+02  0.00000000000E+00 0.  1.
</event>
<event>
 4    1  0.3555026E+003  0.4073784E+02  0.7546771E-02  0.1344215E+00
          2   -1    0    0  502    0  0.00000000000E+00  0.00000000000E+00  0.17804306528E+04  0.17804306528E+04  0.00000000000E+00 0. -1.
          1   -1    0    0  501    0 -0.00000000000E+00 -0.00000000000E+00 -0.26697319256E+01  0.26697319256E+01  0.00000000000E+00 0.  1.
          2    1    1    2  501    0  0.26994322678E+02 -0.30510302155E+02  0.16081448800E+04  0.16086607868E+04  0.00000000000E+00 0. -1.
          1    1    1    2  502    0 -0.26994322678E+02  0.30510302155E+02  0.16961604090E+03  0.17443959793E+03  0.00000000000E+00 0.  1.
</event>
<event>
 4    1  0.3555026E+003  0.2419838E+02  0.7546771E-02  0.1477974E+00
          2   -1    0    0  502    0  0.00000000000E+00  0.00000000000E+00  0.77221328131E+02  0.77221328131E+02  0.00000000000E+00 0.  1.
          1   -1    0    0  501    0 -0.00000000000E+00 -0.00000000000E+00 -0.47352579662E+03  0.47352579662E+03  0.00000000000E+00 0. -1.
          2    1    1    2  501    0 -0.12870648941E+02  0.20491654776E+02  0.75007555234E+02  0.78814306200E+02  0.00000000000E+00 0.  1.
          1    1    1    2  502    0  0.12870648941E+02 -0.20491654776E+02 -0.47131202372E+03  0.47193281855E+03  0.00000000000E+00 0. -1.
</event>
<event>
 4    1  0.3555026E+003  0.2388737E+02  0.7546771E-02  0.1481646E+00
          2   -1    0    0  502    0  0.00000000000E+00  0.00000000000E+00  0.77479593282E+03  0.77479593282E+03  0.00000000000E+00 0.  1.
          1   -1    0    0  501    0 -0.00000000000E+00 -0.00000000000E+00 -0.22212566786E+01  0.22212566786E+01  0.00000000000E+00 0.  1.
          2    1    1    2  501    0 -0.11637566226E+02 -0.20860808217E+02  0.70392701162E+03  0.70433219716E+03  0.00000000000E+00 0.  1.
          1    1    1    2  502    0  0.11637566226E+02  0.20860808217E+02  0.68647664521E+02  0.72684992338E+02  0.00000000000E+00 0.  1.
</event>
<event>
 4    1  0.3555026E+003  0.2534943E+02  0.7546771E-02  0.1464932E+00
          2   -1    0    0  502    0  0.00000000000E+00  0.00000000000E+00  0.11938351420E+04  0.11938351420E+04  0.00000000000E+00 0.  1.
          1   -1    0    0  501    0 -0.00000000000E+00 -0.00000000000E+00 -0.18182013347E+02  0.18182013347E+02  0.00000000000E+00 0.  1.
          2    1    1    2  501    0  0.15364509580E+02 -0.20162477275E+02  0.11847976201E+04  0.11850687720E+04  0.00000000000E+00 0.  1.
          1    1    1    2  502    0 -0.15364509580E+02  0.20162477275E+02 -0.91444914433E+01  0.26948383407E+02  0.00000000000E+00 0.  1.
</event>
<event>
 4    1  0.3555026E+003  0.2121296E+02  0.7546771E-02  0.1516246E+00
          2   -1    0    0  502    0  0.00000000000E+00  0.00000000000E+00  0.89827657345E+00  0.89827657345E+00  0.00000000000E+00 0.  1.
          1   -1    0    0  501    0 -0.00000000000E+00 -0.00000000000E+00 -0.55624980514E+03  0.55624980514E+03  0.00000000000E+00 0.  1.
          2    1    1    2  501    0  0.11789477135E+02 -0.17635130510E+02 -0.18983897133E+03  0.19102048224E+03  0.00000000000E+00 0.  1.
          1    1    1    2  502    0 -0.11789477135E+02  0.17635130510E+02 -0.36551255723E+03  0.36612759947E+03  0.00000000000E+00 0.  1.
</event>
<event>
 4    1  0.3555026E+003  0.2557750E+02  0.7546771E-02  0.1462446E+00
          2   -1    0    0  502    0  0.00000000000E+00  0.00000000000E+00  0.10417014242E+02  0.10417014242E+02  0.00000000000E+00 0. -1.
          1   -1    0    0  501    0 -0.00000000000E+00 -0.00000000000E+00 -0.17098089158E+03  0.17098089158E+03  0.00000000000E+00 0.  1.
          2    1    1    2  501    0 -0.15162063149E+02 -0.20599034241E+02 -0.81379860356E+01  0.26840923742E+02  0.00000000000E+00 0. -1.
          1    1    1    2  502    0  0.15162063149E+02  0.20599034241E+02 -0.15242589130E+03  0.15455698208E+03  0.00000000000E+00 0.  1.
</event>
<event>
 4    1  0.3555026E+003  0.2383557E+02  0.7546771E-02  0.1482264E+00
          2   -1    0    0  502    0  0.00000000000E+00  0.00000000000E+00  0.11890948122E+04  0.11890948122E+04  0.00000000000E+00 0.  1.
          1   -1    0    0  501    0 -0.00000000000E+00 -0.00000000000E+00 -0.86972581499E+00  0.86972581499E+00  0.00000000000E+00 0.  1.
          2    1    1    2  501    0 -0.21677684601E+02 -0.99102097361E+01  0.99352524929E+03  0.99381112654E+03  0.00000000000E+00 0.  1.
          1    1    1    2  502    0  0.21677684601E+02  0.99102097361E+01  0.19469983708E+03  0.19615341146E+03  0.00000000000E+00 0.  1.
</event>
<event>
 4    1  0.3555026E+003  0.2290535E+02  0.7546771E-02  0.1493690E+00
          2   -1    0    0  502    0  0.00000000000E+00  0.00000000000E+00  0.11558609662E+04  0.11558609662E+04  0.00000000000E+00 0.  1.
          1   -1    0    0  501    0 -0.00000000000E+00 -0.00000000000E+00 -0.45398075136E+00  0.45398075136E+00  0.00000000000E+00 0.  1.
          2    1    1    2  501    0  0.19024748435E+02  0.12755938828E+02  0.58500111834E+03  0.58544936885E+03  0.00000000000E+00 0.  1.
          1    1    1    2  502    0 -0.19024748435E+02 -0.12755938828E+02  0.57040586706E+03  0.57086557806E+03  0.00000000000E+00 0.  1.
</event>
<event>
 4    1  0.3555026E+003  0.3233847E+02  0.7546771E-02  0.1400307E+00
          2   -1    0    0  502    0  0.00000000000E+00  0.00000000000E+00  0.28120474922E+03  0.28120474922E+03  0.00000000000E+00 0. -1.
          1   -1    0    0  501    0 -0.00000000000E+00 -0.00000000000E+00 -0.99415369731E+01  0.99415369731E+01  0.00000000000E+00 0. -1.
          2    1    1    2  501    0 -0.29294807168E+02 -0.13696385834E+02  0.25080208783E+03  0.25287835805E+03  0.00000000000E+00 0. -1.
          1    1    1    2  502    0  0.29294807168E+02  0.13696385834E+02  0.20461124423E+02  0.38267928146E+02  0.00000000000E+00 0. -1.
</event>
<event>
 4    1  0.3555026E+003  0.2052695E+02  0.7546771E-02  0.1526127E+00
          2   -1    0    0  502    0  0.00000000000E+00  0.00000000000E+00  0.82215985806E+00  0.82215985806E+00  0.00000000000E+00 0. -1.
          1   -1    0    0  501    0 -0.00000000000E+00 -0.00000000000E+00 -0.84966646754E+03  0.84966646754E+03  0.00000000000E+00 0.  1.
          2    1    1    2  501    0 -0.17774039782E+02 -0.10268365942E+02 -0.15654398374E+03  0.15788405453E+03  0.00000000000E+00 0. -1.
          1    1    1    2  502    0  0.17774039782E+02  0.10268365942E+02 -0.69230032394E+03  0.69260457287E+03  0.00000000000E+00 0.  1.
</event>
<event>
 4    1  0.3555026E+003  0.2464742E+02  0.7546771E-02  0.1472787E+00
          2   -1    0    0  502    0  0.00000000000E+00  0.00000000000E+00  0.99228628122E+00  0.99228628122E+00  0.00000000000E+00 0. -1.
          1   -1    0    0  501    0 -0.00000000000E+00 -0.00000000000E+00 -0.61313130634E+03  0.61313130634E+03  0.00000000000E+00 0. -1.
          2    1    1    2  501    0 -0.22665311141E+02 -0.96839158872E+01 -0.31792688979E+03  0.31888085832E+03  0.00000000000E+00 0. -1.
          1    1    1    2  502    0  0.22665311141E+02  0.96839158872E+01 -0.29421213027E+03  0.29524273430E+03  0.00000000000E+00 0. -1.
</event>
<event>
 4    1  0.3555026E+003  0.2009084E+02  0.7546771E-02  0.1532652E+00
          2   -1    0    0  502    0  0.00000000000E+00  0.00000000000E+00  0.10077803428E+02  0.10077803428E+02  0.00000000000E+00 0.  1.
          1   -1    0    0  501    0 -0.00000000000E+00 -0.00000000000E+00 -0.99323016530E+03  0.99323016530E+03  0.00000000000E+00 0. -1.
          2    1    1    2  501    0 -0.37635194434E+01  0.19735191436E+02 -0.14101563269E+00  0.20091335073E+02  0.00000000000E+00 0.  1.
          1    1    1    2  502    0  0.37635194434E+01 -0.19735191436E+02 -0.98301134624E+03  0.98321663365E+03  0.00000000000E+00 0. -1.
</event>
<event>
 4    1  0.3555026E+003  0.2086558E+02  0.7546771E-02  0.1521193E+00
          2   -1    0    0  502    0  0.00000000000E+00  0.00000000000E+00  0.66125988885E+03  0.66125988885E+03  0.00000000000E+00 0.  1.
          1   -1    0    0  501    0 -0.00000000000E+00 -0.00000000000E+00 -0.69896880033E+00  0.69896880033E+00  0.00000000000E+00 0.  1.
          2    1    1    2  501    0 -0.94571582567E+01 -0.18599312220E+02  0.41002084638E+03  0.41055141788E+03  0.00000000000E+00 0.  1.
          1    1    1    2  502    0  0.94571582567E+01  0.18599312220E+02  0.25054007368E+03  0.25140743978E+03  0.00000000000E+00 0.  1.
</event>
<event>
 4    1  0.3555026E+003  0.2057260E+02  0.7546771E-02  0.1525455E+00
          2   -1    0    0  502    0  0.00000000000E+00  0.00000000000E+00  0.23547848148E+03  0.23547848148E+03  0.00000000000E+00 0.  1.
          1   -1    0    0  501    0 -0.00000000000E+00 -0.00000000000E+00 -0.21114141716E+01  0.21114141716E+01  0.00000000000E+00 0. -1.
          2    1    1    2  501    0 -0.14303558127E+02  0.14786477750E+02  0.16250159884E+03  0.16379866094E+03  0.00000000000E+00 0.  1.
          1    1    1    2  502    0  0.14303558127E+02 -0.14786477750E+02  0.70865468461E+02  0.73791234707E+02  0.00000000000E+00 0. -1.
</event>
<event>
 4    1  0.3555026E+003  0.2689206E+02  0.7546771E-02  0.1448695E+00
          2   -1    0    0  502    0  0.00000000000E+00  0.00000000000E+00  0.41779824596E+03  0.41779824596E+03  0.00000000000E+00 0.  1.
          1   -1    0    0  501    0 -0.00000000000E+00 -0.00000000000E+00 -0.17249645264E+02  0.17249645264E+02  0.00000000000E+00 0. -1.
          2    1    1    2  501    0 -0.14009936295E+02  0.22954405899E+02  0.40659592629E+03  0.40748427005E+03  0.00000000000E+00 0.  1.
          1    1    1    2  502    0  0.14009936295E+02 -0.22954405899E+02 -0.60473255953E+01  0.27563621170E+02  0.00000000000E+00 0. -1.
</event>
<event>
 4    1  0.3555026E+003  0.2446895E+02  0.7546771E-02  0.1474833E+00
          2   -1    0    0  502    0  0.00000000000E+00  0.00000000000E+00  0.14584465353E+02  0.14584465353E+02  0.00000000000E+00 0.  1.
          1   -1    0    0  501    0 -0.00000000000E+00 -0.00000000000E+00 -0.37491694714E+03  0.37491694714E+03  0.00000000000E+00 0. -1.
          2    1    1    2  501    0 -0.11205161718E+02  0.21752554688E+02  0.36130489649E+01  0.24734255748E+02  0.00000000000E+00 0.  1.
          1    1    1    2  502    0  0.11205161718E+02 -0.21752554688E+02 -0.36394553075E+03  0.36476715674E+03  0.00000000000E+00 0. -1.
</event>
<event>
 4    1  0.3555026E+003  0.3300563E+02  0.7546771E-02  0.1395154E+00
          2   -1    0    0  502    0  0.00000000000E+00  0.00000000000E+00  0.26270318266E+01  0.26270318266E+01  0.00000000000E+00 0. -1.
          1   -1    0    0  501    0 -0.00000000000E+00 -0.00000000000E+00 -0.13122437599E+04  0.13122437599E+04  0.00000000000E+00 0. -1.
          2    1    1    2  501    0  0.18394287761E+02 -0.27404781275E+02 -0.11108373734E+03  0.11588342660E+03  0.00000000000E+00 0. -1.
          1    1    1    2  502    0 -0.18394287761E+02  0.27404781275E+02 -0.11985329907E+04  0.11989873651E+04  0.00000000000E+00 0. -1.
</event>
<event>
 4    1  0.3555026E+003  0.3194872E+02  0.7546771E-02  0.1403385E+00
          2   -1    0    0  502    0  0.00000000000E+00  0.00000000000E+00  0.68310523758E+02  0.68310523758E+02  0.00000000000E+00 0.  1.
          1   -1    0    0  501    0 -0.00000000000E+00 -0.00000000000E+00 -0.15747331249E+04  0.15747331249E+04  0.00000000000E+00 0.  1.
          2    1    1    2  501    0  0.23441172711E+02 -0.21707885777E+02  0.64403595352E+02  0.71892586386E+02  0.00000000000E+00 0.  1.
          1    1    1    2  502    0 -0.23441172711E+02  0.21707885777E+02 -0.15708261965E+04  0.15711510623E+04  0.00000000000E+00 0.  1.
</event>
<event>
 4    1  0.3555026E+003  0.2832037E+02  0.7546771E-02  0.1434777E+00
          2   -1    0    0  502    0  0.00000000000E+00  0.00000000000E+00  0.64597059813E+03  0.64597059813E+03  0.00000000000E+00 0.  1.
          1   -1    0    0  501    0 -0.00000000000E+00 -0.00000000000E+00 -0.16111248006E+03  0.16111248006E+03  0.00000000000E+00 0. -1.
          2    1    1    2  501    0  0.69496007449E+01 -0.27454443825E+02  0.64441264871E+03  0.64503465431E+03  0.00000000000E+00 0.  1.
          1    1    1    2  502    0 -0.69496007449E+01  0.27454443825E+02 -0.15955453064E+03  0.16204842389E+03  0.00000000000E+00 0. -1.
</event>
<event>
 4    1  0.3555026E+003  0.2195635E+02  0.7546771E-02  0.1506036E+00
          2   -1    0    0  502    0  0.00000000000E+00  0.00000000000E+00  0.22658221987E+03  0.22658221987E+03  0.00000000000E+00 0.  1.
          1   -1    0    0  501    0 -0.00000000000E+00 -0.00000000000E+00 -0.57683274971E+01  0.57683274971E+01  0.00000000000E+00 0.  1.
          2    1    1    2  501    0 -0.18193887157E+02 -0.12290800477E+02  0.20270265869E+03  0.20388832518E+03  0.00000000000E+00 0.  1.
          1    1    1    2  502    0  0.18193887157E+02  0.12290800477E+02  0.18111233690E+02  0.28462222191E+02  0.00000000000E+00 0.  1.
</event>
<event>
 4    1  0.3555026E+003  0.2592855E+02  0.7546771E-02  0.1458678E+00
          2   -1    0    0  502    0  0.00000000000E+00  0.00000000000E+00  0.74922005662E+02  0.74922005662E+02  0.00000000000E+00 0. -1.
          1   -1    0    0  501    0 -0.00000000000E+00 -0.00000000000E+00 -0.97948785097E+03  0.97948785097E+03  0.00000000000E+00 0. -1.
          2    1    1    2  501    0 -0.19340679605E+02  0.17269275765E+02  0.72501558473E+02  0.76998478907E+02  0.00000000000E+00 0. -1.
          1    1    1    2  502    0  0.19340679605E+02 -0.17269275765E+02 -0.97706740378E+03  0.97741137773E+03  0.00000000000E+00 0. -1.
</event>
<event>
 4    1  0.3555026E+003  0.2529780E+02  0.7546771E-02  0.1465499E+00
          2   -1    0    0  502    0  0.00000000000E+00  0.00000000000E+00  0.12556764558E+02  0.12556764558E+02  0.00000000000E+00 0. -1.
          1   -1    0    0  501    0 -0.00000000000E+00 -0.00000000000E+00 -0.77960413295E+02  0.77960413295E+02  0.00000000000E+00 0. -1.
          2    1    1    2  501    0  0.15404060596E+02 -0.20067220924E+02 -0.60704093767E+01  0.26015924133E+02  0.00000000000E+00 0. -1.
          1    1    1    2  502    0 -0.15404060596E+02  0.20067220924E+02 -0.59333239360E+02  0.64501253720E+02  0.00000000000E+00 0. -1.
</event>
<event>
 4    1  0.3555026E+003  0.2866401E+02  0.7546771E-02  0.1431573E+00
          2   -1    0    0  502    0  0.00000000000E+00  0.00000000000E+00  0.15841557861E+04  0.15841557861E+04  0.00000000000E+00 0. -1.
          1   -1    0    0  501    0 -0.00000000000E+00 -0.00000000000E+00 -0.15853657209E+01  0.15853657209E+01  0.00000000000E+00 0. -1.
          2    1    1    2  501    0  0.23652849260E+02  0.16191615305E+02  0.14416567000E+04  0.14419416307E+04  0.00000000000E+00 0. -1.
          1    1    1    2  502    0 -0.23652849260E+02 -0.16191615305E+02  0.14091372040E+03  0.14379952114E+03  0.00000000000E+00 0. -1.
</event>
<event>
 4    1  0.3555026E+003  0.2635983E+02  0.7546771E-02  0.1454147E+00
          2   -1    0    0  502    0  0.00000000000E+00  0.00000000000E+00  0.13283688528E+03  0.13283688528E+03  0.00000000000E+00 0. -1.
          1   -1    0    0  501    0 -0.00000000000E+00 -0.00000000000E+00 -0.15177827957E+02  0.15177827957E+02  0.00000000000E+00 0.  1.
          2    1    1    2  501    0  0.58648978327E+01  0.25699094022E+02  0.11874199469E+03  0.12163265089E+03  0.00000000000E+00 0. -1.
          1    1    1    2  502    0 -0.58648978327E+01 -0.25699094022E+02 -0.10829373669E+01  0.26382062344E+02  0.00000000000E+00 0.  1.
</event>
<event>
 4    1  0.3555026E+003  0.2504386E+02  0.7546771E-02  0.1468313E+00
          2   -1    0    0  502    0  0.00000000000E+00  0.00000000000E+00  0.12792206751E+02  0.12792206751E+02  0.00000000000E+00 0.  1.
          1   -1    0    0  501    0 -0.00000000000E+00 -0.00000000000E+00 -0.10083458884E+04  0.10083458884E+04  0.00000000000E+00 0. -1.
          2    1    1    2  501    0  0.66955813202E+01 -0.24132224449E+02  0.22466569333E+00  0.25044870548E+02  0.00000000000E+00 0.  1.
          1    1    1    2  502    0 -0.66955813202E+01  0.24132224449E+02 -0.99577834732E+03  0.99609322458E+03  0.00000000000E+00 0. -1.
</event>
<event>
 4    1  0.3555026E+003  0.6444821E+02  0.7546771E-02  0.1245425E+00
          2   -1    0    0  502    0  0.00000000000E+00  0.00000000000E+00  0.38253517271E+03  0.38253517271E+03  0.00000000000E+00 0. -1.
          1   -1    0    0  501    0 -0.00000000000E+00 -0.00000000000E+00 -0.26972814848E+02  0.26972814848E+02  0.00000000000E+00 0.  1.
          2    1    1    2  501    0  0.62716392889E+02  0.14840004409E+02  0.33604503324E+03  0.34216930902E+03  0.00000000000E+00 0. -1.
          1    1    1    2  502    0 -0.62716392889E+02 -0.14840004409E+02  0.19517324629E+02  0.67338678548E+02  0.00000000000E+00 0.  1.
</event>
<event>
 4    1  0.3555026E+003  0.2032130E+02  0.7546771E-02  0.1529179E+00
          2   -1    0    0  502    0  0.00000000000E+00  0.00000000000E+00  0.30126266987E+03  0.30126266987E+03  0.00000000000E+00 0. -1.
          1   -1    0    0  501    0 -0.00000000000E+00 -0.00000000000E+00 -0.13824608682E+01  0.13824608682E+01  0.00000000000E+00 0. -1.
          2    1    1    2  501    0 -0.18634759615E+02  0.81056128072E+01  0.16386870568E+03  0.16512391688E+03  0.00000000000E+00 0. -1.
          1    1    1    2  502    0  0.18634759615E+02 -0.81056128072E+01  0.13601150332E+03  0.13752121386E+03  0.00000000000E+00 0. -1.
</event>
<event>
 4    1  0.3555026E+003  0.2346714E+02  0.7546771E-02  0.1486714E+00
          2   -1    0    0  502    0  0.00000000000E+00  0.00000000000E+00  0.33766278796E+03  0.33766278796E+03  0.00000000000E+00 0. -1.
          1   -1    0    0  501    0 -0.00000000000E+00 -0.00000000000E+00 -0.19108980159E+01  0.19108980159E+01  0.00000000000E+00 0. -1.
          2    1    1    2  501    0  0.47229541575E+01  0.22986964620E+02  0.23286404195E+03  0.23404351919E+03  0.00000000000E+00 0. -1.
          1    1    1    2  502    0 -0.47229541575E+01 -0.22986964620E+02  0.10288784799E+03  0.10553016679E+03  0.00000000000E+00 0. -1.
</event>
<event>
 4    1  0.3555026E+003  0.6391361E+02  0.7546771E-02  0.1247085E+00
          2   -1    0    0  502    0  0.00000000000E+00  0.00000000000E+00  0.19413044350E+04  0.19413044350E+04  0.00000000000E+00 0.  1.
          1   -1    0    0  501    0 -0.00000000000E+00 -0.00000000000E+00 -0.12872288285E+03  0.12872288285E+03  0.00000000000E+00 0.  1.
          2    1    1    2  501    0 -0.91050606828E+01 -0.63261734080E+02  0.19328099087E+04  0.19338663584E+04  0.00000000000E+00 0.  1.
          1    1    1    2  502    0  0.91050606828E+01  0.63261734080E+02 -0.12022835658E+03  0.13616095937E+03  0.00000000000E+00 0.  1.
</event>
<event>
 4    1  0.3555026E+003  0.2107513E+02  0.7546771E-02  0.1518195E+00
          2   -1    0    0  502    0  0.00000000000E+00  0.00000000000E+00  0.90423723241E+02  0.90423723241E+02  0.00000000000E+00 0.  1.
          1   -1    0    0  501    0 -0.00000000000E+00 -0.00000000000E+00 -0.56680152484E+01  0.56680152484E+01  0.00000000000E+00 0. -1.
          2    1    1    2  501    0  0.21045421007E+02 -0.11186032967E+01  0.59925013016E+02  0.63522973826E+02  0.00000000000E+00 0.  1.
          1    1    1    2  502    0 -0.21045421007E+02  0.11186032967E+01  0.24830694977E+02  0.32568764664E+02  0.00000000000E+00 0. -1.
</event>
<event>
 4    1  0.3555026E+003  0.2412536E+02  0.7546771E-02  0.1478831E+00
          2   -1    0    0  502    0  0.00000000000E+00  0.00000000000E+00  0.29221834727E+02  0.29221834727E+02  0.00000000000E+00 0.  1.
          1   -1    0    0  501    0 -0.00000000000E+00 -0.00000000000E+00 -0.16527489839E+03  0.16527489839E+03  0.00000000000E+00 0. -1.
          2    1    1    2  501    0  0.22282896871E+01 -0.24022236436E+02  0.23173936241E+02  0.33452420529E+02  0.00000000000E+00 0.  1.
          1    1    1    2  502    0 -0.22282896871E+01  0.24022236436E+02 -0.15922699990E+03  0.16104431259E+03  0.00000000000E+00 0. -1.
</event>
<event>
 4    1  0.3555026E+003  0.2226860E+02  0.7546771E-02  0.1501892E+00
          2   -1    0    0  502    0  0.00000000000E+00  0.00000000000E+00  0.10426836122E+02  0.10426836122E+02  0.00000000000E+00 0.  1.
          1   -1    0    0  501    0 -0.00000000000E+00 -0.00000000000E+00 -0.51826336267E+03  0.51826336267E+03  0.00000000000E+00 0. -1.
          2    1    1    2  501    0  0.20854367083E+02  0.78093493572E+01 -0.19939452012E+01  0.22357691770E+02  0.00000000000E+00 0.  1.
          1    1    1    2  502    0 -0.20854367083E+02 -0.78093493572E+01 -0.50584258135E+03  0.50633250703E+03  0.00000000000E+00 0. -1.
</event>
<event>
 4    1  0.3555026E+003  0.2417088E+02  0.7546771E-02  0.1478296E+00
          2   -1    0    0  502    0  0.00000000000E+00  0.00000000000E+00  0.59834903727E+03  0.59834903727E+03  0.00000000000E+00 0. -1.
          1   -1    0    0  501    0 -0.00000000000E+00 -0.00000000000E+00 -0.30688569982E+01  0.30688569982E+01  0.00000000000E+00 0. -1.
          2    1    1    2  501    0  0.75998263191E+01  0.22945018591E+02  0.54594524367E+03  0.54648004568E+03  0.00000000000E+00 0. -1.
          1    1    1    2  502    0 -0.75998263191E+01 -0.22945018591E+02  0.49334936602E+02  0.54937848590E+02  0.00000000000E+00 0. -1.
</event>
<event>
 4    1  0.3555026E+003  0.2548469E+02  0.7546771E-02  0.1463454E+00
          2   -1    0    0  502    0  0.00000000000E+00  0.00000000000E+00  0.19708084081E+04  0.19708084081E+04  0.00000000000E+00 0. -1.
          1   -1    0    0  501    0 -0.00000000000E+00 -0.00000000000E+00 -0.34384140443E+00  0.34384140443E+00  0.00000000000E+00 0. -1.
          2    1    1    2  501    0  0.25178099383E+02  0.39411036549E+01  0.78426158139E+03  0.78467553615E+03  0.00000000000E+00 0. -1.
          1    1    1    2  502    0 -0.25178099383E+02 -0.39411036549E+01  0.11862029853E+04  0.11864767134E+04  0.00000000000E+00 0. -1.
</event>
<event>
 4    1  0.3555026E+003  0.2124195E+02  0.7546771E-02  0.1515838E+00
          2   -1    0    0  502    0  0.00000000000E+00  0.00000000000E+00  0.20081511968E+02  0.20081511968E+02  0.00000000000E+00 0.  1.
          1   -1    0    0  501    0 -0.00000000000E+00 -0.00000000000E+00 -0.63459764310E+02  0.63459764310E+02  0.00000000000E+00 0. -1.
          2    1    1    2  501    0  0.17982244337E+02  0.11307495396E+02  0.11881736222E+02  0.24339191013E+02  0.00000000000E+00 0.  1.
          1    1    1    2  502    0 -0.17982244337E+02 -0.11307495396E+02 -0.55259988565E+02  0.59202085265E+02  0.00000000000E+00 0. -1.
</event>
<event>
 4    1  0.3555026E+003  0.6011189E+02  0.7546771E-02  0.1259453E+00
          2   -1    0    0  502    0  0.00000000000E+00  0.00000000000E+00  0.43850669321E+03  0.43850669321E+03  0.00000000000E+00 0.  1.
          1   -1    0    0  501    0 -0.00000000000E+00 -0.00000000000E+00 -0.85483849602E+01  0.85483849602E+01  0.00000000000E+00 0. -1.
          2    1    1    2  501    0 -0.45877926027E+02 -0.38841407048E+02  0.25741222751E+03  0.26433784040E+03  0.00000000000E+00 0.  1.
          1    1    1    2  502    0  0.45877926027E+02  0.38841407048E+02  0.17254608074E+03  0.18271723776E+03  0.00000000000E+00 0. -1.
</event>
<event>
 4    1  0.3555026E+003  0.2076961E+02  0.7546771E-02  0.1522580E+00
          2   -1    0    0  502    0  0.00000000000E+00  0.00000000000E+00  0.19852879293E+03  0.19852879293E+03  0.00000000000E+00 0.  1.
          1   -1    0    0  501    0 -0.00000000000E+00 -0.00000000000E+00 -0.22140392889E+01  0.22140392889E+01  0.00000000000E+00 0.  1.
          2    1    1    2  501    0 -0.71454570046E-01 -0.20769485216E+02  0.11184477749E+03  0.11375689374E+03  0.00000000000E+00 0.  1.
          1    1    1    2  502    0  0.71454570046E-01  0.20769485216E+02  0.84469976156E+02  0.86985938482E+02  0.00000000000E+00 0.  1.
</event>
<event>
 4    1  0.3555026E+003  0.2360365E+02  0.7546771E-02  0.1485054E+00
          2   -1    0    0  502    0  0.00000000000E+00  0.00000000000E+00  0.14006180588E+02  0.14006180588E+02  0.00000000000E+00 0. -1.
          1   -1    0    0  501    0 -0.00000000000E+00 -0.00000000000E+00 -0.14247435135E+04  0.14247435135E+04  0.00000000000E+00 0. -1.
          2    1    1    2  501    0  0.19475656767E+02  0.13335332667E+02  0.38929315249E+01  0.23922525363E+02  0.00000000000E+00 0. -1.
          1    1    1    2  502    0 -0.19475656767E+02 -0.13335332667E+02 -0.14146302645E+04  0.14148271688E+04  0.00000000000E+00 0. -1.
</event>
<event>
 4    1  0.3555026E+003  0.2798029E+02  0.7546771E-02  0.1438002E+00
          2   -1    0    0  502    0  0.00000000000E+00  0.00000000000E+00  0.77999228960E+01  0.77999228960E+01  0.00000000000E+00 0. -1.
          1   -1    0    0  501    0 -0.00000000000E+00 -0.00000000000E+00 -0.51117558874E+03  0.51117558874E+03  0.00000000000E+00 0. -1.
          2    1    1    2  501    0  0.25620765324E+02  0.11246025482E+02 -0.19066929072E+02  0.33859186186E+02  0.00000000000E+00 0. -1.
          1    1    1    2  502    0 -0.25620765324E+02 -0.11246025482E+02 -0.48430873677E+03  0.48511632545E+03  0.00000000000E+00 0. -1.
</event>
<event>
 4    1  0.3555026E+003  0.3552012E+02  0.7546771E-02  0.1376943E+00
          2   -1    0    0  502    0  0.00000000000E+00  0.00000000000E+00  0.74962745103E+03  0.74962745103E+03  0.00000000000E+00 0. -1.
          1   -1    0    0  501    0 -0.00000000000E+00 -0.00000000000E+00 -0.38341477405E+01  0.38341477405E+01  0.00000000000E+00 0.  1.
          2    1    1    2  501    0 -0.35519156545E+02 -0.26150452154E+00  0.65507539929E+03  0.65603769528E+03  0.00000000000E+00 0. -1.
          1    1    1    2  502    0  0.35519156545E+02  0.26150452154E+00  0.90717903997E+02  0.97423903493E+02  0.00000000000E+00 0.  1.
</event>
<event>
 4    1  0.3555026E+003  0.2774551E+02  0.7546771E-02  0.1440260E+00
          2   -1    0    0  502    0  0.00000000000E+00  0.00000000000E+00  0.18171024532E+02  0.18171024532E+02  0.00000000000E+00 0.  1.
          1   -1    0    0  501    0 -0.00000000000E+00 -0.00000000000E+00 -0.20727435279E+03  0.20727435279E+03  0.00000000000E+00 0. -1.
          2    1    1    2  501    0 -0.22036375076E+02  0.16858574105E+02  0.59935379815E+01  0.28385486518E+02  0.00000000000E+00 0.  1.
          1    1    1    2  502    0  0.22036375076E+02 -0.16858574105E+02 -0.19509686624E+03  0.19705989080E+03  0.00000000000E+00 0. -1.
</event>
<event>
 4    1  0.3555026E+003  0.2388968E+02  0.7546771E-02  0.1481619E+00
          2   -1    0    0  502    0  0.00000000000E+00  0.00000000000E+00  0.74096775853E+03  0.74096775853E+03  0.00000000000E+00 0. -1.
          1   -1    0    0  501    0 -0.00000000000E+00 -0.00000000000E+00 -0.17610018764E+01  0.17610018764E+01  0.00000000000E+00 0.  1.
          2    1    1    2  501    0 -0.21806472796E+02 -0.97567662611E+01  0.64815573181E+03  0.64859584444E+03  0.00000000000E+00 0. -1.
          1    1    1    2  502    0  0.21806472796E+02  0.97567662611E+01  0.91051024839E+02  0.94132915964E+02  0.00000000000E+00 0.  1.
</event>
<event>
 4    1  0.3555026E+003  0.2503295E+02  0.7546771E-02  0.1468435E+00
          2   -1    0    0  502    0  0.00000000000E+00  0.00000000000E+00  0.49299990538E+03  0.49299990538E+03  0.00000000000E+00 0. -1.
          1   -1    0    0  501    0 -0.00000000000E+00 -0.00000000000E+00 -0.18765181329E+02  0.18765181329E+02  0.00000000000E+00 0.  1.
          2    1    1    2  501    0  0.10273022336E+02 -0.22827914251E+02  0.48418162765E+03  0.48482831726E+03  0.00000000000E+00 0. -1.
          1    1    1    2  502    0 -0.10273022336E+02  0.22827914251E+02 -0.99469036061E+01  0.26936769448E+02  0.00000000000E+00 0.  1.
</event>
<event>
 4    1  0.3555026E+003  0.2806994E+02  0.7546771E-02  0.1437147E+00
          2   -1    0    0  502    0  0.00000000000E+00  0.00000000000E+00  0.30868665705E+01  0.30868665705E+01  0.00000000000E+00 0. -1.
          1   -1    0    0  501    0 -0.00000000000E+00 -0.00000000000E+00 -0.26431912710E+03  0.26431912710E+03  0.00000000000E+00 0. -1.
          2    1    1    2  501    0  0.76633584245E+01  0.27003597152E+02 -0.10584931177E+03  0.10950798201E+03  0.00000000000E+00 0. -1.
          1    1    1    2  502    0 -0.76633584245E+01 -0.27003597152E+02 -0.15538294876E+03  0.15789801166E+03  0.00000000000E+00 0. -1.
</event>
<event>
 4    1  0.3555026E+003  0.2524977E+02  0.7546771E-02  0.1466029E+00
          2   -1    0    0  502    0  0.00000000000E+00  0.00000000000E+00  0.96150249478E+03  0.96150249478E+03  0.00000000000E+00 0. -1.
          1   -1    0    0  501    0 -0.00000000000E+00 -0.00000000000E+00 -0.93486225398E+00  0.93486225398E+00  0.00000000000E+00 0.  1.
          2    1    1    2  501    0  0.22767391058E+02  0.10917719128E+02  0.73975025782E+03  0.74018105530E+03  0.00000000000E+00 0. -1.
          1    1    1    2  502    0 -0.22767391058E+02 -0.10917719128E+02  0.22081737471E+03  0.22225630174E+03  0.00000000000E+00 0.  1.
</event>
<event>
 4    1  0.3555026E+003  0.3396057E+02  0.7546771E-02  0.1388022E+00
          2   -1    0    0  502    0  0.00000000000E+00  0.00000000000E+00  0.66534236122E+03  0.66534236122E+03  0.00000000000E+00 0.  1.
          1   -1    0    0  501    0 -0.00000000000E+00 -0.00000000000E+00 -0.22219598548E+01  0.22219598548E+01  0.00000000000E+00 0. -1.
          2    1    1    2  501    0 -0.24698385563E+02  0.23309013205E+02  0.48807063137E+03  0.48925071441E+03  0.00000000000E+00 0.  1.
          1    1    1    2  502    0  0.24698385563E+02 -0.23309013205E+02  0.17504977000E+03  0.17831360667E+03  0.00000000000E+00 0. -1.
</event>
<event>
 4    1  0.3555026E+003  0.3596485E+02  0.7546771E-02  0.1373904E+00
          2   -1    0    0  502    0  0.00000000000E+00  0.00000000000E+00  0.35743693674E+03  0.35743693674E+03  0.00000000000E+00 0.  1.
          1   -1    0    0  501    0 -0.00000000000E+00 -0.00000000000E+00 -0.23207460023E+03  0.23207460023E+03  0.00000000000E+00 0. -1.
          2    1    1    2  501    0  0.20906380694E+02  0.29264208315E+02  0.35512984520E+03  0.35694632313E+03  0.00000000000E+00 0.  1.
          1    1    1    2  502    0 -0.20906380694E+02 -0.29264208315E+02 -0.22976750869E+03  0.23256521385E+03  0.00000000000E+00 0. -1.
</event>
<event>
 4    1  0.3555026E+003  0.3562061E+02  0.7546771E-02  0.1376252E+00
          2   -1    0    0  502    0  0.00000000000E+00  0.00000000000E+00  0.18532111841E+04  0.18532111841E+04  0.00000000000E+00 0.  1.
          1   -1    0    0  501    0 -0.00000000000E+00 -0.00000000000E+00 -0.71556268741E+00  0.71556268741E+00  0.00000000000E+00 0.  1.
          2    1    1    2  501    0  0.35042712869E+02 -0.63903333927E+01  0.11188692218E+04  0.11194360918E+04  0.00000000000E+00 0.  1.
          1    1    1    2  502    0 -0.35042712869E+02  0.63903333927E+01  0.73362639959E+03  0.73449065499E+03  0.00000000000E+00 0.  1.
</event>
<event>
 4    1  0.3555026E+003  0.2342240E+02  0.7546771E-02  0.1487261E+00
          2   -1    0    0  502    0  0.00000000000E+00  0.00000000000E+00  0.13859813112E+03  0.13859813112E+03  0.00000000000E+00 0. -1.
          1   -1    0    0  501    0 -0.00000000000E+00 -0.00000000000E+00 -0.40833750172E+01  0.40833750172E+01  0.00000000000E+00 0. -1.
          2    1    1    2  501    0 -0.20016650498E+02  0.12163143805E+02  0.54770002263E+02  0.59568124968E+02  0.00000000000E+00 0. -1.
          1    1    1    2  502    0  0.20016650498E+02 -0.12163143805E+02  0.79744753843E+02  0.83113381172E+02  0.00000000000E+00 0. -1.
</event>
<event>
 4    1  0.3555026E+003  0.2242810E+02  0.7546771E-02  0.1499807E+00
          2   -1    0    0  502    0  0.00000000000E+00  0.00000000000E+00  0.56342814701E+03  0.56342814701E+03  0.00000000000E+00 0. -1.
          1   -1    0    0  501    0 -0.00000000000E+00 -0.00000000000E+00 -0.61254561284E+02  0.61254561284E+02  0.00000000000E+00 0.  1.
          2    1    1    2  501    0  0.19789940694E+01  0.22340614509E+02  0.56114360843E+03  0.56159163879E+03  0.00000000000E+00 0. -1.
          1    1    1    2  502    0 -0.19789940694E+01 -0.22340614509E+02 -0.58970022702E+02  0.63091069508E+02  0.00000000000E+00 0.  1.
</event>
<event>
 4    1  0.3555026E+003  0.3458712E+02  0.7546771E-02  0.1383489E+00
          2   -1    0    0  502    0  0.00000000000E+00  0.00000000000E+00  0.52136017945E+03  0.52136017945E+03  0.00000000000E+00 0.  1.
          1   -1    0    0  501    0 -0.00000000000E+00 -0.00000000000E+00 -0.46415040839E+02  0.46415040839E+02  0.00000000000E+00 0.  1.
          2    1    1    2  501    0  0.31807093406E+02 -0.13585940853E+02  0.51425429204E+03  0.51541609002E+03  0.00000000000E+00 0.  1.
          1    1    1    2  502    0 -0.31807093406E+02  0.13585940853E+02 -0.39309153420E+02  0.52359130268E+02  0.00000000000E+00 0.  1.
</event>
<event>
 4    1  0.3555026E+003  0.2316433E+02  0.7546771E-02  0.1490445E+00
          2   -1    0    0  502    0  0.00000000000E+00  0.00000000000E+00  0.27149048668E+03  0.27149048668E+03  0.00000000000E+00 0. -1.
          1   -1    0    0  501    0 -0.00000000000E+00 -0.00000000000E+00 -0.18377174565E+02  0.18377174565E+02  0.00000000000E+00 0. -1.
          2    1    1    2  501    0  0.22465997109E+02 -0.56449254100E+01  0.26347510629E+03  0.26449143246E+03  0.00000000000E+00 0. -1.
          1    1    1    2  502    0 -0.22465997109E+02  0.56449254100E+01 -0.10361794174E+02  0.25376228788E+02  0.00000000000E+00 0. -1.
</event>
<event>
 4    1  0.3555026E+003  0.2196988E+02  0.7546771E-02  0.1505855E+00
          2   -1    0    0  502    0  0.00000000000E+00  0.00000000000E+00  0.30493306126E+03  0.30493306126E+03  0.00000000000E+00 0.  1.
          1   -1    0    0  501    0 -0.00000000000E+00 -0.00000000000E+00 -0.75501687957E+01  0.75501687957E+01  0.00000000000E+00 0. -1.
          2    1    1    2  501    0 -0.21221610996E+02  0.56849699261E+01  0.28759281773E+03  0.28843076200E+03  0.00000000000E+00 0.  1.
          1    1    1    2  502    0  0.21221610996E+02 -0.56849699261E+01  0.97900747316E+01  0.24052468056E+02  0.00000000000E+00 0. -1.
</event>
<event>
 4    1  0.3555026E+003  0.2057803E+02  0.7546771E-02  0.1525376E+00
          2   -1    0    0  502    0  0.00000000000E+00  0.00000000000E+00  0.72542270139E+03  0.72542270139E+03  0.00000000000E+00 0. -1.
          1   -1    0    0  501    0 -0.00000000000E+00 -0.00000000000E+00 -0.40037032726E+03  0.40037032726E+03  0.00000000000E+00 0. -1.
          2    1    1    2  501    0 -0.15166611506E+02  0.13907888164E+02  0.72501220281E+03  0.72530417735E+03  0.00000000000E+00 0. -1.
          1    1    1    2  502    0  0.15166611506E+02 -0.13907888164E+02 -0.39995982868E+03  0.40048885130E+03  0.00000000000E+00 0. -1.
</event>
<event>
 4    1  0.3555026E+003  0.3001521E+02  0.7546771E-02  0.1419464E+00
          2   -1    0    0  502    0  0.00000000000E+00  0.00000000000E+00  0.10154898358E+04  0.10154898358E+04  0.00000000000E+00 0. -1.
          1   -1    0    0  501    0 -0.00000000000E+00 -0.00000000000E+00 -0.37860846818E+01  0.37860846818E+01  0.00000000000E+00 0. -1.
          2    1    1    2  501    0 -0.23987889230E+02 -0.18041455574E+02  0.95179991890E+03  0.95227306932E+03  0.00000000000E+00 0. -1.
          1    1    1    2  502    0  0.23987889230E+02  0.18041455574E+02  0.59903832261E+02  0.67002851197E+02  0.00000000000E+00 0. -1.
</event>
<event>
 4    1  0.3555026E+003  0.3037689E+02  0.7546771E-02  0.1416349E+00
          2   -1    0    0  502    0  0.00000000000E+00  0.00000000000E+00  0.38333280545E+03  0.38333280545E+03  0.00000000000E+00 0.  1.
          1   -1    0    0  501    0 -0.00000000000E+00 -0.00000000000E+00 -0.59347184913E+02  0.59347184913E+02  0.00000000000E+00 0.  1.
          2    1    1    2  501    0 -0.30017819880E+02  0.46567971034E+01  0.37879743535E+03  0.38001348963E+03  0.00000000000E+00 0.  1.
          1    1    1    2  502    0  0.30017819880E+02 -0.46567971034E+01 -0.54811814821E+02  0.62666500729E+02  0.00000000000E+00 0.  1.
</event>
<event>
 4    1  0.3555026E+003  0.2561210E+02  0.7546771E-02  0.1462071E+00
          2   -1    0    0  502    0  0.00000000000E+00  0.00000000000E+00  0.14397205305E+02  0.14397205305E+02  0.00000000000E+00 0.  1.
          1   -1    0    0  501    0 -0.00000000000E+00 -0.00000000000E+00 -0.16195249941E+04  0.16195249941E+04  0.00000000000E+00 0.  1.
          2    1    1    2  501    0 -0.19729081151E+02  0.16332268728E+02  0.28232128988E+01  0.25767230661E+02  0.00000000000E+00 0.  1.
          1    1    1    2  502    0  0.19729081151E+02 -0.16332268728E+02 -0.16079510017E+04  0.16081549687E+04  0.00000000000E+00 0.  1.
</event>
<event>
 4    1  0.3555026E+003  0.3283123E+02  0.7546771E-02  0.1396487E+00
          2   -1    0    0  502    0  0.00000000000E+00  0.00000000000E+00  0.82801991156E+02  0.82801991156E+02  0.00000000000E+00 0. -1.
          1   -1    0    0  501    0 -0.00000000000E+00 -0.00000000000E+00 -0.29290464108E+03  0.29290464108E+03  0.00000000000E+00 0. -1.
          2    1    1    2  501    0  0.17297839530E+02 -0.27904739585E+02  0.78580129247E+02  0.85162940627E+02  0.00000000000E+00 0. -1.
          1    1    1    2  502    0 -0.17297839530E+02  0.27904739585E+02 -0.28868277917E+03  0.29054369161E+03  0.00000000000E+00 0. -1.
</event>
<event>
 4    1  0.3555026E+003  0.7854474E+02  0.7546771E-02  0.1207267E+00
          2   -1    0    0  502    0  0.00000000000E+00  0.00000000000E+00  0.28930481523E+02  0.28930481523E+02  0.00000000000E+00 0. -1.
          1   -1    0    0  501    0 -0.00000000000E+00 -0.00000000000E+00 -0.22683374837E+03  0.22683374837E+03  0.00000000000E+00 0. -1.
          2    1    1    2  501    0  0.76987474357E+02  0.15562928837E+02 -0.67651353012E+02  0.10366282615E+03  0.00000000000E+00 0. -1.
          1    1    1    2  502    0 -0.76987474357E+02 -0.15562928837E+02 -0.13025191383E+03  0.15210140374E+03  0.00000000000E+00 0. -1.
</event>
<event>
 4    1  0.3555026E+003  0.2455364E+02  0.7546771E-02  0.1473859E+00
          2   -1    0    0  502    0  0.00000000000E+00  0.00000000000E+00  0.17876907664E+04  0.17876907664E+04  0.00000000000E+00 0.  1.
          1   -1    0    0  501    0 -0.00000000000E+00 -0.00000000000E+00 -0.45819447529E+00  0.45819447529E+00  0.00000000000E+00 0. -1.
          2    1    1    2  501    0  0.19608404918E+02 -0.14778079933E+02  0.13529828578E+04  0.13532056365E+04  0.00000000000E+00 0.  1.
          1    1    1    2  502    0 -0.19608404918E+02  0.14778079933E+02  0.43424971411E+03  0.43494332435E+03  0.00000000000E+00 0. -1.
</event>
<event>
 4    1  0.3555026E+003  0.2445286E+02  0.7546771E-02  0.1475018E+00
          2   -1    0    0  502    0  0.00000000000E+00  0.00000000000E+00  0.36714619696E+02  0.36714619696E+02  0.00000000000E+00 0.  1.
          1   -1    0    0  501    0 -0.00000000000E+00 -0.00000000000E+00 -0.28967354229E+03  0.28967354229E+03  0.00000000000E+00 0.  1.
          2    1    1    2  501    0 -0.16893762422E+02  0.17678895510E+02  0.32060653961E+02  0.40321558596E+02  0.00000000000E+00 0.  1.
          1    1    1    2  502    0  0.16893762422E+02 -0.17678895510E+02 -0.28501957655E+03  0.28606660339E+03  0.00000000000E+00 0.  1.
</event>
<event>
 4    1  0.3555026E+003  0.5805378E+02  0.7546771E-02  0.1266592E+00
          2   -1    0    0  502    0  0.00000000000E+00  0.00000000000E+00  0.60383658559E+03  0.60383658559E+03  0.00000000000E+00 0.  1.
          1   -1    0    0  501    0 -0.00000000000E+00 -0.00000000000E+00 -0.10283768556E+04  0.10283768556E+04  0.00000000000E+00 0.  1.
          2    1    1    2  501    0  0.57643140131E+02 -0.68927635008E+01  0.60161891635E+03  0.60441340347E+03  0.00000000000E+00 0.  1.
          1    1    1    2  502    0 -0.57643140131E+02  0.68927635008E+01 -0.10261591863E+04  0.10278000377E+04  0.00000000000E+00 0.  1.
</event>
<event>
 4    1  0.3555026E+003  0.3363332E+02  0.7546771E-02  0.1390434E+00
          2   -1    0    0  502    0  0.00000000000E+00  0.00000000000E+00  0.21736576260E+02  0.21736576260E+02  0.00000000000E+00 0. -1.
          1   -1    0    0  501    0 -0.00000000000E+00 -0.00000000000E+00 -0.19838202383E+03  0.19838202383E+03  0.00000000000E+00 0.  1.
          2    1    1    2  501    0  0.29484345129E+02 -0.16182510999E+02  0.62047709169E+01  0.34200869170E+02  0.00000000000E+00 0. -1.
          1    1    1    2  502    0 -0.29484345129E+02  0.16182510999E+02 -0.18285021848E+03  0.18591773092E+03  0.00000000000E+00 0.  1.
</event>
<event>
 4    1  0.3555026E+003  0.2031029E+02  0.7546771E-02  0.1529344E+00
          2   -1    0    0  502    0  0.00000000000E+00  0.00000000000E+00  0.21760229424E+03  0.21760229424E+03  0.00000000000E+00 0. -1.
          1   -1    0    0  501    0 -0.00000000000E+00 -0.00000000000E+00 -0.48489650951E+03  0.48489650951E+03  0.00000000000E+00 0.  1.
          2    1    1    2  501    0  0.19018480906E+02 -0.71277871595E+01  0.21691501932E+03  0.21786379592E+03  0.00000000000E+00 0. -1.
          1    1    1    2  502    0 -0.19018480906E+02  0.71277871595E+01 -0.48420923458E+03  0.48463500784E+03  0.00000000000E+00 0.  1.
</event>
<event>
 4    1  0.3555026E+003  0.2046198E+02  0.7546771E-02  0.1527087E+00
          2   -1    0    0  502    0  0.00000000000E+00  0.00000000000E+00  0.89958445045E+01  0.89958445045E+01  0.00000000000E+00 0.  1.
          1   -1    0    0  501    0 -0.00000000000E+00 -0.00000000000E+00 -0.55182814275E+02  0.55182814275E+02  0.00000000000E+00 0. -1.
          2    1    1    2  501    0 -0.15331296679E+02 -0.13551524071E+02 -0.10396106139E+02  0.22951502900E+02  0.00000000000E+00 0.  1.
          1    1    1    2  502    0  0.15331296679E+02  0.13551524071E+02 -0.35790863631E+02  0.41227155880E+02  0.00000000000E+00 0. -1.
</event>
<event>
 4    1  0.3555026E+003  0.2036723E+02  0.7546771E-02  0.1528494E+00
          2   -1    0    0  502    0  0.00000000000E+00  0.00000000000E+00  0.85068081857E+00  0.85068081857E+00  0.00000000000E+00 0. -1.
          1   -1    0    0  501    0 -0.00000000000E+00 -0.00000000000E+00 -0.70829616847E+03  0.70829616847E+03  0.00000000000E+00 0.  1.
          2    1    1    2  501    0  0.13876243373E+02 -0.14908852087E+02 -0.15581669035E+03  0.15714218082E+03  0.00000000000E+00 0. -1.
          1    1    1    2  502    0 -0.13876243373E+02  0.14908852087E+02 -0.55162879730E+03  0.55200466846E+03  0.00000000000E+00 0.  1.
</event>
<event>
 4    1  0.3555026E+003  0.4091707E+02  0.7546771E-02  0.1343194E+00
          2   -1    0    0  502    0  0.00000000000E+00  0.00000000000E+00  0.13888036153E+02  0.13888036153E+02  0.00000000000E+00 0. -1.
          1   -1    0    0  501    0 -0.00000000000E+00 -0.00000000000E+00 -0.15493985538E+04  0.15493985538E+04  0.00000000000E+00 0.  1.
          2    1    1    2  501    0  0.39812039944E+02 -0.94449951873E+01 -0.17135326007E+02  0.44360183227E+02  0.00000000000E+00 0. -1.
          1    1    1    2  502    0 -0.39812039944E+02  0.94449951873E+01 -0.15183751917E+04  0.15189264067E+04  0.00000000000E+00 0.  1.
</event>
<event>
 4    1  0.3555026E+003  0.2244346E+02  0.7546771E-02  0.1499607E+00
          2   -1    0    0  502    0  0.00000000000E+00  0.00000000000E+00  0.86875158927E+01  0.86875158927E+01  0.00000000000E+00 0. -1.
          1   -1    0    0  501    0 -0.00000000000E+00 -0.00000000000E+00 -0.10985921628E+03  0.10985921628E+03  0.00000000000E+00 0. -1.
          2    1    1    2  501    0  0.20641375989E+02 -0.88115046405E+01 -0.98539427510E+01  0.24511409679E+02  0.00000000000E+00 0. -1.
          1    1    1    2  502    0 -0.20641375989E+02  0.88115046405E+01 -0.91317757641E+02  0.94035322498E+02  0.00000000000E+00 0. -1.
</event>
<event>
 4    1  0.3555026E+003  0.3393271E+02  0.7546771E-02  0.1388226E+00
          2   -1    0    0  502    0  0.00000000000E+00  0.00000000000E+00  0.27954712745E+01  0.27954712745E+01  0.00000000000E+00 0.  1.
          1   -1    0    0  501    0 -0.00000000000E+00 -0.00000000000E+00 -0.46583072991E+03  0.46583072991E+03  0.00000000000E+00 0.  1.
          2    1    1    2  501    0 -0.33918897373E+02 -0.96767096583E+00 -0.31125079511E+03  0.31309501025E+03  0.00000000000E+00 0.  1.
          1    1    1    2  502    0  0.33918897373E+02  0.96767096583E+00 -0.15178446352E+03  0.15553119093E+03  0.00000000000E+00 0.  1.
</event>
<event>
 4    1  0.3555026E+003  0.2507953E+02  0.7546771E-02  0.1467916E+00
          2   -1    0    0  502    0  0.00000000000E+00  0.00000000000E+00  0.37758153523E+03  0.37758153523E+03  0.00000000000E+00 0. -1.
          1   -1    0    0  501    0 -0.00000000000E+00 -0.00000000000E+00 -0.64699933318E+02  0.64699933318E+02  0.00000000000E+00 0.  1.
          2    1    1    2  501    0  0.15023591143E+02  0.20081697937E+02  0.37471613158E+03  0.37555447295E+03  0.00000000000E+00 0. -1.
          1    1    1    2  502    0 -0.15023591143E+02 -0.20081697937E+02 -0.61834529668E+02  0.66726995602E+02  0.00000000000E+00 0.  1.
</event>
<event>
 4    1  0.3555026E+003  0.4855675E+02  0.7546771E-02  0.1304554E+00
          2   -1    0    0  502    0  0.00000000000E+00  0.00000000000E+00  0.17435733875E+04  0.17435733875E+04  0.00000000000E+00 0. -1.
          1   -1    0    0  501    0 -0.00000000000E+00 -0.00000000000E+00 -0.78029568437E+02  0.78029568437E+02  0.00000000000E+00 0.  1.
          2    1    1    2  501    0  0.45771865880E+02  0.16207850336E+02  0.17356467778E+04  0.17363258609E+04  0.00000000000E+00 0. -1.
          1    1    1    2  502    0 -0.45771865880E+02 -0.16207850336E+02 -0.70102958695E+02  0.85277095028E+02  0.00000000000E+00 0.  1.
</event>
<event>
 4    1  0.3555026E+003  0.2166250E+02  0.7546771E-02  0.1510013E+00
          2   -1    0    0  502    0  0.00000000000E+00  0.00000000000E+00  0.16471963073E+04  0.16471963073E+04  0.00000000000E+00 0. -1.
          1   -1    0    0  501    0 -0.00000000000E+00 -0.00000000000E+00 -0.23591075798E+01  0.23591075798E+01  0.00000000000E+00 0.  1.
          2    1    1    2  501    0  0.10635799665E+02  0.18871768633E+02  0.15957943843E+04  0.15959414090E+04  0.00000000000E+00 0. -1.
          1    1    1    2  502    0 -0.10635799665E+02 -0.18871768633E+02  0.49042815412E+02  0.53614005907E+02  0.00000000000E+00 0.  1.
</event>
<event>
 4    1  0.3555026E+003  0.5944177E+02  0.7546771E-02  0.1261741E+00
          2   -1    0    0  502    0  0.00000000000E+00  0.00000000000E+00  0.16306680621E+04  0.16306680621E+04  0.00000000000E+00 0.  1.
          1   -1    0    0  501    0 -0.00000000000E+00 -0.00000000000E+00 -0.52752461458E+02  0.52752461458E+02  0.00000000000E+00 0. -1.
          2    1    1    2  501    0 -0.35526355745E+02 -0.47657124873E+02  0.16132002837E+04  0.16142950408E+04  0.00000000000E+00 0.  1.
          1    1    1    2  502    0  0.35526355745E+02  0.47657124873E+02 -0.35284683062E+02  0.69125482729E+02  0.00000000000E+00 0. -1.
</event>
<event>
 4    1  0.3555026E+003  0.2244621E+02  0.7546771E-02  0.1499572E+00
          2   -1    0    0  502    0  0.00000000000E+00  0.00000000000E+00  0.44903375651E+03  0.44903375651E+03  0.00000000000E+00 0. -1.
          1   -1    0    0  501    0 -0.00000000000E+00 -0.00000000000E+00 -0.33764971614E+01  0.33764971614E+01  0.00000000000E+00 0.  1.
          2    1    1    2  501    0  0.51820344992E+01  0.21839848234E+02  0.40766632287E+03  0.40828380234E+03  0.00000000000E+00 0. -1.
          1    1    1    2  502    0 -0.51820344992E+01 -0.21839848234E+02  0.37990936479E+02  0.44126451330E+02  0.00000000000E+00 0.  1.
</event>
<event>
 4    1  0.3555026E+003  0.2573704E+02  0.7546771E-02  0.1460725E+00
          2   -1    0    0  502    0  0.00000000000E+00  0.00000000000E+00  0.15614897413E+03  0.15614897413E+03  0.00000000000E+00 0.  1.
          1   -1    0    0  501    0 -0.00000000000E+00 -0.00000000000E+00 -0.96812104107E+01  0.96812104107E+01  0.00000000000E+00 0.  1.
          2    1    1    2  501    0  0.25674115584E+02 -0.17985568319E+01  0.13538284083E+03  0.13780750563E+03  0.00000000000E+00 0.  1.
          1    1    1    2  502    0 -0.25674115584E+02  0.17985568319E+01  0.11084922890E+02  0.28022678908E+02  0.00000000000E+00 0.  1.
</event>
<event>
 4    1  0.3555026E+003  0.2682876E+02  0.7546771E-02  0.1449336E+00
          2   -1    0    0  502    0  0.00000000000E+00  0.00000000000E+00  0.96107315023E+01  0.96107315023E+01  0.00000000000E+00 0. -1.
          1   -1    0    0  501    0 -0.00000000000E+00 -0.00000000000E+00 -0.22731208148E+03  0.22731208148E+03  0.00000000000E+00 0. -1.
          2    1    1    2  501    0  0.19953409368E+02  0.17934423802E+02 -0.11847831081E+02  0.29328368585E+02  0.00000000000E+00 0. -1.
          1    1    1    2  502    0 -0.19953409368E+02 -0.17934423802E+02 -0.20585351890E+03  0.20759444440E+03  0.00000000000E+00 0. -1.
</event>
<event>
 4    1  0.3555026E+003  0.2817284E+02  0.7546771E-02  0.1436170E+00
          2   -1    0    0  502    0  0.00000000000E+00  0.00000000000E+00  0.38013980134E+02  0.38013980134E+02  0.00000000000E+00 0. -1.
          1   -1    0    0  501    0 -0.00000000000E+00 -0.00000000000E+00 -0.12650571122E+03  0.12650571122E+03  0.00000000000E+00 0.  1.
          2    1    1    2  501    0  0.17447475756E+02 -0.22119999925E+02  0.30919694285E+02  0.41829849410E+02  0.00000000000E+00 0. -1.
          1    1    1    2  502    0 -0.17447475756E+02  0.22119999925E+02 -0.11941142538E+03  0.12268984195E+03  0.00000000000E+00 0.  1.
</event>
<event>
 4    1  0.3555026E+003  0.2276609E+02  0.7546771E-02  0.1495456E+00
          2   -1    0    0  502    0  0.00000000000E+00  0.00000000000E+00  0.39840291030E+03  0.39840291030E+03  0.00000000000E+00 0.  1.
          1   -1    0    0  501    0 -0.00000000000E+00 -0.00000000000E+00 -0.12895923498E+02  0.12895923498E+02  0.00000000000E+00 0. -1.
          2    1    1    2  501    0  0.12468075464E+02 -0.19048415415E+02  0.38775433172E+03  0.38842208589E+03  0.00000000000E+00 0.  1.
          1    1    1    2  502    0 -0.12468075464E+02  0.19048415415E+02 -0.22473449245E+01  0.22876747907E+02  0.00000000000E+00 0. -1.
</event>
<event>
 4    1  0.3555026E+003  0.2095955E+02  0.7546771E-02  0.1519843E+00
          2   -1    0    0  502    0  0.00000000000E+00  0.00000000000E+00  0.35784308006E+03  0.35784308006E+03  0.00000000000E+00 0.  1.
          1   -1    0    0  501    0 -0.00000000000E+00 -0.00000000000E+00 -0.15632007867E+01  0.15632007867E+01  0.00000000000E+00 0.  1.
          2    1    1    2  501    0  0.20248554146E+02  0.54128515420E+01  0.26139930808E+03  0.26223825268E+03  0.00000000000E+00 0.  1.
          1    1    1    2  502    0 -0.20248554146E+02 -0.54128515420E+01  0.94880571198E+02  0.97168028166E+02  0.00000000000E+00 0.  1.
</event>
<event>
 4    1  0.3555026E+003  0.2889743E+02  0.7546771E-02  0.1429426E+00
          2   -1    0    0  502    0  0.00000000000E+00  0.00000000000E+00  0.10494599140E+03  0.10494599140E+03  0.00000000000E+00 0. -1.
          1   -1    0    0  501    0 -0.00000000000E+00 -0.00000000000E+00 -0.24116696055E+02  0.24116696055E+02  0.00000000000E+00 0. -1.
          2    1    1    2  501    0 -0.50533965729E+01  0.28452150198E+02  0.93238196648E+02  0.97613641373E+02  0.00000000000E+00 0. -1.
          1    1    1    2  502    0  0.50533965729E+01 -0.28452150198E+02 -0.12408901304E+02  0.31449046081E+02  0.00000000000E+00 0. -1.
</event>
<event>
 4    1  0.3555026E+003  0.3092744E+02  0.7546771E-02  0.1411704E+00
          2   -1    0    0  502    0  0.00000000000E+00  0.00000000000E+00  0.10682131120E+03  0.10682131120E+03  0.00000000000E+00 0.  1.
          1   -1    0    0  501    0 -0.00000000000E+00 -0.00000000000E+00 -0.49133738605E+03  0.49133738605E+03  0.00000000000E+00 0. -1.
          2    1    1    2  501    0 -0.29395641225E+02 -0.96126335322E+01  0.10408352864E+03  0.10858124783E+03  0.00000000000E+00 0.  1.
          1    1    1    2  502    0  0.29395641225E+02  0.96126335322E+01 -0.48859960349E+03  0.48957744941E+03  0.00000000000E+00 0. -1.
</event>
<event>
 4    1  0.3555026E+003  0.2282930E+02  0.7546771E-02  0.1494653E+00
          2   -1    0    0  502    0  0.00000000000E+00  0.00000000000E+00  0.39941204643E+02  0.39941204643E+02  0.00000000000E+00 0.  1.
          1   -1    0    0  501    0 -0.00000000000E+00 -0.00000000000E+00 -0.13366989579E+02  0.13366989579E+02  0.00000000000E+00 0.  1.
          2    1    1    2  501    0  0.84335111815E+01  0.21214452539E+02  0.17400701231E+02  0.28704729762E+02  0.00000000000E+00 0.  1.
          1    1    1    2  502    0 -0.84335111815E+01 -0.21214452539E+02  0.91735138329E+01  0.24603464460E+02  0.00000000000E+00 0.  1.
</event>
<event>
 4    1  0.3555026E+003  0.2982118E+02  0.7546771E-02  0.1421157E+00
          2   -1    0    0  502    0  0.00000000000E+00  0.00000000000E+00  0.37221463656E+03  0.37221463656E+03  0.00000000000E+00 0.  1.
          1   -1    0    0  501    0 -0.00000000000E+00 -0.00000000000E+00 -0.12428361159E+02  0.12428361159E+02  0.00000000000E+00 0.  1.
          2    1    1    2  501    0  0.40451208484E+01 -0.29545558826E+02  0.35274304858E+03  0.35400135787E+03  0.00000000000E+00 0.  1.
          1    1    1    2  502    0 -0.40451208484E+01  0.29545558826E+02  0.70432268239E+01  0.30641639857E+02  0.00000000000E+00 0.  1.
</event>
<event>
 4    1  0.3555026E+003  0.3148610E+02  0.7546771E-02  0.1407107E+00
          2   -1    0    0  502    0  0.00000000000E+00  0.00000000000E+00  0.96107812539E+03  0.96107812539E+03  0.00000000000E+00 0. -1.
          1   -1    0    0  501    0 -0.00000000000E+00 -0.00000000000E+00 -0.35056685695E+02  0.35056685695E+02  0.00000000000E+00 0.  1.
          2    1    1    2  501    0 -0.82126567869E+01  0.30396162367E+02  0.95369573781E+03  0.95421535029E+03  0.00000000000E+00 0. -1.
          1    1    1    2  502    0  0.82126567869E+01 -0.30396162367E+02 -0.27674298107E+02  0.41919460801E+02  0.00000000000E+00 0.  1.
</event>
<event>
 4    1  0.3555026E+003  0.3105906E+02  0.7546771E-02  0.1410611E+00
          2   -1    0    0  502    0  0.00000000000E+00  0.00000000000E+00  0.64856003355E+03  0.64856003355E+03  0.00000000000E+00 0.  1.
          1   -1    0    0  501    0 -0.00000000000E+00 -0.00000000000E+00 -0.29141938653E+01  0.29141938653E+01  0.00000000000E+00 0. -1.
          2    1    1    2  501    0 -0.33391814248E+01  0.30879042134E+02  0.55074652309E+03  0.55162160769E+03  0.00000000000E+00 0.  1.
          1    1    1    2  502    0  0.33391814248E+01 -0.30879042134E+02  0.94899316596E+02  0.99852619726E+02  0.00000000000E+00 0. -1.
</event>
<event>
 4    1  0.3555026E+003  0.2547041E+02  0.7546771E-02  0.1463609E+00
          2   -1    0    0  502    0  0.00000000000E+00  0.00000000000E+00  0.11974171519E+01  0.11974171519E+01  0.00000000000E+00 0. -1.
          1   -1    0    0  501    0 -0.00000000000E+00 -0.00000000000E+00 -0.11728026722E+04  0.11728026722E+04  0.00000000000E+00 0.  1.
          2    1    1    2  501    0  0.23128259289E+02  0.10668910937E+02 -0.15522982058E+03  0.15730556009E+03  0.00000000000E+00 0. -1.
          1    1    1    2  502    0 -0.23128259289E+02 -0.10668910937E+02 -0.10163754345E+04  0.10166945292E+04  0.00000000000E+00 0.  1.
</event>
<event>
 4    1  0.5938098E+003  0.2340157E+02  0.7546771E-02  0.1487516E+00
          2   -1    0    0  502    0  0.00000000000E+00  0.00000000000E+00  0.72041015627E+03  0.72041015627E+03  0.00000000000E+00 0. -1.
          1   -1    0    0  501    0 -0.00000000000E+00 -0.00000000000E+00 -0.11505452563E+04  0.11505452563E+04  0.00000000000E+00 0.  1.
          2    1    1    2  501    0  0.17194608494E+02 -0.15873848402E+02  0.72010106853E+03  0.72048121594E+03  0.00000000000E+00 0. -1.
          1    1    1    2  502    0 -0.17194608494E+02  0.15873848402E+02 -0.11502361686E+04  0.11504741967E+04  0.00000000000E+00 0.  1.
</event>
<event>
 4    1  0.3555026E+003  0.2032215E+02  0.7546771E-02  0.1529167E+00
          2   -1    0    0  502    0  0.00000000000E+00  0.00000000000E+00  0.69966810624E+02  0.69966810624E+02  0.00000000000E+00 0. -1.
          1   -1    0    0  501    0 -0.00000000000E+00 -0.00000000000E+00 -0.11991222068E+03  0.11991222068E+03  0.00000000000E+00 0.  1.
          2    1    1    2  501    0  0.43539634251E+01  0.19850263414E+02  0.67600635192E+02  0.70589204794E+02  0.00000000000E+00 0. -1.
          1    1    1    2  502    0 -0.43539634251E+01 -0.19850263414E+02 -0.11754604525E+03  0.11928982651E+03  0.00000000000E+00 0.  1.
</event>
<event>
 4    1  0.3555026E+003  0.4030008E+02  0.7546771E-02  0.1346736E+00
          2   -1    0    0  502    0  0.00000000000E+00  0.00000000000E+00  0.15408733266E+03  0.15408733266E+03  0.00000000000E+00 0.  1.
          1   -1    0    0  501    0 -0.00000000000E+00 -0.00000000000E+00 -0.17105997770E+02  0.17105997770E+02  0.00000000000E+00 0.  1.
          2    1    1    2  501    0 -0.28498841946E+02  0.28494078689E+02  0.12152163676E+03  0.12802970247E+03  0.00000000000E+00 0.  1.
          1    1    1    2  502    0  0.28498841946E+02 -0.28494078689E+02  0.15459698126E+02  0.43163627961E+02  0.00000000000E+00 0.  1.
</event>
<event>
 4    1  0.3555026E+003  0.3940478E+02  0.7546771E-02  0.1352010E+00
          2   -1    0    0  502    0  0.00000000000E+00  0.00000000000E+00  0.14705834429E+04  0.14705834429E+04  0.00000000000E+00 0.  1.
          1   -1    0    0  501    0 -0.00000000000E+00 -0.00000000000E+00 -0.40064494038E+01  0.40064494038E+01  0.00000000000E+00 0.  1.
          2    1    1    2  501    0  0.33829533275E+02  0.20206415494E+02  0.13660142317E+04  0.13665824592E+04  0.00000000000E+00 0.  1.
          1    1    1    2  502    0 -0.33829533275E+02 -0.20206415494E+02  0.10056276181E+03  0.10800743313E+03  0.00000000000E+00 0.  1.
</event>
<event>
 4    1  0.3555026E+003  0.2583718E+02  0.7546771E-02  0.1459652E+00
          2   -1    0    0  502    0  0.00000000000E+00  0.00000000000E+00  0.36718632330E+03  0.36718632330E+03  0.00000000000E+00 0. -1.
          1   -1    0    0  501    0 -0.00000000000E+00 -0.00000000000E+00 -0.25052083088E+02  0.25052083088E+02  0.00000000000E+00 0.  1.
          2    1    1    2  501    0 -0.24822966315E+02  0.71680034086E+01  0.35993607655E+03  0.36086221627E+03  0.00000000000E+00 0. -1.
          1    1    1    2  502    0  0.24822966315E+02 -0.71680034086E+01 -0.17801836336E+02  0.31376190120E+02  0.00000000000E+00 0.  1.
</event>
<event>
 4    1  0.3555026E+003  0.2763761E+02  0.7546771E-02  0.1441306E+00
          2   -1    0    0  502    0  0.00000000000E+00  0.00000000000E+00  0.13552206428E+02  0.13552206428E+02  0.00000000000E+00 0. -1.
          1   -1    0    0  501    0 -0.00000000000E+00 -0.00000000000E+00 -0.23819331133E+03  0.23819331133E+03  0.00000000000E+00 0. -1.
          2    1    1    2  501    0 -0.25315895111E+02 -0.11087958937E+02 -0.23438717678E+01  0.27736818735E+02  0.00000000000E+00 0. -1.
          1    1    1    2  502    0  0.25315895111E+02  0.11087958937E+02 -0.22229723314E+03  0.22400869902E+03  0.00000000000E+00 0. -1.
</event>
<event>
 4    1  0.3555026E+003  0.2537196E+02  0.7546771E-02  0.1464685E+00
          2   -1    0    0  502    0  0.00000000000E+00  0.00000000000E+00  0.35142743185E+02  0.35142743185E+02  0.00000000000E+00 0. -1.
          1   -1    0    0  501    0 -0.00000000000E+00 -0.00000000000E+00 -0.28318868260E+03  0.28318868260E+03  0.00000000000E+00 0. -1.
          2    1    1    2  501    0  0.24906526001E+02  0.48374801717E+01  0.29908960890E+02  0.39220940751E+02  0.00000000000E+00 0. -1.
          1    1    1    2  502    0 -0.24906526001E+02 -0.48374801717E+01 -0.27795490030E+03  0.27911048503E+03  0.00000000000E+00 0. -1.
</event>
<event>
 4    1  0.3555026E+003  0.2305886E+02  0.7546771E-02  0.1491760E+00
          2   -1    0    0  502    0  0.00000000000E+00  0.00000000000E+00  0.72087140081E+03  0.72087140081E+03  0.00000000000E+00 0.  1.
          1   -1    0    0  501    0 -0.00000000000E+00 -0.00000000000E+00 -0.23291655387E+01  0.23291655387E+01  0.00000000000E+00 0. -1.
          2    1    1    2  501    0  0.17295358616E+02  0.15250620742E+02  0.65818190074E+03  0.65858570082E+03  0.00000000000E+00 0.  1.
          1    1    1    2  502    0 -0.17295358616E+02 -0.15250620742E+02  0.60360334540E+02  0.64614865538E+02  0.00000000000E+00 0. -1.
</event>
<event>
 4    1  0.3555026E+003  0.2603196E+02  0.7546771E-02  0.1457582E+00
          2   -1    0    0  502    0  0.00000000000E+00  0.00000000000E+00  0.26783861535E+04  0.26783861535E+04  0.00000000000E+00 0.  1.
          1   -1    0    0  501    0 -0.00000000000E+00 -0.00000000000E+00 -0.28004167723E+00  0.28004167723E+00  0.00000000000E+00 0.  1.
          2    1    1    2  501    0  0.41854257497E+01 -0.25693287108E+02  0.17551560439E+04  0.17553490825E+04  0.00000000000E+00 0.  1.
          1    1    1    2  502    0 -0.41854257497E+01  0.25693287108E+02  0.92295006788E+03  0.92331711269E+03  0.00000000000E+00 0.  1.
</event>
<event>
 4    1  0.3555026E+003  0.2565231E+02  0.7546771E-02  0.1461637E+00
          2   -1    0    0  502    0  0.00000000000E+00  0.00000000000E+00  0.75284274431E+02  0.75284274431E+02  0.00000000000E+00 0. -1.
          1   -1    0    0  501    0 -0.00000000000E+00 -0.00000000000E+00 -0.61013193753E+02  0.61013193753E+02  0.00000000000E+00 0. -1.
          2    1    1    2  501    0 -0.11548100020E+02 -0.22905951362E+02  0.70214177907E+02  0.74753407956E+02  0.00000000000E+00 0. -1.
          1    1    1    2  502    0  0.11548100020E+02  0.22905951362E+02 -0.55943097229E+02  0.61544060229E+02  0.00000000000E+00 0. -1.
</event>
<event>
 4    1  0.3555026E+003  0.2085740E+02  0.7546771E-02  0.1521311E+00
          2   -1    0    0  502    0  0.00000000000E+00  0.00000000000E+00  0.43745778285E+03  0.43745778285E+03  0.00000000000E+00 0. -1.
          1   -1    0    0  501    0 -0.00000000000E+00 -0.00000000000E+00 -0.74675293087E+03  0.74675293087E+03  0.00000000000E+00 0. -1.
          2    1    1    2  501    0  0.18669344415E+02 -0.92998259220E+01  0.43706339733E+03  0.43756078946E+03  0.00000000000E+00 0. -1.
          1    1    1    2  502    0 -0.18669344415E+02  0.92998259220E+01 -0.74635854535E+03  0.74664992426E+03  0.00000000000E+00 0. -1.
</event>
<event>
 4    1  0.3555026E+003  0.2004921E+02  0.7546771E-02  0.1533285E+00
          2   -1    0    0  502    0  0.00000000000E+00  0.00000000000E+00  0.71612787860E+03  0.71612787860E+03  0.00000000000E+00 0.  1.
          1   -1    0    0  501    0 -0.00000000000E+00 -0.00000000000E+00 -0.50775118870E+01  0.50775118870E+01  0.00000000000E+00 0. -1.
          2    1    1    2  501    0  0.28364685838E+01  0.19847553113E+02  0.69561222853E+03  0.69590110174E+03  0.00000000000E+00 0.  1.
          1    1    1    2  502    0 -0.28364685838E+01 -0.19847553113E+02  0.15438138184E+02  0.25304288751E+02  0.00000000000E+00 0. -1.
</event>
<event>
 4    1  0.3555026E+003  0.2013062E+02  0.7546771E-02  0.1532048E+00
          2   -1    0    0  502    0  0.00000000000E+00  0.00000000000E+00  0.10218307300E+04  0.10218307300E+04  0.00000000000E+00 0. -1.
          1   -1    0    0  501    0 -0.00000000000E+00 -0.00000000000E+00 -0.13799493878E+03  0.13799493878E+03  0.00000000000E+00 0. -1.
          2    1    1    2  501    0  0.14556489073E+02  0.13905051180E+02  0.10209968237E+04  0.10211952584E+04  0.00000000000E+00 0. -1.
          1    1    1    2  502    0 -0.14556489073E+02 -0.13905051180E+02 -0.13716103252E+03  0.13863041031E+03  0.00000000000E+00 0. -1.
</event>
<event>
 4    1  0.3555026E+003  0.2437723E+02  0.7546771E-02  0.1475892E+00
          2   -1    0    0  502    0  0.00000000000E+00  0.00000000000E+00  0.18362830592E+01  0.18362830592E+01  0.00000000000E+00 0.  1.
          1   -1    0    0  501    0 -0.00000000000E+00 -0.00000000000E+00 -0.16605449841E+04  0.16605449841E+04  0.00000000000E+00 0.  1.
          2    1    1    2  501    0  0.20922313428E+02 -0.12510244158E+02 -0.83541965557E+02  0.87025912332E+02  0.00000000000E+00 0.  1.
          1    1    1    2  502    0 -0.20922313428E+02  0.12510244158E+02 -0.15751667355E+04  0.15753553549E+04  0.00000000000E+00 0.  1.
</event>
<event>
 4    1  0.3555026E+003  0.6059231E+02  0.7546771E-02  0.1257833E+00
          2   -1    0    0  502    0  0.00000000000E+00  0.00000000000E+00  0.34170326419E+01  0.34170326419E+01  0.00000000000E+00 0.  1.
          1   -1    0    0  501    0 -0.00000000000E+00 -0.00000000000E+00 -0.15062351796E+04  0.15062351796E+04  0.00000000000E+00 0.  1.
          2    1    1    2  501    0  0.49951841225E+02  0.34296323222E+02 -0.11555523334E+04  0.11571398444E+04  0.00000000000E+00 0.  1.
          1    1    1    2  502    0 -0.49951841225E+02 -0.34296323222E+02 -0.34726581352E+03  0.35251236782E+03  0.00000000000E+00 0.  1.
</event>
<event>
 4    1  0.3555026E+003  0.2291917E+02  0.7546771E-02  0.1493516E+00
          2   -1    0    0  502    0  0.00000000000E+00  0.00000000000E+00  0.50207807713E+03  0.50207807713E+03  0.00000000000E+00 0.  1.
          1   -1    0    0  501    0 -0.00000000000E+00 -0.00000000000E+00 -0.76760673250E+01  0.76760673250E+01  0.00000000000E+00 0. -1.
          2    1    1    2  501    0 -0.19234375477E+02  0.12463029208E+02  0.48407253954E+03  0.48461480769E+03  0.00000000000E+00 0.  1.
          1    1    1    2  502    0  0.19234375477E+02 -0.12463029208E+02  0.10329470267E+02  0.25139336765E+02  0.00000000000E+00 0. -1.
</event>
<event>
 4    1  0.3555026E+003  0.2611325E+02  0.7546771E-02  0.1456725E+00
          2   -1    0    0  502    0  0.00000000000E+00  0.00000000000E+00  0.12124168299E+04  0.12124168299E+04  0.00000000000E+00 0.  1.
          1   -1    0    0  501    0 -0.00000000000E+00 -0.00000000000E+00 -0.58007118884E+01  0.58007118884E+01  0.00000000000E+00 0. -1.
          2    1    1    2  501    0  0.12383111417E+02 -0.22990435682E+02  0.11821347783E+04  0.11824231627E+04  0.00000000000E+00 0.  1.
          1    1    1    2  502    0 -0.12383111417E+02  0.22990435682E+02  0.24481339699E+02  0.35794379093E+02  0.00000000000E+00 0. -1.
</event>
<event>
 4    1  0.3555026E+003  0.2459820E+02  0.7546771E-02  0.1473349E+00
          2   -1    0    0  502    0  0.00000000000E+00  0.00000000000E+00  0.19264185909E+02  0.19264185909E+02  0.00000000000E+00 0. -1.
          1   -1    0    0  501    0 -0.00000000000E+00 -0.00000000000E+00 -0.83567506619E+02  0.83567506619E+02  0.00000000000E+00 0. -1.
          2    1    1    2  501    0 -0.29325458323E+01 -0.24422764429E+02  0.84683766471E+01  0.26015085056E+02  0.00000000000E+00 0. -1.
          1    1    1    2  502    0  0.29325458323E+01  0.24422764429E+02 -0.72771697357E+02  0.76816607473E+02  0.00000000000E+00 0. -1.
</event>
<event>
 4    1  0.3555026E+003  0.2211929E+02  0.7546771E-02  0.1503864E+00
          2   -1    0    0  502    0  0.00000000000E+00  0.00000000000E+00  0.36432506464E+00  0.36432506464E+00  0.00000000000E+00 0. -1.
          1   -1    0    0  501    0 -0.00000000000E+00 -0.00000000000E+00 -0.13900926997E+04  0.13900926997E+04  0.00000000000E+00 0. -1.
          2    1    1    2  501    0 -0.15716816033E+02  0.15564208062E+02 -0.56680601480E+03  0.56723744702E+03  0.00000000000E+00 0. -1.
          1    1    1    2  502    0  0.15716816033E+02 -0.15564208062E+02 -0.82292235981E+03  0.82321957772E+03  0.00000000000E+00 0. -1.
</event>
<event>
 4    1  0.3555026E+003  0.3188388E+02  0.7546771E-02  0.1403902E+00
          2   -1    0    0  502    0  0.00000000000E+00  0.00000000000E+00  0.46025832432E+03  0.46025832432E+03  0.00000000000E+00 0. -1.
          1   -1    0    0  501    0 -0.00000000000E+00 -0.00000000000E+00 -0.41231020374E+02  0.41231020374E+02  0.00000000000E+00 0.  1.
          2    1    1    2  501    0 -0.16141596757E+02  0.27496016503E+02  0.45344976704E+03  0.45456932728E+03  0.00000000000E+00 0. -1.
          1    1    1    2  502    0  0.16141596757E+02 -0.27496016503E+02 -0.34422463093E+02  0.46920017422E+02  0.00000000000E+00 0.  1.
</event>
<event>
 4    1  0.3555026E+003  0.2125051E+02  0.7546771E-02  0.1515718E+00
          2   -1    0    0  502    0  0.00000000000E+00  0.00000000000E+00  0.10940390144E+03  0.10940390144E+03  0.00000000000E+00 0.  1.
          1   -1    0    0  501    0 -0.00000000000E+00 -0.00000000000E+00 -0.10780760217E+04  0.10780760217E+04  0.00000000000E+00 0.  1.
          2    1    1    2  501    0  0.79007564677E+01  0.19727195653E+02  0.10826617166E+03  0.11033199050E+03  0.00000000000E+00 0.  1.
          1    1    1    2  502    0 -0.79007564677E+01 -0.19727195653E+02 -0.10769382919E+04  0.10771479326E+04  0.00000000000E+00 0.  1.
</event>
<event>
 4    1  0.3555026E+003  0.2413431E+02  0.7546771E-02  0.1478725E+00
          2   -1    0    0  502    0  0.00000000000E+00  0.00000000000E+00  0.29500223093E+03  0.29500223093E+03  0.00000000000E+00 0. -1.
          1   -1    0    0  501    0 -0.00000000000E+00 -0.00000000000E+00 -0.20352663453E+01  0.20352663453E+01  0.00000000000E+00 0. -1.
          2    1    1    2  501    0  0.24020323866E+02 -0.23428788149E+01  0.17215824351E+03  0.17384166891E+03  0.00000000000E+00 0. -1.
          1    1    1    2  502    0 -0.24020323866E+02  0.23428788149E+01  0.12080872107E+03  0.12319582836E+03  0.00000000000E+00 0. -1.
</event>
<event>
 4    1  0.3555026E+003  0.2067731E+02  0.7546771E-02  0.1523922E+00
          2   -1    0    0  502    0  0.00000000000E+00  0.00000000000E+00  0.74220040382E+02  0.74220040382E+02  0.00000000000E+00 0. -1.
          1   -1    0    0  501    0 -0.00000000000E+00 -0.00000000000E+00 -0.99708481334E+03  0.99708481334E+03  0.00000000000E+00 0. -1.
          2    1    1    2  501    0 -0.20667896122E+02  0.62382534669E+00  0.72670451651E+02  0.75554917983E+02  0.00000000000E+00 0. -1.
          1    1    1    2  502    0  0.20667896122E+02 -0.62382534669E+00 -0.99553522461E+03  0.99574993574E+03  0.00000000000E+00 0. -1.
</event>
<event>
 4    1  0.3555026E+003  0.2227496E+02  0.7546771E-02  0.1501809E+00
          2   -1    0    0  502    0  0.00000000000E+00  0.00000000000E+00  0.15650907224E+01  0.15650907224E+01  0.00000000000E+00 0.  1.
          1   -1    0    0  501    0 -0.00000000000E+00 -0.00000000000E+00 -0.40671553166E+03  0.40671553166E+03  0.00000000000E+00 0.  1.
          2    1    1    2  501    0  0.76425838793E+01 -0.20922832027E+02 -0.10671134371E+03  0.10901139787E+03  0.00000000000E+00 0.  1.
          1    1    1    2  502    0 -0.76425838793E+01  0.20922832027E+02 -0.29843909722E+03  0.29926922451E+03  0.00000000000E+00 0.  1.
</event>
<event>
 4    1  0.3555026E+003  0.2109062E+02  0.7546771E-02  0.1517975E+00
          2   -1    0    0  502    0  0.00000000000E+00  0.00000000000E+00  0.15246458465E+03  0.15246458465E+03  0.00000000000E+00 0.  1.
          1   -1    0    0  501    0 -0.00000000000E+00 -0.00000000000E+00 -0.14529603565E+04  0.14529603565E+04  0.00000000000E+00 0.  1.
          2    1    1    2  501    0  0.20265315982E+02 -0.58421853254E+01  0.15165827092E+03  0.15311774978E+03  0.00000000000E+00 0.  1.
          1    1    1    2  502    0 -0.20265315982E+02  0.58421853254E+01 -0.14521540427E+04  0.14523071913E+04  0.00000000000E+00 0.  1.
</event>
<event>
 4    1  0.3555026E+003  0.2217474E+02  0.7546771E-02  0.1503129E+00
          2   -1    0    0  502    0  0.00000000000E+00  0.00000000000E+00  0.73868982100E+03  0.73868982100E+03  0.00000000000E+00 0. -1.
          1   -1    0    0  501    0 -0.00000000000E+00 -0.00000000000E+00 -0.52720718640E+03  0.52720718640E+03  0.00000000000E+00 0. -1.
          2    1    1    2  501    0 -0.16944374843E+02  0.14304093704E+02  0.73829010730E+03  0.73862304424E+03  0.00000000000E+00 0. -1.
          1    1    1    2  502    0  0.16944374843E+02 -0.14304093704E+02 -0.52680747270E+03  0.52727396316E+03  0.00000000000E+00 0. -1.
</event>
<event>
 4    1  0.3555026E+003  0.2651620E+02  0.7546771E-02  0.1452529E+00
          2   -1    0    0  502    0  0.00000000000E+00  0.00000000000E+00  0.31234096810E+03  0.31234096810E+03  0.00000000000E+00 0.  1.
          1   -1    0    0  501    0 -0.00000000000E+00 -0.00000000000E+00 -0.26497788823E+03  0.26497788823E+03  0.00000000000E+00 0. -1.
          2    1    1    2  501    0 -0.92508644110E+01 -0.24850162715E+02  0.31111221338E+03  0.31224016140E+03  0.00000000000E+00 0.  1.
          1    1    1    2  502    0  0.92508644110E+01  0.24850162715E+02 -0.26374913351E+03  0.26507869493E+03  0.00000000000E+00 0. -1.
</event>
<event>
 4    1  0.3555026E+003  0.2153732E+02  0.7546771E-02  0.1511730E+00
          2   -1    0    0  502    0  0.00000000000E+00  0.00000000000E+00  0.22798669460E+03  0.22798669460E+03  0.00000000000E+00 0. -1.
          1   -1    0    0  501    0 -0.00000000000E+00 -0.00000000000E+00 -0.41375986274E+01  0.41375986274E+01  0.00000000000E+00 0.  1.
          2    1    1    2  501    0 -0.34596245320E+01 -0.21257632699E+02  0.19466893274E+03  0.19585670610E+03  0.00000000000E+00 0. -1.
          1    1    1    2  502    0  0.34596245320E+01  0.21257632699E+02  0.29180163234E+02  0.36267587129E+02  0.00000000000E+00 0.  1.
</event>
<event>
 4    1  0.3555026E+003  0.5591186E+02  0.7546771E-02  0.1274393E+00
          2   -1    0    0  502    0  0.00000000000E+00  0.00000000000E+00  0.22654464753E+03  0.22654464753E+03  0.00000000000E+00 0. -1.
          1   -1    0    0  501    0 -0.00000000000E+00 -0.00000000000E+00 -0.17587216180E+02  0.17587216180E+02  0.00000000000E+00 0. -1.
          2    1    1    2  501    0 -0.52026821688E+02  0.20477947489E+02  0.16112891284E+03  0.17055398870E+03  0.00000000000E+00 0. -1.
          1    1    1    2  502    0  0.52026821688E+02 -0.20477947489E+02  0.47828518514E+02  0.73577875014E+02  0.00000000000E+00 0. -1.
</event>
<event>
 4    1  0.3555026E+003  0.2377367E+02  0.7546771E-02  0.1483005E+00
          2   -1    0    0  502    0  0.00000000000E+00  0.00000000000E+00  0.73677056325E+03  0.73677056325E+03  0.00000000000E+00 0.  1.
          1   -1    0    0  501    0 -0.00000000000E+00 -0.00000000000E+00 -0.16522485375E+02  0.16522485375E+02  0.00000000000E+00 0.  1.
          2    1    1    2  501    0  0.43154161302E+01 -0.23378721612E+02  0.72792307810E+03  0.72831119384E+03  0.00000000000E+00 0.  1.
          1    1    1    2  502    0 -0.43154161302E+01  0.23378721612E+02 -0.76750002173E+01  0.24981854794E+02  0.00000000000E+00 0.  1.
</event>
<event>
 4    1  0.3555026E+003  0.2267325E+02  0.7546771E-02  0.1496642E+00
          2   -1    0    0  502    0  0.00000000000E+00  0.00000000000E+00  0.39229847055E+03  0.39229847055E+03  0.00000000000E+00 0.  1.
          1   -1    0    0  501    0 -0.00000000000E+00 -0.00000000000E+00 -0.60040241719E+03  0.60040241719E+03  0.00000000000E+00 0. -1.
          2    1    1    2  501    0 -0.85138726058E+01 -0.21014050097E+02  0.39175651441E+03  0.39241208304E+03  0.00000000000E+00 0.  1.
          1    1    1    2  502    0  0.85138726058E+01  0.21014050097E+02 -0.59986046105E+03  0.60028880471E+03  0.00000000000E+00 0. -1.
</event>
<event>
 4    1  0.3555026E+003  0.3755970E+02  0.7546771E-02  0.1363411E+00
          2   -1    0    0  502    0  0.00000000000E+00  0.00000000000E+00  0.17509326163E+03  0.17509326163E+03  0.00000000000E+00 0.  1.
          1   -1    0    0  501    0 -0.00000000000E+00 -0.00000000000E+00 -0.87472793740E+01  0.87472793740E+01  0.00000000000E+00 0. -1.
          2    1    1    2  501    0  0.28089960691E+02  0.24933621131E+02  0.10899430628E+03  0.11528438817E+03  0.00000000000E+00 0.  1.
          1    1    1    2  502    0 -0.28089960691E+02 -0.24933621131E+02  0.57351675984E+02  0.68556152841E+02  0.00000000000E+00 0. -1.
</event>
<event>
 4    1  0.3555026E+003  0.2081689E+02  0.7546771E-02  0.1521895E+00
          2   -1    0    0  502    0  0.00000000000E+00  0.00000000000E+00  0.74620581314E+02  0.74620581314E+02  0.00000000000E+00 0.  1.
          1   -1    0    0  501    0 -0.00000000000E+00 -0.00000000000E+00 -0.18742709978E+02  0.18742709978E+02  0.00000000000E+00 0.  1.
          2    1    1    2  501    0  0.19636529591E+02 -0.69101205983E+01  0.66720051279E+02  0.69892119038E+02  0.00000000000E+00 0.  1.
          1    1    1    2  502    0 -0.19636529591E+02  0.69101205983E+01 -0.10842179942E+02  0.23471172253E+02  0.00000000000E+00 0.  1.
</event>
<event>
 4    1  0.3555026E+003  0.2646711E+02  0.7546771E-02  0.1453036E+00
          2   -1    0    0  502    0  0.00000000000E+00  0.00000000000E+00  0.20894423738E+01  0.20894423738E+01  0.00000000000E+00 0. -1.
          1   -1    0    0  501    0 -0.00000000000E+00 -0.00000000000E+00 -0.33644864356E+03  0.33644864356E+03  0.00000000000E+00 0. -1.
          2    1    1    2  501    0  0.49739577980E+01 -0.25995528424E+02 -0.15712117689E+03  0.15933477957E+03  0.00000000000E+00 0. -1.
          1    1    1    2  502    0 -0.49739577980E+01  0.25995528424E+02 -0.17723802429E+03  0.17920330636E+03  0.00000000000E+00 0. -1.
</event>
<event>
 4    1  0.3555026E+003  0.2787884E+02  0.7546771E-02  0.1438974E+00
          2   -1    0    0  502    0  0.00000000000E+00  0.00000000000E+00  0.32125370503E+01  0.32125370503E+01  0.00000000000E+00 0. -1.
          1   -1    0    0  501    0 -0.00000000000E+00 -0.00000000000E+00 -0.15134586808E+04  0.15134586808E+04  0.00000000000E+00 0.  1.
          2    1    1    2  501    0 -0.61493713640E+01 -0.27192187945E+02 -0.60037711576E+02  0.66194838656E+02  0.00000000000E+00 0. -1.
          1    1    1    2  502    0  0.61493713640E+01  0.27192187945E+02 -0.14502084322E+04  0.14504763792E+04  0.00000000000E+00 0.  1.
</event>
<event>
 4    1  0.3555026E+003  0.3281958E+02  0.7546771E-02  0.1396576E+00
          2   -1    0    0  502    0  0.00000000000E+00  0.00000000000E+00  0.10715814457E+03  0.10715814457E+03  0.00000000000E+00 0. -1.
          1   -1    0    0  501    0 -0.00000000000E+00 -0.00000000000E+00 -0.13930911439E+03  0.13930911439E+03  0.00000000000E+00 0.  1.
          2    1    1    2  501    0  0.26822434068E+02 -0.18912475386E+02  0.10262900776E+03  0.10774895790E+03  0.00000000000E+00 0. -1.
          1    1    1    2  502    0 -0.26822434068E+02  0.18912475386E+02 -0.13477997757E+03  0.13871830106E+03  0.00000000000E+00 0.  1.
</event>
<event>
 4    1  0.3555026E+003  0.6662256E+02  0.7546771E-02  0.1238852E+00
          2   -1    0    0  502    0  0.00000000000E+00  0.00000000000E+00  0.52944217143E+03  0.52944217143E+03  0.00000000000E+00 0. -1.
          1   -1    0    0  501    0 -0.00000000000E+00 -0.00000000000E+00 -0.63886110300E+03  0.63886110300E+03  0.00000000000E+00 0.  1.
          2    1    1    2  501    0 -0.53330319093E+02  0.39930465815E+02  0.52559674032E+03  0.52980232018E+03  0.00000000000E+00 0. -1.
          1    1    1    2  502    0  0.53330319093E+02 -0.39930465815E+02 -0.63501567188E+03  0.63850095425E+03  0.00000000000E+00 0.  1.
</event>
<event>
 4    1  0.3555026E+003  0.2656658E+02  0.7546771E-02  0.1452011E+00
          2   -1    0    0  502    0  0.00000000000E+00  0.00000000000E+00  0.29476018877E+03  0.29476018877E+03  0.00000000000E+00 0.  1.
          1   -1    0    0  501    0 -0.00000000000E+00 -0.00000000000E+00 -0.47695319739E+01  0.47695319739E+01  0.00000000000E+00 0.  1.
          2    1    1    2  501    0 -0.17073490858E+02 -0.20353842480E+02  0.25068025834E+03  0.25208406319E+03  0.00000000000E+00 0.  1.
          1    1    1    2  502    0  0.17073490858E+02  0.20353842480E+02  0.39310398456E+02  0.47445657553E+02  0.00000000000E+00 0.  1.
</event>
<event>
 4    1  0.3555026E+003  0.4151495E+02  0.7546771E-02  0.1339830E+00
          2   -1    0    0  502    0  0.00000000000E+00  0.00000000000E+00  0.11506635847E+03  0.11506635847E+03  0.00000000000E+00 0.  1.
          1   -1    0    0  501    0 -0.00000000000E+00 -0.00000000000E+00 -0.17390214555E+02  0.17390214555E+02  0.00000000000E+00 0. -1.
          2    1    1    2  501    0 -0.14862590515E+02  0.38763316417E+02  0.73502871777E+02  0.84416606517E+02  0.00000000000E+00 0.  1.
          1    1    1    2  502    0  0.14862590515E+02 -0.38763316417E+02  0.24173272143E+02  0.48039966513E+02  0.00000000000E+00 0. -1.
</event>
<event>
 4    1  0.3555026E+003  0.2390869E+02  0.7546771E-02  0.1481392E+00
          2   -1    0    0  502    0  0.00000000000E+00  0.00000000000E+00  0.62944507659E+03  0.62944507659E+03  0.00000000000E+00 0. -1.
          1   -1    0    0  501    0 -0.00000000000E+00 -0.00000000000E+00 -0.49360025924E+02  0.49360025924E+02  0.00000000000E+00 0. -1.
          2    1    1    2  501    0 -0.23047630146E+02  0.63586176215E+01  0.62630836343E+03  0.62676454222E+03  0.00000000000E+00 0. -1.
          1    1    1    2  502    0  0.23047630146E+02 -0.63586176215E+01 -0.46223312764E+02  0.52040560300E+02  0.00000000000E+00 0. -1.
</event>
<event>
 4    1  0.3555026E+003  0.2502690E+02  0.7546771E-02  0.1468503E+00
          2   -1    0    0  502    0  0.00000000000E+00  0.00000000000E+00  0.76281683215E+03  0.76281683215E+03  0.00000000000E+00 0. -1.
          1   -1    0    0  501    0 -0.00000000000E+00 -0.00000000000E+00 -0.44329721915E+01  0.44329721915E+01  0.00000000000E+00 0. -1.
          2    1    1    2  501    0  0.45331961984E+01 -0.24612922721E+02  0.72547058029E+03  0.72590213438E+03  0.00000000000E+00 0. -1.
          1    1    1    2  502    0 -0.45331961984E+01  0.24612922721E+02  0.32913279668E+02  0.41347669960E+02  0.00000000000E+00 0. -1.
</event>
<event>
 4    1  0.3555026E+003  0.4540273E+02  0.7546771E-02  0.1319438E+00
          2   -1    0    0  502    0  0.00000000000E+00  0.00000000000E+00  0.35429658237E+03  0.35429658237E+03  0.00000000000E+00 0.  1.
          1   -1    0    0  501    0 -0.00000000000E+00 -0.00000000000E+00 -0.65303403185E+02  0.65303403185E+02  0.00000000000E+00 0.  1.
          2    1    1    2  501    0  0.27014534516E+02  0.36491408746E+02  0.34473234394E+03  0.34770935700E+03  0.00000000000E+00 0.  1.
          1    1    1    2  502    0 -0.27014534516E+02 -0.36491408746E+02 -0.55739164751E+02  0.71890628558E+02  0.00000000000E+00 0.  1.
</event>
<event>
 4    1  0.3555026E+003  0.2045711E+02  0.7546771E-02  0.1527159E+00
          2   -1    0    0  502    0  0.00000000000E+00  0.00000000000E+00  0.57433983291E+03  0.57433983291E+03  0.00000000000E+00 0. -1.
          1   -1    0    0  501    0 -0.00000000000E+00 -0.00000000000E+00 -0.85836632856E+00  0.85836632856E+00  0.00000000000E+00 0. -1.
          2    1    1    2  501    0 -0.18173574388E+02  0.93922423642E+01  0.17493923461E+03  0.17613128294E+03  0.00000000000E+00 0. -1.
          1    1    1    2  502    0  0.18173574388E+02 -0.93922423642E+01  0.39854223197E+03  0.39906691630E+03  0.00000000000E+00 0. -1.
</event>
<event>
 4    1  0.3555026E+003  0.3452421E+02  0.7546771E-02  0.1383939E+00
          2   -1    0    0  502    0  0.00000000000E+00  0.00000000000E+00  0.10672796692E+03  0.10672796692E+03  0.00000000000E+00 0.  1.
          1   -1    0    0  501    0 -0.00000000000E+00 -0.00000000000E+00 -0.50696683286E+03  0.50696683286E+03  0.00000000000E+00 0.  1.
          2    1    1    2  501    0  0.12587051459E+02  0.32147891923E+02  0.10332941573E+03  0.10894443067E+03  0.00000000000E+00 0.  1.
          1    1    1    2  502    0 -0.12587051459E+02 -0.32147891923E+02 -0.50356828167E+03  0.50475036911E+03  0.00000000000E+00 0.  1.
</event>
<event>
 4    1  0.3555026E+003  0.2479540E+02  0.7546771E-02  0.1471105E+00
          2   -1    0    0  502    0  0.00000000000E+00  0.00000000000E+00  0.30354958416E+02  0.30354958416E+02  0.00000000000E+00 0. -1.
          1   -1    0    0  501    0 -0.00000000000E+00 -0.00000000000E+00 -0.25115546413E+02  0.25115546413E+02  0.00000000000E+00 0. -1.
          2    1    1    2  501    0 -0.18038151836E+02 -0.17012840152E+02  0.14822087694E+02  0.28887816382E+02  0.00000000000E+00 0. -1.
          1    1    1    2  502    0  0.18038151836E+02  0.17012840152E+02 -0.95826756909E+01  0.26582688447E+02  0.00000000000E+00 0. -1.
</event>
<event>
 4    1  0.3555026E+003  0.2743482E+02  0.7546771E-02  0.1443288E+00
          2   -1    0    0  502    0  0.00000000000E+00  0.00000000000E+00  0.30472232359E+03  0.30472232359E+03  0.00000000000E+00 0. -1.
          1   -1    0    0  501    0 -0.00000000000E+00 -0.00000000000E+00 -0.25460016869E+01  0.25460016869E+01  0.00000000000E+00 0. -1.
          2    1    1    2  501    0  0.26369186062E+02 -0.75720204441E+01  0.17762933370E+03  0.17973549916E+03  0.00000000000E+00 0. -1.
          1    1    1    2  502    0 -0.26369186062E+02  0.75720204441E+01  0.12454698820E+03  0.12753282611E+03  0.00000000000E+00 0. -1.
</event>
<event>
 4    1  0.3555026E+003  0.2413274E+02  0.7546771E-02  0.1478744E+00
          2   -1    0    0  502    0  0.00000000000E+00  0.00000000000E+00  0.59108357933E+02  0.59108357933E+02  0.00000000000E+00 0.  1.
          1   -1    0    0  501    0 -0.00000000000E+00 -0.00000000000E+00 -0.11263621146E+02  0.11263621146E+02  0.00000000000E+00 0.  1.
          2    1    1    2  501    0 -0.14300214390E+02  0.19439466674E+02  0.36374699863E+02  0.43652122357E+02  0.00000000000E+00 0.  1.
          1    1    1    2  502    0  0.14300214390E+02 -0.19439466674E+02  0.11470036924E+02  0.26719856722E+02  0.00000000000E+00 0.  1.
</event>
<event>
 4    1  0.3555026E+003  0.3843282E+02  0.7546771E-02  0.1357922E+00
          2   -1    0    0  502    0  0.00000000000E+00  0.00000000000E+00  0.17893961512E+01  0.17893961512E+01  0.00000000000E+00 0.  1.
          1   -1    0    0  501    0 -0.00000000000E+00 -0.00000000000E+00 -0.18890578821E+04  0.18890578821E+04  0.00000000000E+00 0. -1.
          2    1    1    2  501    0  0.37306123442E+01  0.38251326830E+02 -0.23423321763E+03  0.23736529172E+03  0.00000000000E+00 0.  1.
          1    1    1    2  502    0 -0.37306123442E+01 -0.38251326830E+02 -0.16530352683E+04  0.16534819865E+04  0.00000000000E+00 0. -1.
</event>
<event>
 4    1  0.3555026E+003  0.2408969E+02  0.7546771E-02  0.1479250E+00
          2   -1    0    0  502    0  0.00000000000E+00  0.00000000000E+00  0.19649086663E+03  0.19649086663E+03  0.00000000000E+00 0. -1.
          1   -1    0    0  501    0 -0.00000000000E+00 -0.00000000000E+00 -0.36217944664E+03  0.36217944664E+03  0.00000000000E+00 0. -1.
          2    1    1    2  501    0 -0.46489103175E+01  0.23636856870E+02  0.19534961846E+03  0.19682933420E+03  0.00000000000E+00 0. -1.
          1    1    1    2  502    0  0.46489103175E+01 -0.23636856870E+02 -0.36103819848E+03  0.36184097907E+03  0.00000000000E+00 0. -1.
</event>
<event>
 4    1  0.3555026E+003  0.3606203E+02  0.7546771E-02  0.1373247E+00
          2   -1    0    0  502    0  0.00000000000E+00  0.00000000000E+00  0.70376503970E+01  0.70376503970E+01  0.00000000000E+00 0.  1.
          1   -1    0    0  501    0 -0.00000000000E+00 -0.00000000000E+00 -0.40401172683E+03  0.40401172683E+03  0.00000000000E+00 0.  1.
          2    1    1    2  501    0 -0.28328516627E+02 -0.22315138409E+02 -0.47092145061E+02  0.59313913907E+02  0.00000000000E+00 0.  1.
          1    1    1    2  502    0  0.28328516627E+02  0.22315138409E+02 -0.34988193137E+03  0.35173546332E+03  0.00000000000E+00 0.  1.
</event>
<event>
 4    1  0.3555026E+003  0.2273817E+02  0.7546771E-02  0.1495812E+00
          2   -1    0    0  502    0  0.00000000000E+00  0.00000000000E+00  0.44980832427E+03  0.44980832427E+03  0.00000000000E+00 0.  1.
          1   -1    0    0  501    0 -0.00000000000E+00 -0.00000000000E+00 -0.11494336384E+01  0.11494336384E+01  0.00000000000E+00 0.  1.
          2    1    1    2  501    0 -0.21832976186E+02 -0.63517644626E+01  0.22400692684E+03  0.22515800460E+03  0.00000000000E+00 0.  1.
          1    1    1    2  502    0  0.21832976186E+02  0.63517644626E+01  0.22465196379E+03  0.22579975331E+03  0.00000000000E+00 0.  1.
</event>
<event>
 4    1  0.3555026E+003  0.3296885E+02  0.7546771E-02  0.1395434E+00
          2   -1    0    0  502    0  0.00000000000E+00  0.00000000000E+00  0.50539506394E+02  0.50539506394E+02  0.00000000000E+00 0. -1.
          1   -1    0    0  501    0 -0.00000000000E+00 -0.00000000000E+00 -0.28894068420E+02  0.28894068420E+02  0.00000000000E+00 0. -1.
          2    1    1    2  501    0  0.32650869617E+02 -0.45678881805E+01  0.30904888908E+02  0.45189125325E+02  0.00000000000E+00 0. -1.
          1    1    1    2  502    0 -0.32650869617E+02  0.45678881805E+01 -0.92594509336E+01  0.34244449489E+02  0.00000000000E+00 0. -1.
</event>
<event>
 4    1  0.3555026E+003  0.2953463E+02  0.7546771E-02  0.1423684E+00
          2   -1    0    0  502    0  0.00000000000E+00  0.00000000000E+00  0.12189927320E+04  0.12189927320E+04  0.00000000000E+00 0.  1.
          1   -1    0    0  501    0 -0.00000000000E+00 -0.00000000000E+00 -0.18987221106E+03  0.18987221106E+03  0.00000000000E+00 0. -1.
          2    1    1    2  501    0 -0.59417859142E+00  0.29528652814E+02  0.12176640542E+04  0.12180221850E+04  0.00000000000E+00 0.  1.
          1    1    1    2  502    0  0.59417859142E+00 -0.29528652814E+02 -0.18854353322E+03  0.19084275806E+03  0.00000000000E+00 0. -1.
</event>
<event>
 4    1  0.3555026E+003  0.3606388E+02  0.7546771E-02  0.1373234E+00
          2   -1    0    0  502    0  0.00000000000E+00  0.00000000000E+00  0.49814168981E+01  0.49814168981E+01  0.00000000000E+00 0.  1.
          1   -1    0    0  501    0 -0.00000000000E+00 -0.00000000000E+00 -0.42955711437E+03  0.42955711437E+03  0.00000000000E+00 0.  1.
          2    1    1    2  501    0 -0.14807519414E+02 -0.32883749420E+02 -0.76223611416E+02  0.84324625967E+02  0.00000000000E+00 0.  1.
          1    1    1    2  502    0  0.14807519414E+02  0.32883749420E+02 -0.34835208606E+03  0.35021390530E+03  0.00000000000E+00 0.  1.
</event>
<event>
 4    1  0.3555026E+003  0.3058160E+02  0.7546771E-02  0.1414608E+00
          2   -1    0    0  502    0  0.00000000000E+00  0.00000000000E+00  0.18679745230E+04  0.18679745230E+04  0.00000000000E+00 0.  1.
          1   -1    0    0  501    0 -0.00000000000E+00 -0.00000000000E+00 -0.43555400961E+02  0.43555400961E+02  0.00000000000E+00 0.  1.
          2    1    1    2  501    0  0.24999719447E+02 -0.17613858740E+02  0.18624654073E+04  0.18627164646E+04  0.00000000000E+00 0.  1.
          1    1    1    2  502    0 -0.24999719447E+02  0.17613858740E+02 -0.38046285281E+02  0.48813459371E+02  0.00000000000E+00 0.  1.
</event>
<event>
 4    1  0.3555026E+003  0.2670052E+02  0.7546771E-02  0.1450640E+00
          2   -1    0    0  502    0  0.00000000000E+00  0.00000000000E+00  0.18585153034E+04  0.18585153034E+04  0.00000000000E+00 0.  1.
          1   -1    0    0  501    0 -0.00000000000E+00 -0.00000000000E+00 -0.39298006805E+00  0.39298006805E+00  0.00000000000E+00 0.  1.
          2    1    1    2  501    0 -0.54393753894E+01  0.26140595712E+02  0.10726950110E+04  0.10730272616E+04  0.00000000000E+00 0.  1.
          1    1    1    2  502    0  0.54393753894E+01 -0.26140595712E+02  0.78542731235E+03  0.78588102187E+03  0.00000000000E+00 0.  1.
</event>
<event>
 4    1  0.3555026E+003  0.2136037E+02  0.7546771E-02  0.1514182E+00
          2   -1    0    0  502    0  0.00000000000E+00  0.00000000000E+00  0.26369514899E+03  0.26369514899E+03  0.00000000000E+00 0.  1.
          1   -1    0    0  501    0 -0.00000000000E+00 -0.00000000000E+00 -0.41322835473E+02  0.41322835473E+02  0.00000000000E+00 0.  1.
          2    1    1    2  501    0 -0.95973622656E+01 -0.19082868279E+02  0.26046806795E+03  0.26134245665E+03  0.00000000000E+00 0.  1.
          1    1    1    2  502    0  0.95973622656E+01  0.19082868279E+02 -0.38095754433E+02  0.43675527816E+02  0.00000000000E+00 0.  1.
</event>
<event>
 4    1  0.3555026E+003  0.2201972E+02  0.7546771E-02  0.1505189E+00
          2   -1    0    0  502    0  0.00000000000E+00  0.00000000000E+00  0.41998110571E+03  0.41998110571E+03  0.00000000000E+00 0. -1.
          1   -1    0    0  501    0 -0.00000000000E+00 -0.00000000000E+00 -0.48321815247E+01  0.48321815247E+01  0.00000000000E+00 0. -1.
          2    1    1    2  501    0 -0.22005975844E+02  0.77779334240E+00  0.39287793997E+03  0.39349452811E+03  0.00000000000E+00 0. -1.
          1    1    1    2  502    0  0.22005975844E+02 -0.77779334240E+00  0.22270984213E+02  0.31318759125E+02  0.00000000000E+00 0. -1.
</event>
<event>
 4    1  0.3555026E+003  0.2655629E+02  0.7546771E-02  0.1452117E+00
          2   -1    0    0  502    0  0.00000000000E+00  0.00000000000E+00  0.12214107974E+03  0.12214107974E+03  0.00000000000E+00 0. -1.
          1   -1    0    0  501    0 -0.00000000000E+00 -0.00000000000E+00 -0.98394898787E+01  0.98394898787E+01  0.00000000000E+00 0.  1.
          2    1    1    2  501    0  0.44312022057E+01 -0.26183981817E+02  0.98569053699E+02  0.10208376366E+03  0.00000000000E+00 0. -1.
          1    1    1    2  502    0 -0.44312022057E+01  0.26183981817E+02  0.13732536161E+02  0.29896805953E+02  0.00000000000E+00 0.  1.
</event>
<event>
 4    1  0.3555026E+003  0.2463093E+02  0.7546771E-02  0.1472975E+00
          2   -1    0    0  502    0  0.00000000000E+00  0.00000000000E+00  0.29528888856E+02  0.29528888856E+02  0.00000000000E+00 0. -1.
          1   -1    0    0  501    0 -0.00000000000E+00 -0.00000000000E+00 -0.10124621045E+03  0.10124621045E+03  0.00000000000E+00 0. -1.
          2    1    1    2  501    0  0.18511781174E+02 -0.16247979105E+02  0.22518721832E+02  0.33373278235E+02  0.00000000000E+00 0. -1.
          1    1    1    2  502    0 -0.18511781174E+02  0.16247979105E+02 -0.94236043422E+02  0.97401821066E+02  0.00000000000E+00 0. -1.
</event>
<event>
 4    1  0.3555026E+003  0.2176215E+02  0.7546771E-02  0.1508656E+00
          2   -1    0    0  502    0  0.00000000000E+00  0.00000000000E+00  0.78462807547E+03  0.78462807547E+03  0.00000000000E+00 0.  1.
          1   -1    0    0  501    0 -0.00000000000E+00 -0.00000000000E+00 -0.12924104895E+02  0.12924104895E+02  0.00000000000E+00 0.  1.
          2    1    1    2  501    0 -0.17746597473E+02 -0.12595611472E+02  0.77520483646E+03  0.77551023824E+03  0.00000000000E+00 0.  1.
          1    1    1    2  502    0  0.17746597473E+02  0.12595611472E+02 -0.35008658908E+01  0.22041942116E+02  0.00000000000E+00 0.  1.
</event>
<event>
 4    1  0.3555026E+003  0.2997432E+02  0.7546771E-02  0.1419820E+00
          2   -1    0    0  502    0  0.00000000000E+00  0.00000000000E+00  0.45872226358E+03  0.45872226358E+03  0.00000000000E+00 0. -1.
          1   -1    0    0  501    0 -0.00000000000E+00 -0.00000000000E+00 -0.27170024269E+03  0.27170024269E+03  0.00000000000E+00 0. -1.
          2    1    1    2  501    0 -0.28881521837E+02 -0.80198256838E+01  0.45740352773E+03  0.45838460607E+03  0.00000000000E+00 0. -1.
          1    1    1    2  502    0  0.28881521837E+02  0.80198256838E+01 -0.27038150683E+03  0.27203790020E+03  0.00000000000E+00 0. -1.
</event>
<event>
 4    1  0.3555026E+003  0.2048168E+02  0.7546771E-02  0.1526795E+00
          2   -1    0    0  502    0  0.00000000000E+00  0.00000000000E+00  0.13861907260E+04  0.13861907260E+04  0.00000000000E+00 0.  1.
          1   -1    0    0  501    0 -0.00000000000E+00 -0.00000000000E+00 -0.39392941997E+00  0.39392941997E+00  0.00000000000E+00 0.  1.
          2    1    1    2  501    0 -0.10588963169E+02  0.17532063688E+02  0.10266683242E+04  0.10268726052E+04  0.00000000000E+00 0.  1.
          1    1    1    2  502    0  0.10588963169E+02 -0.17532063688E+02  0.35912847237E+03  0.35971205021E+03  0.00000000000E+00 0.  1.
</event>
<event>
 4    1  0.3555026E+003  0.8190834E+02  0.7546771E-02  0.1199485E+00
          2   -1    0    0  502    0  0.00000000000E+00  0.00000000000E+00  0.18806727133E+04  0.18806727133E+04  0.00000000000E+00 0. -1.
          1   -1    0    0  501    0 -0.00000000000E+00 -0.00000000000E+00 -0.24839190375E+02  0.24839190375E+02  0.00000000000E+00 0. -1.
          2    1    1    2  501    0  0.76148687377E+02  0.30172077820E+02  0.18096063396E+04  0.18114591028E+04  0.00000000000E+00 0. -1.
          1    1    1    2  502    0 -0.76148687377E+02 -0.30172077820E+02  0.46227183310E+02  0.94052800841E+02  0.00000000000E+00 0. -1.
</event>
<event>
 4    1  0.3555026E+003  0.2840819E+02  0.7546771E-02  0.1433953E+00
          2   -1    0    0  502    0  0.00000000000E+00  0.00000000000E+00  0.82262484023E+02  0.82262484023E+02  0.00000000000E+00 0. -1.
          1   -1    0    0  501    0 -0.00000000000E+00 -0.00000000000E+00 -0.18312782608E+02  0.18312782608E+02  0.00000000000E+00 0. -1.
          2    1    1    2  501    0 -0.27982065082E+02  0.49019604850E+01  0.66240201671E+02  0.72074888139E+02  0.00000000000E+00 0. -1.
          1    1    1    2  502    0  0.27982065082E+02 -0.49019604850E+01 -0.22905002558E+01  0.28500378493E+02  0.00000000000E+00 0. -1.
</event>
<event>
 4    1  0.3555026E+003  0.2313402E+02  0.7546771E-02  0.1490822E+00
          2   -1    0    0  502    0  0.00000000000E+00  0.00000000000E+00  0.27733227554E+03  0.27733227554E+03  0.00000000000E+00 0. -1.
          1   -1    0    0  501    0 -0.00000000000E+00 -0.00000000000E+00 -0.14405652670E+02  0.14405652670E+02  0.00000000000E+00 0. -1.
          2    1    1    2  501    0 -0.76838262468E+01  0.21820666314E+02  0.26721097824E+03  0.26821053215E+03  0.00000000000E+00 0. -1.
          1    1    1    2  502    0  0.76838262468E+01 -0.21820666314E+02 -0.42843553740E+01  0.23527396055E+02  0.00000000000E+00 0. -1.
</event>
<event>
 4    1  0.3555026E+003  0.2004943E+02  0.7546771E-02  0.1533281E+00
          2   -1    0    0  502    0  0.00000000000E+00  0.00000000000E+00  0.61271562372E+02  0.61271562372E+02  0.00000000000E+00 0. -1.
          1   -1    0    0  501    0 -0.00000000000E+00 -0.00000000000E+00 -0.20859934114E+02  0.20859934114E+02  0.00000000000E+00 0.  1.
          2    1    1    2  501    0 -0.13582357599E-01  0.20049422605E+02  0.54205965781E+02  0.57795036616E+02  0.00000000000E+00 0. -1.
          1    1    1    2  502    0  0.13582357599E-01 -0.20049422605E+02 -0.13794337522E+02  0.24336459869E+02  0.00000000000E+00 0.  1.
</event>
<event>
 4    1  0.3555026E+003  0.7300754E+02  0.7546771E-02  0.1221083E+00
          2   -1    0    0  502    0  0.00000000000E+00  0.00000000000E+00  0.45330357943E+02  0.45330357943E+02  0.00000000000E+00 0. -1.
          1   -1    0    0  501    0 -0.00000000000E+00 -0.00000000000E+00 -0.23290876014E+03  0.23290876014E+03  0.00000000000E+00 0.  1.
          2    1    1    2  501    0  0.69013061969E+02 -0.23818026444E+02  0.41051304504E+01  0.73122863743E+02  0.00000000000E+00 0. -1.
          1    1    1    2  502    0 -0.69013061969E+02  0.23818026444E+02 -0.19168353265E+03  0.20511625434E+03  0.00000000000E+00 0.  1.
</event>
<event>
 4    1  0.3555026E+003  0.3383337E+02  0.7546771E-02  0.1388956E+00
          2   -1    0    0  502    0  0.00000000000E+00  0.00000000000E+00  0.73041833337E+02  0.73041833337E+02  0.00000000000E+00 0.  1.
          1   -1    0    0  501    0 -0.00000000000E+00 -0.00000000000E+00 -0.31702070665E+03  0.31702070665E+03  0.00000000000E+00 0. -1.
          2    1    1    2  501    0 -0.21112253262E+02  0.26438032416E+02  0.68160088857E+02  0.76095298861E+02  0.00000000000E+00 0.  1.
          1    1    1    2  502    0  0.21112253262E+02 -0.26438032416E+02 -0.31213896217E+03  0.31396724112E+03  0.00000000000E+00 0. -1.
</event>
<event>
 4    1  0.3555026E+003  0.6186517E+02  0.7546771E-02  0.1253624E+00
          2   -1    0    0  502    0  0.00000000000E+00  0.00000000000E+00  0.17260390917E+04  0.17260390917E+04  0.00000000000E+00 0. -1.
          1   -1    0    0  501    0 -0.00000000000E+00 -0.00000000000E+00 -0.18857086488E+02  0.18857086488E+02  0.00000000000E+00 0. -1.
          2    1    1    2  501    0  0.39287202755E+02 -0.47789276552E+02  0.16731401803E+04  0.16742835370E+04  0.00000000000E+00 0. -1.
          1    1    1    2  502    0 -0.39287202755E+02  0.47789276552E+02  0.34041824886E+02  0.70612641186E+02  0.00000000000E+00 0. -1.
</event>
<event>
 4    1  0.3555026E+003  0.6545289E+02  0.7546771E-02  0.1242352E+00
          2   -1    0    0  502    0  0.00000000000E+00  0.00000000000E+00  0.18284090403E+03  0.18284090403E+03  0.00000000000E+00 0.  1.
          1   -1    0    0  501    0 -0.00000000000E+00 -0.00000000000E+00 -0.79305141041E+02  0.79305141041E+02  0.00000000000E+00 0. -1.
          2    1    1    2  501    0  0.19392081269E+02  0.62514225439E+02  0.16178732253E+03  0.17452569705E+03  0.00000000000E+00 0.  1.
          1    1    1    2  502    0 -0.19392081269E+02 -0.62514225439E+02 -0.58251559543E+02  0.87620348021E+02  0.00000000000E+00 0. -1.
</event>
<event>
 4    1  0.3555026E+003  0.3366100E+02  0.7546771E-02  0.1390229E+00
          2   -1    0    0  502    0  0.00000000000E+00  0.00000000000E+00  0.51157220770E+00  0.51157220770E+00  0.00000000000E+00 0. -1.
          1   -1    0    0  501    0 -0.00000000000E+00 -0.00000000000E+00 -0.24408219620E+04  0.24408219620E+04  0.00000000000E+00 0. -1.
          2    1    1    2  501    0  0.31022258743E+02 -0.13064555071E+02 -0.84875477859E+03  0.84942200191E+03  0.00000000000E+00 0. -1.
          1    1    1    2  502    0 -0.31022258743E+02  0.13064555071E+02 -0.15915556112E+04  0.15919115323E+04  0.00000000000E+00 0. -1.
</event>
<event>
 4    1  0.3555026E+003  0.3003142E+02  0.7546771E-02  0.1419324E+00
          2   -1    0    0  502    0  0.00000000000E+00  0.00000000000E+00  0.39242729913E+03  0.39242729913E+03  0.00000000000E+00 0. -1.
          1   -1    0    0  501    0 -0.00000000000E+00 -0.00000000000E+00 -0.17063657282E+02  0.17063657282E+02  0.00000000000E+00 0.  1.
          2    1    1    2  501    0 -0.28098345736E+02 -0.10600419655E+02  0.37814075680E+03  0.37933140904E+03  0.00000000000E+00 0. -1.
          1    1    1    2  502    0  0.28098345736E+02  0.10600419655E+02 -0.27771149571E+01  0.30159547368E+02  0.00000000000E+00 0.  1.
</event>
<event>
 4    1  0.3555026E+003  0.2420979E+02  0.7546771E-02  0.1477841E+00
          2   -1    0    0  502    0  0.00000000000E+00  0.00000000000E+00  0.19931670862E+02  0.19931670862E+02  0.00000000000E+00 0. -1.
          1   -1    0    0  501    0 -0.00000000000E+00 -0.00000000000E+00 -0.30688120277E+02  0.30688120277E+02  0.00000000000E+00 0. -1.
          2    1    1    2  501    0 -0.22501655695E+02 -0.89324575535E+01 -0.10551285166E+02  0.26409144735E+02  0.00000000000E+00 0. -1.
          1    1    1    2  502    0  0.22501655695E+02  0.89324575535E+01 -0.20516424876E+00  0.24210646405E+02  0.00000000000E+00 0. -1.
</event>
<event>
 4    1  0.3555026E+003  0.7440928E+02  0.7546771E-02  0.1217457E+00
          2   -1    0    0  502    0  0.00000000000E+00  0.00000000000E+00  0.20994418222E+03  0.20994418222E+03  0.00000000000E+00 0. -1.
          1   -1    0    0  501    0 -0.00000000000E+00 -0.00000000000E+00 -0.28333746566E+02  0.28333746566E+02  0.00000000000E+00 0. -1.
          2    1    1    2  501    0  0.22597953833E+02 -0.70894800914E+02  0.12215067278E+03  0.14302981219E+03  0.00000000000E+00 0. -1.
          1    1    1    2  502    0 -0.22597953833E+02  0.70894800914E+02  0.59459762869E+02  0.95248116593E+02  0.00000000000E+00 0. -1.
</event>
<event>
 4    1  0.3555026E+003  0.2318751E+02  0.7546771E-02  0.1490157E+00
          2   -1    0    0  502    0  0.00000000000E+00  0.00000000000E+00  0.38122518714E+02  0.38122518714E+02  0.00000000000E+00 0.  1.
          1   -1    0    0  501    0 -0.00000000000E+00 -0.00000000000E+00 -0.93037759444E+02  0.93037759444E+02  0.00000000000E+00 0. -1.
          2    1    1    2  501    0 -0.13154418495E+02  0.19095076753E+02  0.32947742845E+02  0.40289135518E+02  0.00000000000E+00 0.  1.
          1    1    1    2  502    0  0.13154418495E+02 -0.19095076753E+02 -0.87862983575E+02  0.90871142641E+02  0.00000000000E+00 0. -1.
</event>
<event>
 4    1  0.3696885E+003  0.2609241E+02  0.7546771E-02  0.1456944E+00
          2   -1    0    0  502    0  0.00000000000E+00  0.00000000000E+00  0.95778150908E+03  0.95778150908E+03  0.00000000000E+00 0.  1.
          1   -1    0    0  501    0 -0.00000000000E+00 -0.00000000000E+00 -0.35752108148E+03  0.35752108148E+03  0.00000000000E+00 0. -1.
          2    1    1    2  501    0 -0.24228032076E+02  0.96858892784E+01  0.95712741220E+03  0.95748300098E+03  0.00000000000E+00 0.  1.
          1    1    1    2  502    0  0.24228032076E+02 -0.96858892784E+01 -0.35686698460E+03  0.35781958958E+03  0.00000000000E+00 0. -1.
</event>
<event>
 4    1  0.3555026E+003  0.3087681E+02  0.7546771E-02  0.1412127E+00
          2   -1    0    0  502    0  0.00000000000E+00  0.00000000000E+00  0.10479192879E+03  0.10479192879E+03  0.00000000000E+00 0.  1.
          1   -1    0    0  501    0 -0.00000000000E+00 -0.00000000000E+00 -0.16376947762E+02  0.16376947762E+02  0.00000000000E+00 0.  1.
          2    1    1    2  501    0  0.21669773628E+02 -0.21995420718E+02  0.84598472562E+02  0.90057088458E+02  0.00000000000E+00 0.  1.
          1    1    1    2  502    0 -0.21669773628E+02  0.21995420718E+02  0.38165084672E+01  0.31111788096E+02  0.00000000000E+00 0.  1.
</event>
<event>
 4    1  0.3555026E+003  0.3248103E+02  0.7546771E-02  0.1399193E+00
          2   -1    0    0  502    0  0.00000000000E+00  0.00000000000E+00  0.36905626649E+02  0.36905626649E+02  0.00000000000E+00 0. -1.
          1   -1    0    0  501    0 -0.00000000000E+00 -0.00000000000E+00 -0.20179893398E+03  0.20179893398E+03  0.00000000000E+00 0. -1.
          2    1    1    2  501    0  0.30220479353E+02 -0.11905461131E+02  0.28129205023E+02  0.42968238878E+02  0.00000000000E+00 0. -1.
          1    1    1    2  502    0 -0.30220479353E+02  0.11905461131E+02 -0.19302251235E+03  0.19573632175E+03  0.00000000000E+00 0. -1.
</event>
<event>
 4    1  0.3555026E+003  0.2785901E+02  0.7546771E-02  0.1439165E+00
          2   -1    0    0  502    0  0.00000000000E+00  0.00000000000E+00  0.13022049150E+04  0.13022049150E+04  0.00000000000E+00 0. -1.
          1   -1    0    0  501    0 -0.00000000000E+00 -0.00000000000E+00 -0.25243592736E+01  0.25243592736E+01  0.00000000000E+00 0. -1.
          2    1    1    2  501    0 -0.26575045752E+02  0.83601173709E+01  0.12200149177E+04  0.12203329562E+04  0.00000000000E+00 0. -1.
          1    1    1    2  502    0  0.26575045752E+02 -0.83601173709E+01  0.79665638010E+02  0.84396318040E+02  0.00000000000E+00 0. -1.
</event>
<event>
 4    1  0.3555026E+003  0.2487221E+02  0.7546771E-02  0.1470238E+00
          2   -1    0    0  502    0  0.00000000000E+00  0.00000000000E+00  0.72222130744E+03  0.72222130744E+03  0.00000000000E+00 0.  1.
          1   -1    0    0  501    0 -0.00000000000E+00 -0.00000000000E+00 -0.17459318633E+01  0.17459318633E+01  0.00000000000E+00 0.  1.
          2    1    1    2  501    0 -0.26320182690E+01  0.24732552092E+02  0.61859258937E+03  0.61909241497E+03  0.00000000000E+00 0.  1.
          1    1    1    2  502    0  0.26320182690E+01 -0.24732552092E+02  0.10188278621E+03  0.10487482433E+03  0.00000000000E+00 0.  1.
</event>
<event>
 4    1  0.3555026E+003  0.2773871E+02  0.7546771E-02  0.1440325E+00
          2   -1    0    0  502    0  0.00000000000E+00  0.00000000000E+00  0.81039962530E+01  0.81039962530E+01  0.00000000000E+00 0. -1.
          1   -1    0    0  501    0 -0.00000000000E+00 -0.00000000000E+00 -0.19012138015E+03  0.19012138015E+03  0.00000000000E+00 0.  1.
          2    1    1    2  501    0  0.21715100420E+02  0.17259507324E+02 -0.20882907392E+02  0.34720771888E+02  0.00000000000E+00 0. -1.
          1    1    1    2  502    0 -0.21715100420E+02 -0.17259507324E+02 -0.16113447650E+03  0.16350460451E+03  0.00000000000E+00 0.  1.
</event>
<event>
 4    1  0.3555026E+003  0.2008323E+02  0.7546771E-02  0.1532767E+00
          2   -1    0    0  502    0  0.00000000000E+00  0.00000000000E+00  0.56010132738E+03  0.56010132738E+03  0.00000000000E+00 0. -1.
          1   -1    0    0  501    0 -0.00000000000E+00 -0.00000000000E+00 -0.11488060533E+02  0.11488060533E+02  0.00000000000E+00 0. -1.
          2    1    1    2  501    0  0.24914494936E+01  0.19928087639E+02  0.55099906387E+03  0.55136494664E+03  0.00000000000E+00 0. -1.
          1    1    1    2  502    0 -0.24914494936E+01 -0.19928087639E+02 -0.23857970198E+01  0.20224441277E+02  0.00000000000E+00 0. -1.
</event>
<event>
 4    1  0.3555026E+003  0.2289178E+02  0.7546771E-02  0.1493862E+00
          2   -1    0    0  502    0  0.00000000000E+00  0.00000000000E+00  0.72109925093E+02  0.72109925093E+02  0.00000000000E+00 0. -1.
          1   -1    0    0  501    0 -0.00000000000E+00 -0.00000000000E+00 -0.58999365845E+02  0.58999365845E+02  0.00000000000E+00 0.  1.
          2    1    1    2  501    0 -0.14723898701E+02  0.17528269171E+02  0.67940010334E+02  0.71692945380E+02  0.00000000000E+00 0. -1.
          1    1    1    2  502    0  0.14723898701E+02 -0.17528269171E+02 -0.54829451086E+02  0.59416345558E+02  0.00000000000E+00 0.  1.
</event>
<event>
 4    1  0.3555026E+003  0.4368559E+02  0.7546771E-02  0.1328144E+00
          2   -1    0    0  502    0  0.00000000000E+00  0.00000000000E+00  0.30528031185E+04  0.30528031185E+04  0.00000000000E+00 0.  1.
          1   -1    0    0  501    0 -0.00000000000E+00 -0.00000000000E+00 -0.90536541641E+00  0.90536541641E+00  0.00000000000E+00 0.  1.
          2    1    1    2  501    0 -0.10480746688E+02  0.42409727294E+02  0.23754011145E+04  0.23758027877E+04  0.00000000000E+00 0.  1.
          1    1    1    2  502    0  0.10480746688E+02 -0.42409727294E+02  0.67649663851E+03  0.67790569619E+03  0.00000000000E+00 0.  1.
</event>
<event>
 4    1  0.3555026E+003  0.2932325E+02  0.7546771E-02  0.1425570E+00
          2   -1    0    0  502    0  0.00000000000E+00  0.00000000000E+00  0.11874816433E+04  0.11874816433E+04  0.00000000000E+00 0. -1.
          1   -1    0    0  501    0 -0.00000000000E+00 -0.00000000000E+00 -0.21093218805E+02  0.21093218805E+02  0.00000000000E+00 0. -1.
          2    1    1    2  501    0 -0.26493049506E+02 -0.12568665302E+02  0.11770189353E+04  0.11773841459E+04  0.00000000000E+00 0. -1.
          1    1    1    2  502    0  0.26493049506E+02  0.12568665302E+02 -0.10630510760E+02  0.31190716225E+02  0.00000000000E+00 0. -1.
</event>
<event>
 4    1  0.3555026E+003  0.2570174E+02  0.7546771E-02  0.1461104E+00
          2   -1    0    0  502    0  0.00000000000E+00  0.00000000000E+00  0.47138679644E+03  0.47138679644E+03  0.00000000000E+00 0. -1.
          1   -1    0    0  501    0 -0.00000000000E+00 -0.00000000000E+00 -0.33711270091E+02  0.33711270091E+02  0.00000000000E+00 0. -1.
          2    1    1    2  501    0 -0.22292323736E+02  0.12791862335E+02  0.46608194053E+03  0.46679005423E+03  0.00000000000E+00 0. -1.
          1    1    1    2  502    0  0.22292323736E+02 -0.12791862335E+02 -0.28406414183E+02  0.38308012299E+02  0.00000000000E+00 0. -1.
</event>
<event>
 4    1  0.3555026E+003  0.2931450E+02  0.7546771E-02  0.1425648E+00
          2   -1    0    0  502    0  0.00000000000E+00  0.00000000000E+00  0.38318773398E+03  0.38318773398E+03  0.00000000000E+00 0.  1.
          1   -1    0    0  501    0 -0.00000000000E+00 -0.00000000000E+00 -0.17140224709E+03  0.17140224709E+03  0.00000000000E+00 0.  1.
          2    1    1    2  501    0  0.13684890541E+02 -0.25924191846E+02  0.38136771253E+03  0.38249270857E+03  0.00000000000E+00 0.  1.
          1    1    1    2  502    0 -0.13684890541E+02  0.25924191846E+02 -0.16958222563E+03  0.17209727250E+03  0.00000000000E+00 0.  1.
</event>
<event>
 4    1  0.3555026E+003  0.2340375E+02  0.7546771E-02  0.1487490E+00
          2   -1    0    0  502    0  0.00000000000E+00  0.00000000000E+00  0.75360140224E+02  0.75360140224E+02  0.00000000000E+00 0. -1.
          1   -1    0    0  501    0 -0.00000000000E+00 -0.00000000000E+00 -0.10229253209E+02  0.10229253209E+02  0.00000000000E+00 0. -1.
          2    1    1    2  501    0 -0.22756473172E+02 -0.54661149169E+01  0.55589840248E+02  0.60315552077E+02  0.00000000000E+00 0. -1.
          1    1    1    2  502    0  0.22756473172E+02  0.54661149169E+01  0.95410467672E+01  0.25273841356E+02  0.00000000000E+00 0. -1.
</event>
<event>
 4    1  0.3555026E+003  0.2051793E+02  0.7546771E-02  0.1526260E+00
          2   -1    0    0  502    0  0.00000000000E+00  0.00000000000E+00  0.98916664931E+01  0.98916664931E+01  0.00000000000E+00 0.  1.
          1   -1    0    0  501    0 -0.00000000000E+00 -0.00000000000E+00 -0.62374388826E+02  0.62374388826E+02  0.00000000000E+00 0.  1.
          2    1    1    2  501    0  0.19738050732E+01 -0.20422771116E+02 -0.58758274472E+01  0.21342699799E+02  0.00000000000E+00 0.  1.
          1    1    1    2  502    0 -0.19738050732E+01  0.20422771116E+02 -0.46606894886E+02  0.50923355520E+02  0.00000000000E+00 0.  1.
</event>
<event>
 4    1  0.3555026E+003  0.2612289E+02  0.7546771E-02  0.1456623E+00
          2   -1    0    0  502    0  0.00000000000E+00  0.00000000000E+00  0.14010133107E+04  0.14010133107E+04  0.00000000000E+00 0.  1.
          1   -1    0    0  501    0 -0.00000000000E+00 -0.00000000000E+00 -0.77918990017E+02  0.77918990017E+02  0.00000000000E+00 0.  1.
          2    1    1    2  501    0  0.29076158526E+01  0.25960571063E+02  0.13986984464E+04  0.13989423682E+04  0.00000000000E+00 0.  1.
          1    1    1    2  502    0 -0.29076158526E+01 -0.25960571063E+02 -0.75604125732E+02  0.79989932539E+02  0.00000000000E+00 0.  1.
</event>
<event>
 4    1  0.3555026E+003  0.2942611E+02  0.7546771E-02  0.1424650E+00
          2   -1    0    0  502    0  0.00000000000E+00  0.00000000000E+00  0.25966633127E+04  0.25966633127E+04  0.00000000000E+00 0. -1.
          1   -1    0    0  501    0 -0.00000000000E+00 -0.00000000000E+00 -0.44862206005E+00  0.44862206005E+00  0.00000000000E+00 0. -1.
          2    1    1    2  501    0 -0.37675649834E+01  0.29183924451E+02  0.19560164408E+04  0.19562377700E+04  0.00000000000E+00 0. -1.
          1    1    1    2  502    0  0.37675649834E+01 -0.29183924451E+02  0.64019824980E+03  0.64087416474E+03  0.00000000000E+00 0. -1.
</event>
<event>
 4    1  0.3555026E+003  0.3748644E+02  0.7546771E-02  0.1363880E+00
          2   -1    0    0  502    0  0.00000000000E+00  0.00000000000E+00  0.10478071724E+04  0.10478071724E+04  0.00000000000E+00 0.  1.
          1   -1    0    0  501    0 -0.00000000000E+00 -0.00000000000E+00 -0.39681358461E+03  0.39681358461E+03  0.00000000000E+00 0. -1.
          2    1    1    2  501    0  0.35526331538E+02  0.11962995207E+02  0.10465855362E+04  0.10472566630E+04  0.00000000000E+00 0.  1.
          1    1    1    2  502    0 -0.35526331538E+02 -0.11962995207E+02 -0.39559194849E+03  0.39736409399E+03  0.00000000000E+00 0. -1.
</event>
<event>
 4    1  0.3555026E+003  0.2081704E+02  0.7546771E-02  0.1521893E+00
          2   -1    0    0  502    0  0.00000000000E+00  0.00000000000E+00  0.32304698615E+03  0.32304698615E+03  0.00000000000E+00 0. -1.
          1   -1    0    0  501    0 -0.00000000000E+00 -0.00000000000E+00 -0.82214964292E+03  0.82214964292E+03  0.00000000000E+00 0. -1.
          2    1    1    2  501    0 -0.12058229323E+02  0.16969042387E+02  0.32257966132E+03  0.32325065690E+03  0.00000000000E+00 0. -1.
          1    1    1    2  502    0  0.12058229323E+02 -0.16969042387E+02 -0.82168231809E+03  0.82194597216E+03  0.00000000000E+00 0. -1.
</event>
<event>
 4    1  0.3555026E+003  0.2110611E+02  0.7546771E-02  0.1517755E+00
          2   -1    0    0  502    0  0.00000000000E+00  0.00000000000E+00  0.24153137591E+02  0.24153137591E+02  0.00000000000E+00 0. -1.
          1   -1    0    0  501    0 -0.00000000000E+00 -0.00000000000E+00 -0.29701024439E+03  0.29701024439E+03  0.00000000000E+00 0. -1.
          2    1    1    2  501    0  0.45635527403E+01  0.20606842154E+02  0.19087404849E+02  0.28456932038E+02  0.00000000000E+00 0. -1.
          1    1    1    2  502    0 -0.45635527403E+01 -0.20606842154E+02 -0.29194451164E+03  0.29270644994E+03  0.00000000000E+00 0. -1.
</event>
<event>
 4    1  0.3555026E+003  0.2576941E+02  0.7546771E-02  0.1460377E+00
          2   -1    0    0  502    0  0.00000000000E+00  0.00000000000E+00  0.13209987519E+03  0.13209987519E+03  0.00000000000E+00 0. -1.
          1   -1    0    0  501    0 -0.00000000000E+00 -0.00000000000E+00 -0.11080452010E+03  0.11080452010E+03  0.00000000000E+00 0.  1.
          2    1    1    2  501    0  0.24952329380E+01  0.25648318902E+02  0.12931288037E+03  0.13185554019E+03  0.00000000000E+00 0. -1.
          1    1    1    2  502    0 -0.24952329380E+01 -0.25648318902E+02 -0.10801752528E+03  0.11104885510E+03  0.00000000000E+00 0.  1.
</event>
<event>
 4    1  0.3555026E+003  0.2109178E+02  0.7546771E-02  0.1517958E+00
          2   -1    0    0  502    0  0.00000000000E+00  0.00000000000E+00  0.31231846825E+02  0.31231846825E+02  0.00000000000E+00 0. -1.
          1   -1    0    0  501    0 -0.00000000000E+00 -0.00000000000E+00 -0.92757639346E+02  0.92757639346E+02  0.00000000000E+00 0. -1.
          2    1    1    2  501    0  0.12879398268E+02 -0.16702817948E+02  0.26273604878E+02  0.33692214834E+02  0.00000000000E+00 0. -1.
          1    1    1    2  502    0 -0.12879398268E+02  0.16702817948E+02 -0.87799397400E+02  0.90297271337E+02  0.00000000000E+00 0. -1.
</event>
<event>
 4    1  0.3555026E+003  0.2049901E+02  0.7546771E-02  0.1526539E+00
          2   -1    0    0  502    0  0.00000000000E+00  0.00000000000E+00  0.24511231856E+03  0.24511231856E+03  0.00000000000E+00 0. -1.
          1   -1    0    0  501    0 -0.00000000000E+00 -0.00000000000E+00 -0.18492499094E+01  0.18492499094E+01  0.00000000000E+00 0. -1.
          2    1    1    2  501    0  0.96973395782E+01 -0.18060207211E+02  0.15498182945E+03  0.15633162488E+03  0.00000000000E+00 0. -1.
          1    1    1    2  502    0 -0.96973395782E+01  0.18060207211E+02  0.88281239200E+02  0.90629943584E+02  0.00000000000E+00 0. -1.
</event>
<event>
 4    1  0.3555026E+003  0.2927945E+02  0.7546771E-02  0.1425963E+00
          2   -1    0    0  502    0  0.00000000000E+00  0.00000000000E+00  0.23387925937E+01  0.23387925937E+01  0.00000000000E+00 0. -1.
          1   -1    0    0  501    0 -0.00000000000E+00 -0.00000000000E+00 -0.78947213184E+03  0.78947213184E+03  0.00000000000E+00 0.  1.
          2    1    1    2  501    0 -0.24745638108E+02  0.15650554284E+02 -0.10379704887E+03  0.10784764165E+03  0.00000000000E+00 0. -1.
          1    1    1    2  502    0  0.24745638108E+02 -0.15650554284E+02 -0.68333629038E+03  0.68396328279E+03  0.00000000000E+00 0.  1.
</event>
<event>
 4    1  0.3555026E+003  0.2520608E+02  0.7546771E-02  0.1466511E+00
          2   -1    0    0  502    0  0.00000000000E+00  0.00000000000E+00  0.29952903036E+02  0.29952903036E+02  0.00000000000E+00 0.  1.
          1   -1    0    0  501    0 -0.00000000000E+00 -0.00000000000E+00 -0.85554719704E+02  0.85554719704E+02  0.00000000000E+00 0. -1.
          2    1    1    2  501    0  0.24543287019E+02 -0.57422633005E+01  0.22284359356E+02  0.33644304086E+02  0.00000000000E+00 0.  1.
          1    1    1    2  502    0 -0.24543287019E+02  0.57422633005E+01 -0.77886176024E+02  0.81863318654E+02  0.00000000000E+00 0. -1.
</event>
<event>
 4    1  0.3555026E+003  0.6663261E+02  0.7546771E-02  0.1238823E+00
          2   -1    0    0  502    0  0.00000000000E+00  0.00000000000E+00  0.10827454749E+03  0.10827454749E+03  0.00000000000E+00 0. -1.
          1   -1    0    0  501    0 -0.00000000000E+00 -0.00000000000E+00 -0.62708353120E+03  0.62708353120E+03  0.00000000000E+00 0. -1.
          2    1    1    2  501    0  0.44338665576E+02  0.49739197496E+02  0.96049760607E+02  0.11689936503E+03  0.00000000000E+00 0. -1.
          1    1    1    2  502    0 -0.44338665576E+02 -0.49739197496E+02 -0.61485874432E+03  0.61845871366E+03  0.00000000000E+00 0. -1.
</event>
<event>
 4    1  0.3555026E+003  0.2283104E+02  0.7546771E-02  0.1494631E+00
          2   -1    0    0  502    0  0.00000000000E+00  0.00000000000E+00  0.10598467064E+04  0.10598467064E+04  0.00000000000E+00 0. -1.
          1   -1    0    0  501    0 -0.00000000000E+00 -0.00000000000E+00 -0.12098977467E+02  0.12098977467E+02  0.00000000000E+00 0.  1.
          2    1    1    2  501    0 -0.33922396492E+01  0.22577627674E+02  0.10488400616E+04  0.10490885241E+04  0.00000000000E+00 0. -1.
          1    1    1    2  502    0  0.33922396492E+01 -0.22577627674E+02 -0.10923326920E+01  0.22857159752E+02  0.00000000000E+00 0.  1.
</event>
<event>
 4    1  0.3555026E+003  0.3328670E+02  0.7546771E-02  0.1393025E+00
          2   -1    0    0  502    0  0.00000000000E+00  0.00000000000E+00  0.64605809550E+03  0.64605809550E+03  0.00000000000E+00 0. -1.
          1   -1    0    0  501    0 -0.00000000000E+00 -0.00000000000E+00 -0.77563889006E+01  0.77563889006E+01  0.00000000000E+00 0.  1.
          2    1    1    2  501    0 -0.64520391447E+01 -0.32655404787E+02  0.60766182678E+03  0.60857283869E+03  0.00000000000E+00 0. -1.
          1    1    1    2  502    0  0.64520391447E+01  0.32655404787E+02  0.30639879822E+02  0.45241645708E+02  0.00000000000E+00 0.  1.
</event>
<event>
 4    1  0.3555026E+003  0.2613226E+02  0.7546771E-02  0.1456525E+00
          2   -1    0    0  502    0  0.00000000000E+00  0.00000000000E+00  0.18452589895E+02  0.18452589895E+02  0.00000000000E+00 0. -1.
          1   -1    0    0  501    0 -0.00000000000E+00 -0.00000000000E+00 -0.74756676530E+02  0.74756676530E+02  0.00000000000E+00 0. -1.
          2    1    1    2  501    0 -0.23076933136E+02  0.12261733148E+02  0.49652244933E+01  0.26599781898E+02  0.00000000000E+00 0. -1.
          1    1    1    2  502    0  0.23076933136E+02 -0.12261733148E+02 -0.61269311129E+02  0.66609484527E+02  0.00000000000E+00 0. -1.
</event>
<event>
 4    1  0.3555026E+003  0.2415118E+02  0.7546771E-02  0.1478527E+00
          2   -1    0    0  502    0  0.00000000000E+00  0.00000000000E+00  0.21034997833E+03  0.21034997833E+03  0.00000000000E+00 0.  1.
          1   -1    0    0  501    0 -0.00000000000E+00 -0.00000000000E+00 -0.39391593564E+01  0.39391593564E+01  0.00000000000E+00 0.  1.
          2    1    1    2  501    0  0.23638499515E+02 -0.49498153522E+01  0.16150507543E+03  0.16330085340E+03  0.00000000000E+00 0.  1.
          1    1    1    2  502    0 -0.23638499515E+02  0.49498153522E+01  0.44905743544E+02  0.50988284287E+02  0.00000000000E+00 0.  1.
</event>
<event>
 4    1  0.3555026E+003  0.2891918E+02  0.7546771E-02  0.1429227E+00
          2   -1    0    0  502    0  0.00000000000E+00  0.00000000000E+00  0.33359038362E+01  0.33359038362E+01  0.00000000000E+00 0.  1.
          1   -1    0    0  501    0 -0.00000000000E+00 -0.00000000000E+00 -0.28245969242E+03  0.28245969242E+03  0.00000000000E+00 0.  1.
          2    1    1    2  501    0  0.21841188074E+02 -0.18954717260E+02 -0.91647099260E+02  0.96101558810E+02  0.00000000000E+00 0.  1.
          1    1    1    2  502    0 -0.21841188074E+02  0.18954717260E+02 -0.18747668932E+03  0.18969403744E+03  0.00000000000E+00 0.  1.
</event>
<event>
 4    1  0.3555026E+003  0.3459193E+02  0.7546771E-02  0.1383455E+00
          2   -1    0    0  502    0  0.00000000000E+00  0.00000000000E+00  0.33742261095E+03  0.33742261095E+03  0.00000000000E+00 0.  1.
          1   -1    0    0  501    0 -0.00000000000E+00 -0.00000000000E+00 -0.13662363719E+04  0.13662363719E+04  0.00000000000E+00 0.  1.
          2    1    1    2  501    0  0.72715394653E+01 -0.33819027721E+02  0.33631635800E+03  0.33809066030E+03  0.00000000000E+00 0.  1.
          1    1    1    2  502    0 -0.72715394653E+01  0.33819027721E+02 -0.13651301189E+04  0.13655683226E+04  0.00000000000E+00 0.  1.
</event>
<event>
 4    1  0.3555026E+003  0.2374308E+02  0.7546771E-02  0.1483372E+00
          2   -1    0    0  502    0  0.00000000000E+00  0.00000000000E+00  0.10232131010E+04  0.10232131010E+04  0.00000000000E+00 0.  1.
          1   -1    0    0  501    0 -0.00000000000E+00 -0.00000000000E+00 -0.41241353593E+02  0.41241353593E+02  0.00000000000E+00 0. -1.
          2    1    1    2  501    0  0.10797137787E+02 -0.21146050783E+02  0.10196461282E+04  0.10199225266E+04  0.00000000000E+00 0.  1.
          1    1    1    2  502    0 -0.10797137787E+02  0.21146050783E+02 -0.37674380724E+02  0.44531927996E+02  0.00000000000E+00 0. -1.
</event>
<event>
 4    1  0.3555026E+003  0.2031933E+02  0.7546771E-02  0.1529209E+00
          2   -1    0    0  502    0  0.00000000000E+00  0.00000000000E+00  0.12167817430E+04  0.12167817430E+04  0.00000000000E+00 0.  1.
          1   -1    0    0  501    0 -0.00000000000E+00 -0.00000000000E+00 -0.14416479831E+01  0.14416479831E+01  0.00000000000E+00 0.  1.
          2    1    1    2  501    0 -0.20277032478E+02  0.13104072547E+01  0.11402971396E+04  0.11404781637E+04  0.00000000000E+00 0.  1.
          1    1    1    2  502    0  0.20277032478E+02 -0.13104072547E+01  0.75042955421E+02  0.77745227324E+02  0.00000000000E+00 0.  1.
</event>
<event>
 4    1  0.3555026E+003  0.2674125E+02  0.7546771E-02  0.1450225E+00
          2   -1    0    0  502    0  0.00000000000E+00  0.00000000000E+00  0.58447250530E+00  0.58447250530E+00  0.00000000000E+00 0.  1.
          1   -1    0    0  501    0 -0.00000000000E+00 -0.00000000000E+00 -0.13034284648E+04  0.13034284648E+04  0.00000000000E+00 0.  1.
          2    1    1    2  501    0  0.25671395156E+02  0.74881925397E+01 -0.81289457984E+03  0.81333430487E+03  0.00000000000E+00 0.  1.
          1    1    1    2  502    0 -0.25671395156E+02 -0.74881925397E+01 -0.48994941242E+03  0.49067863240E+03  0.00000000000E+00 0.  1.
</event>
<event>
 4    1  0.3555026E+003  0.2707240E+02  0.7546771E-02  0.1446882E+00
          2   -1    0    0  502    0  0.00000000000E+00  0.00000000000E+00  0.41427345649E+03  0.41427345649E+03  0.00000000000E+00 0. -1.
          1   -1    0    0  501    0 -0.00000000000E+00 -0.00000000000E+00 -0.50519315974E+01  0.50519315974E+01  0.00000000000E+00 0. -1.
          2    1    1    2  501    0  0.26979363765E+02  0.22425381842E+01  0.37362096470E+03  0.37460050762E+03  0.00000000000E+00 0. -1.
          1    1    1    2  502    0 -0.26979363765E+02 -0.22425381842E+01  0.35600560192E+02  0.44724880465E+02  0.00000000000E+00 0. -1.
</event>
<event>
 4    1  0.3555026E+003  0.2259273E+02  0.7546771E-02  0.1497677E+00
          2   -1    0    0  502    0  0.00000000000E+00  0.00000000000E+00  0.33739090318E+00  0.33739090318E+00  0.00000000000E+00 0.  1.
          1   -1    0    0  501    0 -0.00000000000E+00 -0.00000000000E+00 -0.21179894754E+04  0.21179894754E+04  0.00000000000E+00 0.  1.
          2    1    1    2  501    0  0.47756091008E+01  0.22082236050E+02 -0.49269308523E+03  0.49321081479E+03  0.00000000000E+00 0.  1.
          1    1    1    2  502    0 -0.47756091008E+01 -0.22082236050E+02 -0.16249589993E+04  0.16251160516E+04  0.00000000000E+00 0.  1.
</event>
<event>
 4    1  0.3555026E+003  0.2876048E+02  0.7546771E-02  0.1430682E+00
          2   -1    0    0  502    0  0.00000000000E+00  0.00000000000E+00  0.73289992004E+02  0.73289992004E+02  0.00000000000E+00 0.  1.
          1   -1    0    0  501    0 -0.00000000000E+00 -0.00000000000E+00 -0.11286208513E+02  0.11286208513E+02  0.00000000000E+00 0.  1.
          2    1    1    2  501    0  0.39167772640E+01  0.28492530881E+02  0.31039995386E+02  0.42316034475E+02  0.00000000000E+00 0.  1.
          1    1    1    2  502    0 -0.39167772640E+01 -0.28492530881E+02  0.30963788105E+02  0.42260166043E+02  0.00000000000E+00 0.  1.
</event>
<event>
 4    1  0.3555026E+003  0.3373060E+02  0.7546771E-02  0.1389714E+00
          2   -1    0    0  502    0  0.00000000000E+00  0.00000000000E+00  0.10590811100E+01  0.10590811100E+01  0.00000000000E+00 0. -1.
          1   -1    0    0  501    0 -0.00000000000E+00 -0.00000000000E+00 -0.12627200439E+04  0.12627200439E+04  0.00000000000E+00 0. -1.
          2    1    1    2  501    0  0.33694410385E+02 -0.15619991878E+01 -0.38672897533E+03  0.38819718377E+03  0.00000000000E+00 0. -1.
          1    1    1    2  502    0 -0.33694410385E+02  0.15619991878E+01 -0.87493198743E+03  0.87558194121E+03  0.00000000000E+00 0. -1.
</event>
<event>
 4    1  0.3555026E+003  0.2031003E+02  0.7546771E-02  0.1529348E+00
          2   -1    0    0  502    0  0.00000000000E+00  0.00000000000E+00  0.77207596012E+02  0.77207596012E+02  0.00000000000E+00 0.  1.
          1   -1    0    0  501    0 -0.00000000000E+00 -0.00000000000E+00 -0.31434086685E+02  0.31434086685E+02  0.00000000000E+00 0. -1.
          2    1    1    2  501    0  0.20182569768E+02 -0.22717822590E+01  0.72376433467E+02  0.75172104124E+02  0.00000000000E+00 0.  1.
          1    1    1    2  502    0 -0.20182569768E+02  0.22717822590E+01 -0.26602924140E+02  0.33469578573E+02  0.00000000000E+00 0. -1.
</event>
<event>
 4    1  0.3555026E+003  0.2081036E+02  0.7546771E-02  0.1521990E+00
          2   -1    0    0  502    0  0.00000000000E+00  0.00000000000E+00  0.63433551867E+03  0.63433551867E+03  0.00000000000E+00 0.  1.
          1   -1    0    0  501    0 -0.00000000000E+00 -0.00000000000E+00 -0.92137461800E+01  0.92137461800E+01  0.00000000000E+00 0.  1.
          2    1    1    2  501    0  0.19605650972E+02 -0.69777778611E+01  0.62218474794E+03  0.62253267504E+03  0.00000000000E+00 0.  1.
          1    1    1    2  502    0 -0.19605650972E+02  0.69777778611E+01  0.29370245568E+01  0.21016589808E+02  0.00000000000E+00 0.  1.
</event>
<event>
 4    1  0.3555026E+003  0.2531752E+02  0.7546771E-02  0.1465282E+00
          2   -1    0    0  502    0  0.00000000000E+00  0.00000000000E+00  0.27498209209E+01  0.27498209209E+01  0.00000000000E+00 0.  1.
          1   -1    0    0  501    0 -0.00000000000E+00 -0.00000000000E+00 -0.57452954654E+03  0.57452954654E+03  0.00000000000E+00 0. -1.
          2    1    1    2  501    0 -0.19921981471E+02 -0.15623430071E+02 -0.63378663914E+02  0.68248310986E+02  0.00000000000E+00 0.  1.
          1    1    1    2  502    0  0.19921981471E+02  0.15623430071E+02 -0.50840106171E+03  0.50903105648E+03  0.00000000000E+00 0. -1.
</event>
<event>
 4    1  0.3555026E+003  0.3386321E+02  0.7546771E-02  0.1388736E+00
          2   -1    0    0  502    0  0.00000000000E+00  0.00000000000E+00  0.90309387365E+03  0.90309387365E+03  0.00000000000E+00 0.  1.
          1   -1    0    0  501    0 -0.00000000000E+00 -0.00000000000E+00 -0.31315462460E+01  0.31315462460E+01  0.00000000000E+00 0.  1.
          2    1    1    2  501    0  0.22584954539E+02 -0.25231657853E+02  0.79935565204E+03  0.80007260619E+03  0.00000000000E+00 0.  1.
          1    1    1    2  502    0 -0.22584954539E+02  0.25231657853E+02  0.10060667536E+03  0.10615281370E+03  0.00000000000E+00 0.  1.
</event>
<event>
 4    1  0.3555026E+003  0.2393285E+02  0.7546771E-02  0.1481105E+00
          2   -1    0    0  502    0  0.00000000000E+00  0.00000000000E+00  0.70137781797E+02  0.70137781797E+02  0.00000000000E+00 0.  1.
          1   -1    0    0  501    0 -0.00000000000E+00 -0.00000000000E+00 -0.92099837199E+01  0.92099837199E+01  0.00000000000E+00 0. -1.
          2    1    1    2  501    0  0.15804778707E+02 -0.17971920518E+02  0.17109761273E+02  0.29419804349E+02  0.00000000000E+00 0.  1.
          1    1    1    2  502    0 -0.15804778707E+02  0.17971920518E+02  0.43818036804E+02  0.49927961169E+02  0.00000000000E+00 0. -1.
</event>
<event>
 4    1  0.3555026E+003  0.2202498E+02  0.7546771E-02  0.1505118E+00
          2   -1    0    0  502    0  0.00000000000E+00  0.00000000000E+00  0.39593904065E+03  0.39593904065E+03  0.00000000000E+00 0.  1.
          1   -1    0    0  501    0 -0.00000000000E+00 -0.00000000000E+00 -0.11913051183E+04  0.11913051183E+04  0.00000000000E+00 0.  1.
          2    1    1    2  501    0 -0.61053812031E+01 -0.21161858920E+02  0.39553083845E+03  0.39614359027E+03  0.00000000000E+00 0.  1.
          1    1    1    2  502    0  0.61053812031E+01  0.21161858920E+02 -0.11908969161E+04  0.11911005687E+04  0.00000000000E+00 0.  1.
</event>
<event>
 4    1  0.3555026E+003  0.3610475E+02  0.7546771E-02  0.1372958E+00
          2   -1    0    0  502    0  0.00000000000E+00  0.00000000000E+00  0.64480002461E+03  0.64480002461E+03  0.00000000000E+00 0.  1.
          1   -1    0    0  501    0 -0.00000000000E+00 -0.00000000000E+00 -0.21271850093E+03  0.21271850093E+03  0.00000000000E+00 0.  1.
          2    1    1    2  501    0 -0.29255163521E+02 -0.21158653022E+02  0.64275773405E+03  0.64377096694E+03  0.00000000000E+00 0.  1.
          1    1    1    2  502    0  0.29255163521E+02  0.21158653022E+02 -0.21067621037E+03  0.21374755860E+03  0.00000000000E+00 0.  1.
</event>
<event>
 4    1  0.3555026E+003  0.2901495E+02  0.7546771E-02  0.1428354E+00
          2   -1    0    0  502    0  0.00000000000E+00  0.00000000000E+00  0.28886027887E+03  0.28886027887E+03  0.00000000000E+00 0. -1.
          1   -1    0    0  501    0 -0.00000000000E+00 -0.00000000000E+00 -0.29355320545E+02  0.29355320545E+02  0.00000000000E+00 0. -1.
          2    1    1    2  501    0  0.11930605757E+02  0.26448593924E+02  0.28075561637E+03  0.28225092311E+03  0.00000000000E+00 0. -1.
          1    1    1    2  502    0 -0.11930605757E+02 -0.26448593924E+02 -0.21250658044E+02  0.35964676303E+02  0.00000000000E+00 0. -1.
</event>
<event>
 4    1  0.3555026E+003  0.2701515E+02  0.7546771E-02  0.1447456E+00
          2   -1    0    0  502    0  0.00000000000E+00  0.00000000000E+00  0.13066447429E+04  0.13066447429E+04  0.00000000000E+00 0.  1.
          1   -1    0    0  501    0 -0.00000000000E+00 -0.00000000000E+00 -0.26947884864E+01  0.26947884864E+01  0.00000000000E+00 0.  1.
          2    1    1    2  501    0  0.17344482131E+02 -0.20712005756E+02  0.12348634230E+04  0.12351588933E+04  0.00000000000E+00 0.  1.
          1    1    1    2  502    0 -0.17344482131E+02  0.20712005756E+02  0.69086531331E+02  0.74180638000E+02  0.00000000000E+00 0.  1.
</event>
<event>
 4    1  0.3555026E+003  0.2101048E+02  0.7546771E-02  0.1519115E+00
          2   -1    0    0  502    0  0.00000000000E+00  0.00000000000E+00  0.39750094466E+03  0.39750094466E+03  0.00000000000E+00 0. -1.
          1   -1    0    0  501    0 -0.00000000000E+00 -0.00000000000E+00 -0.60846851493E+01  0.60846851493E+01  0.00000000000E+00 0. -1.
          2    1    1    2  501    0 -0.11090974044E+02  0.17844617953E+02  0.37815899893E+03  0.37874221915E+03  0.00000000000E+00 0. -1.
          1    1    1    2  502    0  0.11090974044E+02 -0.17844617953E+02  0.13257260584E+02  0.24843410662E+02  0.00000000000E+00 0. -1.
</event>
<event>
 4    1  0.3555026E+003  0.3665533E+02  0.7546771E-02  0.1369285E+00
          2   -1    0    0  502    0  0.00000000000E+00  0.00000000000E+00  0.19083955610E+02  0.19083955610E+02  0.00000000000E+00 0.  1.
          1   -1    0    0  501    0 -0.00000000000E+00 -0.00000000000E+00 -0.33227921122E+03  0.33227921122E+03  0.00000000000E+00 0. -1.
          2    1    1    2  501    0 -0.20125020755E+02 -0.30636524611E+02 -0.63494230165E+00  0.36660827219E+02  0.00000000000E+00 0.  1.
          1    1    1    2  502    0  0.20125020755E+02  0.30636524611E+02 -0.31256031330E+03  0.31470233961E+03  0.00000000000E+00 0. -1.
</event>
<event>
 4    1  0.3555026E+003  0.3689115E+02  0.7546771E-02  0.1367734E+00
          2   -1    0    0  502    0  0.00000000000E+00  0.00000000000E+00  0.11075605742E+04  0.11075605742E+04  0.00000000000E+00 0.  1.
          1   -1    0    0  501    0 -0.00000000000E+00 -0.00000000000E+00 -0.19570900141E+03  0.19570900141E+03  0.00000000000E+00 0.  1.
          2    1    1    2  501    0 -0.35222999974E+02 -0.10968014733E+02  0.11055116603E+04  0.11061270217E+04  0.00000000000E+00 0.  1.
          1    1    1    2  502    0  0.35222999974E+02  0.10968014733E+02 -0.19366008751E+03  0.19714255392E+03  0.00000000000E+00 0.  1.
</event>
<event>
 4    1  0.3555026E+003  0.2287148E+02  0.7546771E-02  0.1494118E+00
          2   -1    0    0  502    0  0.00000000000E+00  0.00000000000E+00  0.45137274213E+03  0.45137274213E+03  0.00000000000E+00 0.  1.
          1   -1    0    0  501    0 -0.00000000000E+00 -0.00000000000E+00 -0.26044713118E+01  0.26044713118E+01  0.00000000000E+00 0.  1.
          2    1    1    2  501    0  0.21564266746E+02  0.76214764848E+01  0.39349096885E+03  0.39415510534E+03  0.00000000000E+00 0.  1.
          1    1    1    2  502    0 -0.21564266746E+02 -0.76214764848E+01  0.55277301970E+02  0.59822108098E+02  0.00000000000E+00 0.  1.
</event>
<event>
 4    1  0.3555026E+003  0.2432279E+02  0.7546771E-02  0.1476524E+00
          2   -1    0    0  502    0  0.00000000000E+00  0.00000000000E+00  0.25766642862E+01  0.25766642862E+01  0.00000000000E+00 0.  1.
          1   -1    0    0  501    0 -0.00000000000E+00 -0.00000000000E+00 -0.13795213470E+04  0.13795213470E+04  0.00000000000E+00 0. -1.
          2    1    1    2  501    0  0.14079692232E+02  0.19833314531E+02 -0.57545510533E+02  0.62474665915E+02  0.00000000000E+00 0.  1.
          1    1    1    2  502    0 -0.14079692232E+02 -0.19833314531E+02 -0.13193991722E+04  0.13196233454E+04  0.00000000000E+00 0. -1.
</event>
<event>
 4    1  0.3555026E+003  0.3414454E+02  0.7546771E-02  0.1386679E+00
          2   -1    0    0  502    0  0.00000000000E+00  0.00000000000E+00  0.98360949301E+03  0.98360949301E+03  0.00000000000E+00 0.  1.
          1   -1    0    0  501    0 -0.00000000000E+00 -0.00000000000E+00 -0.97087326250E+02  0.97087326250E+02  0.00000000000E+00 0. -1.
          2    1    1    2  501    0 -0.62645747227E+01  0.33564929913E+02  0.98030098109E+03  0.98089543935E+03  0.00000000000E+00 0.  1.
          1    1    1    2  502    0  0.62645747227E+01 -0.33564929913E+02 -0.93778814324E+02  0.99801379913E+02  0.00000000000E+00 0. -1.
</event>
<event>
 4    1  0.3555026E+003  0.2726350E+02  0.7546771E-02  0.1444979E+00
          2   -1    0    0  502    0  0.00000000000E+00  0.00000000000E+00  0.50843159811E+02  0.50843159811E+02  0.00000000000E+00 0. -1.
          1   -1    0    0  501    0 -0.00000000000E+00 -0.00000000000E+00 -0.26322027582E+03  0.26322027582E+03  0.00000000000E+00 0.  1.
          2    1    1    2  501    0  0.14785575332E+02 -0.22906010667E+02  0.46420040230E+02  0.53834177783E+02  0.00000000000E+00 0. -1.
          1    1    1    2  502    0 -0.14785575332E+02  0.22906010667E+02 -0.25879715624E+03  0.26022925784E+03  0.00000000000E+00 0.  1.
</event>
<event>
 4    1  0.3555026E+003  0.2412842E+02  0.7546771E-02  0.1478795E+00
          2   -1    0    0  502    0  0.00000000000E+00  0.00000000000E+00  0.63103751234E+00  0.63103751234E+00  0.00000000000E+00 0. -1.
          1   -1    0    0  501    0 -0.00000000000E+00 -0.00000000000E+00 -0.11095636613E+04  0.11095636613E+04  0.00000000000E+00 0.  1.
          2    1    1    2  501    0  0.24089351717E+02 -0.13724389528E+01 -0.32659020212E+03  0.32748029036E+03  0.00000000000E+00 0. -1.
          1    1    1    2  502    0 -0.24089351717E+02  0.13724389528E+01 -0.78234242171E+03  0.78271440850E+03  0.00000000000E+00 0.  1.
</event>
<event>
 4    1  0.3555026E+003  0.3686417E+02  0.7546771E-02  0.1367911E+00
          2   -1    0    0  502    0  0.00000000000E+00  0.00000000000E+00  0.34412959341E+02  0.34412959341E+02  0.00000000000E+00 0. -1.
          1   -1    0    0  501    0 -0.00000000000E+00 -0.00000000000E+00 -0.32362776187E+03  0.32362776187E+03  0.00000000000E+00 0. -1.
          2    1    1    2  501    0  0.36848313316E+02 -0.10812718386E+01  0.23135453432E+02  0.43522598137E+02  0.00000000000E+00 0. -1.
          1    1    1    2  502    0 -0.36848313316E+02  0.10812718386E+01 -0.31235025596E+03  0.31451812308E+03  0.00000000000E+00 0. -1.
</event>
<event>
 4    1  0.3555026E+003  0.5080382E+02  0.7546771E-02  0.1294724E+00
          2   -1    0    0  502    0  0.00000000000E+00  0.00000000000E+00  0.44677504510E+03  0.44677504510E+03  0.00000000000E+00 0.  1.
          1   -1    0    0  501    0 -0.00000000000E+00 -0.00000000000E+00 -0.10877028024E+03  0.10877028024E+03  0.00000000000E+00 0.  1.
          2    1    1    2  501    0 -0.50166691352E+02  0.80206822301E+01  0.43929786138E+03  0.44222577862E+03  0.00000000000E+00 0.  1.
          1    1    1    2  502    0  0.50166691352E+02 -0.80206822301E+01 -0.10129309652E+03  0.11331954671E+03  0.00000000000E+00 0.  1.
</event>
<event>
 4    1  0.3555026E+003  0.2347126E+02  0.7546771E-02  0.1486664E+00
          2   -1    0    0  502    0  0.00000000000E+00  0.00000000000E+00  0.14151865258E+03  0.14151865258E+03  0.00000000000E+00 0.  1.
          1   -1    0    0  501    0 -0.00000000000E+00 -0.00000000000E+00 -0.96274094302E+01  0.96274094302E+01  0.00000000000E+00 0. -1.
          2    1    1    2  501    0 -0.82726669765E+01  0.21965037569E+02  0.12427201059E+03  0.12646909706E+03  0.00000000000E+00 0.  1.
          1    1    1    2  502    0  0.82726669765E+01 -0.21965037569E+02  0.76192325545E+01  0.24676964948E+02  0.00000000000E+00 0. -1.
</event>
<event>
 4    1  0.3555026E+003  0.2142944E+02  0.7546771E-02  0.1513221E+00
          2   -1    0    0  502    0  0.00000000000E+00  0.00000000000E+00  0.32612941379E+01  0.32612941379E+01  0.00000000000E+00 0.  1.
          1   -1    0    0  501    0 -0.00000000000E+00 -0.00000000000E+00 -0.54103582941E+03  0.54103582941E+03  0.00000000000E+00 0. -1.
          2    1    1    2  501    0 -0.55295952257E+01  0.20703732661E+02 -0.34817191723E+02  0.40883466205E+02  0.00000000000E+00 0.  1.
          1    1    1    2  502    0  0.55295952257E+01 -0.20703732661E+02 -0.50295734355E+03  0.50341365735E+03  0.00000000000E+00 0. -1.
</event>
<event>
 4    1  0.3555026E+003  0.2556572E+02  0.7546771E-02  0.1462573E+00
          2   -1    0    0  502    0  0.00000000000E+00  0.00000000000E+00  0.26397828370E+03  0.26397828370E+03  0.00000000000E+00 0.  1.
          1   -1    0    0  501    0 -0.00000000000E+00 -0.00000000000E+00 -0.11087151340E+02  0.11087151340E+02  0.00000000000E+00 0. -1.
          2    1    1    2  501    0 -0.20960213837E+02 -0.14638151439E+02  0.24765238351E+03  0.24896849017E+03  0.00000000000E+00 0.  1.
          1    1    1    2  502    0  0.20960213837E+02  0.14638151439E+02  0.52387488461E+01  0.26096944861E+02  0.00000000000E+00 0. -1.
</event>
<event>
 4    1  0.3555026E+003  0.2333636E+02  0.7546771E-02  0.1488317E+00
          2   -1    0    0  502    0  0.00000000000E+00  0.00000000000E+00  0.64557129096E+02  0.64557129096E+02  0.00000000000E+00 0. -1.
          1   -1    0    0  501    0 -0.00000000000E+00 -0.00000000000E+00 -0.14283404582E+04  0.14283404582E+04  0.00000000000E+00 0. -1.
          2    1    1    2  501    0 -0.32607185562E+01 -0.23107426971E+02  0.62349618580E+02  0.66573721571E+02  0.00000000000E+00 0. -1.
          1    1    1    2  502    0  0.32607185562E+01  0.23107426971E+02 -0.14261329477E+04  0.14263238657E+04  0.00000000000E+00 0. -1.
</event>
<event>
 4    1  0.3555026E+003  0.3227397E+02  0.7546771E-02  0.1400813E+00
          2   -1    0    0  502    0  0.00000000000E+00  0.00000000000E+00  0.34946846821E+03  0.34946846821E+03  0.00000000000E+00 0. -1.
          1   -1    0    0  501    0 -0.00000000000E+00 -0.00000000000E+00 -0.71791341373E+03  0.71791341373E+03  0.00000000000E+00 0.  1.
          2    1    1    2  501    0 -0.32169720433E+02  0.25919926687E+01  0.34835945657E+03  0.34985128315E+03  0.00000000000E+00 0. -1.
          1    1    1    2  502    0  0.32169720433E+02 -0.25919926687E+01 -0.71680440209E+03  0.71753059879E+03  0.00000000000E+00 0.  1.
</event>
<event>
 4    1  0.3555026E+003  0.2164052E+02  0.7546771E-02  0.1510313E+00
          2   -1    0    0  502    0  0.00000000000E+00  0.00000000000E+00  0.52267894739E+01  0.52267894739E+01  0.00000000000E+00 0. -1.
          1   -1    0    0  501    0 -0.00000000000E+00 -0.00000000000E+00 -0.15599631280E+03  0.15599631280E+03  0.00000000000E+00 0. -1.
          2    1    1    2  501    0  0.13954894957E+02  0.16540046905E+02 -0.22793068170E+02  0.31429861620E+02  0.00000000000E+00 0. -1.
          1    1    1    2  502    0 -0.13954894957E+02 -0.16540046905E+02 -0.12797645516E+03  0.12979324065E+03  0.00000000000E+00 0. -1.
</event>
<event>
 4    1  0.3555026E+003  0.1446731E+03  0.7546771E-02  0.1103205E+00
          2   -1    0    0  502    0  0.00000000000E+00  0.00000000000E+00  0.79963735241E+03  0.79963735241E+03  0.00000000000E+00 0. -1.
          1   -1    0    0  501    0 -0.00000000000E+00 -0.00000000000E+00 -0.19512234826E+03  0.19512234826E+03  0.00000000000E+00 0. -1.
          2    1    1    2  501    0  0.11991305697E+03  0.80939240890E+02  0.76507599184E+03  0.77863442978E+03  0.00000000000E+00 0. -1.
          1    1    1    2  502    0 -0.11991305697E+03 -0.80939240890E+02 -0.16056098769E+03  0.21612527089E+03  0.00000000000E+00 0. -1.
</event>
<event>
 4    1  0.3555026E+003  0.2133624E+02  0.7546771E-02  0.1514518E+00
          2   -1    0    0  502    0  0.00000000000E+00  0.00000000000E+00  0.17692089416E+03  0.17692089416E+03  0.00000000000E+00 0.  1.
          1   -1    0    0  501    0 -0.00000000000E+00 -0.00000000000E+00 -0.66841823725E+01  0.66841823725E+01  0.00000000000E+00 0. -1.
          2    1    1    2  501    0  0.17927077979E+02  0.11569580362E+02  0.15711439180E+03  0.15855651177E+03  0.00000000000E+00 0.  1.
          1    1    1    2  502    0 -0.17927077979E+02 -0.11569580362E+02  0.13122319984E+02  0.25048564757E+02  0.00000000000E+00 0. -1.
</event>
<event>
 4    1  0.3555026E+003  0.2429751E+02  0.7546771E-02  0.1476818E+00
          2   -1    0    0  502    0  0.00000000000E+00  0.00000000000E+00  0.21129693827E+04  0.21129693827E+04  0.00000000000E+00 0.  1.
          1   -1    0    0  501    0 -0.00000000000E+00 -0.00000000000E+00 -0.40817854871E+00  0.40817854871E+00  0.00000000000E+00 0.  1.
          2    1    1    2  501    0  0.34828421604E+01  0.24046598474E+02  0.16498061641E+04  0.16499850751E+04  0.00000000000E+00 0.  1.
          1    1    1    2  502    0 -0.34828421604E+01 -0.24046598474E+02  0.46275504007E+03  0.46339248613E+03  0.00000000000E+00 0.  1.
</event>
<event>
 4    1  0.3555026E+003  0.1374588E+03  0.7546771E-02  0.1111214E+00
          2   -1    0    0  502    0  0.00000000000E+00  0.00000000000E+00  0.10156733475E+04  0.10156733475E+04  0.00000000000E+00 0. -1.
          1   -1    0    0  501    0 -0.00000000000E+00 -0.00000000000E+00 -0.57274139641E+03  0.57274139641E+03  0.00000000000E+00 0.  1.
          2    1    1    2  501    0  0.12363533370E+03  0.60076737579E+02  0.10026684639E+04  0.10120469153E+04  0.00000000000E+00 0. -1.
          1    1    1    2  502    0 -0.12363533370E+03 -0.60076737579E+02 -0.55973651282E+03  0.57636782867E+03  0.00000000000E+00 0.  1.
</event>
<event>
 4    1  0.3555026E+003  0.2009530E+02  0.7546771E-02  0.1532584E+00
          2   -1    0    0  502    0  0.00000000000E+00  0.00000000000E+00  0.25246490249E+01  0.25246490249E+01  0.00000000000E+00 0. -1.
          1   -1    0    0  501    0 -0.00000000000E+00 -0.00000000000E+00 -0.23464392708E+03  0.23464392708E+03  0.00000000000E+00 0.  1.
          2    1    1    2  501    0 -0.33929703521E+01 -0.19806783637E+02 -0.49154215926E+02  0.53103275503E+02  0.00000000000E+00 0. -1.
          1    1    1    2  502    0  0.33929703521E+01  0.19806783637E+02 -0.18296506213E+03  0.18406530060E+03  0.00000000000E+00 0.  1.
</event>
<event>
 4    1  0.3555026E+003  0.2462876E+02  0.7546771E-02  0.1473000E+00
          2   -1    0    0  502    0  0.00000000000E+00  0.00000000000E+00  0.27737460017E+01  0.27737460017E+01  0.00000000000E+00 0. -1.
          1   -1    0    0  501    0 -0.00000000000E+00 -0.00000000000E+00 -0.14897659907E+04  0.14897659907E+04  0.00000000000E+00 0.  1.
          2    1    1    2  501    0 -0.15015006428E+02  0.19522432321E+02 -0.54171893059E+02  0.59507728737E+02  0.00000000000E+00 0. -1.
          1    1    1    2  502    0  0.15015006428E+02 -0.19522432321E+02 -0.14328203516E+04  0.14330320080E+04  0.00000000000E+00 0.  1.
</event>
<event>
 4    1  0.3555026E+003  0.4073298E+02  0.7546771E-02  0.1344243E+00
          2   -1    0    0  502    0  0.00000000000E+00  0.00000000000E+00  0.48798042949E+03  0.48798042949E+03  0.00000000000E+00 0. -1.
          1   -1    0    0  501    0 -0.00000000000E+00 -0.00000000000E+00 -0.36614986577E+01  0.36614986577E+01  0.00000000000E+00 0. -1.
          2    1    1    2  501    0 -0.30272814787E+02  0.27253121167E+02  0.30784230651E+03  0.31052546048E+03  0.00000000000E+00 0. -1.
          1    1    1    2  502    0  0.30272814787E+02 -0.27253121167E+02  0.17647662432E+03  0.18111646767E+03  0.00000000000E+00 0. -1.
</event>
<event>
 4    1  0.3555026E+003  0.2004704E+02  0.7546771E-02  0.1533318E+00
          2   -1    0    0  502    0  0.00000000000E+00  0.00000000000E+00  0.68621426923E+01  0.68621426923E+01  0.00000000000E+00 0.  1.
          1   -1    0    0  501    0 -0.00000000000E+00 -0.00000000000E+00 -0.41216021734E+03  0.41216021734E+03  0.00000000000E+00 0. -1.
          2    1    1    2  501    0 -0.17985040869E+02 -0.88556271518E+01 -0.85930081788E+01  0.21811089309E+02  0.00000000000E+00 0.  1.
          1    1    1    2  502    0  0.17985040869E+02  0.88556271518E+01 -0.39670506647E+03  0.39721127073E+03  0.00000000000E+00 0. -1.
</event>
<event>
 4    1  0.3555026E+003  0.2095071E+02  0.7546771E-02  0.1519970E+00
          2   -1    0    0  502    0  0.00000000000E+00  0.00000000000E+00  0.54406876635E+01  0.54406876635E+01  0.00000000000E+00 0. -1.
          1   -1    0    0  501    0 -0.00000000000E+00 -0.00000000000E+00 -0.29163559686E+03  0.29163559686E+03  0.00000000000E+00 0. -1.
          2    1    1    2  501    0 -0.19184464695E+02 -0.84195409118E+01 -0.16764261941E+02  0.26832309502E+02  0.00000000000E+00 0. -1.
          1    1    1    2  502    0  0.19184464695E+02  0.84195409118E+01 -0.26943064726E+03  0.27024397502E+03  0.00000000000E+00 0. -1.
</event>
<event>
 4    1  0.3555026E+003  0.2711075E+02  0.7546771E-02  0.1446499E+00
          2   -1    0    0  502    0  0.00000000000E+00  0.00000000000E+00  0.36555823615E+02  0.36555823615E+02  0.00000000000E+00 0.  1.
          1   -1    0    0  501    0 -0.00000000000E+00 -0.00000000000E+00 -0.45376470745E+02  0.45376470745E+02  0.00000000000E+00 0.  1.
          2    1    1    2  501    0 -0.13665201061E+02 -0.23414844884E+02  0.26161132659E+02  0.37674892740E+02  0.00000000000E+00 0.  1.
          1    1    1    2  502    0  0.13665201061E+02  0.23414844884E+02 -0.34981779790E+02  0.44257401620E+02  0.00000000000E+00 0.  1.
</event>
<event>
 4    1  0.3555026E+003  0.3340599E+02  0.7546771E-02  0.1392130E+00
          2   -1    0    0  502    0  0.00000000000E+00  0.00000000000E+00  0.16901570408E+02  0.16901570408E+02  0.00000000000E+00 0. -1.
          1   -1    0    0  501    0 -0.00000000000E+00 -0.00000000000E+00 -0.10816007409E+04  0.10816007409E+04  0.00000000000E+00 0.  1.
          2    1    1    2  501    0  0.32018926443E+02 -0.95262073926E+01 -0.12709926748E+00  0.33406233431E+02  0.00000000000E+00 0. -1.
          1    1    1    2  502    0 -0.32018926443E+02  0.95262073926E+01 -0.10645720713E+04  0.10650960779E+04  0.00000000000E+00 0.  1.
</event>
<event>
 4    1  0.3555026E+003  0.2029913E+02  0.7546771E-02  0.1529511E+00
          2   -1    0    0  502    0  0.00000000000E+00  0.00000000000E+00  0.13165268950E+01  0.13165268950E+01  0.00000000000E+00 0.  1.
          1   -1    0    0  501    0 -0.00000000000E+00 -0.00000000000E+00 -0.37306397362E+03  0.37306397362E+03  0.00000000000E+00 0. -1.
          2    1    1    2  501    0  0.18981909095E+02  0.71931668776E+01 -0.11075484259E+03  0.11259968775E+03  0.00000000000E+00 0.  1.
          1    1    1    2  502    0 -0.18981909095E+02 -0.71931668776E+01 -0.26099260413E+03  0.26178081277E+03  0.00000000000E+00 0. -1.
</event>
<event>
 4    1  0.3555026E+003  0.2166410E+02  0.7546771E-02  0.1509991E+00
          2   -1    0    0  502    0  0.00000000000E+00  0.00000000000E+00  0.74273960543E+02  0.74273960543E+02  0.00000000000E+00 0.  1.
          1   -1    0    0  501    0 -0.00000000000E+00 -0.00000000000E+00 -0.45354069258E+02  0.45354069258E+02  0.00000000000E+00 0. -1.
          2    1    1    2  501    0 -0.42215433621E+01  0.21248804364E+02  0.69950952497E+02  0.73228880030E+02  0.00000000000E+00 0.  1.
          1    1    1    2  502    0  0.42215433621E+01 -0.21248804364E+02 -0.41031061212E+02  0.46399149771E+02  0.00000000000E+00 0. -1.
</event>
<event>
 4    1  0.3555026E+003  0.2269301E+02  0.7546771E-02  0.1496389E+00
          2   -1    0    0  502    0  0.00000000000E+00  0.00000000000E+00  0.98057722826E+00  0.98057722826E+00  0.00000000000E+00 0. -1.
          1   -1    0    0  501    0 -0.00000000000E+00 -0.00000000000E+00 -0.10531183999E+04  0.10531183999E+04  0.00000000000E+00 0. -1.
          2    1    1    2  501    0 -0.66844114287E+01 -0.21686203060E+02 -0.15289844124E+03  0.15457330330E+03  0.00000000000E+00 0. -1.
          1    1    1    2  502    0  0.66844114287E+01  0.21686203060E+02 -0.89923938139E+03  0.89952567378E+03  0.00000000000E+00 0. -1.
</event>
<event>
 4    1  0.3555026E+003  0.2727171E+02  0.7546771E-02  0.1444898E+00
          2   -1    0    0  502    0  0.00000000000E+00  0.00000000000E+00  0.62548091723E+03  0.62548091723E+03  0.00000000000E+00 0.  1.
          1   -1    0    0  501    0 -0.00000000000E+00 -0.00000000000E+00 -0.13422304597E+01  0.13422304597E+01  0.00000000000E+00 0.  1.
          2    1    1    2  501    0 -0.25024191063E+02  0.10841404107E+02  0.41793671992E+03  0.41882555800E+03  0.00000000000E+00 0.  1.
          1    1    1    2  502    0  0.25024191063E+02 -0.10841404107E+02  0.20620196686E+03  0.20799758969E+03  0.00000000000E+00 0.  1.
</event>
<event>
 4    1  0.3555026E+003  0.2043980E+02  0.7546771E-02  0.1527415E+00
          2   -1    0    0  502    0  0.00000000000E+00  0.00000000000E+00  0.91791390617E+03  0.91791390617E+03  0.00000000000E+00 0.  1.
          1   -1    0    0  501    0 -0.00000000000E+00 -0.00000000000E+00 -0.12441795035E+04  0.12441795035E+04  0.00000000000E+00 0.  1.
          2    1    1    2  501    0  0.16770331149E+01 -0.20370882746E+02  0.91771615350E+03  0.91794374757E+03  0.00000000000E+00 0.  1.
          1    1    1    2  502    0 -0.16770331149E+01  0.20370882746E+02 -0.12439817509E+04  0.12441496621E+04  0.00000000000E+00 0.  1.
</event>
<event>
 4    1  0.3555026E+003  0.2261377E+02  0.7546771E-02  0.1497406E+00
          2   -1    0    0  502    0  0.00000000000E+00  0.00000000000E+00  0.50308182052E+02  0.50308182052E+02  0.00000000000E+00 0. -1.
          1   -1    0    0  501    0 -0.00000000000E+00 -0.00000000000E+00 -0.41157679817E+03  0.41157679817E+03  0.00000000000E+00 0. -1.
          2    1    1    2  501    0 -0.24591081778E+01 -0.22479662764E+02  0.47438479658E+02  0.52552752576E+02  0.00000000000E+00 0. -1.
          1    1    1    2  502    0  0.24591081778E+01  0.22479662764E+02 -0.40870709577E+03  0.40933222764E+03  0.00000000000E+00 0. -1.
</event>
<event>
 4    1  0.3555026E+003  0.2394295E+02  0.7546771E-02  0.1480985E+00
          2   -1    0    0  502    0  0.00000000000E+00  0.00000000000E+00  0.11289712621E+03  0.11289712621E+03  0.00000000000E+00 0. -1.
          1   -1    0    0  501    0 -0.00000000000E+00 -0.00000000000E+00 -0.17190528659E+02  0.17190528659E+02  0.00000000000E+00 0.  1.
          2    1    1    2  501    0 -0.23844416286E+01  0.23823927724E+02  0.10245209799E+03  0.10521262984E+03  0.00000000000E+00 0. -1.
          1    1    1    2  502    0  0.23844416286E+01 -0.23823927724E+02 -0.67455004420E+01  0.24875025031E+02  0.00000000000E+00 0.  1.
</event>
<event>
 4    1  0.3555026E+003  0.2013614E+03  0.7546771E-02  0.1054175E+00
          2   -1    0    0  502    0  0.00000000000E+00  0.00000000000E+00  0.14317754060E+03  0.14317754060E+03  0.00000000000E+00 0.  1.
          1   -1    0    0  501    0 -0.00000000000E+00 -0.00000000000E+00 -0.11908413933E+04  0.11908413933E+04  0.00000000000E+00 0. -1.
          2    1    1    2  501    0 -0.17730720546E+03 -0.95438917168E+02  0.58491956820E+02  0.20968486123E+03  0.00000000000E+00 0.  1.
          1    1    1    2  502    0  0.17730720546E+03  0.95438917168E+02 -0.11061558095E+04  0.11243340727E+04  0.00000000000E+00 0. -1.
</event>
<event>
 4    1  0.3555026E+003  0.2621394E+02  0.7546771E-02  0.1455668E+00
          2   -1    0    0  502    0  0.00000000000E+00  0.00000000000E+00  0.20773912860E+02  0.20773912860E+02  0.00000000000E+00 0.  1.
          1   -1    0    0  501    0 -0.00000000000E+00 -0.00000000000E+00 -0.26828012412E+03  0.26828012412E+03  0.00000000000E+00 0.  1.
          2    1    1    2  501    0 -0.65327096014E+00 -0.26205796093E+02  0.11570924804E+02  0.28654088934E+02  0.00000000000E+00 0.  1.
          1    1    1    2  502    0  0.65327096014E+00  0.26205796093E+02 -0.25907713607E+03  0.26039994805E+03  0.00000000000E+00 0.  1.
</event>
<event>
 4    1  0.3555026E+003  0.2518216E+02  0.7546771E-02  0.1466776E+00
          2   -1    0    0  502    0  0.00000000000E+00  0.00000000000E+00  0.81468571417E+03  0.81468571417E+03  0.00000000000E+00 0. -1.
          1   -1    0    0  501    0 -0.00000000000E+00 -0.00000000000E+00 -0.15564051974E+03  0.15564051974E+03  0.00000000000E+00 0.  1.
          2    1    1    2  501    0 -0.20370770313E+02  0.14804485521E+02  0.81347099772E+03  0.81386067924E+03  0.00000000000E+00 0. -1.
          1    1    1    2  502    0  0.20370770313E+02 -0.14804485521E+02 -0.15442580330E+03  0.15646555467E+03  0.00000000000E+00 0.  1.
</event>
<event>
 4    1  0.3555026E+003  0.2082226E+02  0.7546771E-02  0.1521818E+00
          2   -1    0    0  502    0  0.00000000000E+00  0.00000000000E+00  0.14325073579E+01  0.14325073579E+01  0.00000000000E+00 0. -1.
          1   -1    0    0  501    0 -0.00000000000E+00 -0.00000000000E+00 -0.35290601100E+03  0.35290601100E+03  0.00000000000E+00 0. -1.
          2    1    1    2  501    0 -0.98517649145E+01 -0.18344193119E+02 -0.10888735094E+03  0.11086037114E+03  0.00000000000E+00 0. -1.
          1    1    1    2  502    0  0.98517649145E+01  0.18344193119E+02 -0.24258615270E+03  0.24347814722E+03  0.00000000000E+00 0. -1.
</event>
<event>
 4    1  0.3555026E+003  0.2655674E+02  0.7546771E-02  0.1452112E+00
          2   -1    0    0  502    0  0.00000000000E+00  0.00000000000E+00  0.31575338480E+03  0.31575338480E+03  0.00000000000E+00 0.  1.
          1   -1    0    0  501    0 -0.00000000000E+00 -0.00000000000E+00 -0.16963104604E+03  0.16963104604E+03  0.00000000000E+00 0.  1.
          2    1    1    2  501    0 -0.19491896905E+02  0.18036813194E+02  0.31415029115E+03  0.31527078219E+03  0.00000000000E+00 0.  1.
          1    1    1    2  502    0  0.19491896905E+02 -0.18036813194E+02 -0.16802795238E+03  0.17011364865E+03  0.00000000000E+00 0.  1.
</event>
<event>
 4    1  0.3555026E+003  0.2040787E+02  0.7546771E-02  0.1527889E+00
          2   -1    0    0  502    0  0.00000000000E+00  0.00000000000E+00  0.10026108739E+01  0.10026108739E+01  0.00000000000E+00 0.  1.
          1   -1    0    0  501    0 -0.00000000000E+00 -0.00000000000E+00 -0.70765315722E+03  0.70765315722E+03  0.00000000000E+00 0.  1.
          2    1    1    2  501    0 -0.16073631513E+02 -0.12574564572E+02 -0.12561788455E+03  0.12726481926E+03  0.00000000000E+00 0.  1.
          1    1    1    2  502    0  0.16073631513E+02  0.12574564572E+02 -0.58103266180E+03  0.58139094883E+03  0.00000000000E+00 0.  1.
</event>
<event>
 4    1  0.3555026E+003  0.3486490E+02  0.7546771E-02  0.1381515E+00
          2   -1    0    0  502    0  0.00000000000E+00  0.00000000000E+00  0.53013400895E+01  0.53013400895E+01  0.00000000000E+00 0. -1.
          1   -1    0    0  501    0 -0.00000000000E+00 -0.00000000000E+00 -0.85601734057E+03  0.85601734057E+03  0.00000000000E+00 0. -1.
          2    1    1    2  501    0  0.11397581558E+02 -0.32949300996E+02 -0.56863681159E+02  0.66701120954E+02  0.00000000000E+00 0. -1.
          1    1    1    2  502    0 -0.11397581558E+02  0.32949300996E+02 -0.79385231933E+03  0.79461755971E+03  0.00000000000E+00 0. -1.
</event>
<event>
 4    1  0.3555026E+003  0.2353569E+02  0.7546771E-02  0.1485879E+00
          2   -1    0    0  502    0  0.00000000000E+00  0.00000000000E+00  0.91247278527E+01  0.91247278527E+01  0.00000000000E+00 0.  1.
          1   -1    0    0  501    0 -0.00000000000E+00 -0.00000000000E+00 -0.36537453112E+03  0.36537453112E+03  0.00000000000E+00 0.  1.
          2    1    1    2  501    0 -0.43915118462E+01 -0.23122359391E+02 -0.71369991856E+01  0.24594016294E+02  0.00000000000E+00 0.  1.
          1    1    1    2  502    0  0.43915118462E+01  0.23122359391E+02 -0.34911280408E+03  0.34990524268E+03  0.00000000000E+00 0.  1.
</event>
<event>
 4    1  0.3555026E+003  0.4388067E+02  0.7546771E-02  0.1327132E+00
          2   -1    0    0  502    0  0.00000000000E+00  0.00000000000E+00  0.46467855852E+03  0.46467855852E+03  0.00000000000E+00 0.  1.
          1   -1    0    0  501    0 -0.00000000000E+00 -0.00000000000E+00 -0.22660267603E+03  0.22660267603E+03  0.00000000000E+00 0.  1.
          2    1    1    2  501    0 -0.34548216336E+02 -0.27054281755E+02  0.46150371126E+03  0.46358514744E+03  0.00000000000E+00 0.  1.
          1    1    1    2  502    0  0.34548216336E+02  0.27054281755E+02 -0.22342782877E+03  0.22769608711E+03  0.00000000000E+00 0.  1.
</event>
<event>
 4    1  0.3555026E+003  0.3824720E+02  0.7546771E-02  0.1359075E+00
          2   -1    0    0  502    0  0.00000000000E+00  0.00000000000E+00  0.70312988315E+03  0.70312988315E+03  0.00000000000E+00 0.  1.
          1   -1    0    0  501    0 -0.00000000000E+00 -0.00000000000E+00 -0.26838032543E+01  0.26838032543E+01  0.00000000000E+00 0.  1.
          2    1    1    2  501    0  0.38246594299E+02 -0.21496630754E+00  0.51754752808E+03  0.51895885387E+03  0.00000000000E+00 0.  1.
          1    1    1    2  502    0 -0.38246594299E+02  0.21496630754E+00  0.18289855181E+03  0.18685483254E+03  0.00000000000E+00 0.  1.
</event>
<event>
 4    1  0.3555026E+003  0.9230075E+02  0.7546771E-02  0.1177862E+00
          2   -1    0    0  502    0  0.00000000000E+00  0.00000000000E+00  0.15921662957E+03  0.15921662957E+03  0.00000000000E+00 0. -1.
          1   -1    0    0  501    0 -0.00000000000E+00 -0.00000000000E+00 -0.29411048309E+03  0.29411048309E+03  0.00000000000E+00 0. -1.
          2    1    1    2  501    0  0.18058155779E+02  0.90517018374E+02  0.13756358746E+03  0.16565979657E+03  0.00000000000E+00 0. -1.
          1    1    1    2  502    0 -0.18058155779E+02 -0.90517018374E+02 -0.27245744097E+03  0.28766731609E+03  0.00000000000E+00 0. -1.
</event>
<event>
 4    1  0.3555026E+003  0.2429427E+02  0.7546771E-02  0.1476856E+00
          2   -1    0    0  502    0  0.00000000000E+00  0.00000000000E+00  0.48925544541E+01  0.48925544541E+01  0.00000000000E+00 0.  1.
          1   -1    0    0  501    0 -0.00000000000E+00 -0.00000000000E+00 -0.55489750123E+03  0.55489750123E+03  0.00000000000E+00 0. -1.
          2    1    1    2  501    0  0.15264405354E+02  0.18899980993E+02 -0.27394193335E+02  0.36614931119E+02  0.00000000000E+00 0.  1.
          1    1    1    2  502    0 -0.15264405354E+02 -0.18899980993E+02 -0.52261075344E+03  0.52317512457E+03  0.00000000000E+00 0. -1.
</event>
<event>
 4    1  0.3555026E+003  0.2001946E+02  0.7546771E-02  0.1533738E+00
          2   -1    0    0  502    0  0.00000000000E+00  0.00000000000E+00  0.72064466764E+03  0.72064466764E+03  0.00000000000E+00 0.  1.
          1   -1    0    0  501    0 -0.00000000000E+00 -0.00000000000E+00 -0.56942911484E+00  0.56942911484E+00  0.00000000000E+00 0.  1.
          2    1    1    2  501    0  0.14770197748E+02  0.13513677036E+02  0.30494572215E+03  0.30560214605E+03  0.00000000000E+00 0.  1.
          1    1    1    2  502    0 -0.14770197748E+02 -0.13513677036E+02  0.41512951637E+03  0.41561195071E+03  0.00000000000E+00 0.  1.
</event>
<event>
 4    1  0.3555026E+003  0.2211288E+02  0.7546771E-02  0.1503949E+00
          2   -1    0    0  502    0  0.00000000000E+00  0.00000000000E+00  0.11958492589E+04  0.11958492589E+04  0.00000000000E+00 0.  1.
          1   -1    0    0  501    0 -0.00000000000E+00 -0.00000000000E+00 -0.62661094872E+00  0.62661094872E+00  0.00000000000E+00 0.  1.
          2    1    1    2  501    0 -0.17991759557E+02 -0.12855966107E+02  0.95024030440E+03  0.95049756200E+03  0.00000000000E+00 0.  1.
          1    1    1    2  502    0  0.17991759557E+02  0.12855966107E+02  0.24498234358E+03  0.24597830787E+03  0.00000000000E+00 0.  1.
</event>
<event>
 4    1  0.3555026E+003  0.2435587E+02  0.7546771E-02  0.1476140E+00
          2   -1    0    0  502    0  0.00000000000E+00  0.00000000000E+00  0.10753648370E+03  0.10753648370E+03  0.00000000000E+00 0.  1.
          1   -1    0    0  501    0 -0.00000000000E+00 -0.00000000000E+00 -0.58019765004E+01  0.58019765004E+01  0.00000000000E+00 0. -1.
          2    1    1    2  501    0  0.23765281852E+02  0.53310316708E+01  0.63440896900E+02  0.67955543701E+02  0.00000000000E+00 0.  1.
          1    1    1    2  502    0 -0.23765281852E+02 -0.53310316708E+01  0.38293610297E+02  0.45382916497E+02  0.00000000000E+00 0. -1.
</event>
<event>
 4    1  0.3555026E+003  0.4175822E+02  0.7546771E-02  0.1338480E+00
          2   -1    0    0  502    0  0.00000000000E+00  0.00000000000E+00  0.83513140763E+03  0.83513140763E+03  0.00000000000E+00 0.  1.
          1   -1    0    0  501    0 -0.00000000000E+00 -0.00000000000E+00 -0.29586228031E+02  0.29586228031E+02  0.00000000000E+00 0. -1.
          2    1    1    2  501    0  0.21923882045E+02  0.35540010142E+02  0.81959583138E+03  0.82065892778E+03  0.00000000000E+00 0.  1.
          1    1    1    2  502    0 -0.21923882045E+02 -0.35540010142E+02 -0.14050651782E+02  0.44058707883E+02  0.00000000000E+00 0. -1.
</event>
<event>
 4    1  0.3555026E+003  0.3596701E+02  0.7546771E-02  0.1373889E+00
          2   -1    0    0  502    0  0.00000000000E+00  0.00000000000E+00  0.31871755809E+03  0.31871755809E+03  0.00000000000E+00 0. -1.
          1   -1    0    0  501    0 -0.00000000000E+00 -0.00000000000E+00 -0.59356427019E+01  0.59356427019E+01  0.00000000000E+00 0.  1.
          2    1    1    2  501    0 -0.27010432937E+02 -0.23749998650E+02  0.24766857084E+03  0.25026655171E+03  0.00000000000E+00 0. -1.
          1    1    1    2  502    0  0.27010432937E+02  0.23749998650E+02  0.65113344551E+02  0.74386649083E+02  0.00000000000E+00 0.  1.
</event>
<event>
 4    1  0.3555026E+003  0.2267339E+02  0.7546771E-02  0.1496641E+00
          2   -1    0    0  502    0  0.00000000000E+00  0.00000000000E+00  0.12133151348E+04  0.12133151348E+04  0.00000000000E+00 0.  1.
          1   -1    0    0  501    0 -0.00000000000E+00 -0.00000000000E+00 -0.21736467095E+01  0.21736467095E+01  0.00000000000E+00 0. -1.
          2    1    1    2  501    0  0.22668422025E+02 -0.47473731328E+00  0.11508748633E+04  0.11510981859E+04  0.00000000000E+00 0.  1.
          1    1    1    2  502    0 -0.22668422025E+02  0.47473731328E+00  0.60266624833E+02  0.64390595597E+02  0.00000000000E+00 0. -1.
</event>
<event>
 4    1  0.3555026E+003  0.2791460E+02  0.7546771E-02  0.1438631E+00
          2   -1    0    0  502    0  0.00000000000E+00  0.00000000000E+00  0.33486432871E+03  0.33486432871E+03  0.00000000000E+00 0. -1.
          1   -1    0    0  501    0 -0.00000000000E+00 -0.00000000000E+00 -0.13559814532E+04  0.13559814532E+04  0.00000000000E+00 0.  1.
          2    1    1    2  501    0  0.23001866793E+02  0.15815785235E+02  0.33413860610E+03  0.33530259919E+03  0.00000000000E+00 0. -1.
          1    1    1    2  502    0 -0.23001866793E+02 -0.15815785235E+02 -0.13552557306E+04  0.13555431827E+04  0.00000000000E+00 0.  1.
</event>
<event>
 4    1  0.3555026E+003  0.2141484E+02  0.7546771E-02  0.1513424E+00
          2   -1    0    0  502    0  0.00000000000E+00  0.00000000000E+00  0.10218543058E+02  0.10218543058E+02  0.00000000000E+00 0. -1.
          1   -1    0    0  501    0 -0.00000000000E+00 -0.00000000000E+00 -0.94054043972E+03  0.94054043972E+03  0.00000000000E+00 0. -1.
          2    1    1    2  501    0 -0.68082387951E+01 -0.20303776116E+02 -0.12616621994E+01  0.21451975004E+02  0.00000000000E+00 0. -1.
          1    1    1    2  502    0  0.68082387951E+01  0.20303776116E+02 -0.92906023446E+03  0.92930700777E+03  0.00000000000E+00 0. -1.
</event>
<event>
 4    1  0.3555026E+003  0.2071581E+02  0.7546771E-02  0.1523361E+00
          2   -1    0    0  502    0  0.00000000000E+00  0.00000000000E+00  0.31449632252E+01  0.31449632252E+01  0.00000000000E+00 0.  1.
          1   -1    0    0  501    0 -0.00000000000E+00 -0.00000000000E+00 -0.18644456000E+03  0.18644456000E+03  0.00000000000E+00 0. -1.
          2    1    1    2  501    0  0.23201232927E+01  0.20585474381E+02 -0.42564567785E+02  0.47338009657E+02  0.00000000000E+00 0.  1.
          1    1    1    2  502    0 -0.23201232927E+01 -0.20585474381E+02 -0.14073502899E+03  0.14225151357E+03  0.00000000000E+00 0. -1.
</event>
<event>
 4    1  0.3555026E+003  0.2227652E+02  0.7546771E-02  0.1501788E+00
          2   -1    0    0  502    0  0.00000000000E+00  0.00000000000E+00  0.25578113601E+02  0.25578113601E+02  0.00000000000E+00 0.  1.
          1   -1    0    0  501    0 -0.00000000000E+00 -0.00000000000E+00 -0.55717795900E+02  0.55717795900E+02  0.00000000000E+00 0.  1.
          2    1    1    2  501    0  0.21311443342E+02  0.64857943047E+01  0.17746865234E+02  0.28481474167E+02  0.00000000000E+00 0.  1.
          1    1    1    2  502    0 -0.21311443342E+02 -0.64857943047E+01 -0.47886547532E+02  0.52814435334E+02  0.00000000000E+00 0.  1.
</event>
<event>
 4    1  0.3555026E+003  0.2021601E+02  0.7546771E-02  0.1530759E+00
          2   -1    0    0  502    0  0.00000000000E+00  0.00000000000E+00  0.26438989123E+02  0.26438989123E+02  0.00000000000E+00 0. -1.
          1   -1    0    0  501    0 -0.00000000000E+00 -0.00000000000E+00 -0.50558446378E+03  0.50558446378E+03  0.00000000000E+00 0. -1.
          2    1    1    2  501    0 -0.10683611399E+02  0.17162387379E+02  0.22340900067E+02  0.30129767820E+02  0.00000000000E+00 0. -1.
          1    1    1    2  502    0  0.10683611399E+02 -0.17162387379E+02 -0.50148637473E+03  0.50189368509E+03  0.00000000000E+00 0. -1.
</event>
<event>
 4    1  0.3555026E+003  0.5819513E+02  0.7546771E-02  0.1266091E+00
          2   -1    0    0  502    0  0.00000000000E+00  0.00000000000E+00  0.14764712531E+02  0.14764712531E+02  0.00000000000E+00 0. -1.
          1   -1    0    0  501    0 -0.00000000000E+00 -0.00000000000E+00 -0.22334357966E+04  0.22334357966E+04  0.00000000000E+00 0. -1.
          2    1    1    2  501    0  0.78127870614E+01 -0.57668301974E+02 -0.44521834778E+02  0.73272549200E+02  0.00000000000E+00 0. -1.
          1    1    1    2  502    0 -0.78127870614E+01  0.57668301974E+02 -0.21741492493E+04  0.21749279600E+04  0.00000000000E+00 0. -1.
</event>
<event>
 4    1  0.3555026E+003  0.2835628E+02  0.7546771E-02  0.1434440E+00
          2   -1    0    0  502    0  0.00000000000E+00  0.00000000000E+00  0.49847201993E+02  0.49847201993E+02  0.00000000000E+00 0. -1.
          1   -1    0    0  501    0 -0.00000000000E+00 -0.00000000000E+00 -0.16223934404E+02  0.16223934404E+02  0.00000000000E+00 0. -1.
          2    1    1    2  501    0 -0.28106115696E+02  0.37581931643E+01  0.14309322420E+02  0.31762154579E+02  0.00000000000E+00 0. -1.
          1    1    1    2  502    0  0.28106115696E+02 -0.37581931643E+01  0.19313945169E+02  0.34308981818E+02  0.00000000000E+00 0. -1.
</event>
<event>
 4    1  0.3555026E+003  0.3233220E+02  0.7546771E-02  0.1400356E+00
          2   -1    0    0  502    0  0.00000000000E+00  0.00000000000E+00  0.84326735049E+01  0.84326735049E+01  0.00000000000E+00 0. -1.
          1   -1    0    0  501    0 -0.00000000000E+00 -0.00000000000E+00 -0.30458108498E+03  0.30458108498E+03  0.00000000000E+00 0. -1.
          2    1    1    2  501    0  0.10611240245E+02  0.30541333334E+02 -0.27554509700E+02  0.42480848228E+02  0.00000000000E+00 0. -1.
          1    1    1    2  502    0 -0.10611240245E+02 -0.30541333334E+02 -0.26859390177E+03  0.27053291025E+03  0.00000000000E+00 0. -1.
</event>
<event>
 4    1  0.3555026E+003  0.8909966E+02  0.7546771E-02  0.1184167E+00
          2   -1    0    0  502    0  0.00000000000E+00  0.00000000000E+00  0.93317552172E+03  0.93317552172E+03  0.00000000000E+00 0. -1.
          1   -1    0    0  501    0 -0.00000000000E+00 -0.00000000000E+00 -0.85560584679E+01  0.85560584679E+01  0.00000000000E+00 0. -1.
          2    1    1    2  501    0  0.87595744174E+02  0.16301380505E+02  0.49787665065E+03  0.50578642594E+03  0.00000000000E+00 0. -1.
          1    1    1    2  502    0 -0.87595744174E+02 -0.16301380505E+02  0.42674281261E+03  0.43594515425E+03  0.00000000000E+00 0. -1.
</event>
<event>
 4    1  0.3555026E+003  0.2475391E+02  0.7546771E-02  0.1471575E+00
          2   -1    0    0  502    0  0.00000000000E+00  0.00000000000E+00  0.59416203343E+01  0.59416203343E+01  0.00000000000E+00 0.  1.
          1   -1    0    0  501    0 -0.00000000000E+00 -0.00000000000E+00 -0.31828776909E+03  0.31828776909E+03  0.00000000000E+00 0.  1.
          2    1    1    2  501    0 -0.11397077109E+02  0.21974134311E+02 -0.22884938336E+02  0.33711664866E+02  0.00000000000E+00 0.  1.
          1    1    1    2  502    0  0.11397077109E+02 -0.21974134311E+02 -0.28946121042E+03  0.29051772456E+03  0.00000000000E+00 0.  1.
</event>
<event>
 4    1  0.3555026E+003  0.2128590E+02  0.7546771E-02  0.1515222E+00
          2   -1    0    0  502    0  0.00000000000E+00  0.00000000000E+00  0.17425275124E+02  0.17425275124E+02  0.00000000000E+00 0.  1.
          1   -1    0    0  501    0 -0.00000000000E+00 -0.00000000000E+00 -0.42068019628E+03  0.42068019628E+03  0.00000000000E+00 0.  1.
          2    1    1    2  501    0  0.11043341871E+02 -0.18197096524E+02  0.10547576556E+02  0.23755864387E+02  0.00000000000E+00 0.  1.
          1    1    1    2  502    0 -0.11043341871E+02  0.18197096524E+02 -0.41380249771E+03  0.41434960702E+03  0.00000000000E+00 0.  1.
</event>
<event>
 4    1  0.3555026E+003  0.3855328E+02  0.7546771E-02  0.1357179E+00
          2   -1    0    0  502    0  0.00000000000E+00  0.00000000000E+00  0.59586118993E+03  0.59586118993E+03  0.00000000000E+00 0. -1.
          1   -1    0    0  501    0 -0.00000000000E+00 -0.00000000000E+00 -0.43119742732E+01  0.43119742732E+01  0.00000000000E+00 0. -1.
          2    1    1    2  501    0 -0.17106937159E+02 -0.34550076874E+02  0.49060054256E+03  0.49211304338E+03  0.00000000000E+00 0. -1.
          1    1    1    2  502    0  0.17106937159E+02  0.34550076874E+02  0.10094867310E+03  0.10806012082E+03  0.00000000000E+00 0. -1.
</event>
<event>
 4    1  0.3555026E+003  0.2157388E+02  0.7546771E-02  0.1511227E+00
          2   -1    0    0  502    0  0.00000000000E+00  0.00000000000E+00  0.73546026122E+02  0.73546026122E+02  0.00000000000E+00 0. -1.
          1   -1    0    0  501    0 -0.00000000000E+00 -0.00000000000E+00 -0.10820354898E+04  0.10820354898E+04  0.00000000000E+00 0. -1.
          2    1    1    2  501    0  0.10871922955E+02  0.18634200176E+02  0.71853900349E+02  0.75022764014E+02  0.00000000000E+00 0. -1.
          1    1    1    2  502    0 -0.10871922955E+02 -0.18634200176E+02 -0.10803433641E+04  0.10805587520E+04  0.00000000000E+00 0. -1.
</event>
<event>
 4    1  0.3555026E+003  0.3235104E+02  0.7546771E-02  0.1400208E+00
          2   -1    0    0  502    0  0.00000000000E+00  0.00000000000E+00  0.69625641590E+02  0.69625641590E+02  0.00000000000E+00 0.  1.
          1   -1    0    0  501    0 -0.00000000000E+00 -0.00000000000E+00 -0.47755261335E+03  0.47755261335E+03  0.00000000000E+00 0. -1.
          2    1    1    2  501    0  0.26398365223E+02 -0.18700696840E+02  0.65285404509E+02  0.72861332616E+02  0.00000000000E+00 0.  1.
          1    1    1    2  502    0 -0.26398365223E+02  0.18700696840E+02 -0.47321237627E+03  0.47431692232E+03  0.00000000000E+00 0. -1.
</event>
<event>
 4    1  0.3555026E+003  0.2166038E+02  0.7546771E-02  0.1510042E+00
          2   -1    0    0  502    0  0.00000000000E+00  0.00000000000E+00  0.55135948407E+01  0.55135948407E+01  0.00000000000E+00 0. -1.
          1   -1    0    0  501    0 -0.00000000000E+00 -0.00000000000E+00 -0.65929433611E+03  0.65929433611E+03  0.00000000000E+00 0.  1.
          2    1    1    2  501    0 -0.20418215535E+02  0.72296899582E+01 -0.16678526838E+02  0.27337615112E+02  0.00000000000E+00 0. -1.
          1    1    1    2  502    0  0.20418215535E+02 -0.72296899582E+01 -0.63710221444E+03  0.63747031584E+03  0.00000000000E+00 0.  1.
</event>
<event>
 4    1  0.3555026E+003  0.2092519E+02  0.7546771E-02  0.1520336E+00
          2   -1    0    0  502    0  0.00000000000E+00  0.00000000000E+00  0.92686336447E+01  0.92686336447E+01  0.00000000000E+00 0.  1.
          1   -1    0    0  501    0 -0.00000000000E+00 -0.00000000000E+00 -0.10257662751E+03  0.10257662751E+03  0.00000000000E+00 0.  1.
          2    1    1    2  501    0 -0.19225061630E+02  0.82619962921E+01 -0.55802723448E+01  0.21656477481E+02  0.00000000000E+00 0.  1.
          1    1    1    2  502    0  0.19225061630E+02 -0.82619962921E+01 -0.87727721516E+02  0.90188783670E+02  0.00000000000E+00 0.  1.
</event>
<event>
 4    1  0.3555026E+003  0.3188254E+02  0.7546771E-02  0.1403913E+00
          2   -1    0    0  502    0  0.00000000000E+00  0.00000000000E+00  0.33742739162E+02  0.33742739162E+02  0.00000000000E+00 0.  1.
          1   -1    0    0  501    0 -0.00000000000E+00 -0.00000000000E+00 -0.44664439749E+03  0.44664439749E+03  0.00000000000E+00 0. -1.
          2    1    1    2  501    0 -0.31019238976E+02 -0.73690504654E+01  0.25501162055E+02  0.40826527621E+02  0.00000000000E+00 0.  1.
          1    1    1    2  502    0  0.31019238976E+02  0.73690504654E+01 -0.43840282038E+03  0.43956060903E+03  0.00000000000E+00 0. -1.
</event>
<event>
 4    1  0.3555026E+003  0.2527920E+02  0.7546771E-02  0.1465704E+00
          2   -1    0    0  502    0  0.00000000000E+00  0.00000000000E+00  0.91938347026E+03  0.91938347026E+03  0.00000000000E+00 0.  1.
          1   -1    0    0  501    0 -0.00000000000E+00 -0.00000000000E+00 -0.59652478317E+01  0.59652478317E+01  0.00000000000E+00 0.  1.
          2    1    1    2  501    0 -0.97878307282E+01  0.23307435778E+02  0.89159339895E+03  0.89195169558E+03  0.00000000000E+00 0.  1.
          1    1    1    2  502    0  0.97878307282E+01 -0.23307435778E+02  0.21824823478E+02  0.33397022513E+02  0.00000000000E+00 0.  1.
</event>
<event>
 4    1  0.3570995E+003  0.2133027E+02  0.7546771E-02  0.1514601E+00
          2   -1    0    0  502    0  0.00000000000E+00  0.00000000000E+00  0.95402887998E+03  0.95402887998E+03  0.00000000000E+00 0.  1.
          1   -1    0    0  501    0 -0.00000000000E+00 -0.00000000000E+00 -0.42874829197E+03  0.42874829197E+03  0.00000000000E+00 0.  1.
          2    1    1    2  501    0  0.23580978088E+00 -0.21328971098E+02  0.95364425101E+03  0.95388276958E+03  0.00000000000E+00 0.  1.
          1    1    1    2  502    0 -0.23580978088E+00  0.21328971098E+02 -0.42836366299E+03  0.42889440237E+03  0.00000000000E+00 0.  1.
</event>
<event>
 4    1  0.3555026E+003  0.2091522E+02  0.7546771E-02  0.1520479E+00
          2   -1    0    0  502    0  0.00000000000E+00  0.00000000000E+00  0.83684881852E+03  0.83684881852E+03  0.00000000000E+00 0. -1.
          1   -1    0    0  501    0 -0.00000000000E+00 -0.00000000000E+00 -0.28369154056E+01  0.28369154056E+01  0.00000000000E+00 0. -1.
          2    1    1    2  501    0 -0.14266401589E+01  0.20866506190E+02  0.79620096409E+03  0.79647562524E+03  0.00000000000E+00 0. -1.
          1    1    1    2  502    0  0.14266401589E+01 -0.20866506190E+02  0.37810939021E+02  0.43210108683E+02  0.00000000000E+00 0. -1.
</event>
<event>
 4    1  0.3555026E+003  0.2164518E+02  0.7546771E-02  0.1510249E+00
          2   -1    0    0  502    0  0.00000000000E+00  0.00000000000E+00  0.17755975379E+01  0.17755975379E+01  0.00000000000E+00 0. -1.
          1   -1    0    0  501    0 -0.00000000000E+00 -0.00000000000E+00 -0.42027644670E+03  0.42027644670E+03  0.00000000000E+00 0. -1.
          2    1    1    2  501    0 -0.99125300961E+01 -0.19242026571E+02 -0.80512637160E+02  0.83371449441E+02  0.00000000000E+00 0. -1.
          1    1    1    2  502    0  0.99125300961E+01  0.19242026571E+02 -0.33798821201E+03  0.33868059480E+03  0.00000000000E+00 0. -1.
</event>
<event>
 4    1  0.3555026E+003  0.3150488E+02  0.7546771E-02  0.1406955E+00
          2   -1    0    0  502    0  0.00000000000E+00  0.00000000000E+00  0.13159130084E+04  0.13159130084E+04  0.00000000000E+00 0.  1.
          1   -1    0    0  501    0 -0.00000000000E+00 -0.00000000000E+00 -0.33129298792E+01  0.33129298792E+01  0.00000000000E+00 0. -1.
          2    1    1    2  501    0  0.30145403333E+02 -0.91548803579E+01  0.12359811113E+04  0.12363825721E+04  0.00000000000E+00 0.  1.
          1    1    1    2  502    0 -0.30145403333E+02  0.91548803579E+01  0.76618967187E+02  0.82843366115E+02  0.00000000000E+00 0. -1.
</event>
<event>
 4    1  0.3555026E+003  0.2819007E+02  0.7546771E-02  0.1436006E+00
          2   -1    0    0  502    0  0.00000000000E+00  0.00000000000E+00  0.26473188197E+02  0.26473188197E+02  0.00000000000E+00 0. -1.
          1   -1    0    0  501    0 -0.00000000000E+00 -0.00000000000E+00 -0.64004818560E+02  0.64004818560E+02  0.00000000000E+00 0. -1.
          2    1    1    2  501    0  0.15165870004E+00 -0.28189658256E+02  0.14199717583E+02  0.31564407366E+02  0.00000000000E+00 0. -1.
          1    1    1    2  502    0 -0.15165870004E+00  0.28189658256E+02 -0.51731347946E+02  0.58913599391E+02  0.00000000000E+00 0. -1.
</event>
<event>
 4    1  0.3555026E+003  0.2266272E+02  0.7546771E-02  0.1496777E+00
          2   -1    0    0  502    0  0.00000000000E+00  0.00000000000E+00  0.32125508404E+03  0.32125508404E+03  0.00000000000E+00 0.  1.
          1   -1    0    0  501    0 -0.00000000000E+00 -0.00000000000E+00 -0.16410317300E+01  0.16410317300E+01  0.00000000000E+00 0.  1.
          2    1    1    2  501    0 -0.88216184449E+01  0.20875286237E+02  0.13388438945E+03  0.13578891068E+03  0.00000000000E+00 0.  1.
          1    1    1    2  502    0  0.88216184449E+01 -0.20875286237E+02  0.18572966286E+03  0.18710720508E+03  0.00000000000E+00 0.  1.
</event>
<event>
 4    1  0.3555026E+003  0.2674605E+02  0.7546771E-02  0.1450176E+00
          2   -1    0    0  502    0  0.00000000000E+00  0.00000000000E+00  0.27603957405E+03  0.27603957405E+03  0.00000000000E+00 0. -1.
          1   -1    0    0  501    0 -0.00000000000E+00 -0.00000000000E+00 -0.70697607403E+03  0.70697607403E+03  0.00000000000E+00 0.  1.
          2    1    1    2  501    0  0.21684329381E+02 -0.15656986060E+02  0.27513791507E+03  0.27643484523E+03  0.00000000000E+00 0. -1.
          1    1    1    2  502    0 -0.21684329381E+02  0.15656986060E+02 -0.70607441506E+03  0.70658080285E+03  0.00000000000E+00 0.  1.
</event>
<event>
 4    1  0.3555026E+003  0.2692368E+02  0.7546771E-02  0.1448376E+00
          2   -1    0    0  502    0  0.00000000000E+00  0.00000000000E+00  0.65454879068E+03  0.65454879068E+03  0.00000000000E+00 0.  1.
          1   -1    0    0  501    0 -0.00000000000E+00 -0.00000000000E+00 -0.32565094728E+02  0.32565094728E+02  0.00000000000E+00 0. -1.
          2    1    1    2  501    0 -0.21529797603E+02  0.16166388499E+02  0.64865651077E+03  0.64921502853E+03  0.00000000000E+00 0.  1.
          1    1    1    2  502    0  0.21529797603E+02 -0.16166388499E+02 -0.26672814823E+02  0.37898856876E+02  0.00000000000E+00 0. -1.
</event>
<event>
 4    1  0.3555026E+003  0.1085495E+03  0.7546771E-02  0.1149764E+00
          2   -1    0    0  502    0  0.00000000000E+00  0.00000000000E+00  0.44808076197E+03  0.44808076197E+03  0.00000000000E+00 0. -1.
          1   -1    0    0  501    0 -0.00000000000E+00 -0.00000000000E+00 -0.26541257195E+02  0.26541257195E+02  0.00000000000E+00 0.  1.
          2    1    1    2  501    0 -0.77811603824E+02 -0.75685897813E+02  0.23355404965E+03  0.25754707322E+03  0.00000000000E+00 0. -1.
          1    1    1    2  502    0  0.77811603824E+02  0.75685897813E+02  0.18798545513E+03  0.21707494594E+03  0.00000000000E+00 0.  1.
</event>
<event>
 4    1  0.3555026E+003  0.3288897E+02  0.7546771E-02  0.1396044E+00
          2   -1    0    0  502    0  0.00000000000E+00  0.00000000000E+00  0.30054075362E+01  0.30054075362E+01  0.00000000000E+00 0. -1.
          1   -1    0    0  501    0 -0.00000000000E+00 -0.00000000000E+00 -0.36006227519E+03  0.36006227519E+03  0.00000000000E+00 0. -1.
          2    1    1    2  501    0  0.14824922342E+02 -0.29358223010E+02 -0.18223153406E+03  0.18517563443E+03  0.00000000000E+00 0. -1.
          1    1    1    2  502    0 -0.14824922342E+02  0.29358223010E+02 -0.17482533360E+03  0.17789204830E+03  0.00000000000E+00 0. -1.
</event>
<event>
 4    1  0.3555026E+003  0.2352545E+02  0.7546771E-02  0.1486003E+00
          2   -1    0    0  502    0  0.00000000000E+00  0.00000000000E+00  0.15607843564E+04  0.15607843564E+04  0.00000000000E+00 0. -1.
          1   -1    0    0  501    0 -0.00000000000E+00 -0.00000000000E+00 -0.29563094545E+03  0.29563094545E+03  0.00000000000E+00 0.  1.
          2    1    1    2  501    0 -0.16089232235E+02 -0.17163429611E+02  0.15602275190E+04  0.15604048698E+04  0.00000000000E+00 0. -1.
          1    1    1    2  502    0  0.16089232235E+02  0.17163429611E+02 -0.29507410798E+03  0.29601043210E+03  0.00000000000E+00 0.  1.
</event>
<event>
 4    1  0.3555026E+003  0.4383277E+02  0.7546771E-02  0.1327380E+00
          2   -1    0    0  502    0  0.00000000000E+00  0.00000000000E+00  0.80237336172E+01  0.80237336172E+01  0.00000000000E+00 0.  1.
          1   -1    0    0  501    0 -0.00000000000E+00 -0.00000000000E+00 -0.32767047396E+03  0.32767047396E+03  0.00000000000E+00 0.  1.
          2    1    1    2  501    0 -0.37682361259E+02 -0.22390883628E+02 -0.72732828330E+02  0.84919822990E+02  0.00000000000E+00 0.  1.
          1    1    1    2  502    0  0.37682361259E+02  0.22390883628E+02 -0.24691391201E+03  0.25077438459E+03  0.00000000000E+00 0.  1.
</event>
<event>
 4    1  0.3555026E+003  0.5169437E+02  0.7546771E-02  0.1290989E+00
          2   -1    0    0  502    0  0.00000000000E+00  0.00000000000E+00  0.78509275577E+03  0.78509275577E+03  0.00000000000E+00 0. -1.
          1   -1    0    0  501    0 -0.00000000000E+00 -0.00000000000E+00 -0.25783774364E+03  0.25783774364E+03  0.00000000000E+00 0.  1.
          2    1    1    2  501    0  0.49812373825E+02 -0.13821542325E+02  0.78163929256E+03  0.78334685248E+03  0.00000000000E+00 0. -1.
          1    1    1    2  502    0 -0.49812373825E+02  0.13821542325E+02 -0.25438428043E+03  0.25958364692E+03  0.00000000000E+00 0.  1.
</event>
<event>
 4    1  0.3555026E+003  0.2575061E+02  0.7546771E-02  0.1460579E+00
          2   -1    0    0  502    0  0.00000000000E+00  0.00000000000E+00  0.34788614929E+03  0.34788614929E+03  0.00000000000E+00 0.  1.
          1   -1    0    0  501    0 -0.00000000000E+00 -0.00000000000E+00 -0.33377193734E+01  0.33377193734E+01  0.00000000000E+00 0.  1.
          2    1    1    2  501    0 -0.25734280806E+02  0.91664101555E+00  0.57260856646E+02  0.62784545416E+02  0.00000000000E+00 0.  1.
          1    1    1    2  502    0  0.25734280806E+02 -0.91664101555E+00  0.28728757327E+03  0.28843932325E+03  0.00000000000E+00 0.  1.
</event>
<event>
 4    1  0.3555026E+003  0.2103755E+02  0.7546771E-02  0.1518729E+00
          2   -1    0    0  502    0  0.00000000000E+00  0.00000000000E+00  0.14733242445E+03  0.14733242445E+03  0.00000000000E+00 0. -1.
          1   -1    0    0  501    0 -0.00000000000E+00 -0.00000000000E+00 -0.15318083781E+04  0.15318083781E+04  0.00000000000E+00 0.  1.
          2    1    1    2  501    0  0.31071013441E+01 -0.20806838487E+02  0.14650880264E+03  0.14801151258E+03  0.00000000000E+00 0. -1.
          1    1    1    2  502    0 -0.31071013441E+01  0.20806838487E+02 -0.15309847563E+04  0.15311292899E+04  0.00000000000E+00 0.  1.
</event>
<event>
 4    1  0.3555026E+003  0.2076565E+02  0.7546771E-02  0.1522637E+00
          2   -1    0    0  502    0  0.00000000000E+00  0.00000000000E+00  0.40590257806E+02  0.40590257806E+02  0.00000000000E+00 0.  1.
          1   -1    0    0  501    0 -0.00000000000E+00 -0.00000000000E+00 -0.10835267322E+02  0.10835267322E+02  0.00000000000E+00 0.  1.
          2    1    1    2  501    0 -0.16206592298E+02  0.12983018413E+02  0.18471784209E+02  0.27792430856E+02  0.00000000000E+00 0.  1.
          1    1    1    2  502    0  0.16206592298E+02 -0.12983018413E+02  0.11283206276E+02  0.23633094272E+02  0.00000000000E+00 0.  1.
</event>
<event>
 4    1  0.3555026E+003  0.3654501E+02  0.7546771E-02  0.1370015E+00
          2   -1    0    0  502    0  0.00000000000E+00  0.00000000000E+00  0.96942662364E+03  0.96942662364E+03  0.00000000000E+00 0. -1.
          1   -1    0    0  501    0 -0.00000000000E+00 -0.00000000000E+00 -0.37771406286E+02  0.37771406286E+02  0.00000000000E+00 0.  1.
          2    1    1    2  501    0 -0.36351784277E+02 -0.37530857113E+01  0.96015729368E+03  0.96085252067E+03  0.00000000000E+00 0. -1.
          1    1    1    2  502    0  0.36351784277E+02  0.37530857113E+01 -0.28502076331E+02  0.46345509250E+02  0.00000000000E+00 0.  1.
</event>
<event>
 4    1  0.3555026E+003  0.2654447E+02  0.7546771E-02  0.1452238E+00
          2   -1    0    0  502    0  0.00000000000E+00  0.00000000000E+00  0.90724494460E+01  0.90724494460E+01  0.00000000000E+00 0. -1.
          1   -1    0    0  501    0 -0.00000000000E+00 -0.00000000000E+00 -0.37806987130E+03  0.37806987130E+03  0.00000000000E+00 0.  1.
          2    1    1    2  501    0  0.26522301799E+02  0.10845915630E+01 -0.11951342721E+02  0.29110881546E+02  0.00000000000E+00 0. -1.
          1    1    1    2  502    0 -0.26522301799E+02 -0.10845915630E+01 -0.35704607914E+03  0.35803143920E+03  0.00000000000E+00 0.  1.
</event>
<event>
 4    1  0.3555026E+003  0.6600347E+02  0.7546771E-02  0.1240694E+00
          2   -1    0    0  502    0  0.00000000000E+00  0.00000000000E+00  0.14430208130E+04  0.14430208130E+04  0.00000000000E+00 0.  1.
          1   -1    0    0  501    0 -0.00000000000E+00 -0.00000000000E+00 -0.65219384694E+01  0.65219384694E+01  0.00000000000E+00 0. -1.
          2    1    1    2  501    0 -0.55135521510E+02 -0.36284058307E+02  0.12494149261E+04  0.12511571109E+04  0.00000000000E+00 0.  1.
          1    1    1    2  502    0  0.55135521510E+02  0.36284058307E+02  0.18708394841E+03  0.19838564054E+03  0.00000000000E+00 0. -1.
</event>
<event>
 4    1  0.3555026E+003  0.4574927E+02  0.7546771E-02  0.1317735E+00
          2   -1    0    0  502    0  0.00000000000E+00  0.00000000000E+00  0.88029293784E+01  0.88029293784E+01  0.00000000000E+00 0. -1.
          1   -1    0    0  501    0 -0.00000000000E+00 -0.00000000000E+00 -0.83833054988E+03  0.83833054988E+03  0.00000000000E+00 0. -1.
          2    1    1    2  501    0 -0.30133150192E+02  0.34423664997E+02 -0.56258354375E+02  0.72512053407E+02  0.00000000000E+00 0. -1.
          1    1    1    2  502    0  0.30133150192E+02 -0.34423664997E+02 -0.77326926613E+03  0.77462142585E+03  0.00000000000E+00 0. -1.
</event>
<event>
 4    1  0.3555026E+003  0.2099321E+02  0.7546771E-02  0.1519362E+00
          2   -1    0    0  502    0  0.00000000000E+00  0.00000000000E+00  0.92416355528E+03  0.92416355528E+03  0.00000000000E+00 0.  1.
          1   -1    0    0  501    0 -0.00000000000E+00 -0.00000000000E+00 -0.24919073183E+03  0.24919073183E+03  0.00000000000E+00 0. -1.
          2    1    1    2  501    0  0.18503810899E+02  0.99158303352E+01  0.92360192059E+03  0.92384047456E+03  0.00000000000E+00 0.  1.
          1    1    1    2  502    0 -0.18503810899E+02 -0.99158303352E+01 -0.24862909714E+03  0.24951381255E+03  0.00000000000E+00 0. -1.
</event>
<event>
 4    1  0.3555026E+003  0.3949438E+02  0.7546771E-02  0.1351474E+00
          2   -1    0    0  502    0  0.00000000000E+00  0.00000000000E+00  0.38940524046E+03  0.38940524046E+03  0.00000000000E+00 0.  1.
          1   -1    0    0  501    0 -0.00000000000E+00 -0.00000000000E+00 -0.15068621880E+02  0.15068621880E+02  0.00000000000E+00 0.  1.
          2    1    1    2  501    0 -0.26300616202E+02 -0.29463257024E+02  0.36045306882E+03  0.36261028771E+03  0.00000000000E+00 0.  1.
          1    1    1    2  502    0  0.26300616202E+02  0.29463257024E+02  0.13883549755E+02  0.41863574631E+02  0.00000000000E+00 0.  1.
</event>
<event>
 4    1  0.3555026E+003  0.2106886E+02  0.7546771E-02  0.1518284E+00
          2   -1    0    0  502    0  0.00000000000E+00  0.00000000000E+00  0.61968002038E+00  0.61968002038E+00  0.00000000000E+00 0.  1.
          1   -1    0    0  501    0 -0.00000000000E+00 -0.00000000000E+00 -0.16535474006E+04  0.16535474006E+04  0.00000000000E+00 0.  1.
          2    1    1    2  501    0 -0.18423001689E+02 -0.10222023909E+02 -0.20378989019E+03  0.20487609941E+03  0.00000000000E+00 0.  1.
          1    1    1    2  502    0  0.18423001689E+02  0.10222023909E+02 -0.14491378304E+04  0.14492909812E+04  0.00000000000E+00 0.  1.
</event>
<event>
 4    1  0.3555026E+003  0.2506308E+02  0.7546771E-02  0.1468099E+00
          2   -1    0    0  502    0  0.00000000000E+00  0.00000000000E+00  0.71958729991E+01  0.71958729991E+01  0.00000000000E+00 0.  1.
          1   -1    0    0  501    0 -0.00000000000E+00 -0.00000000000E+00 -0.52899586576E+03  0.52899586576E+03  0.00000000000E+00 0.  1.
          2    1    1    2  501    0 -0.33831703509E+01 -0.24833691413E+02 -0.15921200366E+02  0.29692468606E+02  0.00000000000E+00 0.  1.
          1    1    1    2  502    0  0.33831703509E+01  0.24833691413E+02 -0.50587879239E+03  0.50649927015E+03  0.00000000000E+00 0.  1.
</event>
<event>
 4    1  0.3555026E+003  0.2591308E+02  0.7546771E-02  0.1458843E+00
          2   -1    0    0  502    0  0.00000000000E+00  0.00000000000E+00  0.34864993561E+03  0.34864993561E+03  0.00000000000E+00 0. -1.
          1   -1    0    0  501    0 -0.00000000000E+00 -0.00000000000E+00 -0.26378715066E+01  0.26378715066E+01  0.00000000000E+00 0.  1.
          2    1    1    2  501    0 -0.16810386743E+02  0.19720511779E+02  0.26425283217E+03  0.26552033255E+03  0.00000000000E+00 0. -1.
          1    1    1    2  502    0  0.16810386743E+02 -0.19720511779E+02  0.81759231933E+02  0.85767474566E+02  0.00000000000E+00 0.  1.
</event>
<event>
 4    1  0.3555026E+003  0.2965964E+02  0.7546771E-02  0.1422578E+00
          2   -1    0    0  502    0  0.00000000000E+00  0.00000000000E+00  0.76107018978E+03  0.76107018978E+03  0.00000000000E+00 0.  1.
          1   -1    0    0  501    0 -0.00000000000E+00 -0.00000000000E+00 -0.17794888329E+02  0.17794888329E+02  0.00000000000E+00 0. -1.
          2    1    1    2  501    0  0.14234764896E+02 -0.26020480773E+02  0.74821008489E+03  0.74879771974E+03  0.00000000000E+00 0.  1.
          1    1    1    2  502    0 -0.14234764896E+02  0.26020480773E+02 -0.49347834481E+01  0.30067358364E+02  0.00000000000E+00 0. -1.
</event>
<event>
 4    1  0.3555026E+003  0.2217022E+02  0.7546771E-02  0.1503189E+00
          2   -1    0    0  502    0  0.00000000000E+00  0.00000000000E+00  0.62498142178E+02  0.62498142178E+02  0.00000000000E+00 0. -1.
          1   -1    0    0  501    0 -0.00000000000E+00 -0.00000000000E+00 -0.83909446445E+01  0.83909446445E+01  0.00000000000E+00 0. -1.
          2    1    1    2  501    0  0.21137688127E+02  0.66870628875E+01  0.35931430601E+02  0.42220686570E+02  0.00000000000E+00 0. -1.
          1    1    1    2  502    0 -0.21137688127E+02 -0.66870628875E+01  0.18175766932E+02  0.28668400252E+02  0.00000000000E+00 0. -1.
</event>
<event>
 4    1  0.3555026E+003  0.4017613E+02  0.7546771E-02  0.1347457E+00
          2   -1    0    0  502    0  0.00000000000E+00  0.00000000000E+00  0.19858428018E+02  0.19858428018E+02  0.00000000000E+00 0.  1.
          1   -1    0    0  501    0 -0.00000000000E+00 -0.00000000000E+00 -0.23836624157E+04  0.23836624157E+04  0.00000000000E+00 0. -1.
          2    1    1    2  501    0 -0.13895600505E+02 -0.37696604841E+02 -0.80893768242E+00  0.40184276902E+02  0.00000000000E+00 0.  1.
          1    1    1    2  502    0  0.13895600505E+02  0.37696604841E+02 -0.23629950500E+04  0.23633365668E+04  0.00000000000E+00 0. -1.
</event>
<event>
 4    1  0.3555026E+003  0.6668243E+02  0.7546771E-02  0.1238675E+00
          2   -1    0    0  502    0  0.00000000000E+00  0.00000000000E+00  0.10013642621E+04  0.10013642621E+04  0.00000000000E+00 0.  1.
          1   -1    0    0  501    0 -0.00000000000E+00 -0.00000000000E+00 -0.88495587665E+03  0.88495587665E+03  0.00000000000E+00 0. -1.
          2    1    1    2  501    0  0.61840602773E+02  0.24945659456E+02  0.99899501517E+03  0.10012180514E+04  0.00000000000E+00 0.  1.
          1    1    1    2  502    0 -0.61840602773E+02 -0.24945659456E+02 -0.88258662972E+03  0.88510208736E+03  0.00000000000E+00 0. -1.
</event>
<event>
 4    1  0.3555026E+003  0.2362503E+02  0.7546771E-02  0.1484795E+00
          2   -1    0    0  502    0  0.00000000000E+00  0.00000000000E+00  0.29550302090E+03  0.29550302090E+03  0.00000000000E+00 0. -1.
          1   -1    0    0  501    0 -0.00000000000E+00 -0.00000000000E+00 -0.39848265212E+01  0.39848265212E+01  0.00000000000E+00 0.  1.
          2    1    1    2  501    0 -0.21831866319E+02  0.90283710823E+01  0.25436273441E+03  0.25545751609E+03  0.00000000000E+00 0. -1.
          1    1    1    2  502    0  0.21831866319E+02 -0.90283710823E+01  0.37155459964E+02  0.44030331324E+02  0.00000000000E+00 0.  1.
</event>
<event>
 4    1  0.3555026E+003  0.5270023E+02  0.7546771E-02  0.1286871E+00
          2   -1    0    0  502    0  0.00000000000E+00  0.00000000000E+00  0.22630326575E+04  0.22630326575E+04  0.00000000000E+00 0. -1.
          1   -1    0    0  501    0 -0.00000000000E+00 -0.00000000000E+00 -0.78788266104E+01  0.78788266104E+01  0.00000000000E+00 0.  1.
          2    1    1    2  501    0 -0.44276238151E+02  0.28581968729E+02  0.21708587168E+04  0.21714983036E+04  0.00000000000E+00 0. -1.
          1    1    1    2  502    0  0.44276238151E+02 -0.28581968729E+02  0.84295114091E+02  0.99413180519E+02  0.00000000000E+00 0.  1.
</event>
<event>
 4    1  0.3555026E+003  0.2039924E+02  0.7546771E-02  0.1528018E+00
          2   -1    0    0  502    0  0.00000000000E+00  0.00000000000E+00  0.32703044089E+03  0.32703044089E+03  0.00000000000E+00 0.  1.
          1   -1    0    0  501    0 -0.00000000000E+00 -0.00000000000E+00 -0.16188016444E+02  0.16188016444E+02  0.00000000000E+00 0. -1.
          2    1    1    2  501    0  0.20399115678E+02  0.72056108711E-01  0.32014781078E+03  0.32079705401E+03  0.00000000000E+00 0.  1.
          1    1    1    2  502    0 -0.20399115678E+02 -0.72056108711E-01 -0.93053863311E+01  0.22421403330E+02  0.00000000000E+00 0. -1.
</event>
<event>
 4    1  0.3555026E+003  0.3013339E+02  0.7546771E-02  0.1418441E+00
          2   -1    0    0  502    0  0.00000000000E+00  0.00000000000E+00  0.11894232381E+04  0.11894232381E+04  0.00000000000E+00 0.  1.
          1   -1    0    0  501    0 -0.00000000000E+00 -0.00000000000E+00 -0.25846987411E+01  0.25846987411E+01  0.00000000000E+00 0. -1.
          2    1    1    2  501    0 -0.21442738509E+02 -0.21171453397E+02  0.10937223748E+04  0.10941374021E+04  0.00000000000E+00 0.  1.
          1    1    1    2  502    0  0.21442738509E+02  0.21171453397E+02  0.93116164538E+02  0.97870534748E+02  0.00000000000E+00 0. -1.
</event>
<event>
 4    1  0.3555026E+003  0.2764326E+02  0.7546771E-02  0.1441251E+00
          2   -1    0    0  502    0  0.00000000000E+00  0.00000000000E+00  0.47379333835E+02  0.47379333835E+02  0.00000000000E+00 0.  1.
          1   -1    0    0  501    0 -0.00000000000E+00 -0.00000000000E+00 -0.18295305027E+03  0.18295305027E+03  0.00000000000E+00 0. -1.
          2    1    1    2  501    0 -0.40100742244E+01  0.27350852274E+02  0.42185965092E+02  0.50436152372E+02  0.00000000000E+00 0.  1.
          1    1    1    2  502    0  0.40100742244E+01 -0.27350852274E+02 -0.17775968152E+03  0.17989623173E+03  0.00000000000E+00 0. -1.
</event>
<event>
 4    1  0.3555026E+003  0.2426401E+02  0.7546771E-02  0.1477208E+00
          2   -1    0    0  502    0  0.00000000000E+00  0.00000000000E+00  0.18753942801E+04  0.18753942801E+04  0.00000000000E+00 0. -1.
          1   -1    0    0  501    0 -0.00000000000E+00 -0.00000000000E+00 -0.64529666786E+00  0.64529666786E+00  0.00000000000E+00 0.  1.
          2    1    1    2  501    0  0.12813559532E+02  0.20604724207E+02  0.16095565167E+04  0.16097393958E+04  0.00000000000E+00 0. -1.
          1    1    1    2  502    0 -0.12813559532E+02 -0.20604724207E+02  0.26519246681E+03  0.26630018104E+03  0.00000000000E+00 0.  1.
</event>
<event>
 4    1  0.3555026E+003  0.2760145E+02  0.7546771E-02  0.1441658E+00
          2   -1    0    0  502    0  0.00000000000E+00  0.00000000000E+00  0.15936200442E+04  0.15936200442E+04  0.00000000000E+00 0.  1.
          1   -1    0    0  501    0 -0.00000000000E+00 -0.00000000000E+00 -0.43454027456E+01  0.43454027456E+01  0.00000000000E+00 0.  1.
          2    1    1    2  501    0  0.10568419259E+02 -0.25498009836E+02  0.15483900796E+04  0.15486360704E+04  0.00000000000E+00 0.  1.
          1    1    1    2  502    0 -0.10568419259E+02  0.25498009836E+02  0.40884561884E+02  0.49329376559E+02  0.00000000000E+00 0.  1.
</event>
<event>
 4    1  0.3555026E+003  0.2037272E+02  0.7546771E-02  0.1528412E+00
          2   -1    0    0  502    0  0.00000000000E+00  0.00000000000E+00  0.70823076605E+02  0.70823076605E+02  0.00000000000E+00 0.  1.
          1   -1    0    0  501    0 -0.00000000000E+00 -0.00000000000E+00 -0.14504991263E+02  0.14504991263E+02  0.00000000000E+00 0.  1.
          2    1    1    2  501    0  0.19816173052E+02 -0.47293748258E+01  0.61095492112E+02  0.64402692934E+02  0.00000000000E+00 0.  1.
          1    1    1    2  502    0 -0.19816173052E+02  0.47293748258E+01 -0.47774067711E+01  0.20925374934E+02  0.00000000000E+00 0.  1.
</event>
<event>
 4    1  0.3555026E+003  0.3190480E+02  0.7546771E-02  0.1403735E+00
          2   -1    0    0  502    0  0.00000000000E+00  0.00000000000E+00  0.12008753377E+04  0.12008753377E+04  0.00000000000E+00 0. -1.
          1   -1    0    0  501    0 -0.00000000000E+00 -0.00000000000E+00 -0.26753192494E+01  0.26753192494E+01  0.00000000000E+00 0. -1.
          2    1    1    2  501    0  0.27549560129E+02 -0.16091556092E+02  0.10964887177E+04  0.10969527905E+04  0.00000000000E+00 0. -1.
          1    1    1    2  502    0 -0.27549560129E+02  0.16091556092E+02  0.10171130072E+03  0.10659786647E+03  0.00000000000E+00 0. -1.
</event>
<event>
 4    1  0.3555026E+003  0.2100394E+02  0.7546771E-02  0.1519209E+00
          2   -1    0    0  502    0  0.00000000000E+00  0.00000000000E+00  0.55986095748E+02  0.55986095748E+02  0.00000000000E+00 0. -1.
          1   -1    0    0  501    0 -0.00000000000E+00 -0.00000000000E+00 -0.11568276606E+02  0.11568276606E+02  0.00000000000E+00 0. -1.
          2    1    1    2  501    0  0.17145956850E+02  0.12131840356E+02  0.41281346422E+02  0.46317544723E+02  0.00000000000E+00 0. -1.
          1    1    1    2  502    0 -0.17145956850E+02 -0.12131840356E+02  0.31364727196E+01  0.21236827631E+02  0.00000000000E+00 0. -1.
</event>
<event>
 4    1  0.3555026E+003  0.2911169E+02  0.7546771E-02  0.1427476E+00
          2   -1    0    0  502    0  0.00000000000E+00  0.00000000000E+00  0.81064651699E+03  0.81064651699E+03  0.00000000000E+00 0.  1.
          1   -1    0    0  501    0 -0.00000000000E+00 -0.00000000000E+00 -0.18654265724E+02  0.18654265724E+02  0.00000000000E+00 0.  1.
          2    1    1    2  501    0  0.12356083017E+02 -0.26359392519E+02  0.79885976812E+03  0.79939002964E+03  0.00000000000E+00 0.  1.
          1    1    1    2  502    0 -0.12356083017E+02  0.26359392519E+02 -0.68675168600E+01  0.29910753072E+02  0.00000000000E+00 0.  1.
</event>
<event>
 4    1  0.3555026E+003  0.2134481E+02  0.7546771E-02  0.1514398E+00
          2   -1    0    0  502    0  0.00000000000E+00  0.00000000000E+00  0.18165165074E+03  0.18165165074E+03  0.00000000000E+00 0. -1.
          1   -1    0    0  501    0 -0.00000000000E+00 -0.00000000000E+00 -0.12395725855E+02  0.12395725855E+02  0.00000000000E+00 0.  1.
          2    1    1    2  501    0 -0.56934165830E+01  0.20571478951E+02  0.17128179641E+03  0.17260664680E+03  0.00000000000E+00 0. -1.
          1    1    1    2  502    0  0.56934165830E+01 -0.20571478951E+02 -0.20258715256E+01  0.21440729793E+02  0.00000000000E+00 0.  1.
</event>
<event>
 4    1  0.3555026E+003  0.2717544E+02  0.7546771E-02  0.1445854E+00
          2   -1    0    0  502    0  0.00000000000E+00  0.00000000000E+00  0.63941457149E+01  0.63941457149E+01  0.00000000000E+00 0.  1.
          1   -1    0    0  501    0 -0.00000000000E+00 -0.00000000000E+00 -0.93519518859E+03  0.93519518859E+03  0.00000000000E+00 0.  1.
          2    1    1    2  501    0  0.18644969162E+02  0.19770423294E+02 -0.23635221865E+02  0.36015666381E+02  0.00000000000E+00 0.  1.
          1    1    1    2  502    0 -0.18644969162E+02 -0.19770423294E+02 -0.90516582101E+03  0.90557366792E+03  0.00000000000E+00 0.  1.
</event>
<event>
 4    1  0.3555026E+003  0.2152189E+02  0.7546771E-02  0.1511942E+00
          2   -1    0    0  502    0  0.00000000000E+00  0.00000000000E+00  0.13185468741E+03  0.13185468741E+03  0.00000000000E+00 0.  1.
          1   -1    0    0  501    0 -0.00000000000E+00 -0.00000000000E+00 -0.17839970228E+03  0.17839970228E+03  0.00000000000E+00 0.  1.
          2    1    1    2  501    0  0.64756022176E+01  0.20524580095E+02  0.13031977704E+03  0.13208495788E+03  0.00000000000E+00 0.  1.
          1    1    1    2  502    0 -0.64756022176E+01 -0.20524580095E+02 -0.17686479191E+03  0.17816943180E+03  0.00000000000E+00 0.  1.
</event>
<event>
 4    1  0.3555026E+003  0.2098957E+02  0.7546771E-02  0.1519414E+00
          2   -1    0    0  502    0  0.00000000000E+00  0.00000000000E+00  0.18761250369E+03  0.18761250369E+03  0.00000000000E+00 0. -1.
          1   -1    0    0  501    0 -0.00000000000E+00 -0.00000000000E+00 -0.27578846731E+02  0.27578846731E+02  0.00000000000E+00 0.  1.
          2    1    1    2  501    0 -0.16026251926E+02  0.13554381906E+02  0.18292988615E+03  0.18413013134E+03  0.00000000000E+00 0. -1.
          1    1    1    2  502    0  0.16026251926E+02 -0.13554381906E+02 -0.22896229193E+02  0.31061219083E+02  0.00000000000E+00 0.  1.
</event>
<event>
 4    1  0.3555026E+003  0.2320745E+02  0.7546771E-02  0.1489909E+00
          2   -1    0    0  502    0  0.00000000000E+00  0.00000000000E+00  0.29233294365E+03  0.29233294365E+03  0.00000000000E+00 0.  1.
          1   -1    0    0  501    0 -0.00000000000E+00 -0.00000000000E+00 -0.20936440286E+01  0.20936440286E+01  0.00000000000E+00 0.  1.
          2    1    1    2  501    0  0.85316571844E+01 -0.21582322771E+02  0.19611942614E+03  0.19748775947E+03  0.00000000000E+00 0.  1.
          1    1    1    2  502    0 -0.85316571844E+01  0.21582322771E+02  0.94119873480E+02  0.96938828208E+02  0.00000000000E+00 0.  1.
</event>
<event>
 4    1  0.3555026E+003  0.3206314E+02  0.7546771E-02  0.1402476E+00
          2   -1    0    0  502    0  0.00000000000E+00  0.00000000000E+00  0.62341306171E+03  0.62341306171E+03  0.00000000000E+00 0.  1.
          1   -1    0    0  501    0 -0.00000000000E+00 -0.00000000000E+00 -0.21979148445E+03  0.21979148445E+03  0.00000000000E+00 0. -1.
          2    1    1    2  501    0 -0.20964728275E+02 -0.24259531022E+02  0.62182847836E+03  0.62265456007E+03  0.00000000000E+00 0.  1.
          1    1    1    2  502    0  0.20964728275E+02  0.24259531022E+02 -0.21820690110E+03  0.22054998609E+03  0.00000000000E+00 0. -1.
</event>
<event>
 4    1  0.3555026E+003  0.3443945E+02  0.7546771E-02  0.1384547E+00
          2   -1    0    0  502    0  0.00000000000E+00  0.00000000000E+00  0.11726708192E+02  0.11726708192E+02  0.00000000000E+00 0.  1.
          1   -1    0    0  501    0 -0.00000000000E+00 -0.00000000000E+00 -0.35354340198E+03  0.35354340198E+03  0.00000000000E+00 0.  1.
          2    1    1    2  501    0 -0.29569459622E+02 -0.17655665121E+02 -0.16593497641E+02  0.38228518375E+02  0.00000000000E+00 0.  1.
          1    1    1    2  502    0  0.29569459622E+02  0.17655665121E+02 -0.32522319615E+03  0.32704159180E+03  0.00000000000E+00 0.  1.
</event>
<event>
 4    1  0.3555026E+003  0.2589782E+02  0.7546771E-02  0.1459005E+00
          2   -1    0    0  502    0  0.00000000000E+00  0.00000000000E+00  0.50203998215E+03  0.50203998215E+03  0.00000000000E+00 0.  1.
          1   -1    0    0  501    0 -0.00000000000E+00 -0.00000000000E+00 -0.29552718889E+01  0.29552718889E+01  0.00000000000E+00 0. -1.
          2    1    1    2  501    0 -0.21699065536E+02 -0.14136742695E+02  0.43644957355E+03  0.43721725399E+03  0.00000000000E+00 0.  1.
          1    1    1    2  502    0  0.21699065536E+02  0.14136742695E+02  0.62635136717E+02  0.67778000049E+02  0.00000000000E+00 0. -1.
</event>
<event>
 4    1  0.3555026E+003  0.2416216E+02  0.7546771E-02  0.1478399E+00
          2   -1    0    0  502    0  0.00000000000E+00  0.00000000000E+00  0.16704937202E+04  0.16704937202E+04  0.00000000000E+00 0.  1.
          1   -1    0    0  501    0 -0.00000000000E+00 -0.00000000000E+00 -0.96762862176E+00  0.96762862176E+00  0.00000000000E+00 0. -1.
          2    1    1    2  501    0 -0.23796375180E+02  0.41884061121E+01  0.15027333651E+04  0.15029276020E+04  0.00000000000E+00 0.  1.
          1    1    1    2  502    0  0.23796375180E+02 -0.41884061121E+01  0.16679272647E+03  0.16853374683E+03  0.00000000000E+00 0. -1.
</event>
<event>
 4    1  0.3555026E+003  0.2060827E+02  0.7546771E-02  0.1524932E+00
          2   -1    0    0  502    0  0.00000000000E+00  0.00000000000E+00  0.10864980366E+04  0.10864980366E+04  0.00000000000E+00 0.  1.
          1   -1    0    0  501    0 -0.00000000000E+00 -0.00000000000E+00 -0.61443010943E+02  0.61443010943E+02  0.00000000000E+00 0. -1.
          2    1    1    2  501    0  0.13681956150E+02  0.15411186411E+02  0.10846693748E+04  0.10848651313E+04  0.00000000000E+00 0.  1.
          1    1    1    2  502    0 -0.13681956150E+02 -0.15411186411E+02 -0.59614349098E+02  0.63075916237E+02  0.00000000000E+00 0. -1.
</event>
<event>
 4    1  0.3555026E+003  0.2308175E+02  0.7546771E-02  0.1491474E+00
          2   -1    0    0  502    0  0.00000000000E+00  0.00000000000E+00  0.11446541656E+04  0.11446541656E+04  0.00000000000E+00 0.  1.
          1   -1    0    0  501    0 -0.00000000000E+00 -0.00000000000E+00 -0.62879515903E+00  0.62879515903E+00  0.00000000000E+00 0. -1.
          2    1    1    2  501    0 -0.44201088236E+01 -0.22654577380E+02  0.86388663094E+03  0.86419493076E+03  0.00000000000E+00 0.  1.
          1    1    1    2  502    0  0.44201088236E+01  0.22654577380E+02  0.28013873949E+03  0.28108802999E+03  0.00000000000E+00 0. -1.
</event>
<event>
 4    1  0.3555026E+003  0.2113679E+02  0.7546771E-02  0.1517321E+00
          2   -1    0    0  502    0  0.00000000000E+00  0.00000000000E+00  0.24576634071E+02  0.24576634071E+02  0.00000000000E+00 0.  1.
          1   -1    0    0  501    0 -0.00000000000E+00 -0.00000000000E+00 -0.67598009768E+02  0.67598009768E+02  0.00000000000E+00 0.  1.
          2    1    1    2  501    0 -0.19255475078E+02  0.87172665284E+01  0.17895474565E+02  0.27694982688E+02  0.00000000000E+00 0.  1.
          1    1    1    2  502    0  0.19255475078E+02 -0.87172665284E+01 -0.60916850262E+02  0.64479661150E+02  0.00000000000E+00 0.  1.
</event>
<event>
 4    1  0.3555026E+003  0.2298233E+02  0.7546771E-02  0.1492720E+00
          2   -1    0    0  502    0  0.00000000000E+00  0.00000000000E+00  0.86725639475E+03  0.86725639475E+03  0.00000000000E+00 0.  1.
          1   -1    0    0  501    0 -0.00000000000E+00 -0.00000000000E+00 -0.10247242796E+01  0.10247242796E+01  0.00000000000E+00 0. -1.
          2    1    1    2  501    0  0.21695517908E+02 -0.75823472208E+01  0.70962687315E+03  0.70999893421E+03  0.00000000000E+00 0.  1.
          1    1    1    2  502    0 -0.21695517908E+02  0.75823472208E+01  0.15660479732E+03  0.15828218482E+03  0.00000000000E+00 0. -1.
</event>
<event>
 4    1  0.3555026E+003  0.2069375E+02  0.7546771E-02  0.1523683E+00
          2   -1    0    0  502    0  0.00000000000E+00  0.00000000000E+00  0.54287602679E+01  0.54287602679E+01  0.00000000000E+00 0. -1.
          1   -1    0    0  501    0 -0.00000000000E+00 -0.00000000000E+00 -0.14078644643E+03  0.14078644643E+03  0.00000000000E+00 0.  1.
          2    1    1    2  501    0 -0.19277293207E+02 -0.75244437452E+01 -0.19201014122E+02  0.28229598481E+02  0.00000000000E+00 0. -1.
          1    1    1    2  502    0  0.19277293207E+02  0.75244437452E+01 -0.11615667204E+03  0.11798560822E+03  0.00000000000E+00 0.  1.
</event>
<event>
 4    1  0.3555026E+003  0.6467129E+02  0.7546771E-02  0.1244737E+00
          2   -1    0    0  502    0  0.00000000000E+00  0.00000000000E+00  0.75853847116E+03  0.75853847116E+03  0.00000000000E+00 0. -1.
          1   -1    0    0  501    0 -0.00000000000E+00 -0.00000000000E+00 -0.38641593989E+02  0.38641593989E+02  0.00000000000E+00 0. -1.
          2    1    1    2  501    0 -0.26017764334E+02 -0.59206851533E+02  0.72900730508E+03  0.73187022496E+03  0.00000000000E+00 0. -1.
          1    1    1    2  502    0  0.26017764334E+02  0.59206851533E+02 -0.91104279013E+01  0.65309840192E+02  0.00000000000E+00 0. -1.
</event>
<event>
 4    1  0.3555026E+003  0.2287630E+02  0.7546771E-02  0.1494057E+00
          2   -1    0    0  502    0  0.00000000000E+00  0.00000000000E+00  0.67175641564E+03  0.67175641564E+03  0.00000000000E+00 0. -1.
          1   -1    0    0  501    0 -0.00000000000E+00 -0.00000000000E+00 -0.11001100256E+02  0.11001100256E+02  0.00000000000E+00 0. -1.
          2    1    1    2  501    0 -0.17630912588E+02 -0.14576560975E+02  0.65944717044E+03  0.65984384199E+03  0.00000000000E+00 0. -1.
          1    1    1    2  502    0  0.17630912588E+02  0.14576560975E+02  0.13081449388E+01  0.22913673903E+02  0.00000000000E+00 0. -1.
</event>
<event>
 4    1  0.3555026E+003  0.3763597E+02  0.7546771E-02  0.1362925E+00
          2   -1    0    0  502    0  0.00000000000E+00  0.00000000000E+00  0.87152856117E+02  0.87152856117E+02  0.00000000000E+00 0. -1.
          1   -1    0    0  501    0 -0.00000000000E+00 -0.00000000000E+00 -0.19696817617E+02  0.19696817617E+02  0.00000000000E+00 0. -1.
          2    1    1    2  501    0  0.37568189634E+02  0.22574767168E+01  0.11387813785E+02  0.39321080558E+02  0.00000000000E+00 0. -1.
          1    1    1    2  502    0 -0.37568189634E+02 -0.22574767168E+01  0.56068224715E+02  0.67528593175E+02  0.00000000000E+00 0. -1.
</event>
<event>
 4    1  0.3555026E+003  0.2510679E+02  0.7546771E-02  0.1467612E+00
          2   -1    0    0  502    0  0.00000000000E+00  0.00000000000E+00  0.99844185027E+03  0.99844185027E+03  0.00000000000E+00 0. -1.
          1   -1    0    0  501    0 -0.00000000000E+00 -0.00000000000E+00 -0.69081452243E+00  0.69081452243E+00  0.00000000000E+00 0. -1.
          2    1    1    2  501    0  0.20265017664E+02  0.14821606266E+02  0.64546316837E+03  0.64595127733E+03  0.00000000000E+00 0. -1.
          1    1    1    2  502    0 -0.20265017664E+02 -0.14821606266E+02  0.35228786738E+03  0.35318138747E+03  0.00000000000E+00 0. -1.
</event>
<event>
 4    1  0.3555026E+003  0.4662862E+02  0.7546771E-02  0.1313491E+00
          2   -1    0    0  502    0  0.00000000000E+00  0.00000000000E+00  0.75575455610E+02  0.75575455610E+02  0.00000000000E+00 0. -1.
          1   -1    0    0  501    0 -0.00000000000E+00 -0.00000000000E+00 -0.53657703902E+03  0.53657703902E+03  0.00000000000E+00 0.  1.
          2    1    1    2  501    0  0.24924770628E+02 -0.39407915558E+02  0.67257171159E+02  0.81839813489E+02  0.00000000000E+00 0. -1.
          1    1    1    2  502    0 -0.24924770628E+02  0.39407915558E+02 -0.52825875457E+03  0.53031268114E+03  0.00000000000E+00 0.  1.
</event>
<event>
 4    1  0.3555026E+003  0.2027274E+02  0.7546771E-02  0.1529906E+00
          2   -1    0    0  502    0  0.00000000000E+00  0.00000000000E+00  0.25518695772E+02  0.25518695772E+02  0.00000000000E+00 0. -1.
          1   -1    0    0  501    0 -0.00000000000E+00 -0.00000000000E+00 -0.26016196234E+03  0.26016196234E+03  0.00000000000E+00 0. -1.
          2    1    1    2  501    0  0.19880077714E+02  0.39707082826E+01  0.21026834593E+02  0.29208077430E+02  0.00000000000E+00 0. -1.
          1    1    1    2  502    0 -0.19880077714E+02 -0.39707082826E+01 -0.25567010116E+03  0.25647258068E+03  0.00000000000E+00 0. -1.
</event>
<event>
 4    1  0.3555026E+003  0.2156568E+02  0.7546771E-02  0.1511340E+00
          2   -1    0    0  502    0  0.00000000000E+00  0.00000000000E+00  0.20765056611E+01  0.20765056611E+01  0.00000000000E+00 0.  1.
          1   -1    0    0  501    0 -0.00000000000E+00 -0.00000000000E+00 -0.49304802209E+03  0.49304802209E+03  0.00000000000E+00 0. -1.
          2    1    1    2  501    0  0.94833787381E+01  0.19368632383E+02 -0.62600954999E+02  0.66211463958E+02  0.00000000000E+00 0.  1.
          1    1    1    2  502    0 -0.94833787381E+01 -0.19368632383E+02 -0.42837056143E+03  0.42891306379E+03  0.00000000000E+00 0. -1.
</event>
<event>
 4    1  0.3555026E+003  0.2400640E+02  0.7546771E-02  0.1480233E+00
          2   -1    0    0  502    0  0.00000000000E+00  0.00000000000E+00  0.77410466756E+03  0.77410466756E+03  0.00000000000E+00 0. -1.
          1   -1    0    0  501    0 -0.00000000000E+00 -0.00000000000E+00 -0.16800803775E+01  0.16800803775E+01  0.00000000000E+00 0.  1.
          2    1    1    2  501    0  0.67431114386E+01  0.23039912248E+02  0.67567385904E+03  0.67610019295E+03  0.00000000000E+00 0. -1.
          1    1    1    2  502    0 -0.67431114386E+01 -0.23039912248E+02  0.96750728141E+02  0.99684554992E+02  0.00000000000E+00 0.  1.
</event>
<event>
 4    1  0.3555026E+003  0.2564149E+02  0.7546771E-02  0.1461753E+00
          2   -1    0    0  502    0  0.00000000000E+00  0.00000000000E+00  0.82247961464E+03  0.82247961464E+03  0.00000000000E+00 0.  1.
          1   -1    0    0  501    0 -0.00000000000E+00 -0.00000000000E+00 -0.13201357021E+01  0.13201357021E+01  0.00000000000E+00 0.  1.
          2    1    1    2  501    0 -0.17134438848E+02 -0.19076083095E+02  0.66927782254E+03  0.66976883302E+03  0.00000000000E+00 0.  1.
          1    1    1    2  502    0  0.17134438848E+02  0.19076083095E+02  0.15188165639E+03  0.15403091732E+03  0.00000000000E+00 0.  1.
</event>
<event>
 4    1  0.3555026E+003  0.2319417E+02  0.7546771E-02  0.1490074E+00
          2   -1    0    0  502    0  0.00000000000E+00  0.00000000000E+00  0.16158968012E+03  0.16158968012E+03  0.00000000000E+00 0. -1.
          1   -1    0    0  501    0 -0.00000000000E+00 -0.00000000000E+00 -0.33879157668E+02  0.33879157668E+02  0.00000000000E+00 0. -1.
          2    1    1    2  501    0  0.17358861133E+02 -0.15383094235E+02  0.15666345210E+03  0.15837110492E+03  0.00000000000E+00 0. -1.
          1    1    1    2  502    0 -0.17358861133E+02  0.15383094235E+02 -0.28952929656E+02  0.37097732866E+02  0.00000000000E+00 0. -1.
</event>
<event>
 4    1  0.3555026E+003  0.3482957E+02  0.7546771E-02  0.1381765E+00
          2   -1    0    0  502    0  0.00000000000E+00  0.00000000000E+00  0.17614013437E+04  0.17614013437E+04  0.00000000000E+00 0. -1.
          1   -1    0    0  501    0 -0.00000000000E+00 -0.00000000000E+00 -0.49554419281E+02  0.49554419281E+02  0.00000000000E+00 0.  1.
          2    1    1    2  501    0  0.17507064670E+02  0.30109820991E+02  0.17550871174E+04  0.17554326784E+04  0.00000000000E+00 0. -1.
          1    1    1    2  502    0 -0.17507064670E+02 -0.30109820991E+02 -0.43240192991E+02  0.55523084599E+02  0.00000000000E+00 0.  1.
</event>
<event>
 4    1  0.3555026E+003  0.2426025E+02  0.7546771E-02  0.1477252E+00
          2   -1    0    0  502    0  0.00000000000E+00  0.00000000000E+00  0.14623314147E+02  0.14623314147E+02  0.00000000000E+00 0.  1.
          1   -1    0    0  501    0 -0.00000000000E+00 -0.00000000000E+00 -0.25817439604E+03  0.25817439604E+03  0.00000000000E+00 0. -1.
          2    1    1    2  501    0  0.43769440571E+00 -0.24256304751E+02  0.35411756406E+01  0.24517337162E+02  0.00000000000E+00 0.  1.
          1    1    1    2  502    0 -0.43769440571E+00  0.24256304751E+02 -0.24709225754E+03  0.24828037303E+03  0.00000000000E+00 0. -1.
</event>
<event>
 4    1  0.3555026E+003  0.2001127E+02  0.7546771E-02  0.1533863E+00
          2   -1    0    0  502    0  0.00000000000E+00  0.00000000000E+00  0.49566747100E+03  0.49566747100E+03  0.00000000000E+00 0.  1.
          1   -1    0    0  501    0 -0.00000000000E+00 -0.00000000000E+00 -0.87233382799E+00  0.87233382799E+00  0.00000000000E+00 0.  1.
          2    1    1    2  501    0  0.17789298584E+02 -0.91647082569E+01  0.31487072647E+03  0.31550598316E+03  0.00000000000E+00 0.  1.
          1    1    1    2  502    0 -0.17789298584E+02  0.91647082569E+01  0.17992441070E+03  0.18103382167E+03  0.00000000000E+00 0.  1.
</event>
<event>
 4    1  0.3555026E+003  0.2451488E+02  0.7546771E-02  0.1474304E+00
          2   -1    0    0  502    0  0.00000000000E+00  0.00000000000E+00  0.27337821122E+02  0.27337821122E+02  0.00000000000E+00 0.  1.
          1   -1    0    0  501    0 -0.00000000000E+00 -0.00000000000E+00 -0.10230818019E+04  0.10230818019E+04  0.00000000000E+00 0.  1.
          2    1    1    2  501    0  0.11837475821E+02  0.21467500815E+02  0.21664463235E+02  0.32715873705E+02  0.00000000000E+00 0.  1.
          1    1    1    2  502    0 -0.11837475821E+02 -0.21467500815E+02 -0.10174084440E+04  0.10177037493E+04  0.00000000000E+00 0.  1.
</event>
<event>
 4    1  0.3555026E+003  0.2104014E+02  0.7546771E-02  0.1518692E+00
          2   -1    0    0  502    0  0.00000000000E+00  0.00000000000E+00  0.97417729688E+03  0.97417729688E+03  0.00000000000E+00 0. -1.
          1   -1    0    0  501    0 -0.00000000000E+00 -0.00000000000E+00 -0.15104084864E+01  0.15104084864E+01  0.00000000000E+00 0.  1.
          2    1    1    2  501    0 -0.20967674613E+02  0.17447723684E+01  0.89424199153E+03  0.89448947843E+03  0.00000000000E+00 0. -1.
          1    1    1    2  502    0  0.20967674613E+02 -0.17447723684E+01  0.78424896866E+02  0.81198226937E+02  0.00000000000E+00 0.  1.
</event>
<event>
 4    1  0.3555026E+003  0.8012017E+02  0.7546771E-02  0.1203569E+00
          2   -1    0    0  502    0  0.00000000000E+00  0.00000000000E+00  0.17983408489E+04  0.17983408489E+04  0.00000000000E+00 0. -1.
          1   -1    0    0  501    0 -0.00000000000E+00 -0.00000000000E+00 -0.11456894742E+02  0.11456894742E+02  0.00000000000E+00 0.  1.
          2    1    1    2  501    0  0.19094103899E+02 -0.77811674907E+02  0.16442560346E+04  0.16462068973E+04  0.00000000000E+00 0. -1.
          1    1    1    2  502    0 -0.19094103899E+02  0.77811674907E+02  0.14262791960E+03  0.16359084634E+03  0.00000000000E+00 0.  1.
</event>
<event>
 4    1  0.3555026E+003  0.2221895E+02  0.7546771E-02  0.1502546E+00
          2   -1    0    0  502    0  0.00000000000E+00  0.00000000000E+00  0.14195677105E+04  0.14195677105E+04  0.00000000000E+00 0. -1.
          1   -1    0    0  501    0 -0.00000000000E+00 -0.00000000000E+00 -0.38693036355E+01  0.38693036355E+01  0.00000000000E+00 0. -1.
          2    1    1    2  501    0 -0.21543907742E+02  0.54352441044E+01  0.13868305246E+04  0.13870085025E+04  0.00000000000E+00 0. -1.
          1    1    1    2  502    0  0.21543907742E+02 -0.54352441044E+01  0.28867882287E+02  0.36428511732E+02  0.00000000000E+00 0. -1.
</event>
<event>
 4    1  0.3555026E+003  0.2791024E+02  0.7546771E-02  0.1438673E+00
          2   -1    0    0  502    0  0.00000000000E+00  0.00000000000E+00  0.13684918710E+03  0.13684918710E+03  0.00000000000E+00 0.  1.
          1   -1    0    0  501    0 -0.00000000000E+00 -0.00000000000E+00 -0.14932976961E+02  0.14932976961E+02  0.00000000000E+00 0.  1.
          2    1    1    2  501    0 -0.72733098006E+00  0.27900761622E+02  0.12065755374E+03  0.12384355770E+03  0.00000000000E+00 0.  1.
          1    1    1    2  502    0  0.72733098006E+00 -0.27900761622E+02  0.12586563986E+01  0.27938606361E+02  0.00000000000E+00 0.  1.
</event>
<event>
 4    1  0.3555026E+003  0.2604291E+02  0.7546771E-02  0.1457467E+00
          2   -1    0    0  502    0  0.00000000000E+00  0.00000000000E+00  0.13425866727E+01  0.13425866727E+01  0.00000000000E+00 0.  1.
          1   -1    0    0  501    0 -0.00000000000E+00 -0.00000000000E+00 -0.66831401051E+03  0.66831401051E+03  0.00000000000E+00 0. -1.
          2    1    1    2  501    0  0.23771730070E+02 -0.10636639431E+02 -0.16805402819E+03  0.17005995896E+03  0.00000000000E+00 0.  1.
          1    1    1    2  502    0 -0.23771730070E+02  0.10636639431E+02 -0.49891739565E+03  0.49959663823E+03  0.00000000000E+00 0. -1.
</event>
<event>
 4    1  0.3555026E+003  0.6500455E+02  0.7546771E-02  0.1243715E+00
          2   -1    0    0  502    0  0.00000000000E+00  0.00000000000E+00  0.13687010048E+04  0.13687010048E+04  0.00000000000E+00 0.  1.
          1   -1    0    0  501    0 -0.00000000000E+00 -0.00000000000E+00 -0.20901300640E+02  0.20901300640E+02  0.00000000000E+00 0.  1.
          2    1    1    2  501    0  0.32262133307E+01  0.64924437527E+02  0.13153377301E+04  0.13169430266E+04  0.00000000000E+00 0.  1.
          1    1    1    2  502    0 -0.32262133307E+01 -0.64924437527E+02  0.32461974017E+02  0.72659278814E+02  0.00000000000E+00 0.  1.
</event>
<event>
 4    1  0.3555026E+003  0.2901680E+02  0.7546771E-02  0.1428337E+00
          2   -1    0    0  502    0  0.00000000000E+00  0.00000000000E+00  0.71122741610E+03  0.71122741610E+03  0.00000000000E+00 0.  1.
          1   -1    0    0  501    0 -0.00000000000E+00 -0.00000000000E+00 -0.27518922930E+01  0.27518922930E+01  0.00000000000E+00 0.  1.
          2    1    1    2  501    0 -0.17957794186E+02  0.22792378773E+02  0.62371437071E+03  0.62438897422E+03  0.00000000000E+00 0.  1.
          1    1    1    2  502    0  0.17957794186E+02 -0.22792378773E+02  0.84761153091E+02  0.89590334164E+02  0.00000000000E+00 0.  1.
</event>
<event>
 4    1  0.3555026E+003  0.3304184E+02  0.7546771E-02  0.1394878E+00
          2   -1    0    0  502    0  0.00000000000E+00  0.00000000000E+00  0.74200751264E+00  0.74200751264E+00  0.00000000000E+00 0. -1.
          1   -1    0    0  501    0 -0.00000000000E+00 -0.00000000000E+00 -0.14801857816E+04  0.14801857816E+04  0.00000000000E+00 0.  1.
          2    1    1    2  501    0 -0.31521100016E+02  0.99087514341E+01 -0.68255753692E+03  0.68335682795E+03  0.00000000000E+00 0. -1.
          1    1    1    2  502    0  0.31521100016E+02 -0.99087514341E+01 -0.79688623713E+03  0.79757096113E+03  0.00000000000E+00 0.  1.
</event>
<event>
 4    1  0.3555026E+003  0.3069971E+02  0.7546771E-02  0.1413611E+00
          2   -1    0    0  502    0  0.00000000000E+00  0.00000000000E+00  0.42688842739E+03  0.42688842739E+03  0.00000000000E+00 0.  1.
          1   -1    0    0  501    0 -0.00000000000E+00 -0.00000000000E+00 -0.23474273122E+01  0.23474273122E+01  0.00000000000E+00 0. -1.
          2    1    1    2  501    0  0.55023781936E+01  0.30202585686E+02  0.26461831248E+03  0.26639317493E+03  0.00000000000E+00 0.  1.
          1    1    1    2  502    0 -0.55023781936E+01 -0.30202585686E+02  0.15992268759E+03  0.16284267977E+03  0.00000000000E+00 0. -1.
</event>
<event>
 4    1  0.3555026E+003  0.2598220E+02  0.7546771E-02  0.1458109E+00
          2   -1    0    0  502    0  0.00000000000E+00  0.00000000000E+00  0.18636214001E+03  0.18636214001E+03  0.00000000000E+00 0. -1.
          1   -1    0    0  501    0 -0.00000000000E+00 -0.00000000000E+00 -0.86368283850E+02  0.86368283850E+02  0.00000000000E+00 0.  1.
          2    1    1    2  501    0 -0.23980311880E+02  0.10000955790E+02  0.18347185722E+03  0.18530244700E+03  0.00000000000E+00 0. -1.
          1    1    1    2  502    0  0.23980311880E+02 -0.10000955790E+02 -0.83478001064E+02  0.87427976851E+02  0.00000000000E+00 0.  1.
</event>
<event>
 4    1  0.3555026E+003  0.5057055E+02  0.7546771E-02  0.1295718E+00
          2   -1    0    0  502    0  0.00000000000E+00  0.00000000000E+00  0.24608380707E+03  0.24608380707E+03  0.00000000000E+00 0.  1.
          1   -1    0    0  501    0 -0.00000000000E+00 -0.00000000000E+00 -0.45875953921E+03  0.45875953921E+03  0.00000000000E+00 0. -1.
          2    1    1    2  501    0 -0.28348167234E+02 -0.41877936782E+02  0.24206922399E+03  0.24729514629E+03  0.00000000000E+00 0.  1.
          1    1    1    2  502    0  0.28348167234E+02  0.41877936782E+02 -0.45474495614E+03  0.45754819998E+03  0.00000000000E+00 0. -1.
</event>
<event>
 4    1  0.3555026E+003  0.2149368E+02  0.7546771E-02  0.1512332E+00
          2   -1    0    0  502    0  0.00000000000E+00  0.00000000000E+00  0.15292130579E+03  0.15292130579E+03  0.00000000000E+00 0.  1.
          1   -1    0    0  501    0 -0.00000000000E+00 -0.00000000000E+00 -0.60213763570E+03  0.60213763570E+03  0.00000000000E+00 0. -1.
          2    1    1    2  501    0 -0.21276736450E+02 -0.30461172532E+01  0.15197305225E+03  0.15348546171E+03  0.00000000000E+00 0.  1.
          1    1    1    2  502    0  0.21276736450E+02  0.30461172532E+01 -0.60118938216E+03  0.60157347978E+03  0.00000000000E+00 0. -1.
</event>
<event>
 4    1  0.3555026E+003  0.3103340E+02  0.7546771E-02  0.1410824E+00
          2   -1    0    0  502    0  0.00000000000E+00  0.00000000000E+00  0.75768039224E+01  0.75768039224E+01  0.00000000000E+00 0. -1.
          1   -1    0    0  501    0 -0.00000000000E+00 -0.00000000000E+00 -0.15324685044E+03  0.15324685044E+03  0.00000000000E+00 0. -1.
          2    1    1    2  501    0 -0.30261608167E+02 -0.68780043648E+01 -0.39625092970E+02  0.50331102370E+02  0.00000000000E+00 0. -1.
          1    1    1    2  502    0  0.30261608167E+02  0.68780043648E+01 -0.10604495355E+03  0.11049255199E+03  0.00000000000E+00 0. -1.
</event>
<event>
 4    1  0.3555026E+003  0.3320151E+02  0.7546771E-02  0.1393668E+00
          2   -1    0    0  502    0  0.00000000000E+00  0.00000000000E+00  0.11415153611E+04  0.11415153611E+04  0.00000000000E+00 0.  1.
          1   -1    0    0  501    0 -0.00000000000E+00 -0.00000000000E+00 -0.14166039679E+01  0.14166039679E+01  0.00000000000E+00 0.  1.
          2    1    1    2  501    0  0.26407175821E+02  0.20124650185E+02  0.89246568906E+03  0.89308305696E+03  0.00000000000E+00 0.  1.
          1    1    1    2  502    0 -0.26407175821E+02 -0.20124650185E+02  0.24763306808E+03  0.24984890812E+03  0.00000000000E+00 0.  1.
</event>
<event>
 4    1  0.3555026E+003  0.2407962E+02  0.7546771E-02  0.1479369E+00
          2   -1    0    0  502    0  0.00000000000E+00  0.00000000000E+00  0.11503566793E+04  0.11503566793E+04  0.00000000000E+00 0. -1.
          1   -1    0    0  501    0 -0.00000000000E+00 -0.00000000000E+00 -0.17311467160E+01  0.17311467160E+01  0.00000000000E+00 0.  1.
          2    1    1    2  501    0 -0.42792683037E+01 -0.23696328380E+02  0.10592990554E+04  0.10595727049E+04  0.00000000000E+00 0. -1.
          1    1    1    2  502    0  0.42792683037E+01  0.23696328380E+02  0.89326477144E+02  0.92515121115E+02  0.00000000000E+00 0.  1.
</event>
<event>
 4    1  0.3555026E+003  0.2242626E+02  0.7546771E-02  0.1499831E+00
          2   -1    0    0  502    0  0.00000000000E+00  0.00000000000E+00  0.29508377393E+02  0.29508377393E+02  0.00000000000E+00 0.  1.
          1   -1    0    0  501    0 -0.00000000000E+00 -0.00000000000E+00 -0.36942896841E+03  0.36942896841E+03  0.00000000000E+00 0.  1.
          2    1    1    2  501    0 -0.92359990065E+01 -0.20436081735E+02  0.24852728844E+02  0.33475293058E+02  0.00000000000E+00 0.  1.
          1    1    1    2  502    0  0.92359990065E+01  0.20436081735E+02 -0.36477331986E+03  0.36546205274E+03  0.00000000000E+00 0.  1.
</event>
<event>
 4    1  0.3555026E+003  0.2209149E+02  0.7546771E-02  0.1504233E+00
          2   -1    0    0  502    0  0.00000000000E+00  0.00000000000E+00  0.42126762738E+03  0.42126762738E+03  0.00000000000E+00 0. -1.
          1   -1    0    0  501    0 -0.00000000000E+00 -0.00000000000E+00 -0.14941103873E+02  0.14941103873E+02  0.00000000000E+00 0.  1.
          2    1    1    2  501    0  0.36931753458E+01 -0.21780594585E+02  0.41264145962E+03  0.41323238988E+03  0.00000000000E+00 0. -1.
          1    1    1    2  502    0 -0.36931753458E+01  0.21780594585E+02 -0.63149361196E+01  0.22976341371E+02  0.00000000000E+00 0.  1.
</event>
<event>
 4    1  0.3555026E+003  0.9688935E+02  0.7546771E-02  0.1169310E+00
          2   -1    0    0  502    0  0.00000000000E+00  0.00000000000E+00  0.12686615347E+03  0.12686615347E+03  0.00000000000E+00 0.  1.
          1   -1    0    0  501    0 -0.00000000000E+00 -0.00000000000E+00 -0.58930008161E+03  0.58930008161E+03  0.00000000000E+00 0. -1.
          2    1    1    2  501    0  0.20874253075E+01  0.96866856521E+02  0.10363089629E+03  0.14186933391E+03  0.00000000000E+00 0.  1.
          1    1    1    2  502    0 -0.20874253075E+01 -0.96866856521E+02 -0.56606482443E+03  0.57429690117E+03  0.00000000000E+00 0. -1.
</event>
<event>
 4    1  0.3555026E+003  0.2719534E+02  0.7546771E-02  0.1445656E+00
          2   -1    0    0  502    0  0.00000000000E+00  0.00000000000E+00  0.41720280462E+03  0.41720280462E+03  0.00000000000E+00 0. -1.
          1   -1    0    0  501    0 -0.00000000000E+00 -0.00000000000E+00 -0.17747205510E+01  0.17747205510E+01  0.00000000000E+00 0.  1.
          2    1    1    2  501    0 -0.14901322503E+02 -0.22749423066E+02  0.20068859417E+03  0.20252283203E+03  0.00000000000E+00 0. -1.
          1    1    1    2  502    0  0.14901322503E+02  0.22749423066E+02  0.21473948990E+03  0.21645469314E+03  0.00000000000E+00 0.  1.
</event>
<event>
 4    1  0.5066427E+003  0.2613522E+02  0.7546771E-02  0.1456494E+00
          2   -1    0    0  502    0  0.00000000000E+00  0.00000000000E+00  0.76660219389E+03  0.76660219389E+03  0.00000000000E+00 0. -1.
          1   -1    0    0  501    0 -0.00000000000E+00 -0.00000000000E+00 -0.13696457860E+04  0.13696457860E+04  0.00000000000E+00 0. -1.
          2    1    1    2  501    0 -0.15633618463E+01 -0.26088417764E+02  0.76625470873E+03  0.76670028583E+03  0.00000000000E+00 0. -1.
          1    1    1    2  502    0  0.15633618463E+01  0.26088417764E+02 -0.13692983008E+04  0.13695476940E+04  0.00000000000E+00 0. -1.
</event>
<event>
 4    1  0.5661951E+003  0.2207636E+02  0.7546771E-02  0.1504434E+00
          2   -1    0    0  502    0  0.00000000000E+00  0.00000000000E+00  0.76389368625E+03  0.76389368625E+03  0.00000000000E+00 0. -1.
          1   -1    0    0  501    0 -0.00000000000E+00 -0.00000000000E+00 -0.85547846739E+03  0.85547846739E+03  0.00000000000E+00 0.  1.
          2    1    1    2  501    0 -0.15065624696E+02  0.16136687768E+02  0.76359170453E+03  0.76391076505E+03  0.00000000000E+00 0. -1.
          1    1    1    2  502    0  0.15065624696E+02 -0.16136687768E+02 -0.85517648566E+03  0.85546138859E+03  0.00000000000E+00 0.  1.
</event>
<event>
 4    1  0.3555026E+003  0.3070830E+02  0.7546771E-02  0.1413539E+00
          2   -1    0    0  502    0  0.00000000000E+00  0.00000000000E+00  0.63172555196E+03  0.63172555196E+03  0.00000000000E+00 0.  1.
          1   -1    0    0  501    0 -0.00000000000E+00 -0.00000000000E+00 -0.33270607504E+01  0.33270607504E+01  0.00000000000E+00 0. -1.
          2    1    1    2  501    0  0.12506138764E+02  0.28046323067E+02  0.54996862930E+03  0.55082528351E+03  0.00000000000E+00 0.  1.
          1    1    1    2  502    0 -0.12506138764E+02 -0.28046323067E+02  0.78429861909E+02  0.84227329196E+02  0.00000000000E+00 0. -1.
</event>
<event>
 4    1  0.3555026E+003  0.2004017E+02  0.7546771E-02  0.1533422E+00
          2   -1    0    0  502    0  0.00000000000E+00  0.00000000000E+00  0.12166080071E+01  0.12166080071E+01  0.00000000000E+00 0. -1.
          1   -1    0    0  501    0 -0.00000000000E+00 -0.00000000000E+00 -0.33206543559E+03  0.33206543559E+03  0.00000000000E+00 0. -1.
          2    1    1    2  501    0  0.14897559362E+02  0.13404133995E+02 -0.17822924817E+03  0.17935237100E+03  0.00000000000E+00 0. -1.
          1    1    1    2  502    0 -0.14897559362E+02 -0.13404133995E+02 -0.15261957942E+03  0.15392967259E+03  0.00000000000E+00 0. -1.
</event>
<event>
 4    1  0.3555026E+003  0.2138781E+02  0.7546771E-02  0.1513799E+00
          2   -1    0    0  502    0  0.00000000000E+00  0.00000000000E+00  0.98071734168E+02  0.98071734168E+02  0.00000000000E+00 0.  1.
          1   -1    0    0  501    0 -0.00000000000E+00 -0.00000000000E+00 -0.55266226298E+01  0.55266226298E+01  0.00000000000E+00 0.  1.
          2    1    1    2  501    0 -0.20740634071E+02  0.52215544682E+01  0.66733295343E+02  0.70076895194E+02  0.00000000000E+00 0.  1.
          1    1    1    2  502    0  0.20740634071E+02 -0.52215544682E+01  0.25811816195E+02  0.33521461604E+02  0.00000000000E+00 0.  1.
</event>
<event>
 4    1  0.3555026E+003  0.4699620E+02  0.7546771E-02  0.1311749E+00
          2   -1    0    0  502    0  0.00000000000E+00  0.00000000000E+00  0.15401332630E+04  0.15401332630E+04  0.00000000000E+00 0. -1.
          1   -1    0    0  501    0 -0.00000000000E+00 -0.00000000000E+00 -0.60773261402E+01  0.60773261402E+01  0.00000000000E+00 0. -1.
          2    1    1    2  501    0 -0.38170107136E+02 -0.27416894806E+02  0.14427906020E+04  0.14435558058E+04  0.00000000000E+00 0. -1.
          1    1    1    2  502    0  0.38170107136E+02  0.27416894806E+02  0.91265334914E+02  0.10265478341E+03  0.00000000000E+00 0. -1.
</event>
<event>
 4    1  0.3555026E+003  0.2319826E+02  0.7546771E-02  0.1490023E+00
          2   -1    0    0  502    0  0.00000000000E+00  0.00000000000E+00  0.41005147153E+03  0.41005147153E+03  0.00000000000E+00 0.  1.
          1   -1    0    0  501    0 -0.00000000000E+00 -0.00000000000E+00 -0.15026850567E+01  0.15026850567E+01  0.00000000000E+00 0.  1.
          2    1    1    2  501    0  0.17527955229E+02 -0.15196382770E+02  0.27749678146E+03  0.27846476076E+03  0.00000000000E+00 0.  1.
          1    1    1    2  502    0 -0.17527955229E+02  0.15196382770E+02  0.13105200501E+03  0.13308939582E+03  0.00000000000E+00 0.  1.
</event>
<event>
 4    1  0.3555026E+003  0.2379955E+02  0.7546771E-02  0.1482695E+00
          2   -1    0    0  502    0  0.00000000000E+00  0.00000000000E+00  0.14244713334E+03  0.14244713334E+03  0.00000000000E+00 0.  1.
          1   -1    0    0  501    0 -0.00000000000E+00 -0.00000000000E+00 -0.72873990627E+03  0.72873990627E+03  0.00000000000E+00 0. -1.
          2    1    1    2  501    0  0.19153426383E+02  0.14126742490E+02  0.14125710777E+03  0.14324799856E+03  0.00000000000E+00 0.  1.
          1    1    1    2  502    0 -0.19153426383E+02 -0.14126742490E+02 -0.72754988069E+03  0.72793904105E+03  0.00000000000E+00 0. -1.
</event>
<event>
 4    1  0.3555026E+003  0.2335514E+02  0.7546771E-02  0.1488086E+00
          2   -1    0    0  502    0  0.00000000000E+00  0.00000000000E+00  0.16832962734E+03  0.16832962734E+03  0.00000000000E+00 0. -1.
          1   -1    0    0  501    0 -0.00000000000E+00 -0.00000000000E+00 -0.57470485840E+02  0.57470485840E+02  0.00000000000E+00 0.  1.
          2    1    1    2  501    0 -0.10634312520E+02 -0.20793601970E+02  0.16510054486E+03  0.16674427246E+03  0.00000000000E+00 0. -1.
          1    1    1    2  502    0  0.10634312520E+02  0.20793601970E+02 -0.54241403355E+02  0.59055840724E+02  0.00000000000E+00 0.  1.
</event>
<event>
 4    1  0.3555026E+003  0.2536392E+02  0.7546771E-02  0.1464773E+00
          2   -1    0    0  502    0  0.00000000000E+00  0.00000000000E+00  0.34015266417E+01  0.34015266417E+01  0.00000000000E+00 0. -1.
          1   -1    0    0  501    0 -0.00000000000E+00 -0.00000000000E+00 -0.53655004885E+03  0.53655004885E+03  0.00000000000E+00 0. -1.
          2    1    1    2  501    0 -0.25027568654E+02  0.41169409707E+01 -0.49330373568E+02  0.55469037778E+02  0.00000000000E+00 0. -1.
          1    1    1    2  502    0  0.25027568654E+02 -0.41169409707E+01 -0.48381814864E+03  0.48448253771E+03  0.00000000000E+00 0. -1.
</event>
<event>
 4    1  0.3555026E+003  0.1256936E+03  0.7546771E-02  0.1125507E+00
          2   -1    0    0  502    0  0.00000000000E+00  0.00000000000E+00  0.15351573774E+03  0.15351573774E+03  0.00000000000E+00 0. -1.
          1   -1    0    0  501    0 -0.00000000000E+00 -0.00000000000E+00 -0.13022991359E+03  0.13022991359E+03  0.00000000000E+00 0. -1.
          2    1    1    2  501    0  0.11850467390E+03  0.41898819956E+02  0.76619108575E+02  0.14720515157E+03  0.00000000000E+00 0. -1.
          1    1    1    2  502    0 -0.11850467390E+03 -0.41898819956E+02 -0.53333284425E+02  0.13654049977E+03  0.00000000000E+00 0. -1.
</event>
<event>
 4    1  0.3555026E+003  0.2136658E+02  0.7546771E-02  0.1514095E+00
          2   -1    0    0  502    0  0.00000000000E+00  0.00000000000E+00  0.39324674695E+03  0.39324674695E+03  0.00000000000E+00 0.  1.
          1   -1    0    0  501    0 -0.00000000000E+00 -0.00000000000E+00 -0.16135954291E+01  0.16135954291E+01  0.00000000000E+00 0.  1.
          2    1    1    2  501    0  0.14045175335E+02 -0.16101673455E+02  0.30038635948E+03  0.30114530679E+03  0.00000000000E+00 0.  1.
          1    1    1    2  502    0 -0.14045175335E+02  0.16101673455E+02  0.91246792035E+02  0.93715035586E+02  0.00000000000E+00 0.  1.
</event>
<event>
 4    1  0.3555026E+003  0.2005080E+02  0.7546771E-02  0.1533260E+00
          2   -1    0    0  502    0  0.00000000000E+00  0.00000000000E+00  0.35189970141E+02  0.35189970141E+02  0.00000000000E+00 0.  1.
          1   -1    0    0  501    0 -0.00000000000E+00 -0.00000000000E+00 -0.20889692966E+03  0.20889692966E+03  0.00000000000E+00 0. -1.
          2    1    1    2  501    0  0.51560100686E+01  0.19376538728E+02  0.31805734219E+02  0.37598396537E+02  0.00000000000E+00 0.  1.
          1    1    1    2  502    0 -0.51560100686E+01 -0.19376538728E+02 -0.20551269374E+03  0.20648850327E+03  0.00000000000E+00 0. -1.
</event>
<event>
 4    1  0.3555026E+003  0.6249148E+02  0.7546771E-02  0.1251594E+00
          2   -1    0    0  502    0  0.00000000000E+00  0.00000000000E+00  0.16667604374E+02  0.16667604374E+02  0.00000000000E+00 0. -1.
          1   -1    0    0  501    0 -0.00000000000E+00 -0.00000000000E+00 -0.30568467746E+03  0.30568467746E+03  0.00000000000E+00 0. -1.
          2    1    1    2  501    0 -0.52984624560E+02 -0.33133280727E+02 -0.66620133131E+02  0.91342360764E+02  0.00000000000E+00 0. -1.
          1    1    1    2  502    0  0.52984624560E+02  0.33133280727E+02 -0.22239693996E+03  0.23100992107E+03  0.00000000000E+00 0. -1.
</event>
<event>
 4    1  0.3555026E+003  0.2509663E+02  0.7546771E-02  0.1467725E+00
          2   -1    0    0  502    0  0.00000000000E+00  0.00000000000E+00  0.16974050367E+04  0.16974050367E+04  0.00000000000E+00 0. -1.
          1   -1    0    0  501    0 -0.00000000000E+00 -0.00000000000E+00 -0.29729935206E+01  0.29729935206E+01  0.00000000000E+00 0. -1.
          2    1    1    2  501    0 -0.67760118455E+01 -0.24164575782E+02  0.16425810846E+04  0.16427727964E+04  0.00000000000E+00 0. -1.
          1    1    1    2  502    0  0.67760118455E+01  0.24164575782E+02  0.51850958552E+02  0.57605233807E+02  0.00000000000E+00 0. -1.
</event>
<event>
 4    1  0.3555026E+003  0.2805091E+02  0.7546771E-02  0.1437328E+00
          2   -1    0    0  502    0  0.00000000000E+00  0.00000000000E+00  0.16686479703E+03  0.16686479703E+03  0.00000000000E+00 0.  1.
          1   -1    0    0  501    0 -0.00000000000E+00 -0.00000000000E+00 -0.29178821098E+02  0.29178821098E+02  0.00000000000E+00 0. -1.
          2    1    1    2  501    0  0.25374620898E+02  0.11957511221E+02  0.15859545961E+03  0.16105704974E+03  0.00000000000E+00 0.  1.
          1    1    1    2  502    0 -0.25374620898E+02 -0.11957511221E+02 -0.20909483677E+02  0.34986568394E+02  0.00000000000E+00 0. -1.
</event>
<event>
 4    1  0.3555026E+003  0.3326118E+02  0.7546771E-02  0.1393218E+00
          2   -1    0    0  502    0  0.00000000000E+00  0.00000000000E+00  0.23551168693E+04  0.23551168693E+04  0.00000000000E+00 0.  1.
          1   -1    0    0  501    0 -0.00000000000E+00 -0.00000000000E+00 -0.79584265240E+02  0.79584265240E+02  0.00000000000E+00 0.  1.
          2    1    1    2  501    0  0.11189807404E+02 -0.31322426392E+02  0.23515188490E+04  0.23517540695E+04  0.00000000000E+00 0.  1.
          1    1    1    2  502    0 -0.11189807404E+02  0.31322426392E+02 -0.75986244923E+02  0.82947065061E+02  0.00000000000E+00 0.  1.
</event>
<event>
 4    1  0.3555026E+003  0.5875652E+02  0.7546771E-02  0.1264117E+00
          2   -1    0    0  502    0  0.00000000000E+00  0.00000000000E+00  0.58803714982E+03  0.58803714982E+03  0.00000000000E+00 0. -1.
          1   -1    0    0  501    0 -0.00000000000E+00 -0.00000000000E+00 -0.63235683784E+01  0.63235683784E+01  0.00000000000E+00 0. -1.
          2    1    1    2  501    0 -0.27338069933E+02 -0.52009221254E+02  0.37036486570E+03  0.37499661719E+03  0.00000000000E+00 0. -1.
          1    1    1    2  502    0  0.27338069933E+02  0.52009221254E+02  0.21134871574E+03  0.21936410100E+03  0.00000000000E+00 0. -1.
</event>
<event>
 4    1  0.3555026E+003  0.2999560E+02  0.7546771E-02  0.1419635E+00
          2   -1    0    0  502    0  0.00000000000E+00  0.00000000000E+00  0.62700470316E+01  0.62700470316E+01  0.00000000000E+00 0.  1.
          1   -1    0    0  501    0 -0.00000000000E+00 -0.00000000000E+00 -0.14782754127E+03  0.14782754127E+03  0.00000000000E+00 0.  1.
          2    1    1    2  501    0  0.15581204456E+00 -0.29995185034E+02 -0.83965551284E+02  0.89162487656E+02  0.00000000000E+00 0.  1.
          1    1    1    2  502    0 -0.15581204456E+00  0.29995185034E+02 -0.57591942957E+02  0.64935100648E+02  0.00000000000E+00 0.  1.
</event>
<event>
 4    1  0.3555026E+003  0.2783495E+02  0.7546771E-02  0.1439397E+00
          2   -1    0    0  502    0  0.00000000000E+00  0.00000000000E+00  0.15311588721E+03  0.15311588721E+03  0.00000000000E+00 0. -1.
          1   -1    0    0  501    0 -0.00000000000E+00 -0.00000000000E+00 -0.36363925839E+02  0.36363925839E+02  0.00000000000E+00 0.  1.
          2    1    1    2  501    0 -0.26746863868E+02 -0.77064545812E+01  0.14627745671E+03  0.14890224482E+03  0.00000000000E+00 0. -1.
          1    1    1    2  502    0  0.26746863868E+02  0.77064545812E+01 -0.29525495338E+02  0.40577568236E+02  0.00000000000E+00 0.  1.
</event>
<event>
 4    1  0.3555026E+003  0.5035020E+02  0.7546771E-02  0.1296661E+00
          2   -1    0    0  502    0  0.00000000000E+00  0.00000000000E+00  0.93465567223E+03  0.93465567223E+03  0.00000000000E+00 0.  1.
          1   -1    0    0  501    0 -0.00000000000E+00 -0.00000000000E+00 -0.51764537980E+02  0.51764537980E+02  0.00000000000E+00 0. -1.
          2    1    1    2  501    0 -0.31029286084E+02 -0.39652564499E+02  0.92156009642E+03  0.92293453386E+03  0.00000000000E+00 0.  1.
          1    1    1    2  502    0  0.31029286084E+02  0.39652564499E+02 -0.38668962174E+02  0.63485676352E+02  0.00000000000E+00 0. -1.
</event>
<event>
 4    1  0.3555026E+003  0.3217224E+02  0.7546771E-02  0.1401613E+00
          2   -1    0    0  502    0  0.00000000000E+00  0.00000000000E+00  0.26168918433E+02  0.26168918433E+02  0.00000000000E+00 0. -1.
          1   -1    0    0  501    0 -0.00000000000E+00 -0.00000000000E+00 -0.73292249346E+02  0.73292249346E+02  0.00000000000E+00 0. -1.
          2    1    1    2  501    0  0.31581368899E+02  0.61376126898E+01  0.10179784105E+02  0.33744349978E+02  0.00000000000E+00 0. -1.
          1    1    1    2  502    0 -0.31581368899E+02 -0.61376126898E+01 -0.57303115018E+02  0.65716817800E+02  0.00000000000E+00 0. -1.
</event>
<event>
 4    1  0.3555026E+003  0.3018064E+02  0.7546771E-02  0.1418033E+00
          2   -1    0    0  502    0  0.00000000000E+00  0.00000000000E+00  0.14637191361E+01  0.14637191361E+01  0.00000000000E+00 0.  1.
          1   -1    0    0  501    0 -0.00000000000E+00 -0.00000000000E+00 -0.14757846397E+04  0.14757846397E+04  0.00000000000E+00 0.  1.
          2    1    1    2  501    0 -0.11461732296E+02 -0.27919518418E+02 -0.17545304022E+03  0.17802988552E+03  0.00000000000E+00 0.  1.
          1    1    1    2  502    0  0.11461732296E+02  0.27919518418E+02 -0.12988678803E+04  0.12992184733E+04  0.00000000000E+00 0.  1.
</event>
<event>
 4    1  0.3555026E+003  0.2842938E+02  0.7546771E-02  0.1433755E+00
          2   -1    0    0  502    0  0.00000000000E+00  0.00000000000E+00  0.15935567095E+02  0.15935567095E+02  0.00000000000E+00 0. -1.
          1   -1    0    0  501    0 -0.00000000000E+00 -0.00000000000E+00 -0.14917516870E+04  0.14917516870E+04  0.00000000000E+00 0. -1.
          2    1    1    2  501    0 -0.26810874283E+02  0.94555242258E+01  0.30096447439E+01  0.28588247230E+02  0.00000000000E+00 0. -1.
          1    1    1    2  502    0  0.26810874283E+02 -0.94555242258E+01 -0.14788257647E+04  0.14790990069E+04  0.00000000000E+00 0. -1.
</event>
<event>
 4    1  0.3555026E+003  0.2537237E+02  0.7546771E-02  0.1464680E+00
          2   -1    0    0  502    0  0.00000000000E+00  0.00000000000E+00  0.51542434824E+02  0.51542434824E+02  0.00000000000E+00 0.  1.
          1   -1    0    0  501    0 -0.00000000000E+00 -0.00000000000E+00 -0.15082595396E+02  0.15082595396E+02  0.00000000000E+00 0.  1.
          2    1    1    2  501    0 -0.22928285243E+02 -0.10865132332E+02  0.32041684712E+02  0.40870856658E+02  0.00000000000E+00 0.  1.
          1    1    1    2  502    0  0.22928285243E+02  0.10865132332E+02  0.44181547160E+01  0.25754173562E+02  0.00000000000E+00 0.  1.
</event>
<event>
 4    1  0.3555026E+003  0.2411753E+02  0.7546771E-02  0.1478923E+00
          2   -1    0    0  502    0  0.00000000000E+00  0.00000000000E+00  0.43455005933E+03  0.43455005933E+03  0.00000000000E+00 0.  1.
          1   -1    0    0  501    0 -0.00000000000E+00 -0.00000000000E+00 -0.44342772885E+01  0.44342772885E+01  0.00000000000E+00 0.  1.
          2    1    1    2  501    0  0.24113898207E+02 -0.41836183794E+00  0.39845431731E+03  0.39918353936E+03  0.00000000000E+00 0.  1.
          1    1    1    2  502    0 -0.24113898207E+02  0.41836183794E+00  0.31661464726E+02  0.39800797253E+02  0.00000000000E+00 0.  1.
</event>
<event>
 4    1  0.3555026E+003  0.2781040E+02  0.7546771E-02  0.1439633E+00
          2   -1    0    0  502    0  0.00000000000E+00  0.00000000000E+00  0.23881879548E+03  0.23881879548E+03  0.00000000000E+00 0.  1.
          1   -1    0    0  501    0 -0.00000000000E+00 -0.00000000000E+00 -0.18484685241E+02  0.18484685241E+02  0.00000000000E+00 0. -1.
          2    1    1    2  501    0  0.86413037570E+01  0.26433807055E+02  0.22700664290E+03  0.22870381327E+03  0.00000000000E+00 0.  1.
          1    1    1    2  502    0 -0.86413037570E+01 -0.26433807055E+02 -0.66725326593E+01  0.28599667448E+02  0.00000000000E+00 0. -1.
</event>
<event>
 4    1  0.3555026E+003  0.2461019E+02  0.7546771E-02  0.1473212E+00
          2   -1    0    0  502    0  0.00000000000E+00  0.00000000000E+00  0.38722964987E+00  0.38722964987E+00  0.00000000000E+00 0. -1.
          1   -1    0    0  501    0 -0.00000000000E+00 -0.00000000000E+00 -0.19679119272E+04  0.19679119272E+04  0.00000000000E+00 0. -1.
          2    1    1    2  501    0  0.14586343781E+02 -0.19821703874E+02 -0.53794790167E+03  0.53851054426E+03  0.00000000000E+00 0. -1.
          1    1    1    2  502    0 -0.14586343781E+02  0.19821703874E+02 -0.14295767959E+04  0.14297886126E+04  0.00000000000E+00 0. -1.
</event>
<event>
 4    1  0.3555026E+003  0.2688601E+02  0.7546771E-02  0.1448756E+00
          2   -1    0    0  502    0  0.00000000000E+00  0.00000000000E+00  0.92779784771E+03  0.92779784771E+03  0.00000000000E+00 0. -1.
          1   -1    0    0  501    0 -0.00000000000E+00 -0.00000000000E+00 -0.84227303340E+01  0.84227303340E+01  0.00000000000E+00 0.  1.
          2    1    1    2  501    0 -0.13576411522E+02 -0.23206439275E+02  0.90562224632E+03  0.90602125295E+03  0.00000000000E+00 0. -1.
          1    1    1    2  502    0  0.13576411522E+02  0.23206439275E+02  0.13752871056E+02  0.30199325090E+02  0.00000000000E+00 0.  1.
</event>
<event>
 4    1  0.3555026E+003  0.2259226E+02  0.7546771E-02  0.1497683E+00
          2   -1    0    0  502    0  0.00000000000E+00  0.00000000000E+00  0.19650521258E+03  0.19650521258E+03  0.00000000000E+00 0.  1.
          1   -1    0    0  501    0 -0.00000000000E+00 -0.00000000000E+00 -0.21168266364E+02  0.21168266364E+02  0.00000000000E+00 0. -1.
          2    1    1    2  501    0 -0.22501638737E+02 -0.20215326796E+01  0.18960938192E+03  0.19095059061E+03  0.00000000000E+00 0.  1.
          1    1    1    2  502    0  0.22501638737E+02  0.20215326796E+01 -0.14272435705E+02  0.26722888339E+02  0.00000000000E+00 0. -1.
</event>
<event>
 4    1  0.3555026E+003  0.3267402E+02  0.7546771E-02  0.1397697E+00
          2   -1    0    0  502    0  0.00000000000E+00  0.00000000000E+00  0.91222044082E+00  0.91222044082E+00  0.00000000000E+00 0.  1.
          1   -1    0    0  501    0 -0.00000000000E+00 -0.00000000000E+00 -0.26109000575E+04  0.26109000575E+04  0.00000000000E+00 0. -1.
          2    1    1    2  501    0  0.30111246720E+02  0.12684798320E+02 -0.33496362489E+03  0.33655344492E+03  0.00000000000E+00 0.  1.
          1    1    1    2  502    0 -0.30111246720E+02 -0.12684798320E+02 -0.22750242122E+04  0.22752588331E+04  0.00000000000E+00 0. -1.
</event>
<event>
 4    1  0.3555026E+003  0.2539027E+02  0.7546771E-02  0.1464484E+00
          2   -1    0    0  502    0  0.00000000000E+00  0.00000000000E+00  0.31576703552E+02  0.31576703552E+02  0.00000000000E+00 0. -1.
          1   -1    0    0  501    0 -0.00000000000E+00 -0.00000000000E+00 -0.20736283537E+02  0.20736283537E+02  0.00000000000E+00 0.  1.
          2    1    1    2  501    0  0.10484002710E+01  0.25368614104E+02  0.86716272939E+01  0.26830259869E+02  0.00000000000E+00 0. -1.
          1    1    1    2  502    0 -0.10484002710E+01 -0.25368614104E+02  0.21687927215E+01  0.25482727220E+02  0.00000000000E+00 0.  1.
</event>
<event>
 4    1  0.3555026E+003  0.2009134E+02  0.7546771E-02  0.1532644E+00
          2   -1    0    0  502    0  0.00000000000E+00  0.00000000000E+00  0.14952383061E+03  0.14952383061E+03  0.00000000000E+00 0. -1.
          1   -1    0    0  501    0 -0.00000000000E+00 -0.00000000000E+00 -0.10728406312E+03  0.10728406312E+03  0.00000000000E+00 0.  1.
          2    1    1    2  501    0 -0.11439505408E+02 -0.16516649111E+02  0.14789798672E+03  0.14925641178E+03  0.00000000000E+00 0. -1.
          1    1    1    2  502    0  0.11439505408E+02  0.16516649111E+02 -0.10565821922E+03  0.10755148196E+03  0.00000000000E+00 0.  1.
</event>
<event>
 4    1  0.3555026E+003  0.3272210E+02  0.7546771E-02  0.1397326E+00
          2   -1    0    0  502    0  0.00000000000E+00  0.00000000000E+00  0.12680525035E+02  0.12680525035E+02  0.00000000000E+00 0. -1.
          1   -1    0    0  501    0 -0.00000000000E+00 -0.00000000000E+00 -0.33081434837E+03  0.33081434837E+03  0.00000000000E+00 0. -1.
          2    1    1    2  501    0 -0.32300203685E+02  0.52376358468E+01 -0.10850476392E+02  0.34474176209E+02  0.00000000000E+00 0. -1.
          1    1    1    2  502    0  0.32300203685E+02 -0.52376358468E+01 -0.30728334695E+03  0.30902069720E+03  0.00000000000E+00 0. -1.
</event>
<event>
 4    1  0.3555026E+003  0.5555853E+02  0.7546771E-02  0.1275719E+00
          2   -1    0    0  502    0  0.00000000000E+00  0.00000000000E+00  0.13682775609E+04  0.13682775609E+04  0.00000000000E+00 0.  1.
          1   -1    0    0  501    0 -0.00000000000E+00 -0.00000000000E+00 -0.25550516732E+03  0.25550516732E+03  0.00000000000E+00 0.  1.
          2    1    1    2  501    0 -0.34696668412E+02 -0.43392293579E+02  0.13646853874E+04  0.13658158575E+04  0.00000000000E+00 0.  1.
          1    1    1    2  502    0  0.34696668412E+02  0.43392293579E+02 -0.25191299383E+03  0.25796687074E+03  0.00000000000E+00 0.  1.
</event>
<event>
 4    1  0.3555026E+003  0.2323149E+02  0.7546771E-02  0.1489612E+00
          2   -1    0    0  502    0  0.00000000000E+00  0.00000000000E+00  0.25664044340E+02  0.25664044340E+02  0.00000000000E+00 0.  1.
          1   -1    0    0  501    0 -0.00000000000E+00 -0.00000000000E+00 -0.87364652235E+03  0.87364652235E+03  0.00000000000E+00 0. -1.
          2    1    1    2  501    0  0.12793591694E+02 -0.19391390517E+02  0.20219265098E+02  0.30798063181E+02  0.00000000000E+00 0.  1.
          1    1    1    2  502    0 -0.12793591694E+02  0.19391390517E+02 -0.86820174311E+03  0.86851250351E+03  0.00000000000E+00 0. -1.
</event>
<event>
 4    1  0.3555026E+003  0.2010243E+02  0.7546771E-02  0.1532476E+00
          2   -1    0    0  502    0  0.00000000000E+00  0.00000000000E+00  0.34780390753E+02  0.34780390753E+02  0.00000000000E+00 0.  1.
          1   -1    0    0  501    0 -0.00000000000E+00 -0.00000000000E+00 -0.37689417914E+02  0.37689417914E+02  0.00000000000E+00 0.  1.
          2    1    1    2  501    0 -0.17620455596E+02 -0.96761126678E+01  0.28681983950E+02  0.35025188295E+02  0.00000000000E+00 0.  1.
          1    1    1    2  502    0  0.17620455596E+02  0.96761126678E+01 -0.31591011112E+02  0.37444620372E+02  0.00000000000E+00 0.  1.
</event>
<event>
 4    1  0.3555026E+003  0.5934311E+02  0.7546771E-02  0.1262081E+00
          2   -1    0    0  502    0  0.00000000000E+00  0.00000000000E+00  0.49689967511E+03  0.49689967511E+03  0.00000000000E+00 0. -1.
          1   -1    0    0  501    0 -0.00000000000E+00 -0.00000000000E+00 -0.18440096592E+02  0.18440096592E+02  0.00000000000E+00 0. -1.
          2    1    1    2  501    0  0.49483259952E+02  0.32756851499E+02  0.44140890708E+03  0.44538009339E+03  0.00000000000E+00 0. -1.
          1    1    1    2  502    0 -0.49483259952E+02 -0.32756851499E+02  0.37050671431E+02  0.69959678309E+02  0.00000000000E+00 0. -1.
</event>
<event>
 4    1  0.3555026E+003  0.4032561E+02  0.7546771E-02  0.1346588E+00
          2   -1    0    0  502    0  0.00000000000E+00  0.00000000000E+00  0.14017200137E+04  0.14017200137E+04  0.00000000000E+00 0. -1.
          1   -1    0    0  501    0 -0.00000000000E+00 -0.00000000000E+00 -0.18616271339E+01  0.18616271339E+01  0.00000000000E+00 0. -1.
          2    1    1    2  501    0  0.13182521511E+02 -0.38110055195E+02  0.11307326696E+04  0.11314515126E+04  0.00000000000E+00 0. -1.
          1    1    1    2  502    0 -0.13182521511E+02  0.38110055195E+02  0.26912571697E+03  0.27213012828E+03  0.00000000000E+00 0. -1.
</event>
<event>
 4    1  0.3555026E+003  0.2708874E+02  0.7546771E-02  0.1446719E+00
          2   -1    0    0  502    0  0.00000000000E+00  0.00000000000E+00  0.23721836568E+03  0.23721836568E+03  0.00000000000E+00 0. -1.
          1   -1    0    0  501    0 -0.00000000000E+00 -0.00000000000E+00 -0.32024860919E+03  0.32024860919E+03  0.00000000000E+00 0. -1.
          2    1    1    2  501    0 -0.26890857971E+02  0.32682902648E+01  0.23586892489E+03  0.23741935409E+03  0.00000000000E+00 0. -1.
          1    1    1    2  502    0  0.26890857971E+02 -0.32682902648E+01 -0.31889916840E+03  0.32004762079E+03  0.00000000000E+00 0. -1.
</event>
<event>
 4    1  0.3555026E+003  0.2051857E+02  0.7546771E-02  0.1526251E+00
          2   -1    0    0  502    0  0.00000000000E+00  0.00000000000E+00  0.37572196228E+01  0.37572196228E+01  0.00000000000E+00 0.  1.
          1   -1    0    0  501    0 -0.00000000000E+00 -0.00000000000E+00 -0.38612217046E+03  0.38612217046E+03  0.00000000000E+00 0.  1.
          2    1    1    2  501    0  0.19843515037E+02  0.52198279645E+01 -0.26946925132E+02  0.33869580261E+02  0.00000000000E+00 0.  1.
          1    1    1    2  502    0 -0.19843515037E+02 -0.52198279645E+01 -0.35541802571E+03  0.35600980982E+03  0.00000000000E+00 0.  1.
</event>
<event>
 4    1  0.3555026E+003  0.2421574E+02  0.7546771E-02  0.1477771E+00
          2   -1    0    0  502    0  0.00000000000E+00  0.00000000000E+00  0.29376484594E+01  0.29376484594E+01  0.00000000000E+00 0.  1.
          1   -1    0    0  501    0 -0.00000000000E+00 -0.00000000000E+00 -0.14452270529E+04  0.14452270529E+04  0.00000000000E+00 0.  1.
          2    1    1    2  501    0 -0.23114335657E+02  0.72200758392E+01 -0.48925173467E+02  0.54590059596E+02  0.00000000000E+00 0.  1.
          1    1    1    2  502    0  0.23114335657E+02 -0.72200758392E+01 -0.13933642310E+04  0.13935746418E+04  0.00000000000E+00 0.  1.
</event>
<event>
 4    1  0.3555026E+003  0.4227451E+02  0.7546771E-02  0.1335649E+00
          2   -1    0    0  502    0  0.00000000000E+00  0.00000000000E+00  0.59899933921E+03  0.59899933921E+03  0.00000000000E+00 0.  1.
          1   -1    0    0  501    0 -0.00000000000E+00 -0.00000000000E+00 -0.34537123858E+01  0.34537123858E+01  0.00000000000E+00 0. -1.
          2    1    1    2  501    0 -0.34509987282E+02  0.24417108403E+02  0.40891574212E+03  0.41109514538E+03  0.00000000000E+00 0.  1.
          1    1    1    2  502    0  0.34509987282E+02 -0.24417108403E+02  0.18662988471E+03  0.19135790622E+03  0.00000000000E+00 0. -1.
</event>
<event>
 4    1  0.3555026E+003  0.2083677E+02  0.7546771E-02  0.1521608E+00
          2   -1    0    0  502    0  0.00000000000E+00  0.00000000000E+00  0.10340108841E+02  0.10340108841E+02  0.00000000000E+00 0.  1.
          1   -1    0    0  501    0 -0.00000000000E+00 -0.00000000000E+00 -0.14169608829E+03  0.14169608829E+03  0.00000000000E+00 0. -1.
          2    1    1    2  501    0 -0.84979597748E+01  0.19025132832E+02 -0.19102456527E+01  0.20924149638E+02  0.00000000000E+00 0.  1.
          1    1    1    2  502    0  0.84979597748E+01 -0.19025132832E+02 -0.12944573380E+03  0.13111204750E+03  0.00000000000E+00 0. -1.
</event>
<event>
 4    1  0.3555026E+003  0.2280577E+02  0.7546771E-02  0.1494952E+00
          2   -1    0    0  502    0  0.00000000000E+00  0.00000000000E+00  0.21259588544E+01  0.21259588544E+01  0.00000000000E+00 0.  1.
          1   -1    0    0  501    0 -0.00000000000E+00 -0.00000000000E+00 -0.80795841050E+03  0.80795841050E+03  0.00000000000E+00 0. -1.
          2    1    1    2  501    0  0.98235646384E+01  0.20581565414E+02 -0.64710347337E+02  0.68611459025E+02  0.00000000000E+00 0.  1.
          1    1    1    2  502    0 -0.98235646384E+01 -0.20581565414E+02 -0.74112210431E+03  0.74147291033E+03  0.00000000000E+00 0. -1.
</event>
<event>
 4    1  0.3555026E+003  0.2282912E+02  0.7546771E-02  0.1494655E+00
          2   -1    0    0  502    0  0.00000000000E+00  0.00000000000E+00  0.26563383607E+02  0.26563383607E+02  0.00000000000E+00 0.  1.
          1   -1    0    0  501    0 -0.00000000000E+00 -0.00000000000E+00 -0.20462930164E+02  0.20462930164E+02  0.00000000000E+00 0.  1.
          2    1    1    2  501    0  0.11922366603E+02  0.19468582651E+02  0.78230109673E+01  0.24132302758E+02  0.00000000000E+00 0.  1.
          1    1    1    2  502    0 -0.11922366603E+02 -0.19468582651E+02 -0.17225575238E+01  0.22894011013E+02  0.00000000000E+00 0.  1.
</event>
<event>
 4    1  0.3555026E+003  0.3222642E+02  0.7546771E-02  0.1401186E+00
          2   -1    0    0  502    0  0.00000000000E+00  0.00000000000E+00  0.35702687116E+03  0.35702687116E+03  0.00000000000E+00 0. -1.
          1   -1    0    0  501    0 -0.00000000000E+00 -0.00000000000E+00 -0.33281834629E+01  0.33281834629E+01  0.00000000000E+00 0.  1.
          2    1    1    2  501    0  0.31529583078E+02 -0.66654101574E+01  0.24080367403E+03  0.24295051292E+03  0.00000000000E+00 0. -1.
          1    1    1    2  502    0 -0.31529583078E+02  0.66654101574E+01  0.11289501367E+03  0.11740454170E+03  0.00000000000E+00 0.  1.
</event>
<event>
 4    1  0.3555026E+003  0.2256491E+02  0.7546771E-02  0.1498035E+00
          2   -1    0    0  502    0  0.00000000000E+00  0.00000000000E+00  0.70012766058E+02  0.70012766058E+02  0.00000000000E+00 0.  1.
          1   -1    0    0  501    0 -0.00000000000E+00 -0.00000000000E+00 -0.72929971231E+01  0.72929971231E+01  0.00000000000E+00 0.  1.
          2    1    1    2  501    0  0.18319673002E+02 -0.13174376357E+02  0.29315566441E+02  0.36994283978E+02  0.00000000000E+00 0.  1.
          1    1    1    2  502    0 -0.18319673002E+02  0.13174376357E+02  0.33404202494E+02  0.40311479203E+02  0.00000000000E+00 0.  1.
</event>
<event>
 4    1  0.3555026E+003  0.2321475E+02  0.7546771E-02  0.1489819E+00
          2   -1    0    0  502    0  0.00000000000E+00  0.00000000000E+00  0.84726485831E+01  0.84726485831E+01  0.00000000000E+00 0.  1.
          1   -1    0    0  501    0 -0.00000000000E+00 -0.00000000000E+00 -0.81715233195E+02  0.81715233195E+02  0.00000000000E+00 0. -1.
          2    1    1    2  501    0  0.18226261472E+02  0.14378038545E+02 -0.15393840367E+02  0.27854890430E+02  0.00000000000E+00 0.  1.
          1    1    1    2  502    0 -0.18226261472E+02 -0.14378038545E+02 -0.57848744245E+02  0.62332991348E+02  0.00000000000E+00 0. -1.
</event>
<event>
 4    1  0.3555026E+003  0.2284620E+02  0.7546771E-02  0.1494439E+00
          2   -1    0    0  502    0  0.00000000000E+00  0.00000000000E+00  0.45389903177E+01  0.45389903177E+01  0.00000000000E+00 0.  1.
          1   -1    0    0  501    0 -0.00000000000E+00 -0.00000000000E+00 -0.11525973927E+03  0.11525973927E+03  0.00000000000E+00 0.  1.
          2    1    1    2  501    0  0.16566085545E+02  0.15732549121E+02 -0.58246473236E+02  0.62566763834E+02  0.00000000000E+00 0.  1.
          1    1    1    2  502    0 -0.16566085545E+02 -0.15732549121E+02 -0.52474275713E+02  0.57231965752E+02  0.00000000000E+00 0.  1.
</event>
<event>
 4    1  0.3555026E+003  0.5750293E+02  0.7546771E-02  0.1268561E+00
          2   -1    0    0  502    0  0.00000000000E+00  0.00000000000E+00  0.38014819321E+03  0.38014819321E+03  0.00000000000E+00 0.  1.
          1   -1    0    0  501    0 -0.00000000000E+00 -0.00000000000E+00 -0.65930163021E+03  0.65930163021E+03  0.00000000000E+00 0. -1.
          2    1    1    2  501    0 -0.47176794393E+02  0.32877606468E+02  0.37670845055E+03  0.38107196650E+03  0.00000000000E+00 0.  1.
          1    1    1    2  502    0  0.47176794393E+02 -0.32877606468E+02 -0.65586188755E+03  0.65837785692E+03  0.00000000000E+00 0. -1.
</event>
<event>
 4    1  0.3555026E+003  0.2154313E+02  0.7546771E-02  0.1511650E+00
          2   -1    0    0  502    0  0.00000000000E+00  0.00000000000E+00  0.93430683349E+02  0.93430683349E+02  0.00000000000E+00 0.  1.
          1   -1    0    0  501    0 -0.00000000000E+00 -0.00000000000E+00 -0.12249641324E+03  0.12249641324E+03  0.00000000000E+00 0. -1.
          2    1    1    2  501    0 -0.15028208047E+02 -0.15435653560E+02  0.91218998966E+02  0.93728395966E+02  0.00000000000E+00 0.  1.
          1    1    1    2  502    0  0.15028208047E+02  0.15435653560E+02 -0.12028472886E+03  0.12219870062E+03  0.00000000000E+00 0. -1.
</event>
<event>
 4    1  0.3555026E+003  0.2462202E+02  0.7546771E-02  0.1473076E+00
          2   -1    0    0  502    0  0.00000000000E+00  0.00000000000E+00  0.39891607932E+01  0.39891607932E+01  0.00000000000E+00 0. -1.
          1   -1    0    0  501    0 -0.00000000000E+00 -0.00000000000E+00 -0.60317595270E+03  0.60317595270E+03  0.00000000000E+00 0.  1.
          2    1    1    2  501    0 -0.24110480173E+02  0.49928572240E+01 -0.37025953103E+02  0.44465324474E+02  0.00000000000E+00 0. -1.
          1    1    1    2  502    0  0.24110480173E+02 -0.49928572240E+01 -0.56216083880E+03  0.56269978901E+03  0.00000000000E+00 0.  1.
</event>
<event>
 4    1  0.3555026E+003  0.2345372E+02  0.7546771E-02  0.1486878E+00
          2   -1    0    0  502    0  0.00000000000E+00  0.00000000000E+00  0.10201753026E+02  0.10201753026E+02  0.00000000000E+00 0. -1.
          1   -1    0    0  501    0 -0.00000000000E+00 -0.00000000000E+00 -0.83791383504E+02  0.83791383504E+02  0.00000000000E+00 0. -1.
          2    1    1    2  501    0  0.23444535020E+02  0.65631054552E+00 -0.87343256384E+01  0.25027293306E+02  0.00000000000E+00 0. -1.
          1    1    1    2  502    0 -0.23444535020E+02 -0.65631054552E+00 -0.64855304840E+02  0.68965843225E+02  0.00000000000E+00 0. -1.
</event>
<event>
 4    1  0.3555026E+003  0.2188709E+02  0.7546771E-02  0.1506967E+00
          2   -1    0    0  502    0  0.00000000000E+00  0.00000000000E+00  0.62577460475E+01  0.62577460475E+01  0.00000000000E+00 0.  1.
          1   -1    0    0  501    0 -0.00000000000E+00 -0.00000000000E+00 -0.12593658698E+03  0.12593658698E+03  0.00000000000E+00 0. -1.
          2    1    1    2  501    0  0.21767735504E+02  0.22825860913E+01 -0.18448839848E+02  0.28625237117E+02  0.00000000000E+00 0.  1.
          1    1    1    2  502    0 -0.21767735504E+02 -0.22825860913E+01 -0.10123000108E+03  0.10356909591E+03  0.00000000000E+00 0. -1.
</event>
<event>
 4    1  0.3555026E+003  0.2169872E+02  0.7546771E-02  0.1509518E+00
          2   -1    0    0  502    0  0.00000000000E+00  0.00000000000E+00  0.30238848109E+03  0.30238848109E+03  0.00000000000E+00 0. -1.
          1   -1    0    0  501    0 -0.00000000000E+00 -0.00000000000E+00 -0.95128476671E+03  0.95128476671E+03  0.00000000000E+00 0.  1.
          2    1    1    2  501    0 -0.20662947319E+02 -0.66239902924E+01  0.30187527145E+03  0.30265411636E+03  0.00000000000E+00 0. -1.
          1    1    1    2  502    0  0.20662947319E+02  0.66239902924E+01 -0.95077155707E+03  0.95101913144E+03  0.00000000000E+00 0.  1.
</event>
<event>
 4    1  0.3555026E+003  0.2139136E+02  0.7546771E-02  0.1513750E+00
          2   -1    0    0  502    0  0.00000000000E+00  0.00000000000E+00  0.85941874861E+02  0.85941874861E+02  0.00000000000E+00 0.  1.
          1   -1    0    0  501    0 -0.00000000000E+00 -0.00000000000E+00 -0.95624785140E+02  0.95624785140E+02  0.00000000000E+00 0.  1.
          2    1    1    2  501    0 -0.36216567784E+01  0.21082546210E+02  0.83378257653E+02  0.86078592006E+02  0.00000000000E+00 0.  1.
          1    1    1    2  502    0  0.36216567784E+01 -0.21082546210E+02 -0.93061167932E+02  0.95488067995E+02  0.00000000000E+00 0.  1.
</event>
<event>
 4    1  0.3555026E+003  0.2093981E+02  0.7546771E-02  0.1520126E+00
          2   -1    0    0  502    0  0.00000000000E+00  0.00000000000E+00  0.41657654522E+03  0.41657654522E+03  0.00000000000E+00 0.  1.
          1   -1    0    0  501    0 -0.00000000000E+00 -0.00000000000E+00 -0.15684597253E+03  0.15684597253E+03  0.00000000000E+00 0.  1.
          2    1    1    2  501    0 -0.18207386129E+02 -0.10342480086E+02  0.41561288782E+03  0.41614005854E+03  0.00000000000E+00 0.  1.
          1    1    1    2  502    0  0.18207386129E+02  0.10342480086E+02 -0.15588231513E+03  0.15728245921E+03  0.00000000000E+00 0.  1.
</event>
<event>
 4    1  0.3555026E+003  0.2845870E+02  0.7546771E-02  0.1433481E+00
          2   -1    0    0  502    0  0.00000000000E+00  0.00000000000E+00  0.17742880201E+03  0.17742880201E+03  0.00000000000E+00 0. -1.
          1   -1    0    0  501    0 -0.00000000000E+00 -0.00000000000E+00 -0.76521954251E+03  0.76521954251E+03  0.00000000000E+00 0.  1.
          2    1    1    2  501    0 -0.21630520419E+02 -0.18493732939E+02  0.17602094434E+03  0.17830667519E+03  0.00000000000E+00 0. -1.
          1    1    1    2  502    0  0.21630520419E+02  0.18493732939E+02 -0.76381168484E+03  0.76434166933E+03  0.00000000000E+00 0.  1.
</event>
<event>
 4    1  0.3555026E+003  0.5278749E+02  0.7546771E-02  0.1286519E+00
          2   -1    0    0  502    0  0.00000000000E+00  0.00000000000E+00  0.37165401546E+02  0.37165401546E+02  0.00000000000E+00 0.  1.
          1   -1    0    0  501    0 -0.00000000000E+00 -0.00000000000E+00 -0.99876484406E+02  0.99876484406E+02  0.00000000000E+00 0.  1.
          2    1    1    2  501    0 -0.52576806750E+02  0.47115334683E+01  0.28576978981E+01  0.52864785944E+02  0.00000000000E+00 0.  1.
          1    1    1    2  502    0  0.52576806750E+02 -0.47115334683E+01 -0.65568780757E+02  0.84177100008E+02  0.00000000000E+00 0.  1.
</event>
<event>
 4    1  0.3555026E+003  0.2036767E+02  0.7546771E-02  0.1528487E+00
          2   -1    0    0  502    0  0.00000000000E+00  0.00000000000E+00  0.90365862811E+03  0.90365862811E+03  0.00000000000E+00 0. -1.
          1   -1    0    0  501    0 -0.00000000000E+00 -0.00000000000E+00 -0.90678973761E+01  0.90678973761E+01  0.00000000000E+00 0. -1.
          2    1    1    2  501    0 -0.15278326902E+02  0.13469022279E+02  0.89195673195E+03  0.89218924758E+03  0.00000000000E+00 0. -1.
          1    1    1    2  502    0  0.15278326902E+02 -0.13469022279E+02  0.26339987856E+01  0.20537277903E+02  0.00000000000E+00 0. -1.
</event>
<event>
 4    1  0.3555026E+003  0.2775597E+02  0.7546771E-02  0.1440159E+00
          2   -1    0    0  502    0  0.00000000000E+00  0.00000000000E+00  0.54694178567E+02  0.54694178567E+02  0.00000000000E+00 0.  1.
          1   -1    0    0  501    0 -0.00000000000E+00 -0.00000000000E+00 -0.18305688156E+02  0.18305688156E+02  0.00000000000E+00 0. -1.
          2    1    1    2  501    0 -0.26854738320E+02 -0.70154916534E+01  0.35719553347E+02  0.45235832972E+02  0.00000000000E+00 0.  1.
          1    1    1    2  502    0  0.26854738320E+02  0.70154916534E+01  0.66893706379E+00  0.27764033751E+02  0.00000000000E+00 0. -1.
</event>
<event>
 4    1  0.3555026E+003  0.2082563E+02  0.7546771E-02  0.1521769E+00
          2   -1    0    0  502    0  0.00000000000E+00  0.00000000000E+00  0.30318981048E+02  0.30318981048E+02  0.00000000000E+00 0.  1.
          1   -1    0    0  501    0 -0.00000000000E+00 -0.00000000000E+00 -0.58959413934E+02  0.58959413934E+02  0.00000000000E+00 0. -1.
          2    1    1    2  501    0 -0.20174331446E+02  0.51675194791E+01  0.24528169308E+02  0.32176668511E+02  0.00000000000E+00 0.  1.
          1    1    1    2  502    0  0.20174331446E+02 -0.51675194791E+01 -0.53168602193E+02  0.57101726472E+02  0.00000000000E+00 0. -1.
</event>
<event>
 4    1  0.3555026E+003  0.2884367E+02  0.7546771E-02  0.1429918E+00
          2   -1    0    0  502    0  0.00000000000E+00  0.00000000000E+00  0.92299517207E+02  0.92299517207E+02  0.00000000000E+00 0. -1.
          1   -1    0    0  501    0 -0.00000000000E+00 -0.00000000000E+00 -0.14927446414E+03  0.14927446414E+03  0.00000000000E+00 0.  1.
          2    1    1    2  501    0  0.20473119184E+02 -0.20317700427E+02  0.88595985638E+02  0.93172990888E+02  0.00000000000E+00 0. -1.
          1    1    1    2  502    0 -0.20473119184E+02  0.20317700427E+02 -0.14557093257E+03  0.14840099046E+03  0.00000000000E+00 0.  1.
</event>
<event>
 4    1  0.3555026E+003  0.4496089E+02  0.7546771E-02  0.1321635E+00
          2   -1    0    0  502    0  0.00000000000E+00  0.00000000000E+00  0.27554024185E+03  0.27554024185E+03  0.00000000000E+00 0.  1.
          1   -1    0    0  501    0 -0.00000000000E+00 -0.00000000000E+00 -0.60448692359E+02  0.60448692359E+02  0.00000000000E+00 0. -1.
          2    1    1    2  501    0  0.29511831565E+02 -0.33919514589E+02  0.26501617234E+03  0.26880300086E+03  0.00000000000E+00 0.  1.
          1    1    1    2  502    0 -0.29511831565E+02  0.33919514589E+02 -0.49924622851E+02  0.67185933342E+02  0.00000000000E+00 0. -1.
</event>
<event>
 4    1  0.3555026E+003  0.2850844E+02  0.7546771E-02  0.1433017E+00
          2   -1    0    0  502    0  0.00000000000E+00  0.00000000000E+00  0.50566274966E+01  0.50566274966E+01  0.00000000000E+00 0.  1.
          1   -1    0    0  501    0 -0.00000000000E+00 -0.00000000000E+00 -0.38380226396E+03  0.38380226396E+03  0.00000000000E+00 0. -1.
          2    1    1    2  501    0 -0.25962534331E+02  0.11776150963E+02 -0.41143173782E+02  0.50054886567E+02  0.00000000000E+00 0.  1.
          1    1    1    2  502    0  0.25962534331E+02 -0.11776150963E+02 -0.33760246268E+03  0.33880400489E+03  0.00000000000E+00 0. -1.
</event>
<event>
 4    1  0.3555026E+003  0.2694299E+02  0.7546771E-02  0.1448182E+00
          2   -1    0    0  502    0  0.00000000000E+00  0.00000000000E+00  0.24915331513E+01  0.24915331513E+01  0.00000000000E+00 0. -1.
          1   -1    0    0  501    0 -0.00000000000E+00 -0.00000000000E+00 -0.48665830314E+03  0.48665830314E+03  0.00000000000E+00 0.  1.
          2    1    1    2  501    0 -0.14852094620E+02 -0.22479767120E+02 -0.87147200760E+02  0.91217099519E+02  0.00000000000E+00 0. -1.
          1    1    1    2  502    0  0.14852094620E+02  0.22479767120E+02 -0.39701956923E+03  0.39793273677E+03  0.00000000000E+00 0.  1.
</event>
<event>
 4    1  0.3555026E+003  0.2591415E+02  0.7546771E-02  0.1458831E+00
          2   -1    0    0  502    0  0.00000000000E+00  0.00000000000E+00  0.92289734877E+03  0.92289734877E+03  0.00000000000E+00 0.  1.
          1   -1    0    0  501    0 -0.00000000000E+00 -0.00000000000E+00 -0.79599926623E+00  0.79599926623E+00  0.00000000000E+00 0.  1.
          2    1    1    2  501    0  0.25631956485E+02  0.38139392494E+01  0.59638828422E+03  0.59695102720E+03  0.00000000000E+00 0.  1.
          1    1    1    2  502    0 -0.25631956485E+02 -0.38139392494E+01  0.32571306528E+03  0.32674232083E+03  0.00000000000E+00 0.  1.
</event>
<event>
 4    1  0.3555026E+003  0.4243492E+02  0.7546771E-02  0.1334779E+00
          2   -1    0    0  502    0  0.00000000000E+00  0.00000000000E+00  0.73741411635E+01  0.73741411635E+01  0.00000000000E+00 0. -1.
          1   -1    0    0  501    0 -0.00000000000E+00 -0.00000000000E+00 -0.56539424449E+03  0.56539424449E+03  0.00000000000E+00 0.  1.
          2    1    1    2  501    0  0.34982134549E+02  0.24020253779E+02 -0.63155522461E+02  0.76087727962E+02  0.00000000000E+00 0. -1.
          1    1    1    2  502    0 -0.34982134549E+02 -0.24020253779E+02 -0.49486458086E+03  0.49668065769E+03  0.00000000000E+00 0.  1.
</event>
<event>
 4    1  0.3555026E+003  0.2746287E+02  0.7546771E-02  0.1443013E+00
          2   -1    0    0  502    0  0.00000000000E+00  0.00000000000E+00  0.22465435002E+03  0.22465435002E+03  0.00000000000E+00 0.  1.
          1   -1    0    0  501    0 -0.00000000000E+00 -0.00000000000E+00 -0.20310785516E+03  0.20310785516E+03  0.00000000000E+00 0.  1.
          2    1    1    2  501    0  0.12247981901E+00 -0.27462596699E+02  0.22287934920E+03  0.22456494276E+03  0.00000000000E+00 0.  1.
          1    1    1    2  502    0 -0.12247981901E+00  0.27462596699E+02 -0.20133285434E+03  0.20319726242E+03  0.00000000000E+00 0.  1.
</event>
<event>
 4    1  0.3555026E+003  0.4822136E+02  0.7546771E-02  0.1306074E+00
          2   -1    0    0  502    0  0.00000000000E+00  0.00000000000E+00  0.12282783064E+04  0.12282783064E+04  0.00000000000E+00 0.  1.
          1   -1    0    0  501    0 -0.00000000000E+00 -0.00000000000E+00 -0.23155863193E+03  0.23155863193E+03  0.00000000000E+00 0.  1.
          2    1    1    2  501    0 -0.47958478646E+02 -0.50282973350E+01  0.12252884118E+04  0.12262369231E+04  0.00000000000E+00 0.  1.
          1    1    1    2  502    0  0.47958478646E+02  0.50282973350E+01 -0.22856873732E+03  0.23360001526E+03  0.00000000000E+00 0.  1.
</event>
<event>
 4    1  0.3555026E+003  0.2557244E+02  0.7546771E-02  0.1462500E+00
          2   -1    0    0  502    0  0.00000000000E+00  0.00000000000E+00  0.44914655458E+03  0.44914655458E+03  0.00000000000E+00 0. -1.
          1   -1    0    0  501    0 -0.00000000000E+00 -0.00000000000E+00 -0.22009392097E+01  0.22009392097E+01  0.00000000000E+00 0.  1.
          2    1    1    2  501    0  0.16198844119E+02 -0.19787545180E+02  0.35476610409E+03  0.35568657285E+03  0.00000000000E+00 0. -1.
          1    1    1    2  502    0 -0.16198844119E+02  0.19787545180E+02  0.92179511287E+02  0.95660920946E+02  0.00000000000E+00 0.  1.
</event>
<event>
 4    1  0.3555026E+003  0.2369603E+02  0.7546771E-02  0.1483938E+00
          2   -1    0    0  502    0  0.00000000000E+00  0.00000000000E+00  0.85948934461E+02  0.85948934461E+02  0.00000000000E+00 0. -1.
          1   -1    0    0  501    0 -0.00000000000E+00 -0.00000000000E+00 -0.59572053518E+02  0.59572053518E+02  0.00000000000E+00 0. -1.
          2    1    1    2  501    0  0.23263091584E+02  0.45089161623E+01  0.81843470532E+02  0.85204785216E+02  0.00000000000E+00 0. -1.
          1    1    1    2  502    0 -0.23263091584E+02 -0.45089161623E+01 -0.55466589589E+02  0.60316202762E+02  0.00000000000E+00 0. -1.
</event>
<event>
 4    1  0.3555026E+003  0.3244689E+02  0.7546771E-02  0.1399459E+00
          2   -1    0    0  502    0  0.00000000000E+00  0.00000000000E+00  0.12404500604E+04  0.12404500604E+04  0.00000000000E+00 0. -1.
          1   -1    0    0  501    0 -0.00000000000E+00 -0.00000000000E+00 -0.85293685970E+00  0.85293685970E+00  0.00000000000E+00 0. -1.
          2    1    1    2  501    0  0.30677685233E+02 -0.10567902362E+02  0.66341279321E+03  0.66420579275E+03  0.00000000000E+00 0. -1.
          1    1    1    2  502    0 -0.30677685233E+02  0.10567902362E+02  0.57618433036E+03  0.57709720454E+03  0.00000000000E+00 0. -1.
</event>
<event>
 4    1  0.3555026E+003  0.2302931E+02  0.7546771E-02  0.1492130E+00
          2   -1    0    0  502    0  0.00000000000E+00  0.00000000000E+00  0.11931333231E+04  0.11931333231E+04  0.00000000000E+00 0.  1.
          1   -1    0    0  501    0 -0.00000000000E+00 -0.00000000000E+00 -0.84208775802E+02  0.84208775802E+02  0.00000000000E+00 0.  1.
          2    1    1    2  501    0 -0.15066084709E+02  0.17417289805E+02  0.11914454615E+04  0.11916680061E+04  0.00000000000E+00 0.  1.
          1    1    1    2  502    0  0.15066084709E+02 -0.17417289805E+02 -0.82520914245E+02  0.85674092819E+02  0.00000000000E+00 0.  1.
</event>
<event>
 4    1  0.3555026E+003  0.2344401E+02  0.7546771E-02  0.1486997E+00
          2   -1    0    0  502    0  0.00000000000E+00  0.00000000000E+00  0.19408164387E+01  0.19408164387E+01  0.00000000000E+00 0. -1.
          1   -1    0    0  501    0 -0.00000000000E+00 -0.00000000000E+00 -0.56688339679E+03  0.56688339679E+03  0.00000000000E+00 0. -1.
          2    1    1    2  501    0 -0.11680100870E+02 -0.20327246946E+02 -0.81272637598E+02  0.84586425311E+02  0.00000000000E+00 0. -1.
          1    1    1    2  502    0  0.11680100870E+02  0.20327246946E+02 -0.48366994275E+03  0.48423778792E+03  0.00000000000E+00 0. -1.
</event>
<event>
 4    1  0.3555026E+003  0.2308715E+02  0.7546771E-02  0.1491407E+00
          2   -1    0    0  502    0  0.00000000000E+00  0.00000000000E+00  0.89980226689E+03  0.89980226689E+03  0.00000000000E+00 0. -1.
          1   -1    0    0  501    0 -0.00000000000E+00 -0.00000000000E+00 -0.14083251559E+03  0.14083251559E+03  0.00000000000E+00 0.  1.
          2    1    1    2  501    0  0.49730617388E+01 -0.22545178891E+02  0.89870683260E+03  0.89900333003E+03  0.00000000000E+00 0. -1.
          1    1    1    2  502    0 -0.49730617388E+01  0.22545178891E+02 -0.13973708130E+03  0.14163145245E+03  0.00000000000E+00 0.  1.
</event>
<event>
 4    1  0.3555026E+003  0.3114141E+02  0.7546771E-02  0.1409930E+00
          2   -1    0    0  502    0  0.00000000000E+00  0.00000000000E+00  0.44548841077E+01  0.44548841077E+01  0.00000000000E+00 0. -1.
          1   -1    0    0  501    0 -0.00000000000E+00 -0.00000000000E+00 -0.88588370394E+03  0.88588370394E+03  0.00000000000E+00 0. -1.
          2    1    1    2  501    0  0.21680582696E+02  0.22354855730E+02 -0.54091329021E+02  0.62415215421E+02  0.00000000000E+00 0. -1.
          1    1    1    2  502    0 -0.21680582696E+02 -0.22354855730E+02 -0.82733749081E+03  0.82792337262E+03  0.00000000000E+00 0. -1.
</event>
<event>
 4    1  0.3555026E+003  0.2579872E+02  0.7546771E-02  0.1460063E+00
          2   -1    0    0  502    0  0.00000000000E+00  0.00000000000E+00  0.19874989450E+04  0.19874989450E+04  0.00000000000E+00 0.  1.
          1   -1    0    0  501    0 -0.00000000000E+00 -0.00000000000E+00 -0.96081616009E+00  0.96081616009E+00  0.00000000000E+00 0.  1.
          2    1    1    2  501    0  0.17400066019E+02  0.19047621186E+02  0.17957442115E+04  0.17959295219E+04  0.00000000000E+00 0.  1.
          1    1    1    2  502    0 -0.17400066019E+02 -0.19047621186E+02  0.19079391727E+03  0.19253023928E+03  0.00000000000E+00 0.  1.
</event>
<event>
 4    1  0.3555026E+003  0.2916584E+02  0.7546771E-02  0.1426986E+00
          2   -1    0    0  502    0  0.00000000000E+00  0.00000000000E+00  0.53334960374E+03  0.53334960374E+03  0.00000000000E+00 0. -1.
          1   -1    0    0  501    0 -0.00000000000E+00 -0.00000000000E+00 -0.16876415984E+02  0.16876415984E+02  0.00000000000E+00 0. -1.
          2    1    1    2  501    0 -0.44925263517E+01  0.28817761790E+02  0.52002719691E+03  0.52084444100E+03  0.00000000000E+00 0. -1.
          1    1    1    2  502    0  0.44925263517E+01 -0.28817761790E+02 -0.35540091549E+01  0.29381578730E+02  0.00000000000E+00 0. -1.
</event>
<event>
 4    1  0.3555026E+003  0.2239798E+02  0.7546771E-02  0.1500199E+00
          2   -1    0    0  502    0  0.00000000000E+00  0.00000000000E+00  0.27444153381E+01  0.27444153381E+01  0.00000000000E+00 0.  1.
          1   -1    0    0  501    0 -0.00000000000E+00 -0.00000000000E+00 -0.63291445046E+03  0.63291445046E+03  0.00000000000E+00 0.  1.
          2    1    1    2  501    0 -0.93028583573E+01  0.20374649695E+02 -0.47054174326E+02  0.52113000732E+02  0.00000000000E+00 0.  1.
          1    1    1    2  502    0  0.93028583573E+01 -0.20374649695E+02 -0.58311586080E+03  0.58354586507E+03  0.00000000000E+00 0.  1.
</event>
<event>
 4    1  0.3555026E+003  0.2546198E+02  0.7546771E-02  0.1463701E+00
          2   -1    0    0  502    0  0.00000000000E+00  0.00000000000E+00  0.16542164063E+03  0.16542164063E+03  0.00000000000E+00 0. -1.
          1   -1    0    0  501    0 -0.00000000000E+00 -0.00000000000E+00 -0.12810532021E+03  0.12810532021E+03  0.00000000000E+00 0.  1.
          2    1    1    2  501    0 -0.87921526578E+01 -0.23895825315E+02  0.16315922060E+03  0.16513401734E+03  0.00000000000E+00 0. -1.
          1    1    1    2  502    0  0.87921526578E+01  0.23895825315E+02 -0.12584290017E+03  0.12839294350E+03  0.00000000000E+00 0.  1.
</event>
<event>
 4    1  0.3555026E+003  0.6066022E+02  0.7546771E-02  0.1257606E+00
          2   -1    0    0  502    0  0.00000000000E+00  0.00000000000E+00  0.91825777901E+03  0.91825777901E+03  0.00000000000E+00 0.  1.
          1   -1    0    0  501    0 -0.00000000000E+00 -0.00000000000E+00 -0.56680120499E+01  0.56680120499E+01  0.00000000000E+00 0.  1.
          2    1    1    2  501    0  0.51785733051E+02 -0.31589553675E+02  0.70635773699E+03  0.70895762543E+03  0.00000000000E+00 0.  1.
          1    1    1    2  502    0 -0.51785733051E+02  0.31589553675E+02  0.20623202998E+03  0.21496816564E+03  0.00000000000E+00 0.  1.
</event>
<event>
 4    1  0.3555026E+003  0.3026770E+02  0.7546771E-02  0.1417284E+00
          2   -1    0    0  502    0  0.00000000000E+00  0.00000000000E+00  0.69851458796E+02  0.69851458796E+02  0.00000000000E+00 0. -1.
          1   -1    0    0  501    0 -0.00000000000E+00 -0.00000000000E+00 -0.21027899965E+02  0.21027899965E+02  0.00000000000E+00 0.  1.
          2    1    1    2  501    0 -0.33318516559E-01 -0.30267681411E+02  0.52285353833E+02  0.60414335001E+02  0.00000000000E+00 0. -1.
          1    1    1    2  502    0  0.33318516559E-01  0.30267681411E+02 -0.34617950016E+01  0.30465023761E+02  0.00000000000E+00 0.  1.
</event>
<event>
 4    1  0.3555026E+003  0.2327165E+02  0.7546771E-02  0.1489115E+00
          2   -1    0    0  502    0  0.00000000000E+00  0.00000000000E+00  0.60945091550E+01  0.60945091550E+01  0.00000000000E+00 0.  1.
          1   -1    0    0  501    0 -0.00000000000E+00 -0.00000000000E+00 -0.52405978848E+03  0.52405978848E+03  0.00000000000E+00 0.  1.
          2    1    1    2  501    0  0.21708714834E+02  0.83845968842E+01 -0.17422510307E+02  0.29070838138E+02  0.00000000000E+00 0.  1.
          1    1    1    2  502    0 -0.21708714834E+02 -0.83845968842E+01 -0.50054276902E+03  0.50108345950E+03  0.00000000000E+00 0.  1.
</event>
<event>
 4    1  0.3555026E+003  0.2281808E+02  0.7546771E-02  0.1494795E+00
          2   -1    0    0  502    0  0.00000000000E+00  0.00000000000E+00  0.10193877360E+03  0.10193877360E+03  0.00000000000E+00 0.  1.
          1   -1    0    0  501    0 -0.00000000000E+00 -0.00000000000E+00 -0.12625304763E+02  0.12625304763E+02  0.00000000000E+00 0.  1.
          2    1    1    2  501    0 -0.21051795160E+02 -0.88026400167E+01  0.88858496347E+02  0.91741467853E+02  0.00000000000E+00 0.  1.
          1    1    1    2  502    0  0.21051795160E+02  0.88026400167E+01  0.45497249374E+00  0.22822610515E+02  0.00000000000E+00 0.  1.
</event>
<event>
 4    1  0.3555026E+003  0.2041537E+02  0.7546771E-02  0.1527778E+00
          2   -1    0    0  502    0  0.00000000000E+00  0.00000000000E+00  0.52205584142E+02  0.52205584142E+02  0.00000000000E+00 0. -1.
          1   -1    0    0  501    0 -0.00000000000E+00 -0.00000000000E+00 -0.39670405430E+02  0.39670405430E+02  0.00000000000E+00 0. -1.
          2    1    1    2  501    0  0.19076655379E+02 -0.72710868881E+01  0.47323725671E+02  0.51539523633E+02  0.00000000000E+00 0. -1.
          1    1    1    2  502    0 -0.19076655379E+02  0.72710868881E+01 -0.34788546958E+02  0.40336465939E+02  0.00000000000E+00 0. -1.
</event>
<event>
 4    1  0.3555026E+003  0.3528335E+02  0.7546771E-02  0.1378582E+00
          2   -1    0    0  502    0  0.00000000000E+00  0.00000000000E+00  0.14725673884E+03  0.14725673884E+03  0.00000000000E+00 0. -1.
          1   -1    0    0  501    0 -0.00000000000E+00 -0.00000000000E+00 -0.10851849565E+02  0.10851849565E+02  0.00000000000E+00 0.  1.
          2    1    1    2  501    0 -0.69017205343E+01  0.34601746303E+02  0.10536287920E+03  0.11111368460E+03  0.00000000000E+00 0. -1.
          1    1    1    2  502    0  0.69017205343E+01 -0.34601746303E+02  0.31042010075E+02  0.46994903799E+02  0.00000000000E+00 0.  1.
</event>
<event>
 4    1  0.3555026E+003  0.4715500E+02  0.7546771E-02  0.1311002E+00
          2   -1    0    0  502    0  0.00000000000E+00  0.00000000000E+00  0.30393568483E+02  0.30393568483E+02  0.00000000000E+00 0. -1.
          1   -1    0    0  501    0 -0.00000000000E+00 -0.00000000000E+00 -0.27528322507E+03  0.27528322507E+03  0.00000000000E+00 0.  1.
          2    1    1    2  501    0 -0.38130181193E+01 -0.47000583287E+02  0.85187982614E+01  0.47918304021E+02  0.00000000000E+00 0. -1.
          1    1    1    2  502    0  0.38130181193E+01  0.47000583287E+02 -0.25340845485E+03  0.25775848953E+03  0.00000000000E+00 0.  1.
</event>
<event>
 4    1  0.3555026E+003  0.2308925E+02  0.7546771E-02  0.1491380E+00
          2   -1    0    0  502    0  0.00000000000E+00  0.00000000000E+00  0.14688027559E+04  0.14688027559E+04  0.00000000000E+00 0. -1.
          1   -1    0    0  501    0 -0.00000000000E+00 -0.00000000000E+00 -0.24126826362E+02  0.24126826362E+02  0.00000000000E+00 0. -1.
          2    1    1    2  501    0  0.59546218818E+01 -0.22308205707E+02  0.14631666644E+04  0.14633488311E+04  0.00000000000E+00 0. -1.
          1    1    1    2  502    0 -0.59546218818E+01  0.22308205707E+02 -0.18490734884E+02  0.29580751176E+02  0.00000000000E+00 0. -1.
</event>
<event>
 4    1  0.3555026E+003  0.2322853E+02  0.7546771E-02  0.1489648E+00
          2   -1    0    0  502    0  0.00000000000E+00  0.00000000000E+00  0.15156161196E+04  0.15156161196E+04  0.00000000000E+00 0.  1.
          1   -1    0    0  501    0 -0.00000000000E+00 -0.00000000000E+00 -0.26167215229E+01  0.26167215229E+01  0.00000000000E+00 0.  1.
          2    1    1    2  501    0  0.15800758768E+02 -0.17026467688E+02  0.14620903778E+04  0.14622748844E+04  0.00000000000E+00 0.  1.
          1    1    1    2  502    0 -0.15800758768E+02  0.17026467688E+02  0.50909020304E+02  0.55957956788E+02  0.00000000000E+00 0.  1.
</event>
<event>
 4    1  0.3555026E+003  0.4513665E+02  0.7546771E-02  0.1320758E+00
          2   -1    0    0  502    0  0.00000000000E+00  0.00000000000E+00  0.31491775552E+03  0.31491775552E+03  0.00000000000E+00 0. -1.
          1   -1    0    0  501    0 -0.00000000000E+00 -0.00000000000E+00 -0.81109416485E+01  0.81109416485E+01  0.00000000000E+00 0.  1.
          2    1    1    2  501    0 -0.38046137522E+02  0.24285966540E+02  0.22606527172E+03  0.23052727350E+03  0.00000000000E+00 0. -1.
          1    1    1    2  502    0  0.38046137522E+02 -0.24285966540E+02  0.80741542155E+02  0.92501423669E+02  0.00000000000E+00 0.  1.
</event>
<event>
 4    1  0.3555026E+003  0.2222701E+02  0.7546771E-02  0.1502440E+00
          2   -1    0    0  502    0  0.00000000000E+00  0.00000000000E+00  0.38981545851E+03  0.38981545851E+03  0.00000000000E+00 0. -1.
          1   -1    0    0  501    0 -0.00000000000E+00 -0.00000000000E+00 -0.43074108648E+01  0.43074108648E+01  0.00000000000E+00 0.  1.
          2    1    1    2  501    0 -0.75516442955E+01  0.20904851976E+02  0.35830557231E+03  0.35899432212E+03  0.00000000000E+00 0. -1.
          1    1    1    2  502    0  0.75516442955E+01 -0.20904851976E+02  0.27202475337E+02  0.35128547254E+02  0.00000000000E+00 0.  1.
</event>
<event>
 4    1  0.3555026E+003  0.2133450E+02  0.7546771E-02  0.1514542E+00
          2   -1    0    0  502    0  0.00000000000E+00  0.00000000000E+00  0.17065044171E+02  0.17065044171E+02  0.00000000000E+00 0. -1.
          1   -1    0    0  501    0 -0.00000000000E+00 -0.00000000000E+00 -0.62859535637E+02  0.62859535637E+02  0.00000000000E+00 0. -1.
          2    1    1    2  501    0 -0.14737109948E+02  0.15426545905E+02  0.74237618227E+01  0.22589222381E+02  0.00000000000E+00 0. -1.
          1    1    1    2  502    0  0.14737109948E+02 -0.15426545905E+02 -0.53218253288E+02  0.57335357426E+02  0.00000000000E+00 0. -1.
</event>
<event>
 4    1  0.3555026E+003  0.2081110E+02  0.7546771E-02  0.1521979E+00
          2   -1    0    0  502    0  0.00000000000E+00  0.00000000000E+00  0.11206118548E+02  0.11206118548E+02  0.00000000000E+00 0. -1.
          1   -1    0    0  501    0 -0.00000000000E+00 -0.00000000000E+00 -0.22423587884E+03  0.22423587884E+03  0.00000000000E+00 0. -1.
          2    1    1    2  501    0  0.20810817061E+02 -0.10786561836E+00  0.58164729588E+00  0.20819223216E+02  0.00000000000E+00 0. -1.
          1    1    1    2  502    0 -0.20810817061E+02  0.10786561836E+00 -0.21361140759E+03  0.21462277417E+03  0.00000000000E+00 0. -1.
</event>
<event>
 4    1  0.3555026E+003  0.3127112E+02  0.7546771E-02  0.1408863E+00
          2   -1    0    0  502    0  0.00000000000E+00  0.00000000000E+00  0.62268301808E+02  0.62268301808E+02  0.00000000000E+00 0. -1.
          1   -1    0    0  501    0 -0.00000000000E+00 -0.00000000000E+00 -0.10239653399E+03  0.10239653399E+03  0.00000000000E+00 0.  1.
          2    1    1    2  501    0  0.64969865003E+01 -0.30588755504E+02  0.55692092286E+02  0.63870900574E+02  0.00000000000E+00 0. -1.
          1    1    1    2  502    0 -0.64969865003E+01  0.30588755504E+02 -0.95820324468E+02  0.10079393522E+03  0.00000000000E+00 0.  1.
</event>
<event>
 4    1  0.3555026E+003  0.2221318E+02  0.7546771E-02  0.1502622E+00
          2   -1    0    0  502    0  0.00000000000E+00  0.00000000000E+00  0.11320915788E+02  0.11320915788E+02  0.00000000000E+00 0.  1.
          1   -1    0    0  501    0 -0.00000000000E+00 -0.00000000000E+00 -0.71322901936E+02  0.71322901936E+02  0.00000000000E+00 0.  1.
          2    1    1    2  501    0  0.11335106277E+02  0.19103419792E+02 -0.42318197373E+01  0.22612686270E+02  0.00000000000E+00 0.  1.
          1    1    1    2  502    0 -0.11335106277E+02 -0.19103419792E+02 -0.55770166412E+02  0.60031131454E+02  0.00000000000E+00 0.  1.
</event>
<event>
 4    1  0.3555026E+003  0.2946709E+02  0.7546771E-02  0.1424285E+00
          2   -1    0    0  502    0  0.00000000000E+00  0.00000000000E+00  0.86319287466E+02  0.86319287466E+02  0.00000000000E+00 0. -1.
          1   -1    0    0  501    0 -0.00000000000E+00 -0.00000000000E+00 -0.93488937897E+03  0.93488937897E+03  0.00000000000E+00 0.  1.
          2    1    1    2  501    0  0.19743025744E+02  0.21875153673E+02  0.83564843666E+02  0.88608083777E+02  0.00000000000E+00 0. -1.
          1    1    1    2  502    0 -0.19743025744E+02 -0.21875153673E+02 -0.93213493517E+03  0.93260058266E+03  0.00000000000E+00 0.  1.
</event>
<event>
 4    1  0.3555026E+003  0.2930426E+02  0.7546771E-02  0.1425740E+00
          2   -1    0    0  502    0  0.00000000000E+00  0.00000000000E+00  0.19464726297E+04  0.19464726297E+04  0.00000000000E+00 0. -1.
          1   -1    0    0  501    0 -0.00000000000E+00 -0.00000000000E+00 -0.65853636374E+01  0.65853636374E+01  0.00000000000E+00 0. -1.
          2    1    1    2  501    0  0.18577145334E+02  0.22663389620E+02  0.19131950184E+04  0.19134194308E+04  0.00000000000E+00 0. -1.
          1    1    1    2  502    0 -0.18577145334E+02 -0.22663389620E+02  0.26692247642E+02  0.39638562562E+02  0.00000000000E+00 0. -1.
</event>
<event>
 4    1  0.3555026E+003  0.2230134E+02  0.7546771E-02  0.1501463E+00
          2   -1    0    0  502    0  0.00000000000E+00  0.00000000000E+00  0.58505762318E+03  0.58505762318E+03  0.00000000000E+00 0.  1.
          1   -1    0    0  501    0 -0.00000000000E+00 -0.00000000000E+00 -0.90738091310E+00  0.90738091310E+00  0.00000000000E+00 0. -1.
          2    1    1    2  501    0  0.18107195851E+02  0.13018425290E+02  0.36569595375E+03  0.36637532740E+03  0.00000000000E+00 0.  1.
          1    1    1    2  502    0 -0.18107195851E+02 -0.13018425290E+02  0.21845428851E+03  0.21958967669E+03  0.00000000000E+00 0. -1.
</event>
<event>
 4    1  0.3555026E+003  0.3316149E+02  0.7546771E-02  0.1393970E+00
          2   -1    0    0  502    0  0.00000000000E+00  0.00000000000E+00  0.20317913157E+02  0.20317913157E+02  0.00000000000E+00 0.  1.
          1   -1    0    0  501    0 -0.00000000000E+00 -0.00000000000E+00 -0.10238687199E+04  0.10238687199E+04  0.00000000000E+00 0. -1.
          2    1    1    2  501    0 -0.16461183683E+01 -0.33120609234E+02  0.63310758995E+01  0.33760435183E+02  0.00000000000E+00 0.  1.
          1    1    1    2  502    0  0.16461183683E+01  0.33120609234E+02 -0.10098818826E+04  0.10104261979E+04  0.00000000000E+00 0. -1.
</event>
<event>
 4    1  0.3555026E+003  0.3531587E+02  0.7546771E-02  0.1378356E+00
          2   -1    0    0  502    0  0.00000000000E+00  0.00000000000E+00  0.21268292035E+03  0.21268292035E+03  0.00000000000E+00 0.  1.
          1   -1    0    0  501    0 -0.00000000000E+00 -0.00000000000E+00 -0.57036131991E+03  0.57036131991E+03  0.00000000000E+00 0. -1.
          2    1    1    2  501    0  0.34661867821E+02 -0.67650504372E+01  0.21066499923E+03  0.21360466495E+03  0.00000000000E+00 0.  1.
          1    1    1    2  502    0 -0.34661867821E+02  0.67650504372E+01 -0.56834339878E+03  0.56943957531E+03  0.00000000000E+00 0. -1.
</event>
<event>
 4    1  0.3555026E+003  0.4777528E+02  0.7546771E-02  0.1308117E+00
          2   -1    0    0  502    0  0.00000000000E+00  0.00000000000E+00  0.92238136455E+02  0.92238136455E+02  0.00000000000E+00 0. -1.
          1   -1    0    0  501    0 -0.00000000000E+00 -0.00000000000E+00 -0.51849036867E+03  0.51849036867E+03  0.00000000000E+00 0.  1.
          2    1    1    2  501    0 -0.43704975198E+02  0.19296437838E+02  0.84862142839E+02  0.97386142020E+02  0.00000000000E+00 0. -1.
          1    1    1    2  502    0  0.43704975198E+02 -0.19296437838E+02 -0.51111437506E+03  0.51334236311E+03  0.00000000000E+00 0.  1.
</event>
<event>
 4    1  0.3555026E+003  0.2143435E+02  0.7546771E-02  0.1513153E+00
          2   -1    0    0  502    0  0.00000000000E+00  0.00000000000E+00  0.13287370849E+03  0.13287370849E+03  0.00000000000E+00 0. -1.
          1   -1    0    0  501    0 -0.00000000000E+00 -0.00000000000E+00 -0.84622970725E+01  0.84622970725E+01  0.00000000000E+00 0.  1.
          2    1    1    2  501    0 -0.18023207298E+02  0.11601518115E+02  0.11655141564E+03  0.11850596488E+03  0.00000000000E+00 0. -1.
          1    1    1    2  502    0  0.18023207298E+02 -0.11601518115E+02  0.78599957713E+01  0.22830040679E+02  0.00000000000E+00 0.  1.
</event>
<event>
 4    1  0.3555026E+003  0.4046903E+02  0.7546771E-02  0.1345759E+00
          2   -1    0    0  502    0  0.00000000000E+00  0.00000000000E+00  0.31630431148E+03  0.31630431148E+03  0.00000000000E+00 0.  1.
          1   -1    0    0  501    0 -0.00000000000E+00 -0.00000000000E+00 -0.76446346370E+01  0.76446346370E+01  0.00000000000E+00 0.  1.
          2    1    1    2  501    0 -0.41853766387E+00 -0.40466862370E+02  0.24634159709E+03  0.24964359511E+03  0.00000000000E+00 0.  1.
          1    1    1    2  502    0  0.41853766387E+00  0.40466862370E+02  0.62318079755E+02  0.74305351007E+02  0.00000000000E+00 0.  1.
</event>
<event>
 4    1  0.3555026E+003  0.2321915E+02  0.7546771E-02  0.1489764E+00
          2   -1    0    0  502    0  0.00000000000E+00  0.00000000000E+00  0.10115354016E+04  0.10115354016E+04  0.00000000000E+00 0. -1.
          1   -1    0    0  501    0 -0.00000000000E+00 -0.00000000000E+00 -0.47110905371E+01  0.47110905371E+01  0.00000000000E+00 0. -1.
          2    1    1    2  501    0  0.22605018760E+02 -0.53049084655E+01  0.98193013567E+03  0.98220462240E+03  0.00000000000E+00 0. -1.
          1    1    1    2  502    0 -0.22605018760E+02  0.53049084655E+01  0.24894175407E+02  0.34041869751E+02  0.00000000000E+00 0. -1.
</event>
<event>
 4    1  0.3555026E+003  0.2328816E+02  0.7546771E-02  0.1488911E+00
          2   -1    0    0  502    0  0.00000000000E+00  0.00000000000E+00  0.39388163772E+02  0.39388163772E+02  0.00000000000E+00 0.  1.
          1   -1    0    0  501    0 -0.00000000000E+00 -0.00000000000E+00 -0.21172490739E+03  0.21172490739E+03  0.00000000000E+00 0.  1.
          2    1    1    2  501    0 -0.23182805483E+02  0.22126657804E+01  0.35236888719E+02  0.42237148181E+02  0.00000000000E+00 0.  1.
          1    1    1    2  502    0  0.23182805483E+02 -0.22126657804E+01 -0.20757363234E+03  0.20887592298E+03  0.00000000000E+00 0.  1.
</event>
<event>
 4    1  0.3555026E+003  0.2282397E+02  0.7546771E-02  0.1494721E+00
          2   -1    0    0  502    0  0.00000000000E+00  0.00000000000E+00  0.42397493406E+01  0.42397493406E+01  0.00000000000E+00 0. -1.
          1   -1    0    0  501    0 -0.00000000000E+00 -0.00000000000E+00 -0.15514230421E+04  0.15514230421E+04  0.00000000000E+00 0.  1.
          2    1    1    2  501    0  0.71577858939E+01 -0.21672551442E+02 -0.27196682166E+02  0.35504829330E+02  0.00000000000E+00 0. -1.
          1    1    1    2  502    0 -0.71577858939E+01  0.21672551442E+02 -0.15199866105E+04  0.15201579621E+04  0.00000000000E+00 0.  1.
</event>
<event>
 4    1  0.3555026E+003  0.3786925E+02  0.7546771E-02  0.1361445E+00
          2   -1    0    0  502    0  0.00000000000E+00  0.00000000000E+00  0.67621615801E+03  0.67621615801E+03  0.00000000000E+00 0. -1.
          1   -1    0    0  501    0 -0.00000000000E+00 -0.00000000000E+00 -0.22137203367E+03  0.22137203367E+03  0.00000000000E+00 0.  1.
          2    1    1    2  501    0 -0.29347467549E+02  0.23933367778E+02  0.67406126311E+03  0.67512418589E+03  0.00000000000E+00 0. -1.
          1    1    1    2  502    0  0.29347467549E+02 -0.23933367778E+02 -0.21921713877E+03  0.22246400579E+03  0.00000000000E+00 0.  1.
</event>
<event>
 4    1  0.3555026E+003  0.2724580E+02  0.7546771E-02  0.1445155E+00
          2   -1    0    0  502    0  0.00000000000E+00  0.00000000000E+00  0.22144533606E+01  0.22144533606E+01  0.00000000000E+00 0. -1.
          1   -1    0    0  501    0 -0.00000000000E+00 -0.00000000000E+00 -0.48514237189E+03  0.48514237189E+03  0.00000000000E+00 0.  1.
          2    1    1    2  501    0  0.17614570584E+02 -0.20786060888E+02 -0.10600341438E+03  0.10944887977E+03  0.00000000000E+00 0. -1.
          1    1    1    2  502    0 -0.17614570584E+02  0.20786060888E+02 -0.37692450415E+03  0.37790794548E+03  0.00000000000E+00 0.  1.
</event>
<event>
 4    1  0.3555026E+003  0.2474916E+02  0.7546771E-02  0.1471629E+00
          2   -1    0    0  502    0  0.00000000000E+00  0.00000000000E+00  0.54074372200E+01  0.54074372200E+01  0.00000000000E+00 0. -1.
          1   -1    0    0  501    0 -0.00000000000E+00 -0.00000000000E+00 -0.24345927628E+03  0.24345927628E+03  0.00000000000E+00 0. -1.
          2    1    1    2  501    0  0.20572339685E+02 -0.13758629577E+02 -0.28033566626E+02  0.37395212337E+02  0.00000000000E+00 0. -1.
          1    1    1    2  502    0 -0.20572339685E+02  0.13758629577E+02 -0.21001827243E+03  0.21147150116E+03  0.00000000000E+00 0. -1.
</event>
<event>
 4    1  0.3555026E+003  0.3024538E+02  0.7546771E-02  0.1417476E+00
          2   -1    0    0  502    0  0.00000000000E+00  0.00000000000E+00  0.70098224194E+03  0.70098224194E+03  0.00000000000E+00 0. -1.
          1   -1    0    0  501    0 -0.00000000000E+00 -0.00000000000E+00 -0.71046650007E+02  0.71046650007E+02  0.00000000000E+00 0. -1.
          2    1    1    2  501    0  0.14924319752E+01  0.30208539735E+02  0.69742060769E+03  0.69807613286E+03  0.00000000000E+00 0. -1.
          1    1    1    2  502    0 -0.14924319752E+01 -0.30208539735E+02 -0.67485015757E+02  0.73952759096E+02  0.00000000000E+00 0. -1.
</event>
<event>
 4    1  0.3788740E+003  0.3390000E+02  0.7546771E-02  0.1388466E+00
          2   -1    0    0  502    0  0.00000000000E+00  0.00000000000E+00  0.86213527264E+03  0.86213527264E+03  0.00000000000E+00 0. -1.
          1   -1    0    0  501    0 -0.00000000000E+00 -0.00000000000E+00 -0.64054441076E+03  0.64054441076E+03  0.00000000000E+00 0. -1.
          2    1    1    2  501    0  0.33632210501E+02 -0.42525948198E+01  0.86135309151E+03  0.86201992924E+03  0.00000000000E+00 0. -1.
          1    1    1    2  502    0 -0.33632210501E+02  0.42525948198E+01 -0.63976222963E+03  0.64065975416E+03  0.00000000000E+00 0. -1.
</event>
<event>
 4    1  0.3555026E+003  0.3272763E+02  0.7546771E-02  0.1397283E+00
          2   -1    0    0  502    0  0.00000000000E+00  0.00000000000E+00  0.25057928930E+03  0.25057928930E+03  0.00000000000E+00 0.  1.
          1   -1    0    0  501    0 -0.00000000000E+00 -0.00000000000E+00 -0.97473024155E+02  0.97473024155E+02  0.00000000000E+00 0.  1.
          2    1    1    2  501    0 -0.18520331115E+02  0.26983242169E+02  0.24672072553E+03  0.24888192869E+03  0.00000000000E+00 0.  1.
          1    1    1    2  502    0  0.18520331115E+02 -0.26983242169E+02 -0.93614460382E+02  0.99170384769E+02  0.00000000000E+00 0.  1.
</event>
<event>
 4    1  0.3555026E+003  0.4714301E+02  0.7546771E-02  0.1311058E+00
          2   -1    0    0  502    0  0.00000000000E+00  0.00000000000E+00  0.45686077549E+03  0.45686077549E+03  0.00000000000E+00 0.  1.
          1   -1    0    0  501    0 -0.00000000000E+00 -0.00000000000E+00 -0.14034956994E+04  0.14034956994E+04  0.00000000000E+00 0.  1.
          2    1    1    2  501    0 -0.40274457328E+02 -0.24503709220E+02  0.45524733591E+03  0.45768176775E+03  0.00000000000E+00 0.  1.
          1    1    1    2  502    0  0.40274457328E+02  0.24503709220E+02 -0.14018822598E+04  0.14026747071E+04  0.00000000000E+00 0.  1.
</event>
<event>
 4    1  0.3555026E+003  0.2257498E+02  0.7546771E-02  0.1497905E+00
          2   -1    0    0  502    0  0.00000000000E+00  0.00000000000E+00  0.45631232907E+03  0.45631232907E+03  0.00000000000E+00 0.  1.
          1   -1    0    0  501    0 -0.00000000000E+00 -0.00000000000E+00 -0.11642790659E+01  0.11642790659E+01  0.00000000000E+00 0.  1.
          2    1    1    2  501    0  0.22164448490E+02  0.42856913224E+01  0.27374379354E+03  0.27467306826E+03  0.00000000000E+00 0.  1.
          1    1    1    2  502    0 -0.22164448490E+02 -0.42856913224E+01  0.18140425646E+03  0.18280353987E+03  0.00000000000E+00 0.  1.
</event>
<event>
 4    1  0.3555026E+003  0.2186464E+02  0.7546771E-02  0.1507269E+00
          2   -1    0    0  502    0  0.00000000000E+00  0.00000000000E+00  0.11741710232E+03  0.11741710232E+03  0.00000000000E+00 0. -1.
          1   -1    0    0  501    0 -0.00000000000E+00 -0.00000000000E+00 -0.89833384709E+01  0.89833384709E+01  0.00000000000E+00 0.  1.
          2    1    1    2  501    0  0.69728615788E+01  0.20722970253E+02  0.10094973443E+03  0.10329042152E+03  0.00000000000E+00 0. -1.
          1    1    1    2  502    0 -0.69728615788E+01 -0.20722970253E+02  0.74840294194E+01  0.23110019279E+02  0.00000000000E+00 0.  1.
</event>
<event>
 4    1  0.3555026E+003  0.2015153E+02  0.7546771E-02  0.1531732E+00
          2   -1    0    0  502    0  0.00000000000E+00  0.00000000000E+00  0.50086540044E+02  0.50086540044E+02  0.00000000000E+00 0.  1.
          1   -1    0    0  501    0 -0.00000000000E+00 -0.00000000000E+00 -0.13829550566E+03  0.13829550566E+03  0.00000000000E+00 0. -1.
          2    1    1    2  501    0 -0.19523945797E+02 -0.49899622909E+01  0.47283841688E+02  0.51398889754E+02  0.00000000000E+00 0.  1.
          1    1    1    2  502    0  0.19523945797E+02  0.49899622909E+01 -0.13549280731E+03  0.13698315596E+03  0.00000000000E+00 0. -1.
</event>
<event>
 4    1  0.3555026E+003  0.2628635E+02  0.7546771E-02  0.1454912E+00
          2   -1    0    0  502    0  0.00000000000E+00  0.00000000000E+00  0.76430114980E+03  0.76430114980E+03  0.00000000000E+00 0. -1.
          1   -1    0    0  501    0 -0.00000000000E+00 -0.00000000000E+00 -0.84872870256E+01  0.84872870256E+01  0.00000000000E+00 0. -1.
          2    1    1    2  501    0  0.18362738100E+02  0.18809101396E+02  0.74314266883E+03  0.74360742242E+03  0.00000000000E+00 0. -1.
          1    1    1    2  502    0 -0.18362738100E+02 -0.18809101396E+02  0.12671193952E+02  0.29181014411E+02  0.00000000000E+00 0. -1.
</event>
<event>
 4    1  0.3555026E+003  0.2396376E+02  0.7546771E-02  0.1480738E+00
          2   -1    0    0  502    0  0.00000000000E+00  0.00000000000E+00  0.29075135843E+02  0.29075135843E+02  0.00000000000E+00 0. -1.
          1   -1    0    0  501    0 -0.00000000000E+00 -0.00000000000E+00 -0.12672671101E+04  0.12672671101E+04  0.00000000000E+00 0.  1.
          2    1    1    2  501    0 -0.49498388765E+01  0.23446980796E+02  0.24004273130E+02  0.33918533899E+02  0.00000000000E+00 0. -1.
          1    1    1    2  502    0  0.49498388765E+01 -0.23446980796E+02 -0.12621962474E+04  0.12624237121E+04  0.00000000000E+00 0.  1.
</event>
<event>
 4    1  0.3555026E+003  0.3726524E+02  0.7546771E-02  0.1365302E+00
          2   -1    0    0  502    0  0.00000000000E+00  0.00000000000E+00  0.13815093372E+04  0.13815093372E+04  0.00000000000E+00 0. -1.
          1   -1    0    0  501    0 -0.00000000000E+00 -0.00000000000E+00 -0.24843134401E+01  0.24843134401E+01  0.00000000000E+00 0. -1.
          2    1    1    2  501    0 -0.34418889709E+02 -0.14284193076E+02  0.12234631658E+04  0.12240305618E+04  0.00000000000E+00 0. -1.
          1    1    1    2  502    0  0.34418889709E+02  0.14284193076E+02  0.15556185795E+03  0.15996308884E+03  0.00000000000E+00 0. -1.
</event>
<event>
 4    1  0.3555026E+003  0.3452778E+02  0.7546771E-02  0.1383914E+00
          2   -1    0    0  502    0  0.00000000000E+00  0.00000000000E+00  0.37512317482E+02  0.37512317482E+02  0.00000000000E+00 0. -1.
          1   -1    0    0  501    0 -0.00000000000E+00 -0.00000000000E+00 -0.46566905972E+03  0.46566905972E+03  0.00000000000E+00 0.  1.
          2    1    1    2  501    0 -0.34277813375E+02 -0.41472091159E+01  0.28775410245E+02  0.44946546786E+02  0.00000000000E+00 0. -1.
          1    1    1    2  502    0  0.34277813375E+02  0.41472091159E+01 -0.45693215248E+03  0.45823483041E+03  0.00000000000E+00 0.  1.
</event>
<event>
 4    1  0.3555026E+003  0.3467983E+02  0.7546771E-02  0.1382828E+00
          2   -1    0    0  502    0  0.00000000000E+00  0.00000000000E+00  0.38784620580E+02  0.38784620580E+02  0.00000000000E+00 0.  1.
          1   -1    0    0  501    0 -0.00000000000E+00 -0.00000000000E+00 -0.22143207236E+04  0.22143207236E+04  0.00000000000E+00 0. -1.
          2    1    1    2  501    0  0.26000602662E+02 -0.22949055931E+02  0.30868656114E+02  0.46428056574E+02  0.00000000000E+00 0.  1.
          1    1    1    2  502    0 -0.26000602662E+02  0.22949055931E+02 -0.22064047591E+04  0.22066772876E+04  0.00000000000E+00 0. -1.
</event>
<event>
 4    1  0.3555026E+003  0.3602125E+02  0.7546771E-02  0.1373522E+00
          2   -1    0    0  502    0  0.00000000000E+00  0.00000000000E+00  0.89375554023E+02  0.89375554023E+02  0.00000000000E+00 0.  1.
          1   -1    0    0  501    0 -0.00000000000E+00 -0.00000000000E+00 -0.16541141461E+03  0.16541141461E+03  0.00000000000E+00 0.  1.
          2    1    1    2  501    0 -0.35961625493E+02  0.20716432014E+01  0.83656692661E+02  0.91082229005E+02  0.00000000000E+00 0.  1.
          1    1    1    2  502    0  0.35961625493E+02 -0.20716432014E+01 -0.15969255325E+03  0.16370473963E+03  0.00000000000E+00 0.  1.
</event>
<event>
 4    1  0.3555026E+003  0.2121964E+02  0.7546771E-02  0.1516152E+00
          2   -1    0    0  502    0  0.00000000000E+00  0.00000000000E+00  0.81506111500E+03  0.81506111500E+03  0.00000000000E+00 0. -1.
          1   -1    0    0  501    0 -0.00000000000E+00 -0.00000000000E+00 -0.67298967791E+00  0.67298967791E+00  0.00000000000E+00 0. -1.
          2    1    1    2  501    0 -0.20820012146E+02 -0.40988126622E+01  0.57981587135E+03  0.58020403122E+03  0.00000000000E+00 0. -1.
          1    1    1    2  502    0  0.20820012146E+02  0.40988126622E+01  0.23457225398E+03  0.23553007346E+03  0.00000000000E+00 0. -1.
</event>
<event>
 4    1  0.3555026E+003  0.2042306E+02  0.7546771E-02  0.1527664E+00
          2   -1    0    0  502    0  0.00000000000E+00  0.00000000000E+00  0.64933336647E+03  0.64933336647E+03  0.00000000000E+00 0. -1.
          1   -1    0    0  501    0 -0.00000000000E+00 -0.00000000000E+00 -0.64260300124E+00  0.64260300124E+00  0.00000000000E+00 0. -1.
          2    1    1    2  501    0  0.88575502064E+00 -0.20403846582E+02  0.33074995746E+03  0.33137989661E+03  0.00000000000E+00 0. -1.
          1    1    1    2  502    0 -0.88575502064E+00  0.20403846582E+02  0.31794080601E+03  0.31859607287E+03  0.00000000000E+00 0. -1.
</event>
<event>
 4    1  0.3555026E+003  0.2250918E+02  0.7546771E-02  0.1498755E+00
          2   -1    0    0  502    0  0.00000000000E+00  0.00000000000E+00  0.40440344744E+03  0.40440344744E+03  0.00000000000E+00 0. -1.
          1   -1    0    0  501    0 -0.00000000000E+00 -0.00000000000E+00 -0.12905356351E+01  0.12905356351E+01  0.00000000000E+00 0. -1.
          2    1    1    2  501    0 -0.18713390270E+02 -0.12508894118E+02  0.23621243450E+03  0.23728248486E+03  0.00000000000E+00 0. -1.
          1    1    1    2  502    0  0.18713390270E+02  0.12508894118E+02  0.16690047730E+03  0.16841149821E+03  0.00000000000E+00 0. -1.
</event>
<event>
 4    1  0.3555026E+003  0.2741649E+02  0.7546771E-02  0.1443469E+00
          2   -1    0    0  502    0  0.00000000000E+00  0.00000000000E+00  0.11322347488E+02  0.11322347488E+02  0.00000000000E+00 0.  1.
          1   -1    0    0  501    0 -0.00000000000E+00 -0.00000000000E+00 -0.51112936131E+03  0.51112936131E+03  0.00000000000E+00 0.  1.
          2    1    1    2  501    0  0.26215956765E+02 -0.80241684694E+01 -0.62320324657E+01  0.28115865581E+02  0.00000000000E+00 0.  1.
          1    1    1    2  502    0 -0.26215956765E+02  0.80241684694E+01 -0.49357498136E+03  0.49433584322E+03  0.00000000000E+00 0.  1.
</event>
<event>
 4    1  0.3555026E+003  0.3355287E+02  0.7546771E-02  0.1391033E+00
          2   -1    0    0  502    0  0.00000000000E+00  0.00000000000E+00  0.22671094149E+01  0.22671094149E+01  0.00000000000E+00 0.  1.
          1   -1    0    0  501    0 -0.00000000000E+00 -0.00000000000E+00 -0.60452662525E+03  0.60452662525E+03  0.00000000000E+00 0.  1.
          2    1    1    2  501    0 -0.59826917849E+01 -0.33015183377E+02 -0.17292224845E+03  0.17614737847E+03  0.00000000000E+00 0.  1.
          1    1    1    2  502    0  0.59826917849E+01  0.33015183377E+02 -0.42933726739E+03  0.43064635619E+03  0.00000000000E+00 0.  1.
</event>
<event>
 4    1  0.3555026E+003  0.2697985E+02  0.7546771E-02  0.1447811E+00
          2   -1    0    0  502    0  0.00000000000E+00  0.00000000000E+00  0.90622730838E+02  0.90622730838E+02  0.00000000000E+00 0.  1.
          1   -1    0    0  501    0 -0.00000000000E+00 -0.00000000000E+00 -0.23168636769E+03  0.23168636769E+03  0.00000000000E+00 0. -1.
          2    1    1    2  501    0  0.18991303841E+01  0.26912927185E+02  0.87804555077E+02  0.91856149702E+02  0.00000000000E+00 0.  1.
          1    1    1    2  502    0 -0.18991303841E+01 -0.26912927185E+02 -0.22886819192E+03  0.23045294882E+03  0.00000000000E+00 0. -1.
</event>
<event>
 4    1  0.3555026E+003  0.2548121E+02  0.7546771E-02  0.1463492E+00
          2   -1    0    0  502    0  0.00000000000E+00  0.00000000000E+00  0.34132986211E+01  0.34132986211E+01  0.00000000000E+00 0.  1.
          1   -1    0    0  501    0 -0.00000000000E+00 -0.00000000000E+00 -0.50235259274E+03  0.50235259274E+03  0.00000000000E+00 0.  1.
          2    1    1    2  501    0 -0.22609069379E+02  0.11752523566E+02 -0.50135413525E+02  0.56239234682E+02  0.00000000000E+00 0.  1.
          1    1    1    2  502    0  0.22609069379E+02 -0.11752523566E+02 -0.44880388060E+03  0.44952665668E+03  0.00000000000E+00 0.  1.
</event>
<event>
 4    1  0.3555026E+003  0.2110511E+02  0.7546771E-02  0.1517769E+00
          2   -1    0    0  502    0  0.00000000000E+00  0.00000000000E+00  0.63115448294E+02  0.63115448294E+02  0.00000000000E+00 0. -1.
          1   -1    0    0  501    0 -0.00000000000E+00 -0.00000000000E+00 -0.17581447433E+02  0.17581447433E+02  0.00000000000E+00 0. -1.
          2    1    1    2  501    0  0.19706247350E+02 -0.75557600940E+01  0.53984106545E+02  0.57963000739E+02  0.00000000000E+00 0. -1.
          1    1    1    2  502    0 -0.19706247350E+02  0.75557600940E+01 -0.84501056854E+01  0.22733894988E+02  0.00000000000E+00 0. -1.
</event>
<event>
 4    1  0.3555026E+003  0.2137965E+02  0.7546771E-02  0.1513913E+00
          2   -1    0    0  502    0  0.00000000000E+00  0.00000000000E+00  0.41009871259E+00  0.41009871259E+00  0.00000000000E+00 0. -1.
          1   -1    0    0  501    0 -0.00000000000E+00 -0.00000000000E+00 -0.18210426668E+04  0.18210426668E+04  0.00000000000E+00 0. -1.
          2    1    1    2  501    0 -0.18959919254E+02  0.98798141385E+01 -0.34307035968E+03  0.34373588837E+03  0.00000000000E+00 0. -1.
          1    1    1    2  502    0  0.18959919254E+02 -0.98798141385E+01 -0.14775622084E+04  0.14777168772E+04  0.00000000000E+00 0. -1.
</event>
<event>
 4    1  0.3555026E+003  0.2872729E+02  0.7546771E-02  0.1430988E+00
          2   -1    0    0  502    0  0.00000000000E+00  0.00000000000E+00  0.20160769372E+03  0.20160769372E+03  0.00000000000E+00 0.  1.
          1   -1    0    0  501    0 -0.00000000000E+00 -0.00000000000E+00 -0.27379400888E+02  0.27379400888E+02  0.00000000000E+00 0.  1.
          2    1    1    2  501    0 -0.27864390615E+02  0.69880466541E+01  0.19270265966E+03  0.19483216392E+03  0.00000000000E+00 0.  1.
          1    1    1    2  502    0  0.27864390615E+02 -0.69880466541E+01 -0.18474366826E+02  0.34154930684E+02  0.00000000000E+00 0.  1.
</event>
<event>
 4    1  0.3555026E+003  0.3628942E+02  0.7546771E-02  0.1371718E+00
          2   -1    0    0  502    0  0.00000000000E+00  0.00000000000E+00  0.16701279368E+04  0.16701279368E+04  0.00000000000E+00 0. -1.
          1   -1    0    0  501    0 -0.00000000000E+00 -0.00000000000E+00 -0.30279118094E+01  0.30279118094E+01  0.00000000000E+00 0.  1.
          2    1    1    2  501    0 -0.35713465976E+02 -0.64397534905E+01  0.15529994051E+04  0.15534233403E+04  0.00000000000E+00 0. -1.
          1    1    1    2  502    0  0.35713465976E+02  0.64397534905E+01  0.11410061992E+03  0.11973250830E+03  0.00000000000E+00 0.  1.
</event>
<event>
 4    1  0.3555026E+003  0.2091816E+02  0.7546771E-02  0.1520437E+00
          2   -1    0    0  502    0  0.00000000000E+00  0.00000000000E+00  0.34699267309E+01  0.34699267309E+01  0.00000000000E+00 0.  1.
          1   -1    0    0  501    0 -0.00000000000E+00 -0.00000000000E+00 -0.17411697707E+03  0.17411697707E+03  0.00000000000E+00 0.  1.
          2    1    1    2  501    0 -0.19380556243E+02  0.78716868301E+01 -0.38695974746E+02  0.43988042414E+02  0.00000000000E+00 0.  1.
          1    1    1    2  502    0  0.19380556243E+02 -0.78716868301E+01 -0.13195107559E+03  0.13359886139E+03  0.00000000000E+00 0.  1.
</event>
<event>
 4    1  0.3555026E+003  0.2170687E+02  0.7546771E-02  0.1509407E+00
          2   -1    0    0  502    0  0.00000000000E+00  0.00000000000E+00  0.11933729182E+04  0.11933729182E+04  0.00000000000E+00 0.  1.
          1   -1    0    0  501    0 -0.00000000000E+00 -0.00000000000E+00 -0.27584465839E+01  0.27584465839E+01  0.00000000000E+00 0.  1.
          2    1    1    2  501    0 -0.21233427468E+02 -0.45088595661E+01  0.11489178758E+04  0.11491229149E+04  0.00000000000E+00 0.  1.
          1    1    1    2  502    0  0.21233427468E+02  0.45088595661E+01  0.41696595860E+02  0.47008449910E+02  0.00000000000E+00 0.  1.
</event>
<event>
 4    1  0.3555026E+003  0.2053419E+02  0.7546771E-02  0.1526020E+00
          2   -1    0    0  502    0  0.00000000000E+00  0.00000000000E+00  0.23877930782E+02  0.23877930782E+02  0.00000000000E+00 0.  1.
          1   -1    0    0  501    0 -0.00000000000E+00 -0.00000000000E+00 -0.33245462734E+03  0.33245462734E+03  0.00000000000E+00 0.  1.
          2    1    1    2  501    0 -0.18421346929E+02  0.90723187329E+01  0.19081623305E+02  0.28031434815E+02  0.00000000000E+00 0.  1.
          1    1    1    2  502    0  0.18421346929E+02 -0.90723187329E+01 -0.32765831986E+03  0.32830112331E+03  0.00000000000E+00 0.  1.
</event>
<event>
 4    1  0.3555026E+003  0.3361178E+02  0.7546771E-02  0.1390594E+00
          2   -1    0    0  502    0  0.00000000000E+00  0.00000000000E+00  0.34516968181E+01  0.34516968181E+01  0.00000000000E+00 0. -1.
          1   -1    0    0  501    0 -0.00000000000E+00 -0.00000000000E+00 -0.67393380883E+03  0.67393380883E+03  0.00000000000E+00 0. -1.
          2    1    1    2  501    0  0.88867864127E+01  0.32415684218E+02 -0.92339268276E+02  0.98266433851E+02  0.00000000000E+00 0. -1.
          1    1    1    2  502    0 -0.88867864127E+01 -0.32415684218E+02 -0.57814284374E+03  0.57911907180E+03  0.00000000000E+00 0. -1.
</event>
<event>
 4    1  0.3555026E+003  0.2387299E+02  0.7546771E-02  0.1481818E+00
          2   -1    0    0  502    0  0.00000000000E+00  0.00000000000E+00  0.70920421763E+03  0.70920421763E+03  0.00000000000E+00 0.  1.
          1   -1    0    0  501    0 -0.00000000000E+00 -0.00000000000E+00 -0.52151041875E+01  0.52151041875E+01  0.00000000000E+00 0.  1.
          2    1    1    2  501    0  0.66890235172E+01 -0.22916736810E+02  0.68053195735E+03  0.68095055976E+03  0.00000000000E+00 0.  1.
          1    1    1    2  502    0 -0.66890235172E+01  0.22916736810E+02  0.23457156085E+02  0.33468762051E+02  0.00000000000E+00 0.  1.
</event>
<event>
 4    1  0.3555026E+003  0.6252474E+02  0.7546771E-02  0.1251487E+00
          2   -1    0    0  502    0  0.00000000000E+00  0.00000000000E+00  0.96569684541E+01  0.96569684541E+01  0.00000000000E+00 0.  1.
          1   -1    0    0  501    0 -0.00000000000E+00 -0.00000000000E+00 -0.12619226684E+04  0.12619226684E+04  0.00000000000E+00 0. -1.
          2    1    1    2  501    0  0.47924877772E+02  0.40156555702E+02 -0.10215444580E+03  0.11977008672E+03  0.00000000000E+00 0.  1.
          1    1    1    2  502    0 -0.47924877772E+02 -0.40156555702E+02 -0.11501112542E+04  0.11518095502E+04  0.00000000000E+00 0. -1.
</event>
<event>
 4    1  0.3555026E+003  0.5209098E+02  0.7546771E-02  0.1289353E+00
          2   -1    0    0  502    0  0.00000000000E+00  0.00000000000E+00  0.20506988838E+04  0.20506988838E+04  0.00000000000E+00 0. -1.
          1   -1    0    0  501    0 -0.00000000000E+00 -0.00000000000E+00 -0.57324215617E+02  0.57324215617E+02  0.00000000000E+00 0.  1.
          2    1    1    2  501    0  0.38701040819E+01  0.51947013686E+02  0.20384631926E+04  0.20391286515E+04  0.00000000000E+00 0. -1.
          1    1    1    2  502    0 -0.38701040819E+01 -0.51947013686E+02 -0.45088524321E+02  0.68894447976E+02  0.00000000000E+00 0.  1.
</event>
<event>
 4    1  0.3555026E+003  0.2667038E+02  0.7546771E-02  0.1450948E+00
          2   -1    0    0  502    0  0.00000000000E+00  0.00000000000E+00  0.49295605084E+01  0.49295605084E+01  0.00000000000E+00 0.  1.
          1   -1    0    0  501    0 -0.00000000000E+00 -0.00000000000E+00 -0.15407402953E+04  0.15407402953E+04  0.00000000000E+00 0.  1.
          2    1    1    2  501    0  0.21849699012E+02  0.15293780904E+02 -0.32148976461E+02  0.41771590450E+02  0.00000000000E+00 0.  1.
          1    1    1    2  502    0 -0.21849699012E+02 -0.15293780904E+02 -0.15036617584E+04  0.15038982654E+04  0.00000000000E+00 0.  1.
</event>
<event>
 4    1  0.3555026E+003  0.2061540E+02  0.7546771E-02  0.1524827E+00
          2   -1    0    0  502    0  0.00000000000E+00  0.00000000000E+00  0.39421438812E+03  0.39421438812E+03  0.00000000000E+00 0. -1.
          1   -1    0    0  501    0 -0.00000000000E+00 -0.00000000000E+00 -0.15469371952E+02  0.15469371952E+02  0.00000000000E+00 0.  1.
          2    1    1    2  501    0 -0.18592552912E+02  0.89057078692E+01  0.38694765050E+03  0.38749642435E+03  0.00000000000E+00 0. -1.
          1    1    1    2  502    0  0.18592552912E+02 -0.89057078692E+01 -0.82026343319E+01  0.22187335721E+02  0.00000000000E+00 0.  1.
</event>
<event>
 4    1  0.3555026E+003  0.3061968E+02  0.7546771E-02  0.1414286E+00
          2   -1    0    0  502    0  0.00000000000E+00  0.00000000000E+00  0.15877331595E+04  0.15877331595E+04  0.00000000000E+00 0.  1.
          1   -1    0    0  501    0 -0.00000000000E+00 -0.00000000000E+00 -0.11047307439E+01  0.11047307439E+01  0.00000000000E+00 0.  1.
          2    1    1    2  501    0 -0.14133118259E+02  0.27162832731E+02  0.13353129103E+04  0.13356639296E+04  0.00000000000E+00 0.  1.
          1    1    1    2  502    0  0.14133118259E+02 -0.27162832731E+02  0.25131551848E+03  0.25317396064E+03  0.00000000000E+00 0.  1.
</event>
<event>
 4    1  0.3555026E+003  0.2324196E+02  0.7546771E-02  0.1489482E+00
          2   -1    0    0  502    0  0.00000000000E+00  0.00000000000E+00  0.13037558476E+03  0.13037558476E+03  0.00000000000E+00 0.  1.
          1   -1    0    0  501    0 -0.00000000000E+00 -0.00000000000E+00 -0.22330497351E+02  0.22330497351E+02  0.00000000000E+00 0. -1.
          2    1    1    2  501    0 -0.84857690656E+01 -0.21637474266E+02  0.12292896875E+03  0.12510683405E+03  0.00000000000E+00 0.  1.
          1    1    1    2  502    0  0.84857690656E+01  0.21637474266E+02 -0.14883881344E+02  0.27599248053E+02  0.00000000000E+00 0. -1.
</event>
<event>
 4    1  0.3555026E+003  0.2990375E+02  0.7546771E-02  0.1420435E+00
          2   -1    0    0  502    0  0.00000000000E+00  0.00000000000E+00  0.22861692535E+01  0.22861692535E+01  0.00000000000E+00 0. -1.
          1   -1    0    0  501    0 -0.00000000000E+00 -0.00000000000E+00 -0.42404660237E+03  0.42404660237E+03  0.00000000000E+00 0. -1.
          2    1    1    2  501    0  0.29149112858E+01 -0.29761330990E+02 -0.27025362670E+03  0.27190302733E+03  0.00000000000E+00 0. -1.
          1    1    1    2  502    0 -0.29149112858E+01  0.29761330990E+02 -0.15150680642E+03  0.15442974429E+03  0.00000000000E+00 0. -1.
</event>
<event>
 4    1  0.3555026E+003  0.2388459E+02  0.7546771E-02  0.1481679E+00
          2   -1    0    0  502    0  0.00000000000E+00  0.00000000000E+00  0.11745536939E+04  0.11745536939E+04  0.00000000000E+00 0. -1.
          1   -1    0    0  501    0 -0.00000000000E+00 -0.00000000000E+00 -0.66103454638E+00  0.66103454638E+00  0.00000000000E+00 0. -1.
          2    1    1    2  501    0 -0.15027877680E+02  0.18564383525E+02  0.88957953727E+03  0.88990012168E+03  0.00000000000E+00 0. -1.
          1    1    1    2  502    0  0.15027877680E+02 -0.18564383525E+02  0.28431312210E+03  0.28531460678E+03  0.00000000000E+00 0. -1.
</event>
<event>
 4    1  0.3555026E+003  0.2924063E+02  0.7546771E-02  0.1426312E+00
          2   -1    0    0  502    0  0.00000000000E+00  0.00000000000E+00  0.12987679727E+03  0.12987679727E+03  0.00000000000E+00 0. -1.
          1   -1    0    0  501    0 -0.00000000000E+00 -0.00000000000E+00 -0.47955947177E+02  0.47955947177E+02  0.00000000000E+00 0.  1.
          2    1    1    2  501    0  0.11134174103E+02 -0.27037831566E+02  0.12354849273E+03  0.12696158562E+03  0.00000000000E+00 0. -1.
          1    1    1    2  502    0 -0.11134174103E+02  0.27037831566E+02 -0.41627642635E+02  0.50871158824E+02  0.00000000000E+00 0.  1.
</event>
<event>
 4    1  0.3555026E+003  0.3154773E+02  0.7546771E-02  0.1406607E+00
          2   -1    0    0  502    0  0.00000000000E+00  0.00000000000E+00  0.43313745840E+03  0.43313745840E+03  0.00000000000E+00 0. -1.
          1   -1    0    0  501    0 -0.00000000000E+00 -0.00000000000E+00 -0.53253213500E+01  0.53253213500E+01  0.00000000000E+00 0.  1.
          2    1    1    2  501    0  0.17534402844E+02  0.26226013891E+02  0.37920655209E+03  0.38051658076E+03  0.00000000000E+00 0. -1.
          1    1    1    2  502    0 -0.17534402844E+02 -0.26226013891E+02  0.48605584959E+02  0.57946198986E+02  0.00000000000E+00 0.  1.
</event>
<event>
 4    1  0.3555026E+003  0.3042424E+02  0.7546771E-02  0.1415945E+00
          2   -1    0    0  502    0  0.00000000000E+00  0.00000000000E+00  0.47997427471E+02  0.47997427471E+02  0.00000000000E+00 0.  1.
          1   -1    0    0  501    0 -0.00000000000E+00 -0.00000000000E+00 -0.55630617007E+02  0.55630617007E+02  0.00000000000E+00 0.  1.
          2    1    1    2  501    0 -0.17915705229E+02 -0.24589870320E+02  0.38064296497E+02  0.48729096893E+02  0.00000000000E+00 0.  1.
          1    1    1    2  502    0  0.17915705229E+02  0.24589870320E+02 -0.45697486033E+02  0.54898947585E+02  0.00000000000E+00 0.  1.
</event>
<event>
 4    1  0.3555026E+003  0.2794673E+02  0.7546771E-02  0.1438323E+00
          2   -1    0    0  502    0  0.00000000000E+00  0.00000000000E+00  0.20554319536E+03  0.20554319536E+03  0.00000000000E+00 0. -1.
          1   -1    0    0  501    0 -0.00000000000E+00 -0.00000000000E+00 -0.81925455342E+03  0.81925455342E+03  0.00000000000E+00 0.  1.
          2    1    1    2  501    0 -0.24581735797E+02  0.13295039016E+02  0.20435353579E+03  0.20625563602E+03  0.00000000000E+00 0. -1.
          1    1    1    2  502    0  0.24581735797E+02 -0.13295039016E+02 -0.81806489386E+03  0.81854211276E+03  0.00000000000E+00 0.  1.
</event>
<event>
 4    1  0.4128526E+003  0.2443224E+02  0.7546771E-02  0.1475256E+00
          2   -1    0    0  502    0  0.00000000000E+00  0.00000000000E+00  0.49251078444E+03  0.49251078444E+03  0.00000000000E+00 0.  1.
          1   -1    0    0  501    0 -0.00000000000E+00 -0.00000000000E+00 -0.11006622477E+04  0.11006622477E+04  0.00000000000E+00 0. -1.
          2    1    1    2  501    0 -0.23506241853E+02  0.66626429212E+01  0.49207207273E+03  0.49267825097E+03  0.00000000000E+00 0.  1.
          1    1    1    2  502    0  0.23506241853E+02 -0.66626429212E+01 -0.11002235360E+04  0.11004947811E+04  0.00000000000E+00 0. -1.
</event>
<event>
 4    1  0.3555026E+003  0.3430923E+02  0.7546771E-02  0.1385486E+00
          2   -1    0    0  502    0  0.00000000000E+00  0.00000000000E+00  0.12807460157E+02  0.12807460157E+02  0.00000000000E+00 0. -1.
          1   -1    0    0  501    0 -0.00000000000E+00 -0.00000000000E+00 -0.12197804793E+04  0.12197804793E+04  0.00000000000E+00 0. -1.
          2    1    1    2  501    0 -0.32104373692E+02  0.12100932200E+02 -0.10865766892E+02  0.35988724073E+02  0.00000000000E+00 0. -1.
          1    1    1    2  502    0  0.32104373692E+02 -0.12100932200E+02 -0.11961072523E+04  0.11965992154E+04  0.00000000000E+00 0. -1.
</event>
<event>
 4    1  0.3555026E+003  0.2278415E+02  0.7546771E-02  0.1495226E+00
          2   -1    0    0  502    0  0.00000000000E+00  0.00000000000E+00  0.38910085502E+02  0.38910085502E+02  0.00000000000E+00 0.  1.
          1   -1    0    0  501    0 -0.00000000000E+00 -0.00000000000E+00 -0.14187310758E+03  0.14187310758E+03  0.00000000000E+00 0.  1.
          2    1    1    2  501    0  0.33670938961E+01 -0.22533980503E+02  0.34555049987E+02  0.41390446703E+02  0.00000000000E+00 0.  1.
          1    1    1    2  502    0 -0.33670938961E+01  0.22533980503E+02 -0.13751807207E+03  0.13939274638E+03  0.00000000000E+00 0.  1.
</event>
<event>
 4    1  0.3555026E+003  0.3258304E+02  0.7546771E-02  0.1398401E+00
          2   -1    0    0  502    0  0.00000000000E+00  0.00000000000E+00  0.45670539243E+01  0.45670539243E+01  0.00000000000E+00 0.  1.
          1   -1    0    0  501    0 -0.00000000000E+00 -0.00000000000E+00 -0.13227443687E+04  0.13227443687E+04  0.00000000000E+00 0.  1.
          2    1    1    2  501    0 -0.28073395965E+02 -0.16539013822E+02 -0.56563907351E+02  0.65277332620E+02  0.00000000000E+00 0.  1.
          1    1    1    2  502    0  0.28073395965E+02  0.16539013822E+02 -0.12616134074E+04  0.12620340900E+04  0.00000000000E+00 0.  1.
</event>
<event>
 4    1  0.3555026E+003  0.2861687E+02  0.7546771E-02  0.1432009E+00
          2   -1    0    0  502    0  0.00000000000E+00  0.00000000000E+00  0.75610407453E+02  0.75610407453E+02  0.00000000000E+00 0. -1.
          1   -1    0    0  501    0 -0.00000000000E+00 -0.00000000000E+00 -0.82636592626E+02  0.82636592626E+02  0.00000000000E+00 0. -1.
          2    1    1    2  501    0 -0.20654495631E+02 -0.19806996739E+02  0.70243163792E+02  0.75848713695E+02  0.00000000000E+00 0. -1.
          1    1    1    2  502    0  0.20654495631E+02  0.19806996739E+02 -0.77269348965E+02  0.82398286385E+02  0.00000000000E+00 0. -1.
</event>
<event>
 4    1  0.3555026E+003  0.2223165E+02  0.7546771E-02  0.1502378E+00
          2   -1    0    0  502    0  0.00000000000E+00  0.00000000000E+00  0.20765616553E+03  0.20765616553E+03  0.00000000000E+00 0. -1.
          1   -1    0    0  501    0 -0.00000000000E+00 -0.00000000000E+00 -0.47314011570E+01  0.47314011570E+01  0.00000000000E+00 0. -1.
          2    1    1    2  501    0  0.16732630002E+02 -0.14637802976E+02  0.17632356277E+03  0.17771956833E+03  0.00000000000E+00 0. -1.
          1    1    1    2  502    0 -0.16732630002E+02  0.14637802976E+02  0.26601201604E+02  0.34667998348E+02  0.00000000000E+00 0. -1.
</event>
<event>
 4    1  0.4209101E+003  0.3457272E+02  0.7546771E-02  0.1383592E+00
          2   -1    0    0  502    0  0.00000000000E+00  0.00000000000E+00  0.85806601329E+03  0.85806601329E+03  0.00000000000E+00 0.  1.
          1   -1    0    0  501    0 -0.00000000000E+00 -0.00000000000E+00 -0.77620482011E+03  0.77620482011E+03  0.00000000000E+00 0.  1.
          2    1    1    2  501    0 -0.31663694070E+02  0.13881045353E+02  0.85733246439E+03  0.85802926957E+03  0.00000000000E+00 0.  1.
          1    1    1    2  502    0  0.31663694070E+02 -0.13881045353E+02 -0.77547127121E+03  0.77624156383E+03  0.00000000000E+00 0.  1.
</event>
<event>
 4    1  0.3555026E+003  0.2656784E+02  0.7546771E-02  0.1451998E+00
          2   -1    0    0  502    0  0.00000000000E+00  0.00000000000E+00  0.16045207745E+02  0.16045207745E+02  0.00000000000E+00 0. -1.
          1   -1    0    0  501    0 -0.00000000000E+00 -0.00000000000E+00 -0.44084711377E+02  0.44084711377E+02  0.00000000000E+00 0. -1.
          2    1    1    2  501    0  0.19550011992E+02 -0.17990189217E+02 -0.12635966329E+02  0.29419679163E+02  0.00000000000E+00 0. -1.
          1    1    1    2  502    0 -0.19550011992E+02  0.17990189217E+02 -0.15403537303E+02  0.30710239960E+02  0.00000000000E+00 0. -1.
</event>
<event>
 4    1  0.3555026E+003  0.2068031E+02  0.7546771E-02  0.1523879E+00
          2   -1    0    0  502    0  0.00000000000E+00  0.00000000000E+00  0.46707558980E+02  0.46707558980E+02  0.00000000000E+00 0.  1.
          1   -1    0    0  501    0 -0.00000000000E+00 -0.00000000000E+00 -0.30061267908E+03  0.30061267908E+03  0.00000000000E+00 0.  1.
          2    1    1    2  501    0 -0.20680285787E+02  0.31136165052E-01  0.44042325925E+02  0.48655951975E+02  0.00000000000E+00 0.  1.
          1    1    1    2  502    0  0.20680285787E+02 -0.31136165052E-01 -0.29794744602E+03  0.29866428608E+03  0.00000000000E+00 0.  1.
</event>
<event>
 4    1  0.3555026E+003  0.2017199E+02  0.7546771E-02  0.1531423E+00
          2   -1    0    0  502    0  0.00000000000E+00  0.00000000000E+00  0.11094590287E+04  0.11094590287E+04  0.00000000000E+00 0. -1.
          1   -1    0    0  501    0 -0.00000000000E+00 -0.00000000000E+00 -0.85151559147E+00  0.85151559147E+00  0.00000000000E+00 0.  1.
          2    1    1    2  501    0  0.17145113814E+02 -0.10627991816E+02  0.97317253226E+03  0.97338157302E+03  0.00000000000E+00 0. -1.
          1    1    1    2  502    0 -0.17145113814E+02  0.10627991816E+02  0.13543498087E+03  0.13692897130E+03  0.00000000000E+00 0.  1.
</event>
<event>
 4    1  0.3555026E+003  0.3305772E+02  0.7546771E-02  0.1394757E+00
          2   -1    0    0  502    0  0.00000000000E+00  0.00000000000E+00  0.12119741492E+04  0.12119741492E+04  0.00000000000E+00 0.  1.
          1   -1    0    0  501    0 -0.00000000000E+00 -0.00000000000E+00 -0.90594494714E+00  0.90594494714E+00  0.00000000000E+00 0. -1.
          2    1    1    2  501    0 -0.53113525816E+00 -0.33053439975E+02  0.56392104848E+03  0.56488915808E+03  0.00000000000E+00 0.  1.
          1    1    1    2  502    0  0.53113525816E+00  0.33053439975E+02  0.64714715580E+03  0.64799093609E+03  0.00000000000E+00 0. -1.
</event>
<event>
 4    1  0.3555026E+003  0.2136908E+02  0.7546771E-02  0.1514060E+00
          2   -1    0    0  502    0  0.00000000000E+00  0.00000000000E+00  0.43444220578E+03  0.43444220578E+03  0.00000000000E+00 0.  1.
          1   -1    0    0  501    0 -0.00000000000E+00 -0.00000000000E+00 -0.22445173517E+03  0.22445173517E+03  0.00000000000E+00 0.  1.
          2    1    1    2  501    0  0.14457817399E+02 -0.15735596885E+02  0.43366991393E+03  0.43419607523E+03  0.00000000000E+00 0.  1.
          1    1    1    2  502    0 -0.14457817399E+02  0.15735596885E+02 -0.22367944332E+03  0.22469786572E+03  0.00000000000E+00 0.  1.
</event>
<event>
 4    1  0.3555026E+003  0.2147321E+02  0.7546771E-02  0.1512615E+00
          2   -1    0    0  502    0  0.00000000000E+00  0.00000000000E+00  0.83224188106E+02  0.83224188106E+02  0.00000000000E+00 0.  1.
          1   -1    0    0  501    0 -0.00000000000E+00 -0.00000000000E+00 -0.57596089326E+01  0.57596089326E+01  0.00000000000E+00 0.  1.
          2    1    1    2  501    0  0.14471659019E+02  0.15864099848E+02  0.47411384458E+02  0.52047458679E+02  0.00000000000E+00 0.  1.
          1    1    1    2  502    0 -0.14471659019E+02 -0.15864099848E+02  0.30053194715E+02  0.36936338359E+02  0.00000000000E+00 0.  1.
</event>
<event>
 4    1  0.3555026E+003  0.2039603E+02  0.7546771E-02  0.1528065E+00
          2   -1    0    0  502    0  0.00000000000E+00  0.00000000000E+00  0.15505775214E+01  0.15505775214E+01  0.00000000000E+00 0. -1.
          1   -1    0    0  501    0 -0.00000000000E+00 -0.00000000000E+00 -0.53358931916E+03  0.53358931916E+03  0.00000000000E+00 0.  1.
          2    1    1    2  501    0 -0.34033253823E+01  0.20110086848E+02 -0.77348382073E+02  0.79992314794E+02  0.00000000000E+00 0. -1.
          1    1    1    2  502    0  0.34033253823E+01 -0.20110086848E+02 -0.45469035956E+03  0.45514758189E+03  0.00000000000E+00 0.  1.
</event>
<event>
 4    1  0.3555026E+003  0.2137215E+02  0.7546771E-02  0.1514017E+00
          2   -1    0    0  502    0  0.00000000000E+00  0.00000000000E+00  0.16712304163E+02  0.16712304163E+02  0.00000000000E+00 0.  1.
          1   -1    0    0  501    0 -0.00000000000E+00 -0.00000000000E+00 -0.32988461658E+02  0.32988461658E+02  0.00000000000E+00 0. -1.
          2    1    1    2  501    0  0.87761986747E+01  0.19487101784E+02  0.21527844841E+01  0.21480299815E+02  0.00000000000E+00 0.  1.
          1    1    1    2  502    0 -0.87761986747E+01 -0.19487101784E+02 -0.18428941979E+02  0.28220466006E+02  0.00000000000E+00 0. -1.
</event>
<event>
 4    1  0.3555026E+003  0.2009637E+02  0.7546771E-02  0.1532568E+00
          2   -1    0    0  502    0  0.00000000000E+00  0.00000000000E+00  0.37061068589E+01  0.37061068589E+01  0.00000000000E+00 0. -1.
          1   -1    0    0  501    0 -0.00000000000E+00 -0.00000000000E+00 -0.20154683106E+03  0.20154683106E+03  0.00000000000E+00 0. -1.
          2    1    1    2  501    0 -0.19329603883E+02 -0.54982386910E+01 -0.29367279366E+02  0.35585127685E+02  0.00000000000E+00 0. -1.
          1    1    1    2  502    0  0.19329603883E+02  0.54982386910E+01 -0.16847344484E+03  0.16966781023E+03  0.00000000000E+00 0. -1.
</event>
<event>
 4    1  0.3555026E+003  0.7157770E+02  0.7546771E-02  0.1224878E+00
          2   -1    0    0  502    0  0.00000000000E+00  0.00000000000E+00  0.20204125816E+03  0.20204125816E+03  0.00000000000E+00 0. -1.
          1   -1    0    0  501    0 -0.00000000000E+00 -0.00000000000E+00 -0.44554867253E+03  0.44554867253E+03  0.00000000000E+00 0.  1.
          2    1    1    2  501    0  0.19061022692E+02 -0.68993074641E+02  0.19269202628E+03  0.20555676570E+03  0.00000000000E+00 0. -1.
          1    1    1    2  502    0 -0.19061022692E+02  0.68993074641E+02 -0.43619944065E+03  0.44203316499E+03  0.00000000000E+00 0.  1.
</event>
<event>
 4    1  0.3555026E+003  0.2324417E+02  0.7546771E-02  0.1489455E+00
          2   -1    0    0  502    0  0.00000000000E+00  0.00000000000E+00  0.68267851614E+01  0.68267851614E+01  0.00000000000E+00 0. -1.
          1   -1    0    0  501    0 -0.00000000000E+00 -0.00000000000E+00 -0.79393755212E+02  0.79393755212E+02  0.00000000000E+00 0. -1.
          2    1    1    2  501    0  0.65972262091E+01 -0.22288290810E+02 -0.33860035737E+02  0.41070589489E+02  0.00000000000E+00 0. -1.
          1    1    1    2  502    0 -0.65972262091E+01  0.22288290810E+02 -0.38706934314E+02  0.45149950884E+02  0.00000000000E+00 0. -1.
</event>
<event>
 4    1  0.3555026E+003  0.2285848E+02  0.7546771E-02  0.1494283E+00
          2   -1    0    0  502    0  0.00000000000E+00  0.00000000000E+00  0.29332369451E+02  0.29332369451E+02  0.00000000000E+00 0.  1.
          1   -1    0    0  501    0 -0.00000000000E+00 -0.00000000000E+00 -0.65729322078E+03  0.65729322078E+03  0.00000000000E+00 0. -1.
          2    1    1    2  501    0  0.22163068727E+02  0.55953966670E+01  0.24648322884E+02  0.33616214841E+02  0.00000000000E+00 0.  1.
          1    1    1    2  502    0 -0.22163068727E+02 -0.55953966670E+01 -0.65260917421E+03  0.65300937539E+03  0.00000000000E+00 0. -1.
</event>
<event>
 4    1  0.3555026E+003  0.2306360E+02  0.7546771E-02  0.1491701E+00
          2   -1    0    0  502    0  0.00000000000E+00  0.00000000000E+00  0.38868299203E+01  0.38868299203E+01  0.00000000000E+00 0.  1.
          1   -1    0    0  501    0 -0.00000000000E+00 -0.00000000000E+00 -0.32643007382E+03  0.32643007382E+03  0.00000000000E+00 0.  1.
          2    1    1    2  501    0  0.15034539237E+02  0.17489779037E+02 -0.35408924143E+02  0.42257799869E+02  0.00000000000E+00 0.  1.
          1    1    1    2  502    0 -0.15034539237E+02 -0.17489779037E+02 -0.28713431975E+03  0.28805910387E+03  0.00000000000E+00 0.  1.
</event>
<event>
 4    1  0.3555026E+003  0.3206333E+02  0.7546771E-02  0.1402475E+00
          2   -1    0    0  502    0  0.00000000000E+00  0.00000000000E+00  0.33029994400E+02  0.33029994400E+02  0.00000000000E+00 0.  1.
          1   -1    0    0  501    0 -0.00000000000E+00 -0.00000000000E+00 -0.31168914072E+02  0.31168914072E+02  0.00000000000E+00 0. -1.
          2    1    1    2  501    0 -0.17206290781E+01 -0.32017129354E+02  0.21360035343E+01  0.32134399754E+02  0.00000000000E+00 0.  1.
          1    1    1    2  502    0  0.17206290781E+01  0.32017129354E+02 -0.27492320631E+00  0.32064508717E+02  0.00000000000E+00 0. -1.
</event>
<event>
 4    1  0.3555026E+003  0.8292679E+02  0.7546771E-02  0.1197211E+00
          2   -1    0    0  502    0  0.00000000000E+00  0.00000000000E+00  0.82839112991E+03  0.82839112991E+03  0.00000000000E+00 0. -1.
          1   -1    0    0  501    0 -0.00000000000E+00 -0.00000000000E+00 -0.23638635857E+02  0.23638635857E+02  0.00000000000E+00 0. -1.
          2    1    1    2  501    0  0.80636707516E+02 -0.19353902326E+02  0.74552808390E+03  0.75012597343E+03  0.00000000000E+00 0. -1.
          1    1    1    2  502    0 -0.80636707516E+02  0.19353902326E+02  0.59224410154E+02  0.10190379234E+03  0.00000000000E+00 0. -1.
</event>
<event>
 4    1  0.3555026E+003  0.9006358E+02  0.7546771E-02  0.1182237E+00
          2   -1    0    0  502    0  0.00000000000E+00  0.00000000000E+00  0.99834259089E+02  0.99834259089E+02  0.00000000000E+00 0.  1.
          1   -1    0    0  501    0 -0.00000000000E+00 -0.00000000000E+00 -0.61938358598E+03  0.61938358598E+03  0.00000000000E+00 0. -1.
          2    1    1    2  501    0  0.29905521288E+02 -0.84953560150E+02  0.75419161450E+02  0.11747126244E+03  0.00000000000E+00 0.  1.
          1    1    1    2  502    0 -0.29905521288E+02  0.84953560150E+02 -0.59496848834E+03  0.60174658263E+03  0.00000000000E+00 0. -1.
</event>
<event>
 4    1  0.3555026E+003  0.2804162E+02  0.7546771E-02  0.1437416E+00
          2   -1    0    0  502    0  0.00000000000E+00  0.00000000000E+00  0.89268889649E+03  0.89268889649E+03  0.00000000000E+00 0. -1.
          1   -1    0    0  501    0 -0.00000000000E+00 -0.00000000000E+00 -0.88114056847E+00  0.88114056847E+00  0.00000000000E+00 0. -1.
          2    1    1    2  501    0  0.23834516237E+02 -0.14773219655E+02  0.45390432800E+03  0.45476969024E+03  0.00000000000E+00 0. -1.
          1    1    1    2  502    0 -0.23834516237E+02  0.14773219655E+02  0.43790342792E+03  0.43880034682E+03  0.00000000000E+00 0. -1.
</event>
<event>
 4    1  0.3555026E+003  0.2359536E+02  0.7546771E-02  0.1485154E+00
          2   -1    0    0  502    0  0.00000000000E+00  0.00000000000E+00  0.16280631059E+04  0.16280631059E+04  0.00000000000E+00 0. -1.
          1   -1    0    0  501    0 -0.00000000000E+00 -0.00000000000E+00 -0.44253807491E+00  0.44253807491E+00  0.00000000000E+00 0. -1.
          2    1    1    2  501    0  0.62301103239E+01  0.22758003432E+02  0.12019823613E+04  0.12022139318E+04  0.00000000000E+00 0. -1.
          1    1    1    2  502    0 -0.62301103239E+01 -0.22758003432E+02  0.42563820653E+03  0.42629171216E+03  0.00000000000E+00 0. -1.
</event>
<event>
 4    1  0.3555026E+003  0.2952405E+02  0.7546771E-02  0.1423778E+00
          2   -1    0    0  502    0  0.00000000000E+00  0.00000000000E+00  0.18043849735E+01  0.18043849735E+01  0.00000000000E+00 0. -1.
          1   -1    0    0  501    0 -0.00000000000E+00 -0.00000000000E+00 -0.60808057245E+03  0.60808057245E+03  0.00000000000E+00 0.  1.
          2    1    1    2  501    0  0.92828027580E+01 -0.28026744703E+02 -0.44139506992E+03  0.44238137008E+03  0.00000000000E+00 0. -1.
          1    1    1    2  502    0 -0.92828027580E+01  0.28026744703E+02 -0.16488111756E+03  0.16750358734E+03  0.00000000000E+00 0.  1.
</event>
<event>
 4    1  0.3555026E+003  0.2153052E+02  0.7546771E-02  0.1511823E+00
          2   -1    0    0  502    0  0.00000000000E+00  0.00000000000E+00  0.13469467610E+03  0.13469467610E+03  0.00000000000E+00 0.  1.
          1   -1    0    0  501    0 -0.00000000000E+00 -0.00000000000E+00 -0.25551930603E+02  0.25551930603E+02  0.00000000000E+00 0. -1.
          2    1    1    2  501    0  0.53042431806E+01  0.20866918593E+02  0.12910371062E+03  0.13088671202E+03  0.00000000000E+00 0.  1.
          1    1    1    2  502    0 -0.53042431806E+01 -0.20866918593E+02 -0.19960965122E+02  0.29359894685E+02  0.00000000000E+00 0. -1.
</event>
<event>
 4    1  0.3555026E+003  0.2219910E+02  0.7546771E-02  0.1502808E+00
          2   -1    0    0  502    0  0.00000000000E+00  0.00000000000E+00  0.58888688870E+03  0.58888688870E+03  0.00000000000E+00 0. -1.
          1   -1    0    0  501    0 -0.00000000000E+00 -0.00000000000E+00 -0.73851052045E+01  0.73851052045E+01  0.00000000000E+00 0. -1.
          2    1    1    2  501    0 -0.22196411397E+02 -0.34549264901E+00  0.57148774739E+03  0.57191874026E+03  0.00000000000E+00 0. -1.
          1    1    1    2  502    0  0.22196411397E+02  0.34549264901E+00  0.10014036110E+02  0.24353253649E+02  0.00000000000E+00 0. -1.
</event>
<event>
 4    1  0.3555026E+003  0.2523195E+02  0.7546771E-02  0.1466225E+00
          2   -1    0    0  502    0  0.00000000000E+00  0.00000000000E+00  0.54405924041E+03  0.54405924041E+03  0.00000000000E+00 0. -1.
          1   -1    0    0  501    0 -0.00000000000E+00 -0.00000000000E+00 -0.23788203923E+01  0.23788203923E+01  0.00000000000E+00 0. -1.
          2    1    1    2  501    0  0.19135938227E+02 -0.16445892331E+02  0.46559011891E+03  0.46627332149E+03  0.00000000000E+00 0. -1.
          1    1    1    2  502    0 -0.19135938227E+02  0.16445892331E+02  0.76090301108E+02  0.80164739313E+02  0.00000000000E+00 0. -1.
</event>
<event>
 4    1  0.3555026E+003  0.5610605E+02  0.7546771E-02  0.1273669E+00
          2   -1    0    0  502    0  0.00000000000E+00  0.00000000000E+00  0.14435789652E+04  0.14435789652E+04  0.00000000000E+00 0.  1.
          1   -1    0    0  501    0 -0.00000000000E+00 -0.00000000000E+00 -0.10473384765E+03  0.10473384765E+03  0.00000000000E+00 0.  1.
          2    1    1    2  501    0  0.41354243011E+02  0.37917224337E+02  0.14354773991E+04  0.14365734414E+04  0.00000000000E+00 0.  1.
          1    1    1    2  502    0 -0.41354243011E+02 -0.37917224337E+02 -0.96632281475E+02  0.11173937148E+03  0.00000000000E+00 0.  1.
</event>
<event>
 4    1  0.3555026E+003  0.3096973E+02  0.7546771E-02  0.1411352E+00
          2   -1    0    0  502    0  0.00000000000E+00  0.00000000000E+00  0.74539123599E+02  0.74539123599E+02  0.00000000000E+00 0.  1.
          1   -1    0    0  501    0 -0.00000000000E+00 -0.00000000000E+00 -0.22089620446E+02  0.22089620446E+02  0.00000000000E+00 0.  1.
          2    1    1    2  501    0  0.23657526245E+02  0.19986130296E+02  0.57442401354E+02  0.65259125228E+02  0.00000000000E+00 0.  1.
          1    1    1    2  502    0 -0.23657526245E+02 -0.19986130296E+02 -0.49928982006E+01  0.31369618816E+02  0.00000000000E+00 0.  1.
</event>
<event>
 4    1  0.3555026E+003  0.2151076E+02  0.7546771E-02  0.1512096E+00
          2   -1    0    0  502    0  0.00000000000E+00  0.00000000000E+00  0.16999834188E+02  0.16999834188E+02  0.00000000000E+00 0.  1.
          1   -1    0    0  501    0 -0.00000000000E+00 -0.00000000000E+00 -0.49823848657E+02  0.49823848657E+02  0.00000000000E+00 0.  1.
          2    1    1    2  501    0  0.19020782521E+02  0.10046027342E+02  0.60933428106E+01  0.22357138898E+02  0.00000000000E+00 0.  1.
          1    1    1    2  502    0 -0.19020782521E+02 -0.10046027342E+02 -0.38917357279E+02  0.44466543948E+02  0.00000000000E+00 0.  1.
</event>
<event>
 4    1  0.3555026E+003  0.3920646E+02  0.7546771E-02  0.1353200E+00
          2   -1    0    0  502    0  0.00000000000E+00  0.00000000000E+00  0.25318216690E+02  0.25318216690E+02  0.00000000000E+00 0. -1.
          1   -1    0    0  501    0 -0.00000000000E+00 -0.00000000000E+00 -0.85643085496E+02  0.85643085496E+02  0.00000000000E+00 0.  1.
          2    1    1    2  501    0  0.37247078311E+02  0.12239345533E+02 -0.22898587185E+00  0.39207127621E+02  0.00000000000E+00 0. -1.
          1    1    1    2  502    0 -0.37247078311E+02 -0.12239345533E+02 -0.60095882934E+02  0.71754174564E+02  0.00000000000E+00 0.  1.
</event>
<event>
 4    1  0.3555026E+003  0.3035351E+02  0.7546771E-02  0.1416549E+00
          2   -1    0    0  502    0  0.00000000000E+00  0.00000000000E+00  0.39195695586E+03  0.39195695586E+03  0.00000000000E+00 0. -1.
          1   -1    0    0  501    0 -0.00000000000E+00 -0.00000000000E+00 -0.69461440591E+02  0.69461440591E+02  0.00000000000E+00 0.  1.
          2    1    1    2  501    0  0.12439799177E+02  0.27687301516E+02  0.38801971353E+03  0.38920513018E+03  0.00000000000E+00 0. -1.
          1    1    1    2  502    0 -0.12439799177E+02 -0.27687301516E+02 -0.65524198258E+02  0.72213266276E+02  0.00000000000E+00 0.  1.
</event>
<event>
 4    1  0.3555026E+003  0.2054290E+02  0.7546771E-02  0.1525892E+00
          2   -1    0    0  502    0  0.00000000000E+00  0.00000000000E+00  0.34446602126E+02  0.34446602126E+02  0.00000000000E+00 0.  1.
          1   -1    0    0  501    0 -0.00000000000E+00 -0.00000000000E+00 -0.13435378187E+04  0.13435378187E+04  0.00000000000E+00 0. -1.
          2    1    1    2  501    0  0.20468143346E+02  0.17509058956E+01  0.31298094182E+02  0.37437698419E+02  0.00000000000E+00 0.  1.
          1    1    1    2  502    0 -0.20468143346E+02 -0.17509058956E+01 -0.13403893108E+04  0.13405467224E+04  0.00000000000E+00 0. -1.
</event>
<event>
 4    1  0.3555026E+003  0.2633657E+02  0.7546771E-02  0.1454389E+00
          2   -1    0    0  502    0  0.00000000000E+00  0.00000000000E+00  0.65338894260E+01  0.65338894260E+01  0.00000000000E+00 0.  1.
          1   -1    0    0  501    0 -0.00000000000E+00 -0.00000000000E+00 -0.10659336409E+04  0.10659336409E+04  0.00000000000E+00 0.  1.
          2    1    1    2  501    0 -0.65899018475E+01 -0.25498787333E+02 -0.20868047817E+02  0.33601940145E+02  0.00000000000E+00 0.  1.
          1    1    1    2  502    0  0.65899018475E+01  0.25498787333E+02 -0.10385317036E+04  0.10388655901E+04  0.00000000000E+00 0.  1.
</event>
<event>
 4    1  0.3555026E+003  0.2263805E+02  0.7546771E-02  0.1497094E+00
          2   -1    0    0  502    0  0.00000000000E+00  0.00000000000E+00  0.38904025283E+02  0.38904025283E+02  0.00000000000E+00 0. -1.
          1   -1    0    0  501    0 -0.00000000000E+00 -0.00000000000E+00 -0.88522910922E+02  0.88522910922E+02  0.00000000000E+00 0.  1.
          2    1    1    2  501    0  0.10128393283E+02 -0.20245907545E+02  0.33972629486E+02  0.40824265786E+02  0.00000000000E+00 0. -1.
          1    1    1    2  502    0 -0.10128393283E+02  0.20245907545E+02 -0.83591515125E+02  0.86602670419E+02  0.00000000000E+00 0.  1.
</event>
<event>
 4    1  0.3555026E+003  0.2779468E+02  0.7546771E-02  0.1439785E+00
          2   -1    0    0  502    0  0.00000000000E+00  0.00000000000E+00  0.26654814045E+01  0.26654814045E+01  0.00000000000E+00 0. -1.
          1   -1    0    0  501    0 -0.00000000000E+00 -0.00000000000E+00 -0.41812144503E+03  0.41812144503E+03  0.00000000000E+00 0. -1.
          2    1    1    2  501    0 -0.11305123819E+02 -0.25391700095E+02 -0.91188004997E+02  0.95329935035E+02  0.00000000000E+00 0. -1.
          1    1    1    2  502    0  0.11305123819E+02  0.25391700095E+02 -0.32426795863E+03  0.32545699140E+03  0.00000000000E+00 0. -1.
</event>
<event>
 4    1  0.3555026E+003  0.2790890E+02  0.7546771E-02  0.1438686E+00
          2   -1    0    0  502    0  0.00000000000E+00  0.00000000000E+00  0.30503834234E+01  0.30503834234E+01  0.00000000000E+00 0.  1.
          1   -1    0    0  501    0 -0.00000000000E+00 -0.00000000000E+00 -0.79859472961E+03  0.79859472961E+03  0.00000000000E+00 0.  1.
          2    1    1    2  501    0  0.10206035168E+02 -0.25975826919E+02 -0.67183605539E+02  0.72749870043E+02  0.00000000000E+00 0.  1.
          1    1    1    2  502    0 -0.10206035168E+02  0.25975826919E+02 -0.72836074065E+03  0.72889524299E+03  0.00000000000E+00 0.  1.
</event>
<event>
 4    1  0.3555026E+003  0.2054244E+02  0.7546771E-02  0.1525899E+00
          2   -1    0    0  502    0  0.00000000000E+00  0.00000000000E+00  0.26311982603E+02  0.26311982603E+02  0.00000000000E+00 0. -1.
          1   -1    0    0  501    0 -0.00000000000E+00 -0.00000000000E+00 -0.11332529787E+03  0.11332529787E+03  0.00000000000E+00 0.  1.
          2    1    1    2  501    0  0.54125199598E+01  0.19816566748E+02  0.21183172799E+02  0.29507939607E+02  0.00000000000E+00 0. -1.
          1    1    1    2  502    0 -0.54125199598E+01 -0.19816566748E+02 -0.10819648807E+03  0.11012934087E+03  0.00000000000E+00 0.  1.
</event>
<event>
 4    1  0.3555026E+003  0.2364936E+02  0.7546771E-02  0.1484501E+00
          2   -1    0    0  502    0  0.00000000000E+00  0.00000000000E+00  0.74980824081E+03  0.74980824081E+03  0.00000000000E+00 0.  1.
          1   -1    0    0  501    0 -0.00000000000E+00 -0.00000000000E+00 -0.85387728283E+02  0.85387728283E+02  0.00000000000E+00 0.  1.
          2    1    1    2  501    0  0.23163531095E+02  0.47689782327E+01  0.74798025353E+03  0.74835402852E+03  0.00000000000E+00 0.  1.
          1    1    1    2  502    0 -0.23163531095E+02 -0.47689782327E+01 -0.83559741004E+02  0.86841940575E+02  0.00000000000E+00 0.  1.
</event>
<event>
 4    1  0.3555026E+003  0.2179611E+02  0.7546771E-02  0.1508195E+00
          2   -1    0    0  502    0  0.00000000000E+00  0.00000000000E+00  0.51354653044E+03  0.51354653044E+03  0.00000000000E+00 0.  1.
          1   -1    0    0  501    0 -0.00000000000E+00 -0.00000000000E+00 -0.17080759631E+01  0.17080759631E+01  0.00000000000E+00 0. -1.
          2    1    1    2  501    0  0.10685587779E+02  0.18997070815E+02  0.43034822011E+03  0.43089982715E+03  0.00000000000E+00 0.  1.
          1    1    1    2  502    0 -0.10685587779E+02 -0.18997070815E+02  0.81490234367E+02  0.84354779253E+02  0.00000000000E+00 0. -1.
</event>
<event>
 4    1  0.3555026E+003  0.2042318E+02  0.7546771E-02  0.1527662E+00
          2   -1    0    0  502    0  0.00000000000E+00  0.00000000000E+00  0.12857063574E+03  0.12857063574E+03  0.00000000000E+00 0.  1.
          1   -1    0    0  501    0 -0.00000000000E+00 -0.00000000000E+00 -0.96728191270E+02  0.96728191270E+02  0.00000000000E+00 0.  1.
          2    1    1    2  501    0 -0.17344110487E+02 -0.10783690491E+02  0.12666544347E+03  0.12830136678E+03  0.00000000000E+00 0.  1.
          1    1    1    2  502    0  0.17344110487E+02  0.10783690491E+02 -0.94822999004E+02  0.96997460221E+02  0.00000000000E+00 0.  1.
</event>
<event>
 4    1  0.3555026E+003  0.3169698E+02  0.7546771E-02  0.1405401E+00
          2   -1    0    0  502    0  0.00000000000E+00  0.00000000000E+00  0.48397690043E+03  0.48397690043E+03  0.00000000000E+00 0. -1.
          1   -1    0    0  501    0 -0.00000000000E+00 -0.00000000000E+00 -0.10734688991E+02  0.10734688991E+02  0.00000000000E+00 0. -1.
          2    1    1    2  501    0 -0.18889498902E+02  0.25453598134E+02  0.45877572835E+03  0.45986940293E+03  0.00000000000E+00 0. -1.
          1    1    1    2  502    0  0.18889498902E+02 -0.25453598134E+02  0.14466483091E+02  0.34842186495E+02  0.00000000000E+00 0. -1.
</event>
<event>
 4    1  0.3555026E+003  0.3033312E+02  0.7546771E-02  0.1416723E+00
          2   -1    0    0  502    0  0.00000000000E+00  0.00000000000E+00  0.15674111389E+02  0.15674111389E+02  0.00000000000E+00 0. -1.
          1   -1    0    0  501    0 -0.00000000000E+00 -0.00000000000E+00 -0.11354970197E+03  0.11354970197E+03  0.00000000000E+00 0.  1.
          2    1    1    2  501    0 -0.29748814530E+02 -0.59250511913E+01 -0.40322828047E+01  0.30599959186E+02  0.00000000000E+00 0. -1.
          1    1    1    2  502    0  0.29748814530E+02  0.59250511913E+01 -0.93843307779E+02  0.98623854176E+02  0.00000000000E+00 0.  1.
</event>
<event>
 4    1  0.3555026E+003  0.3272414E+02  0.7546771E-02  0.1397310E+00
          2   -1    0    0  502    0  0.00000000000E+00  0.00000000000E+00  0.18751603193E+04  0.18751603193E+04  0.00000000000E+00 0. -1.
          1   -1    0    0  501    0 -0.00000000000E+00 -0.00000000000E+00 -0.19599952630E+02  0.19599952630E+02  0.00000000000E+00 0.  1.
          2    1    1    2  501    0  0.20794543842E+02  0.25267698659E+02  0.18612564365E+04  0.18615440882E+04  0.00000000000E+00 0. -1.
          1    1    1    2  502    0 -0.20794543842E+02 -0.25267698659E+02 -0.56960698988E+01  0.33216183728E+02  0.00000000000E+00 0.  1.
</event>
<event>
 4    1  0.3555026E+003  0.2167377E+02  0.7546771E-02  0.1509859E+00
          2   -1    0    0  502    0  0.00000000000E+00  0.00000000000E+00  0.32778333446E+02  0.32778333446E+02  0.00000000000E+00 0.  1.
          1   -1    0    0  501    0 -0.00000000000E+00 -0.00000000000E+00 -0.14511473671E+02  0.14511473671E+02  0.00000000000E+00 0.  1.
          2    1    1    2  501    0  0.19525765617E+02 -0.94072814822E+01  0.11768924098E+02  0.24662928501E+02  0.00000000000E+00 0.  1.
          1    1    1    2  502    0 -0.19525765617E+02  0.94072814822E+01  0.64979356779E+01  0.22626878616E+02  0.00000000000E+00 0.  1.
</event>
<event>
 4    1  0.3555026E+003  0.2121382E+02  0.7546771E-02  0.1516234E+00
          2   -1    0    0  502    0  0.00000000000E+00  0.00000000000E+00  0.61710804723E+01  0.61710804723E+01  0.00000000000E+00 0. -1.
          1   -1    0    0  501    0 -0.00000000000E+00 -0.00000000000E+00 -0.10880668377E+03  0.10880668377E+03  0.00000000000E+00 0. -1.
          2    1    1    2  501    0  0.21199408811E+02  0.78169674432E+00 -0.18304227679E+02  0.28019113738E+02  0.00000000000E+00 0. -1.
          1    1    1    2  502    0 -0.21199408811E+02 -0.78169674432E+00 -0.84331375623E+02  0.86958650508E+02  0.00000000000E+00 0. -1.
</event>
<event>
 4    1  0.3555026E+003  0.2634538E+02  0.7546771E-02  0.1454297E+00
          2   -1    0    0  502    0  0.00000000000E+00  0.00000000000E+00  0.12675630209E+03  0.12675630209E+03  0.00000000000E+00 0. -1.
          1   -1    0    0  501    0 -0.00000000000E+00 -0.00000000000E+00 -0.18944463285E+03  0.18944463285E+03  0.00000000000E+00 0. -1.
          2    1    1    2  501    0 -0.13290569146E+02  0.22747303326E+02  0.12445468540E+03  0.12721260848E+03  0.00000000000E+00 0. -1.
          1    1    1    2  502    0  0.13290569146E+02 -0.22747303326E+02 -0.18714301617E+03  0.18898832646E+03  0.00000000000E+00 0. -1.
</event>
<event>
 4    1  0.3555026E+003  0.2137154E+02  0.7546771E-02  0.1514026E+00
          2   -1    0    0  502    0  0.00000000000E+00  0.00000000000E+00  0.48689081500E+02  0.48689081500E+02  0.00000000000E+00 0. -1.
          1   -1    0    0  501    0 -0.00000000000E+00 -0.00000000000E+00 -0.11552033262E+02  0.11552033262E+02  0.00000000000E+00 0. -1.
          2    1    1    2  501    0  0.17360790700E+02 -0.12463771613E+02  0.31626828349E+02  0.38170655325E+02  0.00000000000E+00 0. -1.
          1    1    1    2  502    0 -0.17360790700E+02  0.12463771613E+02  0.55102198890E+01  0.22070459437E+02  0.00000000000E+00 0. -1.
</event>
<event>
 4    1  0.3864487E+003  0.2360860E+02  0.7546771E-02  0.1484994E+00
          2   -1    0    0  502    0  0.00000000000E+00  0.00000000000E+00  0.10532047626E+04  0.10532047626E+04  0.00000000000E+00 0. -1.
          1   -1    0    0  501    0 -0.00000000000E+00 -0.00000000000E+00 -0.26620670824E+03  0.26620670824E+03  0.00000000000E+00 0. -1.
          2    1    1    2  501    0  0.12384973568E+02 -0.20099210153E+02  0.10525487008E+04  0.10528134371E+04  0.00000000000E+00 0. -1.
          1    1    1    2  502    0 -0.12384973568E+02  0.20099210153E+02 -0.26555064638E+03  0.26659803377E+03  0.00000000000E+00 0. -1.
</event>
<event>
 4    1  0.3555026E+003  0.2129802E+02  0.7546771E-02  0.1515052E+00
          2   -1    0    0  502    0  0.00000000000E+00  0.00000000000E+00  0.11934627476E+02  0.11934627476E+02  0.00000000000E+00 0. -1.
          1   -1    0    0  501    0 -0.00000000000E+00 -0.00000000000E+00 -0.54371422866E+03  0.54371422866E+03  0.00000000000E+00 0.  1.
          2    1    1    2  501    0  0.17889278724E+02  0.11557657015E+02  0.20482741106E+01  0.21396288364E+02  0.00000000000E+00 0. -1.
          1    1    1    2  502    0 -0.17889278724E+02 -0.11557657015E+02 -0.53382787529E+03  0.53425256777E+03  0.00000000000E+00 0.  1.
</event>
<event>
 4    1  0.3555026E+003  0.3895448E+02  0.7546771E-02  0.1354724E+00
          2   -1    0    0  502    0  0.00000000000E+00  0.00000000000E+00  0.16060158852E+02  0.16060158852E+02  0.00000000000E+00 0. -1.
          1   -1    0    0  501    0 -0.00000000000E+00 -0.00000000000E+00 -0.51699087112E+03  0.51699087112E+03  0.00000000000E+00 0.  1.
          2    1    1    2  501    0  0.11882024230E+02 -0.37098101443E+02 -0.95228144564E+01  0.40101566374E+02  0.00000000000E+00 0. -1.
          1    1    1    2  502    0 -0.11882024230E+02  0.37098101443E+02 -0.49140789781E+03  0.49294946360E+03  0.00000000000E+00 0.  1.
</event>
<event>
 4    1  0.3555026E+003  0.2098127E+02  0.7546771E-02  0.1519532E+00
          2   -1    0    0  502    0  0.00000000000E+00  0.00000000000E+00  0.34578016834E+03  0.34578016834E+03  0.00000000000E+00 0. -1.
          1   -1    0    0  501    0 -0.00000000000E+00 -0.00000000000E+00 -0.29392389628E+01  0.29392389628E+01  0.00000000000E+00 0.  1.
          2    1    1    2  501    0  0.25723243696E+01  0.20822986856E+02  0.30269604430E+03  0.30342232757E+03  0.00000000000E+00 0. -1.
          1    1    1    2  502    0 -0.25723243696E+01 -0.20822986856E+02  0.40144885076E+02  0.45297079730E+02  0.00000000000E+00 0.  1.
</event>
<event>
 4    1  0.3555026E+003  0.2101386E+02  0.7546771E-02  0.1519067E+00
          2   -1    0    0  502    0  0.00000000000E+00  0.00000000000E+00  0.96212710617E+01  0.96212710617E+01  0.00000000000E+00 0. -1.
          1   -1    0    0  501    0 -0.00000000000E+00 -0.00000000000E+00 -0.91973892758E+03  0.91973892758E+03  0.00000000000E+00 0.  1.
          2    1    1    2  501    0  0.20853836137E+02  0.25883984857E+01 -0.21212405498E+01  0.21120652211E+02  0.00000000000E+00 0. -1.
          1    1    1    2  502    0 -0.20853836137E+02 -0.25883984857E+01 -0.90799641597E+03  0.90823954643E+03  0.00000000000E+00 0.  1.
</event>
<event>
 4    1  0.3555026E+003  0.2549991E+02  0.7546771E-02  0.1463288E+00
          2   -1    0    0  502    0  0.00000000000E+00  0.00000000000E+00  0.92422536034E+02  0.92422536034E+02  0.00000000000E+00 0. -1.
          1   -1    0    0  501    0 -0.00000000000E+00 -0.00000000000E+00 -0.17436057405E+03  0.17436057405E+03  0.00000000000E+00 0. -1.
          2    1    1    2  501    0 -0.22739241312E+02  0.11540031078E+02  0.89703604287E+02  0.93257611136E+02  0.00000000000E+00 0. -1.
          1    1    1    2  502    0  0.22739241312E+02 -0.11540031078E+02 -0.17164164230E+03  0.17352549895E+03  0.00000000000E+00 0. -1.
</event>
<event>
 4    1  0.3555026E+003  0.6726950E+02  0.7546771E-02  0.1236951E+00
          2   -1    0    0  502    0  0.00000000000E+00  0.00000000000E+00  0.24582705150E+03  0.24582705150E+03  0.00000000000E+00 0.  1.
          1   -1    0    0  501    0 -0.00000000000E+00 -0.00000000000E+00 -0.10693355514E+03  0.10693355514E+03  0.00000000000E+00 0.  1.
          2    1    1    2  501    0  0.38519792649E+02 -0.55148990371E+02  0.22992914417E+03  0.23956752056E+03  0.00000000000E+00 0.  1.
          1    1    1    2  502    0 -0.38519792649E+02  0.55148990371E+02 -0.91035647812E+02  0.11319308608E+03  0.00000000000E+00 0.  1.
</event>
<event>
 4    1  0.3555026E+003  0.3201327E+02  0.7546771E-02  0.1402872E+00
          2   -1    0    0  502    0  0.00000000000E+00  0.00000000000E+00  0.19952730905E+03  0.19952730905E+03  0.00000000000E+00 0. -1.
          1   -1    0    0  501    0 -0.00000000000E+00 -0.00000000000E+00 -0.18201245033E+02  0.18201245033E+02  0.00000000000E+00 0. -1.
          2    1    1    2  501    0  0.23295698080E+02 -0.21958145176E+02  0.18289621030E+03  0.18567679831E+03  0.00000000000E+00 0. -1.
          1    1    1    2  502    0 -0.23295698080E+02  0.21958145176E+02 -0.15701462863E+01  0.32051755770E+02  0.00000000000E+00 0. -1.
</event>
<event>
 4    1  0.3555026E+003  0.2712323E+02  0.7546771E-02  0.1446374E+00
          2   -1    0    0  502    0  0.00000000000E+00  0.00000000000E+00  0.10175980136E+03  0.10175980136E+03  0.00000000000E+00 0.  1.
          1   -1    0    0  501    0 -0.00000000000E+00 -0.00000000000E+00 -0.25617038401E+02  0.25617038401E+02  0.00000000000E+00 0. -1.
          2    1    1    2  501    0  0.24719921511E+02  0.11162222026E+02  0.92029665716E+02  0.95943363981E+02  0.00000000000E+00 0.  1.
          1    1    1    2  502    0 -0.24719921511E+02 -0.11162222026E+02 -0.15886902761E+02  0.31433475777E+02  0.00000000000E+00 0. -1.
</event>
<event>
 4    1  0.3555026E+003  0.2608374E+02  0.7546771E-02  0.1457036E+00
          2   -1    0    0  502    0  0.00000000000E+00  0.00000000000E+00  0.77032046220E+03  0.77032046220E+03  0.00000000000E+00 0. -1.
          1   -1    0    0  501    0 -0.00000000000E+00 -0.00000000000E+00 -0.13635810375E+02  0.13635810375E+02  0.00000000000E+00 0. -1.
          2    1    1    2  501    0  0.22730272096E+02 -0.12794385962E+02  0.75741335217E+03  0.75786235401E+03  0.00000000000E+00 0. -1.
          1    1    1    2  502    0 -0.22730272096E+02  0.12794385962E+02 -0.72870034789E+00  0.26093918561E+02  0.00000000000E+00 0. -1.
</event>
<event>
 4    1  0.3555026E+003  0.2242451E+02  0.7546771E-02  0.1499854E+00
          2   -1    0    0  502    0  0.00000000000E+00  0.00000000000E+00  0.51587430851E+03  0.51587430851E+03  0.00000000000E+00 0.  1.
          1   -1    0    0  501    0 -0.00000000000E+00 -0.00000000000E+00 -0.73306623520E+02  0.73306623520E+02  0.00000000000E+00 0.  1.
          2    1    1    2  501    0  0.20762734727E+02 -0.84715720776E+01  0.51390914584E+03  0.51439816180E+03  0.00000000000E+00 0.  1.
          1    1    1    2  502    0 -0.20762734727E+02  0.84715720776E+01 -0.71341460850E+02  0.74782770229E+02  0.00000000000E+00 0.  1.
</event>
<event>
 4    1  0.3555026E+003  0.4210810E+02  0.7546771E-02  0.1336556E+00
          2   -1    0    0  502    0  0.00000000000E+00  0.00000000000E+00  0.36018622278E+02  0.36018622278E+02  0.00000000000E+00 0.  1.
          1   -1    0    0  501    0 -0.00000000000E+00 -0.00000000000E+00 -0.11402399572E+03  0.11402399572E+03  0.00000000000E+00 0. -1.
          2    1    1    2  501    0  0.30363434485E+02 -0.29174546214E+02  0.17551350288E+02  0.45619537453E+02  0.00000000000E+00 0.  1.
          1    1    1    2  502    0 -0.30363434485E+02  0.29174546214E+02 -0.95556723731E+02  0.10442308055E+03  0.00000000000E+00 0. -1.
</event>
<event>
 4    1  0.3555026E+003  0.4913499E+02  0.7546771E-02  0.1301967E+00
          2   -1    0    0  502    0  0.00000000000E+00  0.00000000000E+00  0.56047622831E+03  0.56047622831E+03  0.00000000000E+00 0. -1.
          1   -1    0    0  501    0 -0.00000000000E+00 -0.00000000000E+00 -0.55352718389E+02  0.55352718389E+02  0.00000000000E+00 0.  1.
          2    1    1    2  501    0 -0.27597951373E+02 -0.40652192668E+02  0.54825281012E+03  0.55045017167E+03  0.00000000000E+00 0. -1.
          1    1    1    2  502    0  0.27597951373E+02  0.40652192668E+02 -0.43129300199E+02  0.65378775029E+02  0.00000000000E+00 0.  1.
</event>
<event>
 4    1  0.3555026E+003  0.2414903E+02  0.7546771E-02  0.1478553E+00
          2   -1    0    0  502    0  0.00000000000E+00  0.00000000000E+00  0.45903762293E+01  0.45903762293E+01  0.00000000000E+00 0.  1.
          1   -1    0    0  501    0 -0.00000000000E+00 -0.00000000000E+00 -0.82962331265E+03  0.82962331265E+03  0.00000000000E+00 0. -1.
          2    1    1    2  501    0  0.15692676036E+01  0.24097987557E+02 -0.28672428557E+02  0.37487114646E+02  0.00000000000E+00 0.  1.
          1    1    1    2  502    0 -0.15692676036E+01 -0.24097987557E+02 -0.79636050786E+03  0.79672657423E+03  0.00000000000E+00 0. -1.
</event>
<event>
 4    1  0.3555026E+003  0.5233025E+02  0.7546771E-02  0.1288374E+00
          2   -1    0    0  502    0  0.00000000000E+00  0.00000000000E+00  0.56821346068E+01  0.56821346068E+01  0.00000000000E+00 0. -1.
          1   -1    0    0  501    0 -0.00000000000E+00 -0.00000000000E+00 -0.54777498025E+03  0.54777498025E+03  0.00000000000E+00 0. -1.
          2    1    1    2  501    0 -0.13829401476E+02 -0.50469797522E+02 -0.36698171884E+03  0.37069399074E+03  0.00000000000E+00 0. -1.
          1    1    1    2  502    0  0.13829401476E+02  0.50469797522E+02 -0.17511112680E+03  0.18276312412E+03  0.00000000000E+00 0. -1.
</event>
<event>
 4    1  0.3555026E+003  0.2357558E+02  0.7546771E-02  0.1485394E+00
          2   -1    0    0  502    0  0.00000000000E+00  0.00000000000E+00  0.66248017359E+03  0.66248017359E+03  0.00000000000E+00 0. -1.
          1   -1    0    0  501    0 -0.00000000000E+00 -0.00000000000E+00 -0.29342661655E+03  0.29342661655E+03  0.00000000000E+00 0. -1.
          2    1    1    2  501    0  0.22123662500E+02  0.81456485524E+01  0.66179638987E+03  0.66221618047E+03  0.00000000000E+00 0. -1.
          1    1    1    2  502    0 -0.22123662500E+02 -0.81456485524E+01 -0.29274283283E+03  0.29369060966E+03  0.00000000000E+00 0. -1.
</event>
<event>
 4    1  0.3555026E+003  0.2319456E+02  0.7546771E-02  0.1490069E+00
          2   -1    0    0  502    0  0.00000000000E+00  0.00000000000E+00  0.13104877606E+03  0.13104877606E+03  0.00000000000E+00 0. -1.
          1   -1    0    0  501    0 -0.00000000000E+00 -0.00000000000E+00 -0.26045758895E+02  0.26045758895E+02  0.00000000000E+00 0.  1.
          2    1    1    2  501    0 -0.13739838771E+02  0.18687007594E+02  0.12459332437E+03  0.12673390982E+03  0.00000000000E+00 0. -1.
          1    1    1    2  502    0  0.13739838771E+02 -0.18687007594E+02 -0.19590307200E+02  0.30360625133E+02  0.00000000000E+00 0.  1.
</event>
<event>
 4    1  0.3555026E+003  0.2471490E+02  0.7546771E-02  0.1472018E+00
          2   -1    0    0  502    0  0.00000000000E+00  0.00000000000E+00  0.50327827564E+01  0.50327827564E+01  0.00000000000E+00 0. -1.
          1   -1    0    0  501    0 -0.00000000000E+00 -0.00000000000E+00 -0.43342783069E+03  0.43342783069E+03  0.00000000000E+00 0. -1.
          2    1    1    2  501    0  0.12002888655E+01  0.24685736605E+02 -0.28177330975E+02  0.37480505146E+02  0.00000000000E+00 0. -1.
          1    1    1    2  502    0 -0.12002888655E+01 -0.24685736605E+02 -0.40021771696E+03  0.40098010830E+03  0.00000000000E+00 0. -1.
</event>
<event>
 4    1  0.3555026E+003  0.2713667E+02  0.7546771E-02  0.1446240E+00
          2   -1    0    0  502    0  0.00000000000E+00  0.00000000000E+00  0.72813723670E+03  0.72813723670E+03  0.00000000000E+00 0.  1.
          1   -1    0    0  501    0 -0.00000000000E+00 -0.00000000000E+00 -0.17768927348E+01  0.17768927348E+01  0.00000000000E+00 0.  1.
          2    1    1    2  501    0  0.22214664287E+02 -0.15585489939E+02  0.60273061316E+03  0.60334118941E+03  0.00000000000E+00 0.  1.
          1    1    1    2  502    0 -0.22214664287E+02  0.15585489939E+02  0.12362973081E+03  0.12657294003E+03  0.00000000000E+00 0.  1.
</event>
<event>
 4    1  0.3555026E+003  0.2706578E+02  0.7546771E-02  0.1446948E+00
          2   -1    0    0  502    0  0.00000000000E+00  0.00000000000E+00  0.18516320768E+02  0.18516320768E+02  0.00000000000E+00 0. -1.
          1   -1    0    0  501    0 -0.00000000000E+00 -0.00000000000E+00 -0.40817143133E+02  0.40817143133E+02  0.00000000000E+00 0.  1.
          2    1    1    2  501    0 -0.25093849165E+02 -0.10141754638E+02 -0.59496569906E+01  0.27711998689E+02  0.00000000000E+00 0. -1.
          1    1    1    2  502    0  0.25093849165E+02  0.10141754638E+02 -0.16351165374E+02  0.31621465212E+02  0.00000000000E+00 0.  1.
</event>
<event>
 4    1  0.3555026E+003  0.4507912E+02  0.7546771E-02  0.1321044E+00
          2   -1    0    0  502    0  0.00000000000E+00  0.00000000000E+00  0.42218520027E+02  0.42218520027E+02  0.00000000000E+00 0. -1.
          1   -1    0    0  501    0 -0.00000000000E+00 -0.00000000000E+00 -0.16885529332E+04  0.16885529332E+04  0.00000000000E+00 0. -1.
          2    1    1    2  501    0 -0.44755603394E+02  0.53909923679E+01  0.29795091849E+02  0.54035861538E+02  0.00000000000E+00 0. -1.
          1    1    1    2  502    0  0.44755603394E+02 -0.53909923679E+01 -0.16761295051E+04  0.16767355917E+04  0.00000000000E+00 0. -1.
</event>
<event>
 4    1  0.3555026E+003  0.2237487E+02  0.7546771E-02  0.1500501E+00
          2   -1    0    0  502    0  0.00000000000E+00  0.00000000000E+00  0.96537086119E+03  0.96537086119E+03  0.00000000000E+00 0. -1.
          1   -1    0    0  501    0 -0.00000000000E+00 -0.00000000000E+00 -0.11188274952E+01  0.11188274952E+01  0.00000000000E+00 0.  1.
          2    1    1    2  501    0 -0.22038641538E+02  0.38643174063E+01  0.83607942808E+03  0.83637876870E+03  0.00000000000E+00 0. -1.
          1    1    1    2  502    0  0.22038641538E+02 -0.38643174063E+01  0.12817260561E+03  0.13011091998E+03  0.00000000000E+00 0.  1.
</event>
<event>
 4    1  0.3555026E+003  0.2063122E+02  0.7546771E-02  0.1524596E+00
          2   -1    0    0  502    0  0.00000000000E+00  0.00000000000E+00  0.62085603812E+03  0.62085603812E+03  0.00000000000E+00 0.  1.
          1   -1    0    0  501    0 -0.00000000000E+00 -0.00000000000E+00 -0.17145409453E+02  0.17145409453E+02  0.00000000000E+00 0. -1.
          2    1    1    2  501    0 -0.14394230371E+02  0.14780171329E+02  0.61441314600E+03  0.61475943369E+03  0.00000000000E+00 0.  1.
          1    1    1    2  502    0  0.14394230371E+02 -0.14780171329E+02 -0.10702517328E+02  0.23242013889E+02  0.00000000000E+00 0. -1.
</event>
<event>
 4    1  0.3555026E+003  0.5752017E+02  0.7546771E-02  0.1268499E+00
          2   -1    0    0  502    0  0.00000000000E+00  0.00000000000E+00  0.98171024889E+02  0.98171024889E+02  0.00000000000E+00 0. -1.
          1   -1    0    0  501    0 -0.00000000000E+00 -0.00000000000E+00 -0.42342571649E+02  0.42342571649E+02  0.00000000000E+00 0. -1.
          2    1    1    2  501    0 -0.37473155081E+02 -0.43638657822E+02  0.59651413951E+02  0.82866525175E+02  0.00000000000E+00 0. -1.
          1    1    1    2  502    0  0.37473155081E+02  0.43638657822E+02 -0.38229607101E+01  0.57647071364E+02  0.00000000000E+00 0. -1.
</event>
<event>
 4    1  0.3555026E+003  0.2524855E+02  0.7546771E-02  0.1466042E+00
          2   -1    0    0  502    0  0.00000000000E+00  0.00000000000E+00  0.11656812409E+04  0.11656812409E+04  0.00000000000E+00 0.  1.
          1   -1    0    0  501    0 -0.00000000000E+00 -0.00000000000E+00 -0.21422680609E+02  0.21422680609E+02  0.00000000000E+00 0.  1.
          2    1    1    2  501    0  0.13388884081E+02 -0.21406234547E+02  0.11580561243E+04  0.11583313327E+04  0.00000000000E+00 0.  1.
          1    1    1    2  502    0 -0.13388884081E+02  0.21406234547E+02 -0.13797564062E+02  0.28772588839E+02  0.00000000000E+00 0.  1.
</event>
<event>
 4    1  0.3555026E+003  0.2554129E+02  0.7546771E-02  0.1462838E+00
          2   -1    0    0  502    0  0.00000000000E+00  0.00000000000E+00  0.42045012470E+03  0.42045012470E+03  0.00000000000E+00 0.  1.
          1   -1    0    0  501    0 -0.00000000000E+00 -0.00000000000E+00 -0.32788036492E+01  0.32788036492E+01  0.00000000000E+00 0.  1.
          2    1    1    2  501    0 -0.20162036601E+02  0.15679590600E+02  0.36235725382E+03  0.36325629613E+03  0.00000000000E+00 0.  1.
          1    1    1    2  502    0  0.20162036601E+02 -0.15679590600E+02  0.54814067233E+02  0.60472632223E+02  0.00000000000E+00 0.  1.
</event>
<event>
 4    1  0.3555026E+003  0.2272812E+02  0.7546771E-02  0.1495941E+00
          2   -1    0    0  502    0  0.00000000000E+00  0.00000000000E+00  0.25977324887E+03  0.25977324887E+03  0.00000000000E+00 0. -1.
          1   -1    0    0  501    0 -0.00000000000E+00 -0.00000000000E+00 -0.24474389189E+03  0.24474389189E+03  0.00000000000E+00 0.  1.
          2    1    1    2  501    0 -0.15699447950E+01  0.22673830463E+02  0.25874636478E+03  0.25974265841E+03  0.00000000000E+00 0. -1.
          1    1    1    2  502    0  0.15699447950E+01 -0.22673830463E+02 -0.24371700780E+03  0.24477448235E+03  0.00000000000E+00 0.  1.
</event>
<event>
 4    1  0.3555026E+003  0.2438460E+02  0.7546771E-02  0.1475807E+00
          2   -1    0    0  502    0  0.00000000000E+00  0.00000000000E+00  0.27897321649E+02  0.27897321649E+02  0.00000000000E+00 0. -1.
          1   -1    0    0  501    0 -0.00000000000E+00 -0.00000000000E+00 -0.12583994997E+04  0.12583994997E+04  0.00000000000E+00 0. -1.
          2    1    1    2  501    0  0.88621873640E+01 -0.22717186533E+02  0.22427384369E+02  0.33129993941E+02  0.00000000000E+00 0. -1.
          1    1    1    2  502    0 -0.88621873640E+01  0.22717186533E+02 -0.12529295624E+04  0.12531668274E+04  0.00000000000E+00 0. -1.
</event>
<event>
 4    1  0.3555026E+003  0.2525646E+02  0.7546771E-02  0.1465955E+00
          2   -1    0    0  502    0  0.00000000000E+00  0.00000000000E+00  0.34205576677E+01  0.34205576677E+01  0.00000000000E+00 0.  1.
          1   -1    0    0  501    0 -0.00000000000E+00 -0.00000000000E+00 -0.41533186606E+03  0.41533186606E+03  0.00000000000E+00 0. -1.
          2    1    1    2  501    0  0.17007524265E+02 -0.18671707604E+02 -0.50537919949E+02  0.56497521178E+02  0.00000000000E+00 0.  1.
          1    1    1    2  502    0 -0.17007524265E+02  0.18671707604E+02 -0.36137338844E+03  0.36225490255E+03  0.00000000000E+00 0. -1.
</event>
<event>
 4    1  0.3555026E+003  0.3038687E+02  0.7546771E-02  0.1416264E+00
          2   -1    0    0  502    0  0.00000000000E+00  0.00000000000E+00  0.53948547657E+03  0.53948547657E+03  0.00000000000E+00 0. -1.
          1   -1    0    0  501    0 -0.00000000000E+00 -0.00000000000E+00 -0.17933534657E+01  0.17933534657E+01  0.00000000000E+00 0.  1.
          2    1    1    2  501    0 -0.23762024824E+02 -0.18940118278E+02  0.32664457983E+03  0.32805493966E+03  0.00000000000E+00 0. -1.
          1    1    1    2  502    0  0.23762024824E+02  0.18940118278E+02  0.21104754328E+03  0.21322389038E+03  0.00000000000E+00 0.  1.
</event>
<event>
 4    1  0.3555026E+003  0.3229324E+02  0.7546771E-02  0.1400661E+00
          2   -1    0    0  502    0  0.00000000000E+00  0.00000000000E+00  0.64386091374E+03  0.64386091374E+03  0.00000000000E+00 0.  1.
          1   -1    0    0  501    0 -0.00000000000E+00 -0.00000000000E+00 -0.16336500655E+01  0.16336500655E+01  0.00000000000E+00 0.  1.
          2    1    1    2  501    0 -0.32253976426E+02  0.15919093306E+01  0.35095185860E+03  0.35243447650E+03  0.00000000000E+00 0.  1.
          1    1    1    2  502    0  0.32253976426E+02 -0.15919093306E+01  0.29127540508E+03  0.29306008731E+03  0.00000000000E+00 0.  1.
</event>
<event>
 4    1  0.3555026E+003  0.2283930E+02  0.7546771E-02  0.1494526E+00
          2   -1    0    0  502    0  0.00000000000E+00  0.00000000000E+00  0.29541265590E+01  0.29541265590E+01  0.00000000000E+00 0. -1.
          1   -1    0    0  501    0 -0.00000000000E+00 -0.00000000000E+00 -0.48938419943E+03  0.48938419943E+03  0.00000000000E+00 0. -1.
          2    1    1    2  501    0 -0.30685275245E+01  0.22632225594E+02 -0.46405374673E+02  0.51721294406E+02  0.00000000000E+00 0. -1.
          1    1    1    2  502    0  0.30685275245E+01 -0.22632225594E+02 -0.44002469820E+03  0.44061703158E+03  0.00000000000E+00 0. -1.
</event>
<event>
 4    1  0.3555026E+003  0.2963707E+02  0.7546771E-02  0.1422777E+00
          2   -1    0    0  502    0  0.00000000000E+00  0.00000000000E+00  0.18320304849E+03  0.18320304849E+03  0.00000000000E+00 0. -1.
          1   -1    0    0  501    0 -0.00000000000E+00 -0.00000000000E+00 -0.10585055731E+02  0.10585055731E+02  0.00000000000E+00 0. -1.
          2    1    1    2  501    0  0.27311537422E+02 -0.11508076247E+02  0.15797495974E+03  0.16073096715E+03  0.00000000000E+00 0. -1.
          1    1    1    2  502    0 -0.27311537422E+02  0.11508076247E+02  0.14643033012E+02  0.33057137066E+02  0.00000000000E+00 0. -1.
</event>
<event>
 4    1  0.3555026E+003  0.2989158E+02  0.7546771E-02  0.1420541E+00
          2   -1    0    0  502    0  0.00000000000E+00  0.00000000000E+00  0.76745318941E+03  0.76745318941E+03  0.00000000000E+00 0.  1.
          1   -1    0    0  501    0 -0.00000000000E+00 -0.00000000000E+00 -0.66986182920E+01  0.66986182920E+01  0.00000000000E+00 0. -1.
          2    1    1    2  501    0  0.17071170561E+02  0.24537349144E+02  0.73221111948E+03  0.73282100806E+03  0.00000000000E+00 0.  1.
          1    1    1    2  502    0 -0.17071170561E+02 -0.24537349144E+02  0.28543451636E+02  0.41330799637E+02  0.00000000000E+00 0. -1.
</event>
<event>
 4    1  0.3555026E+003  0.2479056E+02  0.7546771E-02  0.1471160E+00
          2   -1    0    0  502    0  0.00000000000E+00  0.00000000000E+00  0.77218449604E+01  0.77218449604E+01  0.00000000000E+00 0. -1.
          1   -1    0    0  501    0 -0.00000000000E+00 -0.00000000000E+00 -0.30849404086E+03  0.30849404086E+03  0.00000000000E+00 0. -1.
          2    1    1    2  501    0 -0.24641697393E+02  0.27126479728E+01 -0.14192012306E+02  0.28565449808E+02  0.00000000000E+00 0. -1.
          1    1    1    2  502    0  0.24641697393E+02 -0.27126479728E+01 -0.28658018360E+03  0.28765043601E+03  0.00000000000E+00 0. -1.
</event>
<event>
 4    1  0.3555026E+003  0.2082722E+02  0.7546771E-02  0.1521746E+00
          2   -1    0    0  502    0  0.00000000000E+00  0.00000000000E+00  0.34380330159E+03  0.34380330159E+03  0.00000000000E+00 0.  1.
          1   -1    0    0  501    0 -0.00000000000E+00 -0.00000000000E+00 -0.29607809818E+01  0.29607809818E+01  0.00000000000E+00 0. -1.
          2    1    1    2  501    0  0.74625937524E+01  0.19444356256E+02  0.30176496072E+03  0.30248283391E+03  0.00000000000E+00 0.  1.
          1    1    1    2  502    0 -0.74625937524E+01 -0.19444356256E+02  0.39077559892E+02  0.44281248660E+02  0.00000000000E+00 0. -1.
</event>
<event>
 4    1  0.3555026E+003  0.2724779E+02  0.7546771E-02  0.1445135E+00
          2   -1    0    0  502    0  0.00000000000E+00  0.00000000000E+00  0.13870148349E+02  0.13870148349E+02  0.00000000000E+00 0.  1.
          1   -1    0    0  501    0 -0.00000000000E+00 -0.00000000000E+00 -0.10207010583E+03  0.10207010583E+03  0.00000000000E+00 0.  1.
          2    1    1    2  501    0  0.27003005200E+02 -0.36441264358E+01 -0.41226227195E+01  0.27557902050E+02  0.00000000000E+00 0.  1.
          1    1    1    2  502    0 -0.27003005200E+02  0.36441264358E+01 -0.84077334758E+02  0.88382352126E+02  0.00000000000E+00 0.  1.
</event>
<event>
 4    1  0.3555026E+003  0.3905151E+02  0.7546771E-02  0.1354135E+00
          2   -1    0    0  502    0  0.00000000000E+00  0.00000000000E+00  0.52298093390E+03  0.52298093390E+03  0.00000000000E+00 0.  1.
          1   -1    0    0  501    0 -0.00000000000E+00 -0.00000000000E+00 -0.29357169950E+02  0.29357169950E+02  0.00000000000E+00 0. -1.
          2    1    1    2  501    0  0.38933327010E+02 -0.30358864584E+01  0.50890651100E+03  0.51040264253E+03  0.00000000000E+00 0.  1.
          1    1    1    2  502    0 -0.38933327010E+02  0.30358864584E+01 -0.15282747054E+02  0.41935461321E+02  0.00000000000E+00 0. -1.
</event>
<event>
 4    1  0.3555026E+003  0.2040892E+02  0.7546771E-02  0.1527874E+00
          2   -1    0    0  502    0  0.00000000000E+00  0.00000000000E+00  0.82610472485E+02  0.82610472485E+02  0.00000000000E+00 0.  1.
          1   -1    0    0  501    0 -0.00000000000E+00 -0.00000000000E+00 -0.23503112834E+02  0.23503112834E+02  0.00000000000E+00 0.  1.
          2    1    1    2  501    0 -0.77147831443E+01  0.18894607303E+02  0.76576312975E+02  0.79249326640E+02  0.00000000000E+00 0.  1.
          1    1    1    2  502    0  0.77147831443E+01 -0.18894607303E+02 -0.17468953324E+02  0.26864258679E+02  0.00000000000E+00 0.  1.
</event>
<event>
 4    1  0.3555026E+003  0.2864548E+02  0.7546771E-02  0.1431744E+00
          2   -1    0    0  502    0  0.00000000000E+00  0.00000000000E+00  0.18505926133E+04  0.18505926133E+04  0.00000000000E+00 0.  1.
          1   -1    0    0  501    0 -0.00000000000E+00 -0.00000000000E+00 -0.37448110936E+02  0.37448110936E+02  0.00000000000E+00 0.  1.
          2    1    1    2  501    0  0.16107107999E+02 -0.23688070957E+02  0.18449871153E+04  0.18452094784E+04  0.00000000000E+00 0.  1.
          1    1    1    2  502    0 -0.16107107999E+02  0.23688070957E+02 -0.31842612840E+02  0.42831245911E+02  0.00000000000E+00 0.  1.
</event>
<event>
 4    1  0.3555026E+003  0.2575061E+02  0.7546771E-02  0.1460579E+00
          2   -1    0    0  502    0  0.00000000000E+00  0.00000000000E+00  0.14470800260E+03  0.14470800260E+03  0.00000000000E+00 0. -1.
          1   -1    0    0  501    0 -0.00000000000E+00 -0.00000000000E+00 -0.18104761884E+04  0.18104761884E+04  0.00000000000E+00 0.  1.
          2    1    1    2  501    0  0.11625085331E+02  0.22977188193E+02  0.14347008329E+03  0.14576267899E+03  0.00000000000E+00 0. -1.
          1    1    1    2  502    0 -0.11625085331E+02 -0.22977188193E+02 -0.18092382691E+04  0.18094215120E+04  0.00000000000E+00 0.  1.
</event>
<event>
 4    1  0.3555026E+003  0.2017315E+02  0.7546771E-02  0.1531405E+00
          2   -1    0    0  502    0  0.00000000000E+00  0.00000000000E+00  0.11732165932E+02  0.11732165932E+02  0.00000000000E+00 0. -1.
          1   -1    0    0  501    0 -0.00000000000E+00 -0.00000000000E+00 -0.42526691291E+03  0.42526691291E+03  0.00000000000E+00 0. -1.
          2    1    1    2  501    0 -0.89986632691E+01 -0.18054916012E+02  0.26316114099E+01  0.20344073128E+02  0.00000000000E+00 0. -1.
          1    1    1    2  502    0  0.89986632691E+01  0.18054916012E+02 -0.41616635839E+03  0.41665500572E+03  0.00000000000E+00 0. -1.
</event>
<event>
 4    1  0.3555026E+003  0.4220380E+02  0.7546771E-02  0.1336034E+00
          2   -1    0    0  502    0  0.00000000000E+00  0.00000000000E+00  0.26173720903E+03  0.26173720903E+03  0.00000000000E+00 0.  1.
          1   -1    0    0  501    0 -0.00000000000E+00 -0.00000000000E+00 -0.34117915204E+02  0.34117915204E+02  0.00000000000E+00 0.  1.
          2    1    1    2  501    0  0.41828509216E+02  0.56157619042E+01  0.24616475073E+03  0.24975637223E+03  0.00000000000E+00 0.  1.
          1    1    1    2  502    0 -0.41828509216E+02 -0.56157619042E+01 -0.18545456904E+02  0.46098752009E+02  0.00000000000E+00 0.  1.
</event>
<event>
 4    1  0.3555026E+003  0.2075639E+02  0.7546771E-02  0.1522772E+00
          2   -1    0    0  502    0  0.00000000000E+00  0.00000000000E+00  0.57193200379E+03  0.57193200379E+03  0.00000000000E+00 0.  1.
          1   -1    0    0  501    0 -0.00000000000E+00 -0.00000000000E+00 -0.24572022940E+01  0.24572022940E+01  0.00000000000E+00 0.  1.
          2    1    1    2  501    0  0.20383423393E+02 -0.39171256429E+01  0.52389273311E+03  0.52430375130E+03  0.00000000000E+00 0.  1.
          1    1    1    2  502    0 -0.20383423393E+02  0.39171256429E+01  0.45582068387E+02  0.50085454784E+02  0.00000000000E+00 0.  1.
</event>
<event>
 4    1  0.3555026E+003  0.2838320E+02  0.7546771E-02  0.1434187E+00
          2   -1    0    0  502    0  0.00000000000E+00  0.00000000000E+00  0.51087473465E+02  0.51087473465E+02  0.00000000000E+00 0. -1.
          1   -1    0    0  501    0 -0.00000000000E+00 -0.00000000000E+00 -0.72969849020E+03  0.72969849020E+03  0.00000000000E+00 0. -1.
          2    1    1    2  501    0  0.19533834011E+02  0.20592113239E+02  0.46846141237E+02  0.54773777920E+02  0.00000000000E+00 0. -1.
          1    1    1    2  502    0 -0.19533834011E+02 -0.20592113239E+02 -0.72545715797E+03  0.72601218575E+03  0.00000000000E+00 0. -1.
</event>
<event>
 4    1  0.3555026E+003  0.2096710E+02  0.7546771E-02  0.1519735E+00
          2   -1    0    0  502    0  0.00000000000E+00  0.00000000000E+00  0.34851684083E+02  0.34851684083E+02  0.00000000000E+00 0. -1.
          1   -1    0    0  501    0 -0.00000000000E+00 -0.00000000000E+00 -0.26411801833E+03  0.26411801833E+03  0.00000000000E+00 0. -1.
          2    1    1    2  501    0 -0.19519643214E+02  0.76552415029E+01  0.31238394165E+02  0.37622552594E+02  0.00000000000E+00 0. -1.
          1    1    1    2  502    0  0.19519643214E+02 -0.76552415029E+01 -0.26050472841E+03  0.26134714982E+03  0.00000000000E+00 0. -1.
</event>
<event>
 4    1  0.3555026E+003  0.2508754E+02  0.7546771E-02  0.1467826E+00
          2   -1    0    0  502    0  0.00000000000E+00  0.00000000000E+00  0.43958100651E+03  0.43958100651E+03  0.00000000000E+00 0. -1.
          1   -1    0    0  501    0 -0.00000000000E+00 -0.00000000000E+00 -0.29353755277E+03  0.29353755277E+03  0.00000000000E+00 0. -1.
          2    1    1    2  501    0  0.17411424424E+02 -0.18061760165E+02  0.43868593342E+03  0.43940270033E+03  0.00000000000E+00 0. -1.
          1    1    1    2  502    0 -0.17411424424E+02  0.18061760165E+02 -0.29264247968E+03  0.29371585895E+03  0.00000000000E+00 0. -1.
</event>
<event>
 4    1  0.3555026E+003  0.2675972E+02  0.7546771E-02  0.1450037E+00
          2   -1    0    0  502    0  0.00000000000E+00  0.00000000000E+00  0.11032447992E+04  0.11032447992E+04  0.00000000000E+00 0.  1.
          1   -1    0    0  501    0 -0.00000000000E+00 -0.00000000000E+00 -0.44855100113E+01  0.44855100113E+01  0.00000000000E+00 0.  1.
          2    1    1    2  501    0 -0.90413139403E+01 -0.25186055755E+02  0.10616065083E+04  0.10619437185E+04  0.00000000000E+00 0.  1.
          1    1    1    2  502    0  0.90413139403E+01  0.25186055755E+02  0.37152780865E+02  0.45786590704E+02  0.00000000000E+00 0.  1.
</event>
<event>
 4    1  0.3555026E+003  0.2932825E+02  0.7546771E-02  0.1425525E+00
          2   -1    0    0  502    0  0.00000000000E+00  0.00000000000E+00  0.78928788632E+02  0.78928788632E+02  0.00000000000E+00 0. -1.
          1   -1    0    0  501    0 -0.00000000000E+00 -0.00000000000E+00 -0.32240346354E+02  0.32240346354E+02  0.00000000000E+00 0.  1.
          2    1    1    2  501    0 -0.26344100316E+02 -0.12889319621E+02  0.68569162240E+02  0.74577987315E+02  0.00000000000E+00 0. -1.
          1    1    1    2  502    0  0.26344100316E+02  0.12889319621E+02 -0.21880719962E+02  0.36591147670E+02  0.00000000000E+00 0.  1.
</event>
<event>
 4    1  0.3555026E+003  0.2442481E+02  0.7546771E-02  0.1475342E+00
          2   -1    0    0  502    0  0.00000000000E+00  0.00000000000E+00  0.41618781795E+02  0.41618781795E+02  0.00000000000E+00 0.  1.
          1   -1    0    0  501    0 -0.00000000000E+00 -0.00000000000E+00 -0.21568987405E+02  0.21568987405E+02  0.00000000000E+00 0. -1.
          2    1    1    2  501    0  0.24076634914E+02 -0.41093746086E+01  0.28322807438E+02  0.37399902802E+02  0.00000000000E+00 0.  1.
          1    1    1    2  502    0 -0.24076634914E+02  0.41093746086E+01 -0.82730130478E+01  0.25787866398E+02  0.00000000000E+00 0. -1.
</event>
<event>
 4    1  0.3555026E+003  0.4721141E+02  0.7546771E-02  0.1310738E+00
          2   -1    0    0  502    0  0.00000000000E+00  0.00000000000E+00  0.12723511167E+04  0.12723511167E+04  0.00000000000E+00 0.  1.
          1   -1    0    0  501    0 -0.00000000000E+00 -0.00000000000E+00 -0.17559243495E+01  0.17559243495E+01  0.00000000000E+00 0.  1.
          2    1    1    2  501    0  0.35120485754E+01  0.47080573803E+02  0.60445314273E+03  0.60629408431E+03  0.00000000000E+00 0.  1.
          1    1    1    2  502    0 -0.35120485754E+01 -0.47080573803E+02  0.66614204967E+03  0.66781295678E+03  0.00000000000E+00 0.  1.
</event>
<event>
 4    1  0.3555026E+003  0.3326770E+02  0.7546771E-02  0.1393169E+00
          2   -1    0    0  502    0  0.00000000000E+00  0.00000000000E+00  0.35371652174E+02  0.35371652174E+02  0.00000000000E+00 0.  1.
          1   -1    0    0  501    0 -0.00000000000E+00 -0.00000000000E+00 -0.31872849176E+02  0.31872849176E+02  0.00000000000E+00 0.  1.
          2    1    1    2  501    0  0.84606813824E+01  0.32173834780E+02 -0.28017120854E+01  0.33385451390E+02  0.00000000000E+00 0.  1.
          1    1    1    2  502    0 -0.84606813824E+01 -0.32173834780E+02  0.63005150842E+01  0.33859049960E+02  0.00000000000E+00 0.  1.
</event>
<event>
 4    1  0.3555026E+003  0.7917888E+02  0.7546771E-02  0.1205767E+00
          2   -1    0    0  502    0  0.00000000000E+00  0.00000000000E+00  0.28346158779E+04  0.28346158779E+04  0.00000000000E+00 0. -1.
          1   -1    0    0  501    0 -0.00000000000E+00 -0.00000000000E+00 -0.22145486833E+01  0.22145486833E+01  0.00000000000E+00 0. -1.
          2    1    1    2  501    0  0.43402793363E+02 -0.66223003820E+02  0.13652299094E+04  0.13675240379E+04  0.00000000000E+00 0. -1.
          1    1    1    2  502    0 -0.43402793363E+02  0.66223003820E+02  0.14671714198E+04  0.14693063886E+04  0.00000000000E+00 0. -1.
</event>
<event>
 4    1  0.3555026E+003  0.2158618E+02  0.7546771E-02  0.1511058E+00
          2   -1    0    0  502    0  0.00000000000E+00  0.00000000000E+00  0.11717575992E+03  0.11717575992E+03  0.00000000000E+00 0. -1.
          1   -1    0    0  501    0 -0.00000000000E+00 -0.00000000000E+00 -0.13615864379E+03  0.13615864379E+03  0.00000000000E+00 0.  1.
          2    1    1    2  501    0  0.13053682044E+02  0.17191985817E+02  0.11531234792E+03  0.11731538933E+03  0.00000000000E+00 0. -1.
          1    1    1    2  502    0 -0.13053682044E+02 -0.17191985817E+02 -0.13429523179E+03  0.13601901438E+03  0.00000000000E+00 0.  1.
</event>
<event>
 4    1  0.3555026E+003  0.3744259E+02  0.7546771E-02  0.1364161E+00
          2   -1    0    0  502    0  0.00000000000E+00  0.00000000000E+00  0.19697040220E+04  0.19697040220E+04  0.00000000000E+00 0.  1.
          1   -1    0    0  501    0 -0.00000000000E+00 -0.00000000000E+00 -0.17902186482E+03  0.17902186482E+03  0.00000000000E+00 0. -1.
          2    1    1    2  501    0  0.35447182615E+02  0.12060049039E+02  0.19675661680E+04  0.19679224001E+04  0.00000000000E+00 0.  1.
          1    1    1    2  502    0 -0.35447182615E+02 -0.12060049039E+02 -0.17688401078E+03  0.18080348671E+03  0.00000000000E+00 0. -1.
</event>
<event>
 4    1  0.3555026E+003  0.2488537E+02  0.7546771E-02  0.1470090E+00
          2   -1    0    0  502    0  0.00000000000E+00  0.00000000000E+00  0.20681186013E+02  0.20681186013E+02  0.00000000000E+00 0. -1.
          1   -1    0    0  501    0 -0.00000000000E+00 -0.00000000000E+00 -0.22462013122E+03  0.22462013122E+03  0.00000000000E+00 0.  1.
          2    1    1    2  501    0  0.13065534458E+02 -0.21179555104E+02  0.12213584711E+02  0.27720991984E+02  0.00000000000E+00 0. -1.
          1    1    1    2  502    0 -0.13065534458E+02  0.21179555104E+02 -0.21615252992E+03  0.21758032525E+03  0.00000000000E+00 0.  1.
</event>
<event>
 4    1  0.3555026E+003  0.3089428E+02  0.7546771E-02  0.1411981E+00
          2   -1    0    0  502    0  0.00000000000E+00  0.00000000000E+00  0.22247491998E+03  0.22247491998E+03  0.00000000000E+00 0. -1.
          1   -1    0    0  501    0 -0.00000000000E+00 -0.00000000000E+00 -0.11710385845E+04  0.11710385845E+04  0.00000000000E+00 0.  1.
          2    1    1    2  501    0  0.29348107285E+02  0.96511881892E+01  0.22119744168E+03  0.22334449857E+03  0.00000000000E+00 0. -1.
          1    1    1    2  502    0 -0.29348107285E+02 -0.96511881892E+01 -0.11697611062E+04  0.11701690059E+04  0.00000000000E+00 0.  1.
</event>
<event>
 4    1  0.3555026E+003  0.3731449E+02  0.7546771E-02  0.1364984E+00
          2   -1    0    0  502    0  0.00000000000E+00  0.00000000000E+00  0.97713751651E+03  0.97713751651E+03  0.00000000000E+00 0.  1.
          1   -1    0    0  501    0 -0.00000000000E+00 -0.00000000000E+00 -0.40946590539E+01  0.40946590539E+01  0.00000000000E+00 0.  1.
          2    1    1    2  501    0 -0.26089493085E+02  0.26677886029E+02  0.88267625417E+03  0.88346462347E+03  0.00000000000E+00 0.  1.
          1    1    1    2  502    0  0.26089493085E+02 -0.26677886029E+02  0.90366603283E+02  0.97767552088E+02  0.00000000000E+00 0.  1.
</event>
<event>
 4    1  0.3555026E+003  0.2780784E+02  0.7546771E-02  0.1439658E+00
          2   -1    0    0  502    0  0.00000000000E+00  0.00000000000E+00  0.13123762589E+03  0.13123762589E+03  0.00000000000E+00 0.  1.
          1   -1    0    0  501    0 -0.00000000000E+00 -0.00000000000E+00 -0.16470012394E+02  0.16470012394E+02  0.00000000000E+00 0.  1.
          2    1    1    2  501    0 -0.58453531268E+01 -0.27186540656E+02  0.11657052617E+03  0.11984141069E+03  0.00000000000E+00 0.  1.
          1    1    1    2  502    0  0.58453531268E+01  0.27186540656E+02 -0.18029126708E+01  0.27866227591E+02  0.00000000000E+00 0.  1.
</event>
<event>
 4    1  0.3555026E+003  0.2982524E+02  0.7546771E-02  0.1421121E+00
          2   -1    0    0  502    0  0.00000000000E+00  0.00000000000E+00  0.42809536425E+03  0.42809536425E+03  0.00000000000E+00 0.  1.
          1   -1    0    0  501    0 -0.00000000000E+00 -0.00000000000E+00 -0.26633559259E+03  0.26633559259E+03  0.00000000000E+00 0. -1.
          2    1    1    2  501    0  0.29776825014E+02  0.16987358052E+01  0.42673824865E+03  0.42777923965E+03  0.00000000000E+00 0.  1.
          1    1    1    2  502    0 -0.29776825014E+02 -0.16987358052E+01 -0.26497847700E+03  0.26665171719E+03  0.00000000000E+00 0. -1.
</event>
<event>
 4    1  0.3555026E+003  0.2336504E+02  0.7546771E-02  0.1487964E+00
          2   -1    0    0  502    0  0.00000000000E+00  0.00000000000E+00  0.14890630937E+03  0.14890630937E+03  0.00000000000E+00 0. -1.
          1   -1    0    0  501    0 -0.00000000000E+00 -0.00000000000E+00 -0.70579842778E+03  0.70579842778E+03  0.00000000000E+00 0.  1.
          2    1    1    2  501    0  0.23323391400E+02  0.13945192972E+01  0.14779493440E+03  0.14963043776E+03  0.00000000000E+00 0. -1.
          1    1    1    2  502    0 -0.23323391400E+02 -0.13945192972E+01 -0.70468705281E+03  0.70507429939E+03  0.00000000000E+00 0.  1.
</event>
<event>
 4    1  0.3555026E+003  0.2235746E+02  0.7546771E-02  0.1500728E+00
          2   -1    0    0  502    0  0.00000000000E+00  0.00000000000E+00  0.11259176756E+04  0.11259176756E+04  0.00000000000E+00 0.  1.
          1   -1    0    0  501    0 -0.00000000000E+00 -0.00000000000E+00 -0.27904462576E+01  0.27904462576E+01  0.00000000000E+00 0. -1.
          2    1    1    2  501    0  0.89310614606E+01  0.20496150904E+02  0.10790802954E+04  0.10793118826E+04  0.00000000000E+00 0.  1.
          1    1    1    2  502    0 -0.89310614606E+01 -0.20496150904E+02  0.44046933976E+02  0.49396239264E+02  0.00000000000E+00 0. -1.
</event>
<event>
 4    1  0.3555026E+003  0.2062653E+02  0.7546771E-02  0.1524664E+00
          2   -1    0    0  502    0  0.00000000000E+00  0.00000000000E+00  0.12333074917E+03  0.12333074917E+03  0.00000000000E+00 0.  1.
          1   -1    0    0  501    0 -0.00000000000E+00 -0.00000000000E+00 -0.93354039817E+01  0.93354039817E+01  0.00000000000E+00 0. -1.
          2    1    1    2  501    0 -0.50407616025E+01  0.20001114522E+02  0.10966761674E+03  0.11159050149E+03  0.00000000000E+00 0.  1.
          1    1    1    2  502    0  0.50407616025E+01 -0.20001114522E+02  0.43277284458E+01  0.21075651667E+02  0.00000000000E+00 0. -1.
</event>
<event>
 4    1  0.3555026E+003  0.2696781E+02  0.7546771E-02  0.1447932E+00
          2   -1    0    0  502    0  0.00000000000E+00  0.00000000000E+00  0.38036346375E+02  0.38036346375E+02  0.00000000000E+00 0. -1.
          1   -1    0    0  501    0 -0.00000000000E+00 -0.00000000000E+00 -0.15165868991E+04  0.15165868991E+04  0.00000000000E+00 0.  1.
          2    1    1    2  501    0  0.76509170277E+01 -0.25859746815E+02  0.33120866355E+02  0.42711296220E+02  0.00000000000E+00 0. -1.
          1    1    1    2  502    0 -0.76509170277E+01  0.25859746815E+02 -0.15116714191E+04  0.15119119493E+04  0.00000000000E+00 0.  1.
</event>
<event>
 4    1  0.3555026E+003  0.2200189E+02  0.7546771E-02  0.1505427E+00
          2   -1    0    0  502    0  0.00000000000E+00  0.00000000000E+00  0.21507507360E+03  0.21507507360E+03  0.00000000000E+00 0. -1.
          1   -1    0    0  501    0 -0.00000000000E+00 -0.00000000000E+00 -0.20842793360E+02  0.20842793360E+02  0.00000000000E+00 0. -1.
          2    1    1    2  501    0  0.21998796468E+02  0.36921260231E+00  0.20852411168E+03  0.20968163610E+03  0.00000000000E+00 0. -1.
          1    1    1    2  502    0 -0.21998796468E+02 -0.36921260231E+00 -0.14291831441E+02  0.26236230864E+02  0.00000000000E+00 0. -1.
</event>
<event>
 4    1  0.3555026E+003  0.6887234E+02  0.7546771E-02  0.1232342E+00
          2   -1    0    0  502    0  0.00000000000E+00  0.00000000000E+00  0.78022286978E+02  0.78022286978E+02  0.00000000000E+00 0.  1.
          1   -1    0    0  501    0 -0.00000000000E+00 -0.00000000000E+00 -0.31895723551E+03  0.31895723551E+03  0.00000000000E+00 0.  1.
          2    1    1    2  501    0 -0.54571551985E+02  0.42016011084E+02  0.58106376686E+02  0.90109658112E+02  0.00000000000E+00 0.  1.
          1    1    1    2  502    0  0.54571551985E+02 -0.42016011084E+02 -0.29904132522E+03  0.30686986437E+03  0.00000000000E+00 0.  1.
</event>
<event>
 4    1  0.3555026E+003  0.1058557E+03  0.7546771E-02  0.1154030E+00
          2   -1    0    0  502    0  0.00000000000E+00  0.00000000000E+00  0.92197020618E+02  0.92197020618E+02  0.00000000000E+00 0. -1.
          1   -1    0    0  501    0 -0.00000000000E+00 -0.00000000000E+00 -0.16354464700E+04  0.16354464700E+04  0.00000000000E+00 0.  1.
          2    1    1    2  501    0 -0.85127993725E+02  0.62917878666E+02  0.59480065576E+02  0.12142204484E+03  0.00000000000E+00 0. -1.
          1    1    1    2  502    0  0.85127993725E+02 -0.62917878666E+02 -0.16027295150E+04  0.16062214458E+04  0.00000000000E+00 0.  1.
</event>
<event>
 4    1  0.3555026E+003  0.2840819E+02  0.7546771E-02  0.1433953E+00
          2   -1    0    0  502    0  0.00000000000E+00  0.00000000000E+00  0.50684060611E+03  0.50684060611E+03  0.00000000000E+00 0.  1.
          1   -1    0    0  501    0 -0.00000000000E+00 -0.00000000000E+00 -0.31986280745E+02  0.31986280745E+02  0.00000000000E+00 0. -1.
          2    1    1    2  501    0 -0.25471736538E+02  0.12578385767E+02  0.50004935599E+03  0.50085565143E+03  0.00000000000E+00 0.  1.
          1    1    1    2  502    0  0.25471736538E+02 -0.12578385767E+02 -0.25195030626E+02  0.37971235416E+02  0.00000000000E+00 0. -1.
</event>
<event>
 4    1  0.3555026E+003  0.2346453E+02  0.7546771E-02  0.1486746E+00
          2   -1    0    0  502    0  0.00000000000E+00  0.00000000000E+00  0.93936720851E+00  0.93936720851E+00  0.00000000000E+00 0.  1.
          1   -1    0    0  501    0 -0.00000000000E+00 -0.00000000000E+00 -0.95266800000E+03  0.95266800000E+03  0.00000000000E+00 0.  1.
          2    1    1    2  501    0 -0.23454406157E+02 -0.68919015113E+00 -0.18010881912E+03  0.18163086433E+03  0.00000000000E+00 0.  1.
          1    1    1    2  502    0  0.23454406157E+02  0.68919015113E+00 -0.77161981367E+03  0.77197650288E+03  0.00000000000E+00 0.  1.
</event>
<event>
 4    1  0.3555026E+003  0.2427262E+02  0.7546771E-02  0.1477108E+00
          2   -1    0    0  502    0  0.00000000000E+00  0.00000000000E+00  0.34038570188E+03  0.34038570188E+03  0.00000000000E+00 0. -1.
          1   -1    0    0  501    0 -0.00000000000E+00 -0.00000000000E+00 -0.32954585104E+01  0.32954585104E+01  0.00000000000E+00 0.  1.
          2    1    1    2  501    0 -0.24272441839E+02  0.93542723934E-01  0.28694988831E+03  0.28797464920E+03  0.00000000000E+00 0. -1.
          1    1    1    2  502    0  0.24272441839E+02 -0.93542723934E-01  0.50140355060E+02  0.55706511187E+02  0.00000000000E+00 0.  1.
</event>
<event>
 4    1  0.3555026E+003  0.2288039E+02  0.7546771E-02  0.1494006E+00
          2   -1    0    0  502    0  0.00000000000E+00  0.00000000000E+00  0.24036368863E+04  0.24036368863E+04  0.00000000000E+00 0.  1.
          1   -1    0    0  501    0 -0.00000000000E+00 -0.00000000000E+00 -0.23507435126E+00  0.23507435126E+00  0.00000000000E+00 0.  1.
          2    1    1    2  501    0 -0.19226937747E+02  0.12403100944E+02  0.15275225491E+04  0.15276938993E+04  0.00000000000E+00 0.  1.
          1    1    1    2  502    0  0.19226937747E+02 -0.12403100944E+02  0.87587926286E+03  0.87617806133E+03  0.00000000000E+00 0.  1.
</event>
<event>
 4    1  0.3555026E+003  0.2325129E+02  0.7546771E-02  0.1489367E+00
          2   -1    0    0  502    0  0.00000000000E+00  0.00000000000E+00  0.28780400802E+02  0.28780400802E+02  0.00000000000E+00 0.  1.
          1   -1    0    0  501    0 -0.00000000000E+00 -0.00000000000E+00 -0.59195435740E+02  0.59195435740E+02  0.00000000000E+00 0.  1.
          2    1    1    2  501    0 -0.21875713791E+02 -0.78788044039E+01  0.21137034291E+02  0.31422867968E+02  0.00000000000E+00 0.  1.
          1    1    1    2  502    0  0.21875713791E+02  0.78788044039E+01 -0.51552069229E+02  0.56552968574E+02  0.00000000000E+00 0.  1.
</event>
<event>
 4    1  0.3555026E+003  0.2432535E+02  0.7546771E-02  0.1476494E+00
          2   -1    0    0  502    0  0.00000000000E+00  0.00000000000E+00  0.57715646390E+02  0.57715646390E+02  0.00000000000E+00 0. -1.
          1   -1    0    0  501    0 -0.00000000000E+00 -0.00000000000E+00 -0.10935592261E+02  0.10935592261E+02  0.00000000000E+00 0. -1.
          2    1    1    2  501    0  0.22087687181E+02  0.10191020576E+02  0.31969775930E+02  0.40171997690E+02  0.00000000000E+00 0. -1.
          1    1    1    2  502    0 -0.22087687181E+02 -0.10191020576E+02  0.14810278200E+02  0.28479240961E+02  0.00000000000E+00 0. -1.
</event>
<event>
 4    1  0.3555026E+003  0.2023258E+02  0.7546771E-02  0.1530510E+00
          2   -1    0    0  502    0  0.00000000000E+00  0.00000000000E+00  0.75851061802E+02  0.75851061802E+02  0.00000000000E+00 0.  1.
          1   -1    0    0  501    0 -0.00000000000E+00 -0.00000000000E+00 -0.13275367414E+02  0.13275367414E+02  0.00000000000E+00 0. -1.
          2    1    1    2  501    0 -0.18977668230E+02 -0.70146437631E+01  0.65617971158E+02  0.68666405596E+02  0.00000000000E+00 0.  1.
          1    1    1    2  502    0  0.18977668230E+02  0.70146437631E+01 -0.30422767696E+01  0.20460023620E+02  0.00000000000E+00 0. -1.
</event>
<event>
 4    1  0.3555026E+003  0.2771142E+02  0.7546771E-02  0.1440590E+00
          2   -1    0    0  502    0  0.00000000000E+00  0.00000000000E+00  0.27080622247E+03  0.27080622247E+03  0.00000000000E+00 0.  1.
          1   -1    0    0  501    0 -0.00000000000E+00 -0.00000000000E+00 -0.48403599878E+02  0.48403599878E+02  0.00000000000E+00 0. -1.
          2    1    1    2  501    0 -0.27462129814E+02  0.37086686805E+01  0.26606049610E+03  0.26749973903E+03  0.00000000000E+00 0.  1.
          1    1    1    2  502    0  0.27462129814E+02 -0.37086686805E+01 -0.43657873508E+02  0.51710083316E+02  0.00000000000E+00 0. -1.
</event>
<event>
 4    1  0.3555026E+003  0.2139225E+02  0.7546771E-02  0.1513738E+00
          2   -1    0    0  502    0  0.00000000000E+00  0.00000000000E+00  0.12132228175E+04  0.12132228175E+04  0.00000000000E+00 0.  1.
          1   -1    0    0  501    0 -0.00000000000E+00 -0.00000000000E+00 -0.76281622473E+00  0.76281622473E+00  0.00000000000E+00 0.  1.
          2    1    1    2  501    0  0.63720407961E+01 -0.20421192251E+02  0.17466016967E+03  0.17596534564E+03  0.00000000000E+00 0.  1.
          1    1    1    2  502    0 -0.63720407961E+01  0.20421192251E+02  0.10377998316E+04  0.10380202881E+04  0.00000000000E+00 0.  1.
</event>
<event>
 4    1  0.3555026E+003  0.2198523E+02  0.7546771E-02  0.1505649E+00
          2   -1    0    0  502    0  0.00000000000E+00  0.00000000000E+00  0.86815029504E+03  0.86815029504E+03  0.00000000000E+00 0.  1.
          1   -1    0    0  501    0 -0.00000000000E+00 -0.00000000000E+00 -0.29522046290E+03  0.29522046290E+03  0.00000000000E+00 0.  1.
          2    1    1    2  501    0 -0.18172456830E+02 -0.12373852524E+02  0.86760153336E+03  0.86788004419E+03  0.00000000000E+00 0.  1.
          1    1    1    2  502    0  0.18172456830E+02  0.12373852524E+02 -0.29467170122E+03  0.29549071375E+03  0.00000000000E+00 0.  1.
</event>
<event>
 4    1  0.3555026E+003  0.2087516E+02  0.7546771E-02  0.1521055E+00
          2   -1    0    0  502    0  0.00000000000E+00  0.00000000000E+00  0.34369867336E+02  0.34369867336E+02  0.00000000000E+00 0. -1.
          1   -1    0    0  501    0 -0.00000000000E+00 -0.00000000000E+00 -0.57154056870E+02  0.57154056870E+02  0.00000000000E+00 0. -1.
          2    1    1    2  501    0 -0.13468955223E+02 -0.15948648325E+02  0.28976148119E+02  0.35712592989E+02  0.00000000000E+00 0. -1.
          1    1    1    2  502    0  0.13468955223E+02  0.15948648325E+02 -0.51760337654E+02  0.55811331217E+02  0.00000000000E+00 0. -1.
</event>
<event>
 4    1  0.3555026E+003  0.3282308E+02  0.7546771E-02  0.1396549E+00
          2   -1    0    0  502    0  0.00000000000E+00  0.00000000000E+00  0.20064541634E+04  0.20064541634E+04  0.00000000000E+00 0. -1.
          1   -1    0    0  501    0 -0.00000000000E+00 -0.00000000000E+00 -0.10399736022E+02  0.10399736022E+02  0.00000000000E+00 0. -1.
          2    1    1    2  501    0 -0.68574628612E+01  0.32098751391E+02  0.19800763341E+04  0.19803483642E+04  0.00000000000E+00 0. -1.
          1    1    1    2  502    0  0.68574628612E+01 -0.32098751391E+02  0.15978093256E+02  0.36505535222E+02  0.00000000000E+00 0. -1.
</event>
<event>
 4    1  0.3555026E+003  0.2154739E+02  0.7546771E-02  0.1511591E+00
          2   -1    0    0  502    0  0.00000000000E+00  0.00000000000E+00  0.10025883113E+04  0.10025883113E+04  0.00000000000E+00 0.  1.
          1   -1    0    0  501    0 -0.00000000000E+00 -0.00000000000E+00 -0.54974209469E+02  0.54974209469E+02  0.00000000000E+00 0.  1.
          2    1    1    2  501    0  0.19316876628E+02  0.95471546192E+01  0.10003564297E+04  0.10005884650E+04  0.00000000000E+00 0.  1.
          1    1    1    2  502    0 -0.19316876628E+02 -0.95471546192E+01 -0.52742327850E+02  0.56974055771E+02  0.00000000000E+00 0.  1.
</event>
<event>
 4    1  0.3555026E+003  0.2118382E+02  0.7546771E-02  0.1516656E+00
          2   -1    0    0  502    0  0.00000000000E+00  0.00000000000E+00  0.74219961904E+03  0.74219961904E+03  0.00000000000E+00 0.  1.
          1   -1    0    0  501    0 -0.00000000000E+00 -0.00000000000E+00 -0.73690680538E+00  0.73690680538E+00  0.00000000000E+00 0.  1.
          2    1    1    2  501    0 -0.19466344515E+02  0.83555495133E+01  0.21334664455E+03  0.21439576609E+03  0.00000000000E+00 0.  1.
          1    1    1    2  502    0  0.19466344515E+02 -0.83555495133E+01  0.52811606768E+03  0.52854075976E+03  0.00000000000E+00 0.  1.
</event>
<event>
 4    1  0.3555026E+003  0.3426699E+02  0.7546771E-02  0.1385791E+00
          2   -1    0    0  502    0  0.00000000000E+00  0.00000000000E+00  0.16867746578E+03  0.16867746578E+03  0.00000000000E+00 0.  1.
          1   -1    0    0  501    0 -0.00000000000E+00 -0.00000000000E+00 -0.13923791358E+02  0.13923791358E+02  0.00000000000E+00 0. -1.
          2    1    1    2  501    0  0.33942038118E+02  0.47079457734E+01  0.14193855561E+03  0.14601636989E+03  0.00000000000E+00 0.  1.
          1    1    1    2  502    0 -0.33942038118E+02 -0.47079457734E+01  0.12815118805E+02  0.36584887248E+02  0.00000000000E+00 0. -1.
</event>
<event>
 4    1  0.3555026E+003  0.3207779E+02  0.7546771E-02  0.1402360E+00
          2   -1    0    0  502    0  0.00000000000E+00  0.00000000000E+00  0.16423270554E+03  0.16423270554E+03  0.00000000000E+00 0. -1.
          1   -1    0    0  501    0 -0.00000000000E+00 -0.00000000000E+00 -0.41399752690E+03  0.41399752690E+03  0.00000000000E+00 0.  1.
          2    1    1    2  501    0 -0.29338122090E+02  0.12971481862E+02  0.16203664203E+03  0.16518128862E+03  0.00000000000E+00 0. -1.
          1    1    1    2  502    0  0.29338122090E+02 -0.12971481862E+02 -0.41180146338E+03  0.41304894383E+03  0.00000000000E+00 0.  1.
</event>
<event>
 4    1  0.3555026E+003  0.3622797E+02  0.7546771E-02  0.1372130E+00
          2   -1    0    0  502    0  0.00000000000E+00  0.00000000000E+00  0.69108563804E+02  0.69108563804E+02  0.00000000000E+00 0.  1.
          1   -1    0    0  501    0 -0.00000000000E+00 -0.00000000000E+00 -0.33482573603E+02  0.33482573603E+02  0.00000000000E+00 0.  1.
          2    1    1    2  501    0  0.15040149323E+02 -0.32958456084E+02  0.51559029584E+02  0.63014279737E+02  0.00000000000E+00 0.  1.
          1    1    1    2  502    0 -0.15040149323E+02  0.32958456084E+02 -0.15933039382E+02  0.39576857670E+02  0.00000000000E+00 0.  1.
</event>
<event>
 4    1  0.3555026E+003  0.5611318E+02  0.7546771E-02  0.1273643E+00
          2   -1    0    0  502    0  0.00000000000E+00  0.00000000000E+00  0.16116573209E+03  0.16116573209E+03  0.00000000000E+00 0.  1.
          1   -1    0    0  501    0 -0.00000000000E+00 -0.00000000000E+00 -0.23654418876E+02  0.23654418876E+02  0.00000000000E+00 0.  1.
          2    1    1    2  501    0 -0.51586026418E+02  0.22080994447E+02  0.10731040084E+03  0.12109587345E+03  0.00000000000E+00 0.  1.
          1    1    1    2  502    0  0.51586026418E+02 -0.22080994447E+02  0.30200912375E+02  0.63724277521E+02  0.00000000000E+00 0.  1.
</event>
<event>
 4    1  0.3555026E+003  0.2791854E+02  0.7546771E-02  0.1438593E+00
          2   -1    0    0  502    0  0.00000000000E+00  0.00000000000E+00  0.17262721027E+03  0.17262721027E+03  0.00000000000E+00 0. -1.
          1   -1    0    0  501    0 -0.00000000000E+00 -0.00000000000E+00 -0.47337764451E+03  0.47337764451E+03  0.00000000000E+00 0.  1.
          2    1    1    2  501    0  0.23230911049E+02  0.15484490567E+02  0.17108308186E+03  0.17334608612E+03  0.00000000000E+00 0. -1.
          1    1    1    2  502    0 -0.23230911049E+02 -0.15484490567E+02 -0.47183351610E+03  0.47265876866E+03  0.00000000000E+00 0.  1.
</event>
<event>
 4    1  0.3555026E+003  0.2499188E+02  0.7546771E-02  0.1468894E+00
          2   -1    0    0  502    0  0.00000000000E+00  0.00000000000E+00  0.11970395649E+04  0.11970395649E+04  0.00000000000E+00 0. -1.
          1   -1    0    0  501    0 -0.00000000000E+00 -0.00000000000E+00 -0.31717883480E+02  0.31717883480E+02  0.00000000000E+00 0. -1.
          2    1    1    2  501    0  0.24257586495E+02 -0.60136083955E+01  0.11919651204E+04  0.11922270934E+04  0.00000000000E+00 0. -1.
          1    1    1    2  502    0 -0.24257586495E+02  0.60136083955E+01 -0.26643439026E+02  0.36530354934E+02  0.00000000000E+00 0. -1.
</event>
<event>
 4    1  0.3555026E+003  0.3213391E+02  0.7546771E-02  0.1401916E+00
          2   -1    0    0  502    0  0.00000000000E+00  0.00000000000E+00  0.43160796796E+02  0.43160796796E+02  0.00000000000E+00 0.  1.
          1   -1    0    0  501    0 -0.00000000000E+00 -0.00000000000E+00 -0.53723045460E+03  0.53723045460E+03  0.00000000000E+00 0.  1.
          2    1    1    2  501    0  0.17104892665E+02  0.27203135093E+02  0.36625644991E+02  0.48723975443E+02  0.00000000000E+00 0.  1.
          1    1    1    2  502    0 -0.17104892665E+02 -0.27203135093E+02 -0.53069530280E+03  0.53166727596E+03  0.00000000000E+00 0.  1.
</event>
<event>
 4    1  0.3555026E+003  0.2050429E+02  0.7546771E-02  0.1526461E+00
          2   -1    0    0  502    0  0.00000000000E+00  0.00000000000E+00  0.87127083729E+02  0.87127083729E+02  0.00000000000E+00 0.  1.
          1   -1    0    0  501    0 -0.00000000000E+00 -0.00000000000E+00 -0.57930223308E+01  0.57930223308E+01  0.00000000000E+00 0. -1.
          2    1    1    2  501    0 -0.70527734137E+00  0.20492152520E+02  0.59654762271E+02  0.63080237734E+02  0.00000000000E+00 0.  1.
          1    1    1    2  502    0  0.70527734137E+00 -0.20492152520E+02  0.21679299127E+02  0.29839868325E+02  0.00000000000E+00 0. -1.
</event>
<event>
 4    1  0.3555026E+003  0.2124745E+02  0.7546771E-02  0.1515761E+00
          2   -1    0    0  502    0  0.00000000000E+00  0.00000000000E+00  0.72733598941E+01  0.72733598941E+01  0.00000000000E+00 0.  1.
          1   -1    0    0  501    0 -0.00000000000E+00 -0.00000000000E+00 -0.68604215390E+03  0.68604215390E+03  0.00000000000E+00 0.  1.
          2    1    1    2  501    0  0.18734817450E+02  0.10023002902E+02 -0.87802534741E+01  0.22990146218E+02  0.00000000000E+00 0.  1.
          1    1    1    2  502    0 -0.18734817450E+02 -0.10023002902E+02 -0.66998854053E+03  0.67032536758E+03  0.00000000000E+00 0.  1.
</event>
<event>
 4    1  0.3555026E+003  0.3096824E+02  0.7546771E-02  0.1411365E+00
          2   -1    0    0  502    0  0.00000000000E+00  0.00000000000E+00  0.12971330545E+04  0.12971330545E+04  0.00000000000E+00 0. -1.
          1   -1    0    0  501    0 -0.00000000000E+00 -0.00000000000E+00 -0.16923037775E+01  0.16923037775E+01  0.00000000000E+00 0. -1.
          2    1    1    2  501    0  0.30828430699E+02 -0.29393478497E+01  0.11350447343E+04  0.11354671201E+04  0.00000000000E+00 0. -1.
          1    1    1    2  502    0 -0.30828430699E+02  0.29393478497E+01  0.16039601645E+03  0.16335823823E+03  0.00000000000E+00 0. -1.
</event>
<event>
 4    1  0.3555026E+003  0.3199267E+02  0.7546771E-02  0.1403035E+00
          2   -1    0    0  502    0  0.00000000000E+00  0.00000000000E+00  0.11719382218E+04  0.11719382218E+04  0.00000000000E+00 0. -1.
          1   -1    0    0  501    0 -0.00000000000E+00 -0.00000000000E+00 -0.52356721190E+01  0.52356721190E+01  0.00000000000E+00 0. -1.
          2    1    1    2  501    0  0.65388903635E+01  0.31317309849E+02  0.11206087610E+04  0.11210653532E+04  0.00000000000E+00 0. -1.
          1    1    1    2  502    0 -0.65388903635E+01 -0.31317309849E+02  0.46093788688E+02  0.56108540696E+02  0.00000000000E+00 0. -1.
</event>
<event>
 4    1  0.3555026E+003  0.2055153E+02  0.7546771E-02  0.1525765E+00
          2   -1    0    0  502    0  0.00000000000E+00  0.00000000000E+00  0.22861243919E+02  0.22861243919E+02  0.00000000000E+00 0.  1.
          1   -1    0    0  501    0 -0.00000000000E+00 -0.00000000000E+00 -0.29813032970E+02  0.29813032970E+02  0.00000000000E+00 0. -1.
          2    1    1    2  501    0 -0.18867834783E+01  0.20464737543E+02  0.12765789320E+02  0.24193610966E+02  0.00000000000E+00 0.  1.
          1    1    1    2  502    0  0.18867834783E+01 -0.20464737543E+02 -0.19717578372E+02  0.28480665923E+02  0.00000000000E+00 0. -1.
</event>
<event>
 4    1  0.3555026E+003  0.5591251E+02  0.7546771E-02  0.1274391E+00
          2   -1    0    0  502    0  0.00000000000E+00  0.00000000000E+00  0.22886360948E+03  0.22886360948E+03  0.00000000000E+00 0. -1.
          1   -1    0    0  501    0 -0.00000000000E+00 -0.00000000000E+00 -0.26032901825E+02  0.26032901825E+02  0.00000000000E+00 0. -1.
          2    1    1    2  501    0  0.48570556731E+02  0.27696737092E+02  0.18927989702E+03  0.19736536587E+03  0.00000000000E+00 0. -1.
          1    1    1    2  502    0 -0.48570556731E+02 -0.27696737092E+02  0.13550810632E+02  0.57531145439E+02  0.00000000000E+00 0. -1.
</event>
<event>
 4    1  0.3555026E+003  0.2233509E+02  0.7546771E-02  0.1501021E+00
          2   -1    0    0  502    0  0.00000000000E+00  0.00000000000E+00  0.18830664235E+01  0.18830664235E+01  0.00000000000E+00 0.  1.
          1   -1    0    0  501    0 -0.00000000000E+00 -0.00000000000E+00 -0.78328613913E+03  0.78328613913E+03  0.00000000000E+00 0. -1.
          2    1    1    2  501    0  0.84208857434E+01 -0.20686829877E+02 -0.71332634970E+02  0.74747582295E+02  0.00000000000E+00 0.  1.
          1    1    1    2  502    0 -0.84208857434E+01  0.20686829877E+02 -0.71007043773E+03  0.71042162326E+03  0.00000000000E+00 0. -1.
</event>
<event>
 4    1  0.3555026E+003  0.2324861E+02  0.7546771E-02  0.1489400E+00
          2   -1    0    0  502    0  0.00000000000E+00  0.00000000000E+00  0.18133884666E+02  0.18133884666E+02  0.00000000000E+00 0.  1.
          1   -1    0    0  501    0 -0.00000000000E+00 -0.00000000000E+00 -0.13516048655E+03  0.13516048655E+03  0.00000000000E+00 0. -1.
          2    1    1    2  501    0 -0.20360466734E+02 -0.11222711657E+02  0.91569733608E+01  0.24986957072E+02  0.00000000000E+00 0.  1.
          1    1    1    2  502    0  0.20360466734E+02  0.11222711657E+02 -0.12618357524E+03  0.12830741414E+03  0.00000000000E+00 0. -1.
</event>
<event>
 4    1  0.3555026E+003  0.5803240E+02  0.7546771E-02  0.1266668E+00
          2   -1    0    0  502    0  0.00000000000E+00  0.00000000000E+00  0.46210756887E+03  0.46210756887E+03  0.00000000000E+00 0. -1.
          1   -1    0    0  501    0 -0.00000000000E+00 -0.00000000000E+00 -0.19341916664E+02  0.19341916664E+02  0.00000000000E+00 0. -1.
          2    1    1    2  501    0 -0.42024447350E+02  0.40021313215E+02  0.41141984066E+03  0.41549253299E+03  0.00000000000E+00 0. -1.
          1    1    1    2  502    0  0.42024447350E+02 -0.40021313215E+02  0.31345811544E+02  0.65956952537E+02  0.00000000000E+00 0. -1.
</event>
<event>
 4    1  0.3555026E+003  0.2032133E+02  0.7546771E-02  0.1529179E+00
          2   -1    0    0  502    0  0.00000000000E+00  0.00000000000E+00  0.10357641198E+02  0.10357641198E+02  0.00000000000E+00 0.  1.
          1   -1    0    0  501    0 -0.00000000000E+00 -0.00000000000E+00 -0.40624500088E+02  0.40624500088E+02  0.00000000000E+00 0. -1.
          2    1    1    2  501    0  0.20005573176E+02 -0.35683960386E+01 -0.11658867950E+02  0.23428307883E+02  0.00000000000E+00 0.  1.
          1    1    1    2  502    0 -0.20005573176E+02  0.35683960386E+01 -0.18607990939E+02  0.27553833403E+02  0.00000000000E+00 0. -1.
</event>
<event>
 4    1  0.3555026E+003  0.4921579E+02  0.7546771E-02  0.1301609E+00
          2   -1    0    0  502    0  0.00000000000E+00  0.00000000000E+00  0.51724861496E+03  0.51724861496E+03  0.00000000000E+00 0. -1.
          1   -1    0    0  501    0 -0.00000000000E+00 -0.00000000000E+00 -0.45423061045E+03  0.45423061045E+03  0.00000000000E+00 0. -1.
          2    1    1    2  501    0 -0.45250494961E+02  0.19354249296E+02  0.51473828712E+03  0.51708577478E+03  0.00000000000E+00 0. -1.
          1    1    1    2  502    0  0.45250494961E+02 -0.19354249296E+02 -0.45172028260E+03  0.45439345063E+03  0.00000000000E+00 0. -1.
</event>
<event>
 4    1  0.3555026E+003  0.3015138E+02  0.7546771E-02  0.1418285E+00
          2   -1    0    0  502    0  0.00000000000E+00  0.00000000000E+00  0.16314814945E+03  0.16314814945E+03  0.00000000000E+00 0. -1.
          1   -1    0    0  501    0 -0.00000000000E+00 -0.00000000000E+00 -0.13416047949E+02  0.13416047949E+02  0.00000000000E+00 0. -1.
          2    1    1    2  501    0  0.74294215902E+01  0.29221732425E+02  0.14236902729E+03  0.14552678751E+03  0.00000000000E+00 0. -1.
          1    1    1    2  502    0 -0.74294215902E+01 -0.29221732425E+02  0.73630742149E+01  0.31037409895E+02  0.00000000000E+00 0. -1.
</event>
<event>
 4    1  0.3555026E+003  0.2062224E+02  0.7546771E-02  0.1524727E+00
          2   -1    0    0  502    0  0.00000000000E+00  0.00000000000E+00  0.15019631511E+03  0.15019631511E+03  0.00000000000E+00 0.  1.
          1   -1    0    0  501    0 -0.00000000000E+00 -0.00000000000E+00 -0.54839470334E+02  0.54839470334E+02  0.00000000000E+00 0. -1.
          2    1    1    2  501    0 -0.98573007962E+01 -0.18113812637E+02  0.14751463941E+03  0.14894913705E+03  0.00000000000E+00 0.  1.
          1    1    1    2  502    0  0.98573007962E+01  0.18113812637E+02 -0.52157794634E+02  0.56086648396E+02  0.00000000000E+00 0. -1.
</event>
<event>
 4    1  0.3555026E+003  0.2102818E+02  0.7546771E-02  0.1518863E+00
          2   -1    0    0  502    0  0.00000000000E+00  0.00000000000E+00  0.87398781639E+03  0.87398781639E+03  0.00000000000E+00 0.  1.
          1   -1    0    0  501    0 -0.00000000000E+00 -0.00000000000E+00 -0.97371326476E+01  0.97371326476E+01  0.00000000000E+00 0. -1.
          2    1    1    2  501    0  0.73900466621E+01  0.19686835652E+02  0.86235516722E+03  0.86261151089E+03  0.00000000000E+00 0.  1.
          1    1    1    2  502    0 -0.73900466621E+01 -0.19686835652E+02  0.18955165248E+01  0.21113438151E+02  0.00000000000E+00 0. -1.
</event>
<event>
 4    1  0.3555026E+003  0.2067986E+02  0.7546771E-02  0.1523885E+00
          2   -1    0    0  502    0  0.00000000000E+00  0.00000000000E+00  0.83028753470E+01  0.83028753470E+01  0.00000000000E+00 0.  1.
          1   -1    0    0  501    0 -0.00000000000E+00 -0.00000000000E+00 -0.10803056718E+03  0.10803056718E+03  0.00000000000E+00 0.  1.
          2    1    1    2  501    0  0.14750898177E+02 -0.14493713227E+02 -0.77896527245E+01  0.22098312372E+02  0.00000000000E+00 0.  1.
          1    1    1    2  502    0 -0.14750898177E+02  0.14493713227E+02 -0.91938039110E+02  0.94235130156E+02  0.00000000000E+00 0.  1.
</event>
<event>
 4    1  0.3555026E+003  0.2598497E+02  0.7546771E-02  0.1458080E+00
          2   -1    0    0  502    0  0.00000000000E+00  0.00000000000E+00  0.77168050621E+01  0.77168050621E+01  0.00000000000E+00 0. -1.
          1   -1    0    0  501    0 -0.00000000000E+00 -0.00000000000E+00 -0.18531204503E+04  0.18531204503E+04  0.00000000000E+00 0.  1.
          2    1    1    2  501    0 -0.25707043370E+02  0.37903014116E+01 -0.14514826708E+02  0.29764049758E+02  0.00000000000E+00 0. -1.
          1    1    1    2  502    0  0.25707043370E+02 -0.37903014116E+01 -0.18308888186E+04  0.18310732056E+04  0.00000000000E+00 0.  1.
</event>
<event>
 4    1  0.3555026E+003  0.2282611E+02  0.7546771E-02  0.1494693E+00
          2   -1    0    0  502    0  0.00000000000E+00  0.00000000000E+00  0.11568973473E+03  0.11568973473E+03  0.00000000000E+00 0. -1.
          1   -1    0    0  501    0 -0.00000000000E+00 -0.00000000000E+00 -0.40785776940E+02  0.40785776940E+02  0.00000000000E+00 0. -1.
          2    1    1    2  501    0  0.20039191980E+02  0.10929876930E+02  0.11124377941E+03  0.11356148063E+03  0.00000000000E+00 0. -1.
          1    1    1    2  502    0 -0.20039191980E+02 -0.10929876930E+02 -0.36339821621E+02  0.42914031043E+02  0.00000000000E+00 0. -1.
</event>
<event>
 4    1  0.3555026E+003  0.3883371E+02  0.7546771E-02  0.1355459E+00
          2   -1    0    0  502    0  0.00000000000E+00  0.00000000000E+00  0.43784583274E+02  0.43784583274E+02  0.00000000000E+00 0. -1.
          1   -1    0    0  501    0 -0.00000000000E+00 -0.00000000000E+00 -0.20360803956E+03  0.20360803956E+03  0.00000000000E+00 0.  1.
          2    1    1    2  501    0  0.20305712321E+02  0.33101890960E+02  0.32837880460E+02  0.50856499399E+02  0.00000000000E+00 0. -1.
          1    1    1    2  502    0 -0.20305712321E+02 -0.33101890960E+02 -0.19266133675E+03  0.19653612343E+03  0.00000000000E+00 0.  1.
</event>
<event>
 4    1  0.3555026E+003  0.4040469E+02  0.7546771E-02  0.1346130E+00
          2   -1    0    0  502    0  0.00000000000E+00  0.00000000000E+00  0.13294634015E+02  0.13294634015E+02  0.00000000000E+00 0.  1.
          1   -1    0    0  501    0 -0.00000000000E+00 -0.00000000000E+00 -0.80543086412E+03  0.80543086412E+03  0.00000000000E+00 0. -1.
          2    1    1    2  501    0  0.14085360098E+02  0.37870067030E+02 -0.19201085321E+02  0.44735008924E+02  0.00000000000E+00 0.  1.
          1    1    1    2  502    0 -0.14085360098E+02 -0.37870067030E+02 -0.77293514479E+03  0.77399048922E+03  0.00000000000E+00 0. -1.
</event>
<event>
 4    1  0.3555026E+003  0.2252101E+02  0.7546771E-02  0.1498602E+00
          2   -1    0    0  502    0  0.00000000000E+00  0.00000000000E+00  0.18193707978E+04  0.18193707978E+04  0.00000000000E+00 0. -1.
          1   -1    0    0  501    0 -0.00000000000E+00 -0.00000000000E+00 -0.67121137139E+00  0.67121137139E+00  0.00000000000E+00 0.  1.
          2    1    1    2  501    0  0.22298004201E+02 -0.31614763557E+01  0.16051845808E+04  0.16053425598E+04  0.00000000000E+00 0. -1.
          1    1    1    2  502    0 -0.22298004201E+02  0.31614763557E+01  0.21351500560E+03  0.21469944932E+03  0.00000000000E+00 0.  1.
</event>
<event>
 4    1  0.3555026E+003  0.2122109E+02  0.7546771E-02  0.1516132E+00
          2   -1    0    0  502    0  0.00000000000E+00  0.00000000000E+00  0.99441693724E+01  0.99441693724E+01  0.00000000000E+00 0. -1.
          1   -1    0    0  501    0 -0.00000000000E+00 -0.00000000000E+00 -0.23383144011E+03  0.23383144011E+03  0.00000000000E+00 0.  1.
          2    1    1    2  501    0 -0.19960020914E+02  0.72063991154E+01 -0.24934564004E+01  0.21367076261E+02  0.00000000000E+00 0. -1.
          1    1    1    2  502    0  0.19960020914E+02 -0.72063991154E+01 -0.22139381434E+03  0.22240853322E+03  0.00000000000E+00 0.  1.
</event>
<event>
 4    1  0.3555026E+003  0.3097361E+02  0.7546771E-02  0.1411320E+00
          2   -1    0    0  502    0  0.00000000000E+00  0.00000000000E+00  0.13525105078E+04  0.13525105078E+04  0.00000000000E+00 0. -1.
          1   -1    0    0  501    0 -0.00000000000E+00 -0.00000000000E+00 -0.39438192343E+01  0.39438192343E+01  0.00000000000E+00 0. -1.
          2    1    1    2  501    0  0.11049266346E+01  0.30953891063E+02  0.12884979394E+04  0.12888701657E+04  0.00000000000E+00 0. -1.
          1    1    1    2  502    0 -0.11049266346E+01 -0.30953891063E+02  0.60068749171E+02  0.67584161324E+02  0.00000000000E+00 0. -1.
</event>
<event>
 4    1  0.3555026E+003  0.2378098E+02  0.7546771E-02  0.1482917E+00
          2   -1    0    0  502    0  0.00000000000E+00  0.00000000000E+00  0.60225173615E+01  0.60225173615E+01  0.00000000000E+00 0. -1.
          1   -1    0    0  501    0 -0.00000000000E+00 -0.00000000000E+00 -0.11844227392E+03  0.11844227392E+03  0.00000000000E+00 0. -1.
          2    1    1    2  501    0  0.23740019426E+02 -0.13952063970E+01 -0.27883563674E+02  0.36647349787E+02  0.00000000000E+00 0. -1.
          1    1    1    2  502    0 -0.23740019426E+02  0.13952063970E+01 -0.84536192882E+02  0.87817441492E+02  0.00000000000E+00 0. -1.
</event>
<event>
 4    1  0.3555026E+003  0.4572539E+02  0.7546771E-02  0.1317852E+00
          2   -1    0    0  502    0  0.00000000000E+00  0.00000000000E+00  0.80721025772E+01  0.80721025772E+01  0.00000000000E+00 0.  1.
          1   -1    0    0  501    0 -0.00000000000E+00 -0.00000000000E+00 -0.30260714399E+03  0.30260714399E+03  0.00000000000E+00 0. -1.
          2    1    1    2  501    0  0.29221254099E+02 -0.35170009179E+02 -0.88310279347E+02  0.99446049068E+02  0.00000000000E+00 0.  1.
          1    1    1    2  502    0 -0.29221254099E+02  0.35170009179E+02 -0.20622476206E+03  0.21123319750E+03  0.00000000000E+00 0. -1.
</event>
<event>
 4    1  0.3555026E+003  0.3270579E+02  0.7546771E-02  0.1397452E+00
          2   -1    0    0  502    0  0.00000000000E+00  0.00000000000E+00  0.13337550165E+03  0.13337550165E+03  0.00000000000E+00 0. -1.
          1   -1    0    0  501    0 -0.00000000000E+00 -0.00000000000E+00 -0.52332398228E+02  0.52332398228E+02  0.00000000000E+00 0.  1.
          2    1    1    2  501    0 -0.13965475858E+01 -0.32675955656E+02  0.12596481086E+03  0.13014146917E+03  0.00000000000E+00 0. -1.
          1    1    1    2  502    0  0.13965475858E+01  0.32675955656E+02 -0.44921707434E+02  0.55566430711E+02  0.00000000000E+00 0.  1.
</event>
<event>
 4    1  0.3555026E+003  0.3582975E+02  0.7546771E-02  0.1374822E+00
          2   -1    0    0  502    0  0.00000000000E+00  0.00000000000E+00  0.16368827611E+03  0.16368827611E+03  0.00000000000E+00 0.  1.
          1   -1    0    0  501    0 -0.00000000000E+00 -0.00000000000E+00 -0.18019642891E+02  0.18019642891E+02  0.00000000000E+00 0. -1.
          2    1    1    2  501    0  0.16356406414E+02  0.31878508501E+02  0.14111183141E+03  0.14558956110E+03  0.00000000000E+00 0.  1.
          1    1    1    2  502    0 -0.16356406414E+02 -0.31878508501E+02  0.45568018038E+01  0.36118357904E+02  0.00000000000E+00 0. -1.
</event>
<event>
 4    1  0.3555026E+003  0.4090515E+02  0.7546771E-02  0.1343262E+00
          2   -1    0    0  502    0  0.00000000000E+00  0.00000000000E+00  0.19674877499E+04  0.19674877499E+04  0.00000000000E+00 0. -1.
          1   -1    0    0  501    0 -0.00000000000E+00 -0.00000000000E+00 -0.30681839201E+01  0.30681839201E+01  0.00000000000E+00 0. -1.
          2    1    1    2  501    0 -0.28656205897E+02  0.29189952949E+02  0.18198812350E+04  0.18203408859E+04  0.00000000000E+00 0. -1.
          1    1    1    2  502    0  0.28656205897E+02 -0.29189952949E+02  0.14453833097E+03  0.15021504788E+03  0.00000000000E+00 0. -1.
</event>
<event>
 4    1  0.3555026E+003  0.4827393E+02  0.7546771E-02  0.1305835E+00
          2   -1    0    0  502    0  0.00000000000E+00  0.00000000000E+00  0.11154102932E+03  0.11154102932E+03  0.00000000000E+00 0.  1.
          1   -1    0    0  501    0 -0.00000000000E+00 -0.00000000000E+00 -0.10937391388E+03  0.10937391388E+03  0.00000000000E+00 0. -1.
          2    1    1    2  501    0 -0.51427733662E+01 -0.47999207659E+02  0.10043272331E+03  0.11143205986E+03  0.00000000000E+00 0.  1.
          1    1    1    2  502    0  0.51427733662E+01  0.47999207659E+02 -0.98265607865E+02  0.10948288333E+03  0.00000000000E+00 0. -1.
</event>
<event>
 4    1  0.3555026E+003  0.2887605E+02  0.7546771E-02  0.1429622E+00
          2   -1    0    0  502    0  0.00000000000E+00  0.00000000000E+00  0.30599555075E+01  0.30599555075E+01  0.00000000000E+00 0. -1.
          1   -1    0    0  501    0 -0.00000000000E+00 -0.00000000000E+00 -0.16200595905E+04  0.16200595905E+04  0.00000000000E+00 0.  1.
          2    1    1    2  501    0 -0.18747800718E+02  0.21962376054E+02 -0.68332963648E+02  0.74183690354E+02  0.00000000000E+00 0. -1.
          1    1    1    2  502    0  0.18747800718E+02 -0.21962376054E+02 -0.15486666714E+04  0.15489358557E+04  0.00000000000E+00 0.  1.
</event>
<event>
 4    1  0.3555026E+003  0.3817889E+02  0.7546771E-02  0.1359501E+00
          2   -1    0    0  502    0  0.00000000000E+00  0.00000000000E+00  0.71387931785E+03  0.71387931785E+03  0.00000000000E+00 0. -1.
          1   -1    0    0  501    0 -0.00000000000E+00 -0.00000000000E+00 -0.16867093453E+02  0.16867093453E+02  0.00000000000E+00 0. -1.
          2    1    1    2  501    0  0.42543290058E+01  0.37941118436E+02  0.69105110568E+03  0.69210494757E+03  0.00000000000E+00 0. -1.
          1    1    1    2  502    0 -0.42543290058E+01 -0.37941118436E+02  0.59611187167E+01  0.38641463738E+02  0.00000000000E+00 0. -1.
</event>
<event>
 4    1  0.3555026E+003  0.2916164E+02  0.7546771E-02  0.1427024E+00
          2   -1    0    0  502    0  0.00000000000E+00  0.00000000000E+00  0.21586226149E+04  0.21586226149E+04  0.00000000000E+00 0.  1.
          1   -1    0    0  501    0 -0.00000000000E+00 -0.00000000000E+00 -0.12031486950E+01  0.12031486950E+01  0.00000000000E+00 0.  1.
          2    1    1    2  501    0 -0.16898742319E+02  0.23766229735E+02  0.19643455885E+04  0.19645620358E+04  0.00000000000E+00 0.  1.
          1    1    1    2  502    0  0.16898742319E+02 -0.23766229735E+02  0.19307387762E+03  0.19526372778E+03  0.00000000000E+00 0.  1.
</event>
<event>
 4    1  0.3555026E+003  0.2271869E+02  0.7546771E-02  0.1496061E+00
          2   -1    0    0  502    0  0.00000000000E+00  0.00000000000E+00  0.41497328171E+03  0.41497328171E+03  0.00000000000E+00 0. -1.
          1   -1    0    0  501    0 -0.00000000000E+00 -0.00000000000E+00 -0.29236981494E+01  0.29236981494E+01  0.00000000000E+00 0.  1.
          2    1    1    2  501    0 -0.21828110218E+02  0.62986072287E+01  0.36441049549E+03  0.36511799199E+03  0.00000000000E+00 0. -1.
          1    1    1    2  502    0  0.21828110218E+02 -0.62986072287E+01  0.47639088070E+02  0.52778987872E+02  0.00000000000E+00 0.  1.
</event>
<event>
 4    1  0.3555026E+003  0.2776264E+02  0.7546771E-02  0.1440094E+00
          2   -1    0    0  502    0  0.00000000000E+00  0.00000000000E+00  0.55892855660E+03  0.55892855660E+03  0.00000000000E+00 0. -1.
          1   -1    0    0  501    0 -0.00000000000E+00 -0.00000000000E+00 -0.20718787642E+01  0.20718787642E+01  0.00000000000E+00 0. -1.
          2    1    1    2  501    0  0.12270094270E+02  0.24903997432E+02  0.44063871716E+03  0.44151244984E+03  0.00000000000E+00 0. -1.
          1    1    1    2  502    0 -0.12270094270E+02 -0.24903997432E+02  0.11621796067E+03  0.11948798552E+03  0.00000000000E+00 0. -1.
</event>
<event>
 4    1  0.3555026E+003  0.3076025E+02  0.7546771E-02  0.1413103E+00
          2   -1    0    0  502    0  0.00000000000E+00  0.00000000000E+00  0.16641189638E+04  0.16641189638E+04  0.00000000000E+00 0.  1.
          1   -1    0    0  501    0 -0.00000000000E+00 -0.00000000000E+00 -0.17887151051E+01  0.17887151051E+01  0.00000000000E+00 0.  1.
          2    1    1    2  501    0  0.30015329365E+02 -0.67285273638E+01  0.15191096499E+04  0.15194210481E+04  0.00000000000E+00 0.  1.
          1    1    1    2  502    0 -0.30015329365E+02  0.67285273638E+01  0.14322059885E+03  0.14648663083E+03  0.00000000000E+00 0.  1.
</event>
<event>
 4    1  0.3555026E+003  0.4485118E+02  0.7546771E-02  0.1322185E+00
          2   -1    0    0  502    0  0.00000000000E+00  0.00000000000E+00  0.53885950412E+03  0.53885950412E+03  0.00000000000E+00 0. -1.
          1   -1    0    0  501    0 -0.00000000000E+00 -0.00000000000E+00 -0.23611721046E+03  0.23611721046E+03  0.00000000000E+00 0. -1.
          2    1    1    2  501    0  0.43004804164E+02 -0.12736374732E+02  0.53578411480E+03  0.53765811264E+03  0.00000000000E+00 0. -1.
          1    1    1    2  502    0 -0.43004804164E+02  0.12736374732E+02 -0.23304182114E+03  0.23731860193E+03  0.00000000000E+00 0. -1.
</event>
<event>
 4    1  0.3555026E+003  0.3325715E+02  0.7546771E-02  0.1393248E+00
          2   -1    0    0  502    0  0.00000000000E+00  0.00000000000E+00  0.85580999872E+03  0.85580999872E+03  0.00000000000E+00 0.  1.
          1   -1    0    0  501    0 -0.00000000000E+00 -0.00000000000E+00 -0.98643811020E+01  0.98643811020E+01  0.00000000000E+00 0.  1.
          2    1    1    2  501    0  0.79128309060E+01  0.32302093570E+02  0.82646075652E+03  0.82712962721E+03  0.00000000000E+00 0.  1.
          1    1    1    2  502    0 -0.79128309060E+01 -0.32302093570E+02  0.19484861101E+02  0.38544752614E+02  0.00000000000E+00 0.  1.
</event>
<event>
 4    1  0.3555026E+003  0.3293997E+02  0.7546771E-02  0.1395654E+00
          2   -1    0    0  502    0  0.00000000000E+00  0.00000000000E+00  0.10498459694E+02  0.10498459694E+02  0.00000000000E+00 0.  1.
          1   -1    0    0  501    0 -0.00000000000E+00 -0.00000000000E+00 -0.19755942822E+03  0.19755942822E+03  0.00000000000E+00 0.  1.
          2    1    1    2  501    0  0.24883265500E+02  0.21583901253E+02 -0.21693712068E+02  0.39441841217E+02  0.00000000000E+00 0.  1.
          1    1    1    2  502    0 -0.24883265500E+02 -0.21583901253E+02 -0.16536725646E+03  0.16861604670E+03  0.00000000000E+00 0.  1.
</event>
<event>
 4    1  0.3555026E+003  0.3735410E+02  0.7546771E-02  0.1364729E+00
          2   -1    0    0  502    0  0.00000000000E+00  0.00000000000E+00  0.20803026387E+02  0.20803026387E+02  0.00000000000E+00 0.  1.
          1   -1    0    0  501    0 -0.00000000000E+00 -0.00000000000E+00 -0.67920803098E+02  0.67920803098E+02  0.00000000000E+00 0.  1.
          2    1    1    2  501    0  0.28656901037E+02 -0.23960602288E+02 -0.18603592878E+02  0.41730349951E+02  0.00000000000E+00 0.  1.
          1    1    1    2  502    0 -0.28656901037E+02  0.23960602288E+02 -0.28514183833E+02  0.46993479534E+02  0.00000000000E+00 0.  1.
</event>
<event>
 4    1  0.3555026E+003  0.4645198E+02  0.7546771E-02  0.1314335E+00
          2   -1    0    0  502    0  0.00000000000E+00  0.00000000000E+00  0.71074771258E+03  0.71074771258E+03  0.00000000000E+00 0.  1.
          1   -1    0    0  501    0 -0.00000000000E+00 -0.00000000000E+00 -0.30360898205E+01  0.30360898205E+01  0.00000000000E+00 0.  1.
          2    1    1    2  501    0  0.57020293865E+01 -0.46100685397E+02  0.35637552348E+03  0.35939017804E+03  0.00000000000E+00 0.  1.
          1    1    1    2  502    0 -0.57020293865E+01  0.46100685397E+02  0.35133609928E+03  0.35439362436E+03  0.00000000000E+00 0.  1.
</event>
<event>
 4    1  0.3555026E+003  0.5050239E+02  0.7546771E-02  0.1296009E+00
          2   -1    0    0  502    0  0.00000000000E+00  0.00000000000E+00  0.66478002290E+03  0.66478002290E+03  0.00000000000E+00 0.  1.
          1   -1    0    0  501    0 -0.00000000000E+00 -0.00000000000E+00 -0.17805614698E+02  0.17805614698E+02  0.00000000000E+00 0.  1.
          2    1    1    2  501    0 -0.26699932865E+02 -0.42867298116E+02  0.62578266819E+03  0.62781720228E+03  0.00000000000E+00 0.  1.
          1    1    1    2  502    0  0.26699932865E+02  0.42867298116E+02  0.21191740006E+02  0.54768435318E+02  0.00000000000E+00 0.  1.
</event>
<event>
 4    1  0.3555026E+003  0.4268939E+02  0.7546771E-02  0.1333408E+00
          2   -1    0    0  502    0  0.00000000000E+00  0.00000000000E+00  0.87598712281E+03  0.87598712281E+03  0.00000000000E+00 0. -1.
          1   -1    0    0  501    0 -0.00000000000E+00 -0.00000000000E+00 -0.37870235139E+01  0.37870235139E+01  0.00000000000E+00 0. -1.
          2    1    1    2  501    0  0.14865124761E+02  0.40017628646E+02  0.14079959045E+03  0.14712887958E+03  0.00000000000E+00 0. -1.
          1    1    1    2  502    0 -0.14865124761E+02 -0.40017628646E+02  0.73140050885E+03  0.73264526674E+03  0.00000000000E+00 0. -1.
</event>
<event>
 4    1  0.3555026E+003  0.2812302E+02  0.7546771E-02  0.1436642E+00
          2   -1    0    0  502    0  0.00000000000E+00  0.00000000000E+00  0.16059570658E+02  0.16059570658E+02  0.00000000000E+00 0.  1.
          1   -1    0    0  501    0 -0.00000000000E+00 -0.00000000000E+00 -0.64856048425E+02  0.64856048425E+02  0.00000000000E+00 0. -1.
          2    1    1    2  501    0  0.93917848645E+01 -0.26508467256E+02 -0.45510471135E+01  0.28488883605E+02  0.00000000000E+00 0.  1.
          1    1    1    2  502    0 -0.93917848645E+01  0.26508467256E+02 -0.44245430653E+02  0.52426735478E+02  0.00000000000E+00 0. -1.
</event>
<event>
 4    1  0.3555026E+003  0.2136843E+02  0.7546771E-02  0.1514069E+00
          2   -1    0    0  502    0  0.00000000000E+00  0.00000000000E+00  0.58174656601E+03  0.58174656601E+03  0.00000000000E+00 0. -1.
          1   -1    0    0  501    0 -0.00000000000E+00 -0.00000000000E+00 -0.16070257029E+03  0.16070257029E+03  0.00000000000E+00 0. -1.
          2    1    1    2  501    0  0.45076214808E+01  0.20887584076E+02  0.58083889895E+03  0.58123182668E+03  0.00000000000E+00 0. -1.
          1    1    1    2  502    0 -0.45076214808E+01 -0.20887584076E+02 -0.15979490323E+03  0.16121730961E+03  0.00000000000E+00 0. -1.
</event>
<event>
 4    1  0.3555026E+003  0.2716522E+02  0.7546771E-02  0.1445956E+00
          2   -1    0    0  502    0  0.00000000000E+00  0.00000000000E+00  0.75902964123E+02  0.75902964123E+02  0.00000000000E+00 0. -1.
          1   -1    0    0  501    0 -0.00000000000E+00 -0.00000000000E+00 -0.10739648998E+03  0.10739648998E+03  0.00000000000E+00 0.  1.
          2    1    1    2  501    0  0.25882563003E+02  0.82487486536E+01  0.71656191577E+02  0.76632621730E+02  0.00000000000E+00 0. -1.
          1    1    1    2  502    0 -0.25882563003E+02 -0.82487486536E+01 -0.10314971743E+03  0.10666683237E+03  0.00000000000E+00 0.  1.
</event>
<event>
 4    1  0.3555026E+003  0.2548077E+02  0.7546771E-02  0.1463496E+00
          2   -1    0    0  502    0  0.00000000000E+00  0.00000000000E+00  0.12253048956E+02  0.12253048956E+02  0.00000000000E+00 0.  1.
          1   -1    0    0  501    0 -0.00000000000E+00 -0.00000000000E+00 -0.14021690673E+03  0.14021690673E+03  0.00000000000E+00 0.  1.
          2    1    1    2  501    0 -0.95217166076E+01  0.23634864051E+02 -0.38530343288E+01  0.25770443523E+02  0.00000000000E+00 0.  1.
          1    1    1    2  502    0  0.95217166076E+01 -0.23634864051E+02 -0.12411082345E+03  0.12669951216E+03  0.00000000000E+00 0.  1.
</event>
<event>
 4    1  0.3555026E+003  0.4048610E+02  0.7546771E-02  0.1345661E+00
          2   -1    0    0  502    0  0.00000000000E+00  0.00000000000E+00  0.70975539981E+03  0.70975539981E+03  0.00000000000E+00 0. -1.
          1   -1    0    0  501    0 -0.00000000000E+00 -0.00000000000E+00 -0.33911009469E+01  0.33911009469E+01  0.00000000000E+00 0. -1.
          2    1    1    2  501    0  0.38980029920E+02  0.10939918743E+02  0.55456739100E+03  0.55604326784E+03  0.00000000000E+00 0. -1.
          1    1    1    2  502    0 -0.38980029920E+02 -0.10939918743E+02  0.15179690786E+03  0.15710323291E+03  0.00000000000E+00 0. -1.
</event>
<event>
 4    1  0.3555026E+003  0.3604395E+02  0.7546771E-02  0.1373369E+00
          2   -1    0    0  502    0  0.00000000000E+00  0.00000000000E+00  0.56734118726E+03  0.56734118726E+03  0.00000000000E+00 0.  1.
          1   -1    0    0  501    0 -0.00000000000E+00 -0.00000000000E+00 -0.14482624708E+03  0.14482624708E+03  0.00000000000E+00 0. -1.
          2    1    1    2  501    0 -0.33379437742E+02  0.13600725172E+02  0.56451486061E+03  0.56566438322E+03  0.00000000000E+00 0.  1.
          1    1    1    2  502    0  0.33379437742E+02 -0.13600725172E+02 -0.14199992043E+03  0.14650305113E+03  0.00000000000E+00 0. -1.
</event>
<event>
 4    1  0.3555026E+003  0.2319546E+02  0.7546771E-02  0.1490058E+00
          2   -1    0    0  502    0  0.00000000000E+00  0.00000000000E+00  0.22453993607E+01  0.22453993607E+01  0.00000000000E+00 0. -1.
          1   -1    0    0  501    0 -0.00000000000E+00 -0.00000000000E+00 -0.13658849625E+04  0.13658849625E+04  0.00000000000E+00 0.  1.
          2    1    1    2  501    0  0.15634189984E+01 -0.23142707753E+02 -0.60647797151E+02  0.64932153055E+02  0.00000000000E+00 0. -1.
          1    1    1    2  502    0 -0.15634189984E+01  0.23142707753E+02 -0.13029917660E+04  0.13031982088E+04  0.00000000000E+00 0.  1.
</event>
<event>
 4    1  0.3555026E+003  0.2080165E+02  0.7546771E-02  0.1522116E+00
          2   -1    0    0  502    0  0.00000000000E+00  0.00000000000E+00  0.75707774211E+02  0.75707774211E+02  0.00000000000E+00 0. -1.
          1   -1    0    0  501    0 -0.00000000000E+00 -0.00000000000E+00 -0.13744077118E+03  0.13744077118E+03  0.00000000000E+00 0. -1.
          2    1    1    2  501    0 -0.14092648237E+02 -0.15300524814E+02  0.73468283894E+02  0.76356385012E+02  0.00000000000E+00 0. -1.
          1    1    1    2  502    0  0.14092648237E+02  0.15300524814E+02 -0.13520128087E+03  0.13679216038E+03  0.00000000000E+00 0. -1.
</event>
<event>
 4    1  0.3555026E+003  0.2199149E+02  0.7546771E-02  0.1505566E+00
          2   -1    0    0  502    0  0.00000000000E+00  0.00000000000E+00  0.10349797821E+04  0.10349797821E+04  0.00000000000E+00 0. -1.
          1   -1    0    0  501    0 -0.00000000000E+00 -0.00000000000E+00 -0.87344213035E+00  0.87344213035E+00  0.00000000000E+00 0. -1.
          2    1    1    2  501    0  0.22477339216E+01  0.21876314126E+02  0.87023701788E+03  0.87051484348E+03  0.00000000000E+00 0. -1.
          1    1    1    2  502    0 -0.22477339216E+01 -0.21876314126E+02  0.16386932208E+03  0.16533838074E+03  0.00000000000E+00 0. -1.
</event>
<event>
 4    1  0.3555026E+003  0.2183307E+02  0.7546771E-02  0.1507695E+00
          2   -1    0    0  502    0  0.00000000000E+00  0.00000000000E+00  0.18591132349E+02  0.18591132349E+02  0.00000000000E+00 0. -1.
          1   -1    0    0  501    0 -0.00000000000E+00 -0.00000000000E+00 -0.16367659195E+03  0.16367659195E+03  0.00000000000E+00 0.  1.
          2    1    1    2  501    0  0.21275612391E+02  0.49021593306E+01  0.11149102655E+02  0.24515002319E+02  0.00000000000E+00 0. -1.
          1    1    1    2  502    0 -0.21275612391E+02 -0.49021593306E+01 -0.15623456226E+03  0.15775272198E+03  0.00000000000E+00 0.  1.
</event>
<event>
 4    1  0.3555026E+003  0.2680869E+02  0.7546771E-02  0.1449539E+00
          2   -1    0    0  502    0  0.00000000000E+00  0.00000000000E+00  0.70330044830E+02  0.70330044830E+02  0.00000000000E+00 0. -1.
          1   -1    0    0  501    0 -0.00000000000E+00 -0.00000000000E+00 -0.11141437806E+03  0.11141437806E+03  0.00000000000E+00 0. -1.
          2    1    1    2  501    0 -0.12620332124E+02  0.23652334831E+02  0.66062386306E+02  0.71294772672E+02  0.00000000000E+00 0. -1.
          1    1    1    2  502    0  0.12620332124E+02 -0.23652334831E+02 -0.10714671954E+03  0.11044965022E+03  0.00000000000E+00 0. -1.
</event>
<event>
 4    1  0.3555026E+003  0.2737251E+02  0.7546771E-02  0.1443902E+00
          2   -1    0    0  502    0  0.00000000000E+00  0.00000000000E+00  0.44030705287E+02  0.44030705287E+02  0.00000000000E+00 0.  1.
          1   -1    0    0  501    0 -0.00000000000E+00 -0.00000000000E+00 -0.36795970415E+03  0.36795970415E+03  0.00000000000E+00 0. -1.
          2    1    1    2  501    0  0.12134695717E+02 -0.24535759539E+02  0.39211105821E+02  0.47820133376E+02  0.00000000000E+00 0.  1.
          1    1    1    2  502    0 -0.12134695717E+02  0.24535759539E+02 -0.36314010468E+03  0.36417027606E+03  0.00000000000E+00 0. -1.
</event>
<event>
 4    1  0.3555026E+003  0.2040147E+02  0.7546771E-02  0.1527984E+00
          2   -1    0    0  502    0  0.00000000000E+00  0.00000000000E+00  0.18993753578E+04  0.18993753578E+04  0.00000000000E+00 0. -1.
          1   -1    0    0  501    0 -0.00000000000E+00 -0.00000000000E+00 -0.22101467793E+00  0.22101467793E+00  0.00000000000E+00 0. -1.
          2    1    1    2  501    0 -0.62379508588E+01  0.19424400388E+02  0.86198240297E+03  0.86222380064E+03  0.00000000000E+00 0. -1.
          1    1    1    2  502    0  0.62379508588E+01 -0.19424400388E+02  0.10371719401E+04  0.10373725718E+04  0.00000000000E+00 0. -1.
</event>
<event>
 4    1  0.3555026E+003  0.2515132E+02  0.7546771E-02  0.1467118E+00
          2   -1    0    0  502    0  0.00000000000E+00  0.00000000000E+00  0.85885868477E+03  0.85885868477E+03  0.00000000000E+00 0. -1.
          1   -1    0    0  501    0 -0.00000000000E+00 -0.00000000000E+00 -0.81655626939E+00  0.81655626939E+00  0.00000000000E+00 0. -1.
          2    1    1    2  501    0  0.23534827165E+02 -0.88713548376E+01  0.56357113264E+03  0.56413208611E+03  0.00000000000E+00 0. -1.
          1    1    1    2  502    0 -0.23534827165E+02  0.88713548376E+01  0.29447099586E+03  0.29554315493E+03  0.00000000000E+00 0. -1.
</event>
<event>
 4    1  0.3555026E+003  0.4003152E+02  0.7546771E-02  0.1348301E+00
          2   -1    0    0  502    0  0.00000000000E+00  0.00000000000E+00  0.79022855892E+02  0.79022855892E+02  0.00000000000E+00 0.  1.
          1   -1    0    0  501    0 -0.00000000000E+00 -0.00000000000E+00 -0.22300503524E+02  0.22300503524E+02  0.00000000000E+00 0.  1.
          2    1    1    2  501    0 -0.30074147674E+02  0.26420976094E+02  0.43613472986E+02  0.59200146637E+02  0.00000000000E+00 0.  1.
          1    1    1    2  502    0  0.30074147674E+02 -0.26420976094E+02  0.13108879383E+02  0.42123212778E+02  0.00000000000E+00 0.  1.
</event>
<event>
 4    1  0.3555026E+003  0.2320703E+02  0.7546771E-02  0.1489915E+00
          2   -1    0    0  502    0  0.00000000000E+00  0.00000000000E+00  0.57453223462E+00  0.57453223462E+00  0.00000000000E+00 0.  1.
          1   -1    0    0  501    0 -0.00000000000E+00 -0.00000000000E+00 -0.11462830873E+04  0.11462830873E+04  0.00000000000E+00 0.  1.
          2    1    1    2  501    0 -0.43848274086E+01 -0.22789020742E+02 -0.32806870431E+03  0.32888849315E+03  0.00000000000E+00 0.  1.
          1    1    1    2  502    0  0.43848274086E+01  0.22789020742E+02 -0.81763985079E+03  0.81796912642E+03  0.00000000000E+00 0.  1.
</event>
<event>
 4    1  0.4129791E+003  0.2298599E+02  0.7546771E-02  0.1492674E+00
          2   -1    0    0  502    0  0.00000000000E+00  0.00000000000E+00  0.13088744225E+04  0.13088744225E+04  0.00000000000E+00 0. -1.
          1   -1    0    0  501    0 -0.00000000000E+00 -0.00000000000E+00 -0.52814032773E+03  0.52814032773E+03  0.00000000000E+00 0. -1.
          2    1    1    2  501    0 -0.21327302272E+02 -0.85733350767E+01  0.13085233354E+04  0.13087252099E+04  0.00000000000E+00 0. -1.
          1    1    1    2  502    0  0.21327302272E+02  0.85733350767E+01 -0.52778924060E+03  0.52828954030E+03  0.00000000000E+00 0. -1.
</event>
<event>
 4    1  0.3555026E+003  0.3664904E+02  0.7546771E-02  0.1369326E+00
          2   -1    0    0  502    0  0.00000000000E+00  0.00000000000E+00  0.12594253862E+03  0.12594253862E+03  0.00000000000E+00 0.  1.
          1   -1    0    0  501    0 -0.00000000000E+00 -0.00000000000E+00 -0.16131864120E+04  0.16131864120E+04  0.00000000000E+00 0. -1.
          2    1    1    2  501    0  0.30230536397E+02  0.20718759398E+02  0.12306341952E+03  0.12840466326E+03  0.00000000000E+00 0.  1.
          1    1    1    2  502    0 -0.30230536397E+02 -0.20718759398E+02 -0.16103072929E+04  0.16107242873E+04  0.00000000000E+00 0. -1.
</event>
<event>
 4    1  0.3555026E+003  0.2043643E+02  0.7546771E-02  0.1527465E+00
          2   -1    0    0  502    0  0.00000000000E+00  0.00000000000E+00  0.18234507734E+04  0.18234507734E+04  0.00000000000E+00 0.  1.
          1   -1    0    0  501    0 -0.00000000000E+00 -0.00000000000E+00 -0.36335049452E+00  0.36335049452E+00  0.00000000000E+00 0. -1.
          2    1    1    2  501    0 -0.13119531228E+02 -0.15669251026E+02  0.14659636079E+04  0.14661060491E+04  0.00000000000E+00 0.  1.
          1    1    1    2  502    0  0.13119531228E+02  0.15669251026E+02  0.35712381494E+03  0.35770807472E+03  0.00000000000E+00 0. -1.
</event>
<event>
 4    1  0.3555026E+003  0.2491591E+02  0.7546771E-02  0.1469746E+00
          2   -1    0    0  502    0  0.00000000000E+00  0.00000000000E+00  0.96824622997E+00  0.96824622997E+00  0.00000000000E+00 0.  1.
          1   -1    0    0  501    0 -0.00000000000E+00 -0.00000000000E+00 -0.12343052474E+04  0.12343052474E+04  0.00000000000E+00 0.  1.
          2    1    1    2  501    0  0.21518848530E+02 -0.12559532057E+02 -0.18851289427E+03  0.19015234417E+03  0.00000000000E+00 0.  1.
          1    1    1    2  502    0 -0.21518848530E+02  0.12559532057E+02 -0.10448241069E+04  0.10451211495E+04  0.00000000000E+00 0.  1.
</event>
<event>
 4    1  0.3555026E+003  0.4390232E+02  0.7546771E-02  0.1327020E+00
          2   -1    0    0  502    0  0.00000000000E+00  0.00000000000E+00  0.20060564578E+03  0.20060564578E+03  0.00000000000E+00 0. -1.
          1   -1    0    0  501    0 -0.00000000000E+00 -0.00000000000E+00 -0.68354477337E+02  0.68354477337E+02  0.00000000000E+00 0.  1.
          2    1    1    2  501    0  0.42827522728E+02  0.96549131963E+01  0.19079657838E+03  0.19578240057E+03  0.00000000000E+00 0. -1.
          1    1    1    2  502    0 -0.42827522728E+02 -0.96549131963E+01 -0.58545409939E+02  0.73177722544E+02  0.00000000000E+00 0.  1.
</event>
<event>
 4    1  0.3555026E+003  0.2823974E+02  0.7546771E-02  0.1435537E+00
          2   -1    0    0  502    0  0.00000000000E+00  0.00000000000E+00  0.79314453788E+02  0.79314453788E+02  0.00000000000E+00 0.  1.
          1   -1    0    0  501    0 -0.00000000000E+00 -0.00000000000E+00 -0.30324639017E+03  0.30324639017E+03  0.00000000000E+00 0.  1.
          2    1    1    2  501    0 -0.25528124802E+02 -0.12074684675E+02  0.76116592378E+02  0.81186321516E+02  0.00000000000E+00 0.  1.
          1    1    1    2  502    0  0.25528124802E+02  0.12074684675E+02 -0.30004852876E+03  0.30137452244E+03  0.00000000000E+00 0.  1.
</event>
<event>
 4    1  0.3555026E+003  0.2162927E+02  0.7546771E-02  0.1510467E+00
          2   -1    0    0  502    0  0.00000000000E+00  0.00000000000E+00  0.18145882958E+03  0.18145882958E+03  0.00000000000E+00 0. -1.
          1   -1    0    0  501    0 -0.00000000000E+00 -0.00000000000E+00 -0.44344827884E+01  0.44344827884E+01  0.00000000000E+00 0.  1.
          2    1    1    2  501    0  0.14162968288E+02  0.16347343137E+02  0.14864920614E+03  0.15021455251E+03  0.00000000000E+00 0. -1.
          1    1    1    2  502    0 -0.14162968288E+02 -0.16347343137E+02  0.28375140651E+02  0.35678759863E+02  0.00000000000E+00 0.  1.
</event>
<event>
 4    1  0.3555026E+003  0.3326625E+02  0.7546771E-02  0.1393179E+00
          2   -1    0    0  502    0  0.00000000000E+00  0.00000000000E+00  0.14549336435E+04  0.14549336435E+04  0.00000000000E+00 0.  1.
          1   -1    0    0  501    0 -0.00000000000E+00 -0.00000000000E+00 -0.47829543352E+02  0.47829543352E+02  0.00000000000E+00 0. -1.
          2    1    1    2  501    0 -0.14958276202E+02  0.29713516058E+02  0.14489352397E+04  0.14493170709E+04  0.00000000000E+00 0.  1.
          1    1    1    2  502    0  0.14958276202E+02 -0.29713516058E+02 -0.41831139626E+02  0.53446115910E+02  0.00000000000E+00 0. -1.
</event>
<event>
 4    1  0.3555026E+003  0.2804901E+02  0.7546771E-02  0.1437346E+00
          2   -1    0    0  502    0  0.00000000000E+00  0.00000000000E+00  0.86321010343E+01  0.86321010343E+01  0.00000000000E+00 0. -1.
          1   -1    0    0  501    0 -0.00000000000E+00 -0.00000000000E+00 -0.54762257087E+03  0.54762257087E+03  0.00000000000E+00 0. -1.
          2    1    1    2  501    0 -0.27200318727E+02 -0.68475952764E+01 -0.15565150145E+02  0.32078354056E+02  0.00000000000E+00 0. -1.
          1    1    1    2  502    0  0.27200318727E+02  0.68475952764E+01 -0.52342531969E+03  0.52417631785E+03  0.00000000000E+00 0. -1.
</event>
<event>
 4    1  0.3555026E+003  0.2137788E+02  0.7546771E-02  0.1513938E+00
          2   -1    0    0  502    0  0.00000000000E+00  0.00000000000E+00  0.37483779883E+00  0.37483779883E+00  0.00000000000E+00 0. -1.
          1   -1    0    0  501    0 -0.00000000000E+00 -0.00000000000E+00 -0.12193988983E+04  0.12193988983E+04  0.00000000000E+00 0. -1.
          2    1    1    2  501    0 -0.21375487864E+02 -0.31891026961E+00 -0.61670702106E+03  0.61707743680E+03  0.00000000000E+00 0. -1.
          1    1    1    2  502    0  0.21375487864E+02  0.31891026961E+00 -0.60231703948E+03  0.60269629934E+03  0.00000000000E+00 0. -1.
</event>
<event>
 4    1  0.3555026E+003  0.3745575E+02  0.7546771E-02  0.1364076E+00
          2   -1    0    0  502    0  0.00000000000E+00  0.00000000000E+00  0.26119744106E+03  0.26119744106E+03  0.00000000000E+00 0. -1.
          1   -1    0    0  501    0 -0.00000000000E+00 -0.00000000000E+00 -0.29280811048E+02  0.29280811048E+02  0.00000000000E+00 0.  1.
          2    1    1    2  501    0  0.30458370986E+02 -0.21799564402E+02  0.24720208303E+03  0.25002360534E+03  0.00000000000E+00 0. -1.
          1    1    1    2  502    0 -0.30458370986E+02  0.21799564402E+02 -0.15285453020E+02  0.40454646769E+02  0.00000000000E+00 0.  1.
</event>
<event>
 4    1  0.3555026E+003  0.2046848E+02  0.7546771E-02  0.1526991E+00
          2   -1    0    0  502    0  0.00000000000E+00  0.00000000000E+00  0.36807147915E+02  0.36807147915E+02  0.00000000000E+00 0.  1.
          1   -1    0    0  501    0 -0.00000000000E+00 -0.00000000000E+00 -0.12129152054E+02  0.12129152054E+02  0.00000000000E+00 0.  1.
          2    1    1    2  501    0  0.18344493640E+02 -0.90795586862E+01  0.18409623085E+02  0.27529494273E+02  0.00000000000E+00 0.  1.
          1    1    1    2  502    0 -0.18344493640E+02  0.90795586862E+01  0.62683727755E+01  0.21406805696E+02  0.00000000000E+00 0.  1.
</event>
<event>
 4    1  0.3555026E+003  0.4675075E+02  0.7546771E-02  0.1312910E+00
          2   -1    0    0  502    0  0.00000000000E+00  0.00000000000E+00  0.88253119528E+02  0.88253119528E+02  0.00000000000E+00 0.  1.
          1   -1    0    0  501    0 -0.00000000000E+00 -0.00000000000E+00 -0.28801666745E+03  0.28801666745E+03  0.00000000000E+00 0.  1.
          2    1    1    2  501    0  0.46037814317E+02 -0.81333826189E+01  0.79982826685E+02  0.92643860155E+02  0.00000000000E+00 0.  1.
          1    1    1    2  502    0 -0.46037814317E+02  0.81333826189E+01 -0.27974637460E+03  0.28362592682E+03  0.00000000000E+00 0.  1.
</event>
<event>
 4    1  0.3555026E+003  0.2018728E+02  0.7546771E-02  0.1531192E+00
          2   -1    0    0  502    0  0.00000000000E+00  0.00000000000E+00  0.32872347727E+01  0.32872347727E+01  0.00000000000E+00 0.  1.
          1   -1    0    0  501    0 -0.00000000000E+00 -0.00000000000E+00 -0.21834563256E+03  0.21834563256E+03  0.00000000000E+00 0. -1.
          2    1    1    2  501    0  0.17501371914E+02  0.10061218323E+02 -0.34674678075E+02  0.40123053630E+02  0.00000000000E+00 0.  1.
          1    1    1    2  502    0 -0.17501371914E+02 -0.10061218323E+02 -0.18038371972E+03  0.18150981371E+03  0.00000000000E+00 0. -1.
</event>
<event>
 4    1  0.3555026E+003  0.3819436E+02  0.7546771E-02  0.1359404E+00
          2   -1    0    0  502    0  0.00000000000E+00  0.00000000000E+00  0.55746727469E+03  0.55746727469E+03  0.00000000000E+00 0. -1.
          1   -1    0    0  501    0 -0.00000000000E+00 -0.00000000000E+00 -0.36039906041E+02  0.36039906041E+02  0.00000000000E+00 0.  1.
          2    1    1    2  501    0 -0.38048969538E+02 -0.33294017444E+01  0.54649065402E+03  0.54782373436E+03  0.00000000000E+00 0. -1.
          1    1    1    2  502    0  0.38048969538E+02  0.33294017444E+01 -0.25063285368E+02  0.45683446371E+02  0.00000000000E+00 0.  1.
</event>
<event>
 4    1  0.3555026E+003  0.2510958E+02  0.7546771E-02  0.1467581E+00
          2   -1    0    0  502    0  0.00000000000E+00  0.00000000000E+00  0.48678207497E+00  0.48678207497E+00  0.00000000000E+00 0. -1.
          1   -1    0    0  501    0 -0.00000000000E+00 -0.00000000000E+00 -0.15980362623E+04  0.15980362623E+04  0.00000000000E+00 0. -1.
          2    1    1    2  501    0  0.25065051790E+02  0.14945085184E+01 -0.11466987939E+04  0.11469736764E+04  0.00000000000E+00 0. -1.
          1    1    1    2  502    0 -0.25065051790E+02 -0.14945085184E+01 -0.45085068635E+03  0.45154936802E+03  0.00000000000E+00 0. -1.
</event>
<event>
 4    1  0.3555026E+003  0.2299093E+02  0.7546771E-02  0.1492612E+00
          2   -1    0    0  502    0  0.00000000000E+00  0.00000000000E+00  0.44595973727E+01  0.44595973727E+01  0.00000000000E+00 0.  1.
          1   -1    0    0  501    0 -0.00000000000E+00 -0.00000000000E+00 -0.13793646274E+04  0.13793646274E+04  0.00000000000E+00 0.  1.
          2    1    1    2  501    0 -0.11034471889E+02 -0.20169863019E+02 -0.25935587251E+02  0.34658875200E+02  0.00000000000E+00 0.  1.
          1    1    1    2  502    0  0.11034471889E+02  0.20169863019E+02 -0.13489694427E+04  0.13491653495E+04  0.00000000000E+00 0.  1.
</event>
<event>
 4    1  0.3555026E+003  0.3597208E+02  0.7546771E-02  0.1373855E+00
          2   -1    0    0  502    0  0.00000000000E+00  0.00000000000E+00  0.20139853285E+02  0.20139853285E+02  0.00000000000E+00 0. -1.
          1   -1    0    0  501    0 -0.00000000000E+00 -0.00000000000E+00 -0.98810889188E+02  0.98810889188E+02  0.00000000000E+00 0.  1.
          2    1    1    2  501    0 -0.33853092643E+02  0.12163836034E+02 -0.41612081299E+01  0.36211965449E+02  0.00000000000E+00 0. -1.
          1    1    1    2  502    0  0.33853092643E+02 -0.12163836034E+02 -0.74509827774E+02  0.82738777024E+02  0.00000000000E+00 0.  1.
</event>
<event>
 4    1  0.3555026E+003  0.2345909E+02  0.7546771E-02  0.1486812E+00
          2   -1    0    0  502    0  0.00000000000E+00  0.00000000000E+00  0.66223190247E+03  0.66223190247E+03  0.00000000000E+00 0.  1.
          1   -1    0    0  501    0 -0.00000000000E+00 -0.00000000000E+00 -0.94829725637E+02  0.94829725637E+02  0.00000000000E+00 0.  1.
          2    1    1    2  501    0 -0.78550669593E+01  0.22104900544E+02  0.66056966365E+03  0.66098608854E+03  0.00000000000E+00 0.  1.
          1    1    1    2  502    0  0.78550669593E+01 -0.22104900544E+02 -0.93167486814E+02  0.96075539573E+02  0.00000000000E+00 0.  1.
</event>
<event>
 4    1  0.3555026E+003  0.2280042E+02  0.7546771E-02  0.1495020E+00
          2   -1    0    0  502    0  0.00000000000E+00  0.00000000000E+00  0.54224766464E+02  0.54224766464E+02  0.00000000000E+00 0. -1.
          1   -1    0    0  501    0 -0.00000000000E+00 -0.00000000000E+00 -0.96899283867E+01  0.96899283867E+01  0.00000000000E+00 0.  1.
          2    1    1    2  501    0 -0.21531556323E+02 -0.75000469568E+01  0.18975472338E+02  0.29663566416E+02  0.00000000000E+00 0. -1.
          1    1    1    2  502    0  0.21531556323E+02  0.75000469568E+01  0.25559365739E+02  0.34251128435E+02  0.00000000000E+00 0.  1.
</event>
<event>
 4    1  0.3555026E+003  0.5261407E+02  0.7546771E-02  0.1287220E+00
          2   -1    0    0  502    0  0.00000000000E+00  0.00000000000E+00  0.28891527810E+02  0.28891527810E+02  0.00000000000E+00 0.  1.
          1   -1    0    0  501    0 -0.00000000000E+00 -0.00000000000E+00 -0.26873961511E+03  0.26873961511E+03  0.00000000000E+00 0.  1.
          2    1    1    2  501    0  0.31843855904E+02 -0.41883252186E+02 -0.23929841664E+03  0.24501422444E+03  0.00000000000E+00 0.  1.
          1    1    1    2  502    0 -0.31843855904E+02  0.41883252186E+02 -0.54967066237E+00  0.52616918480E+02  0.00000000000E+00 0.  1.
</event>
<event>
 4    1  0.3555026E+003  0.2989553E+02  0.7546771E-02  0.1420507E+00
          2   -1    0    0  502    0  0.00000000000E+00  0.00000000000E+00  0.79295804974E+02  0.79295804974E+02  0.00000000000E+00 0. -1.
          1   -1    0    0  501    0 -0.00000000000E+00 -0.00000000000E+00 -0.81793467057E+02  0.81793467057E+02  0.00000000000E+00 0. -1.
          2    1    1    2  501    0 -0.93647346804E+01  0.28390920009E+02  0.73540746368E+02  0.79385036190E+02  0.00000000000E+00 0. -1.
          1    1    1    2  502    0  0.93647346804E+01 -0.28390920009E+02 -0.76038408451E+02  0.81704235840E+02  0.00000000000E+00 0. -1.
</event>
<event>
 4    1  0.3555026E+003  0.2734394E+02  0.7546771E-02  0.1444183E+00
          2   -1    0    0  502    0  0.00000000000E+00  0.00000000000E+00  0.32824054977E+01  0.32824054977E+01  0.00000000000E+00 0.  1.
          1   -1    0    0  501    0 -0.00000000000E+00 -0.00000000000E+00 -0.24120610914E+03  0.24120610914E+03  0.00000000000E+00 0.  1.
          2    1    1    2  501    0 -0.26687280282E+02 -0.59565155770E+01 -0.90128990119E+02  0.94185592670E+02  0.00000000000E+00 0.  1.
          1    1    1    2  502    0  0.26687280282E+02  0.59565155770E+01 -0.14779471352E+03  0.15030292197E+03  0.00000000000E+00 0.  1.
</event>
<event>
 4    1  0.3555026E+003  0.2422179E+02  0.7546771E-02  0.1477701E+00
          2   -1    0    0  502    0  0.00000000000E+00  0.00000000000E+00  0.19570158243E+01  0.19570158243E+01  0.00000000000E+00 0.  1.
          1   -1    0    0  501    0 -0.00000000000E+00 -0.00000000000E+00 -0.44230473411E+03  0.44230473411E+03  0.00000000000E+00 0.  1.
          2    1    1    2  501    0 -0.36874312477E+00 -0.24218981957E+02 -0.94084912467E+02  0.97152796216E+02  0.00000000000E+00 0.  1.
          1    1    1    2  502    0  0.36874312477E+00  0.24218981957E+02 -0.34626280582E+03  0.34710895372E+03  0.00000000000E+00 0.  1.
</event>
<event>
 4    1  0.3555026E+003  0.3026865E+02  0.7546771E-02  0.1417276E+00
          2   -1    0    0  502    0  0.00000000000E+00  0.00000000000E+00  0.10467783584E+04  0.10467783584E+04  0.00000000000E+00 0. -1.
          1   -1    0    0  501    0 -0.00000000000E+00 -0.00000000000E+00 -0.27805451762E+01  0.27805451762E+01  0.00000000000E+00 0.  1.
          2    1    1    2  501    0 -0.28596487727E+02  0.99212885717E+01  0.95640225157E+03  0.95688110958E+03  0.00000000000E+00 0. -1.
          1    1    1    2  502    0  0.28596487727E+02 -0.99212885717E+01  0.87595561662E+02  0.92677793997E+02  0.00000000000E+00 0.  1.
</event>
<event>
 4    1  0.3555026E+003  0.2644889E+02  0.7546771E-02  0.1453224E+00
          2   -1    0    0  502    0  0.00000000000E+00  0.00000000000E+00  0.85277508443E+03  0.85277508443E+03  0.00000000000E+00 0. -1.
          1   -1    0    0  501    0 -0.00000000000E+00 -0.00000000000E+00 -0.35889625653E+01  0.35889625653E+01  0.00000000000E+00 0.  1.
          2    1    1    2  501    0 -0.26435707060E+02  0.83493758845E+00  0.80067098998E+03  0.80110771930E+03  0.00000000000E+00 0. -1.
          1    1    1    2  502    0  0.26435707060E+02 -0.83493758845E+00  0.48515131894E+02  0.55256327703E+02  0.00000000000E+00 0.  1.
</event>
<event>
 4    1  0.3555026E+003  0.2384535E+02  0.7546771E-02  0.1482147E+00
          2   -1    0    0  502    0  0.00000000000E+00  0.00000000000E+00  0.17577051408E+02  0.17577051408E+02  0.00000000000E+00 0. -1.
          1   -1    0    0  501    0 -0.00000000000E+00 -0.00000000000E+00 -0.65584607729E+02  0.65584607729E+02  0.00000000000E+00 0. -1.
          2    1    1    2  501    0  0.20789985340E+02 -0.11678064784E+02  0.55963612829E+01  0.24493263301E+02  0.00000000000E+00 0. -1.
          1    1    1    2  502    0 -0.20789985340E+02  0.11678064784E+02 -0.53603917603E+02  0.58668395836E+02  0.00000000000E+00 0. -1.
</event>
<event>
 4    1  0.3555026E+003  0.3746393E+02  0.7546771E-02  0.1364024E+00
          2   -1    0    0  502    0  0.00000000000E+00  0.00000000000E+00  0.11398968323E+04  0.11398968323E+04  0.00000000000E+00 0. -1.
          1   -1    0    0  501    0 -0.00000000000E+00 -0.00000000000E+00 -0.15078432181E+01  0.15078432181E+01  0.00000000000E+00 0.  1.
          2    1    1    2  501    0 -0.30494047297E+02  0.21763704125E+02  0.81360474924E+03  0.81446684016E+03  0.00000000000E+00 0. -1.
          1    1    1    2  502    0  0.30494047297E+02 -0.21763704125E+02  0.32478423989E+03  0.32693783541E+03  0.00000000000E+00 0.  1.
</event>
<event>
 4    1  0.3555026E+003  0.2105129E+02  0.7546771E-02  0.1518534E+00
          2   -1    0    0  502    0  0.00000000000E+00  0.00000000000E+00  0.22629047556E+02  0.22629047556E+02  0.00000000000E+00 0.  1.
          1   -1    0    0  501    0 -0.00000000000E+00 -0.00000000000E+00 -0.18046011707E+03  0.18046011707E+03  0.00000000000E+00 0.  1.
          2    1    1    2  501    0  0.12859529259E+01 -0.21011974500E+02  0.16961049973E+02  0.27033940955E+02  0.00000000000E+00 0.  1.
          1    1    1    2  502    0 -0.12859529259E+01  0.21011974500E+02 -0.17479211949E+03  0.17605522367E+03  0.00000000000E+00 0.  1.
</event>
<event>
 4    1  0.3555026E+003  0.2488694E+02  0.7546771E-02  0.1470072E+00
          2   -1    0    0  502    0  0.00000000000E+00  0.00000000000E+00  0.13430202484E+04  0.13430202484E+04  0.00000000000E+00 0.  1.
          1   -1    0    0  501    0 -0.00000000000E+00 -0.00000000000E+00 -0.29183531403E+02  0.29183531403E+02  0.00000000000E+00 0. -1.
          2    1    1    2  501    0 -0.22475790015E+02 -0.10686365466E+02  0.13375776408E+04  0.13378091436E+04  0.00000000000E+00 0.  1.
          1    1    1    2  502    0  0.22475790015E+02  0.10686365466E+02 -0.23740923739E+02  0.34394636262E+02  0.00000000000E+00 0. -1.
</event>
<event>
 4    1  0.3555026E+003  0.2338038E+02  0.7546771E-02  0.1487776E+00
          2   -1    0    0  502    0  0.00000000000E+00  0.00000000000E+00  0.41577186480E+01  0.41577186480E+01  0.00000000000E+00 0. -1.
          1   -1    0    0  501    0 -0.00000000000E+00 -0.00000000000E+00 -0.19523862539E+03  0.19523862539E+03  0.00000000000E+00 0. -1.
          2    1    1    2  501    0  0.16219128001E+02  0.16839893171E+02 -0.38565252446E+02  0.45099011201E+02  0.00000000000E+00 0. -1.
          1    1    1    2  502    0 -0.16219128001E+02 -0.16839893171E+02 -0.15251565430E+03  0.15429733284E+03  0.00000000000E+00 0. -1.
</event>
<event>
 4    1  0.3555026E+003  0.2908723E+02  0.7546771E-02  0.1427698E+00
          2   -1    0    0  502    0  0.00000000000E+00  0.00000000000E+00  0.19902473963E+02  0.19902473963E+02  0.00000000000E+00 0.  1.
          1   -1    0    0  501    0 -0.00000000000E+00 -0.00000000000E+00 -0.80198060334E+03  0.80198060334E+03  0.00000000000E+00 0.  1.
          2    1    1    2  501    0  0.28942661387E+02  0.28964716329E+01  0.88627799541E+01  0.30407500137E+02  0.00000000000E+00 0.  1.
          1    1    1    2  502    0 -0.28942661387E+02 -0.28964716329E+01 -0.79094090933E+03  0.79147557716E+03  0.00000000000E+00 0.  1.
</event>
<event>
 4    1  0.3555026E+003  0.2000835E+02  0.7546771E-02  0.1533908E+00
          2   -1    0    0  502    0  0.00000000000E+00  0.00000000000E+00  0.67150888634E+02  0.67150888634E+02  0.00000000000E+00 0. -1.
          1   -1    0    0  501    0 -0.00000000000E+00 -0.00000000000E+00 -0.11239153506E+02  0.11239153506E+02  0.00000000000E+00 0.  1.
          2    1    1    2  501    0  0.18445050252E+02 -0.77533371733E+01  0.54814005646E+02  0.58351600930E+02  0.00000000000E+00 0. -1.
          1    1    1    2  502    0 -0.18445050252E+02  0.77533371733E+01  0.10977294818E+01  0.20038441210E+02  0.00000000000E+00 0.  1.
</event>
<event>
 4    1  0.3555026E+003  0.2574988E+02  0.7546771E-02  0.1460587E+00
          2   -1    0    0  502    0  0.00000000000E+00  0.00000000000E+00  0.86635409557E+02  0.86635409557E+02  0.00000000000E+00 0.  1.
          1   -1    0    0  501    0 -0.00000000000E+00 -0.00000000000E+00 -0.84290602221E+01  0.84290602221E+01  0.00000000000E+00 0.  1.
          2    1    1    2  501    0  0.54677762964E+01  0.25162665393E+02  0.53522057911E+02  0.59394166299E+02  0.00000000000E+00 0.  1.
          1    1    1    2  502    0 -0.54677762964E+01 -0.25162665393E+02  0.24684291424E+02  0.35670303481E+02  0.00000000000E+00 0.  1.
</event>
<event>
 4    1  0.3555026E+003  0.2788040E+02  0.7546771E-02  0.1438959E+00
          2   -1    0    0  502    0  0.00000000000E+00  0.00000000000E+00  0.10280286848E+03  0.10280286848E+03  0.00000000000E+00 0.  1.
          1   -1    0    0  501    0 -0.00000000000E+00 -0.00000000000E+00 -0.11262679082E+03  0.11262679082E+03  0.00000000000E+00 0.  1.
          2    1    1    2  501    0  0.15058733951E+02 -0.23463827192E+02  0.99124321318E+02  0.10297061586E+03  0.00000000000E+00 0.  1.
          1    1    1    2  502    0 -0.15058733951E+02  0.23463827192E+02 -0.10894824366E+03  0.11245904344E+03  0.00000000000E+00 0.  1.
</event>
<event>
 4    1  0.3555026E+003  0.3801622E+02  0.7546771E-02  0.1360520E+00
          2   -1    0    0  502    0  0.00000000000E+00  0.00000000000E+00  0.94137766313E+03  0.94137766313E+03  0.00000000000E+00 0.  1.
          1   -1    0    0  501    0 -0.00000000000E+00 -0.00000000000E+00 -0.15192089245E+03  0.15192089245E+03  0.00000000000E+00 0.  1.
          2    1    1    2  501    0 -0.55587644802E+01  0.37607618214E+02  0.93860857631E+03  0.93937814129E+03  0.00000000000E+00 0.  1.
          1    1    1    2  502    0  0.55587644802E+01 -0.37607618214E+02 -0.14915180563E+03  0.15392041429E+03  0.00000000000E+00 0.  1.
</event>
<event>
 4    1  0.3555026E+003  0.2009677E+02  0.7546771E-02  0.1532562E+00
          2   -1    0    0  502    0  0.00000000000E+00  0.00000000000E+00  0.97474893920E+02  0.97474893920E+02  0.00000000000E+00 0. -1.
          1   -1    0    0  501    0 -0.00000000000E+00 -0.00000000000E+00 -0.61688643460E+01  0.61688643460E+01  0.00000000000E+00 0.  1.
          2    1    1    2  501    0 -0.19499129935E+02  0.48645773717E+01  0.75347094659E+02  0.77981182697E+02  0.00000000000E+00 0. -1.
          1    1    1    2  502    0  0.19499129935E+02 -0.48645773717E+01  0.15958934914E+02  0.25662575569E+02  0.00000000000E+00 0.  1.
</event>
<event>
 4    1  0.3555026E+003  0.2562879E+02  0.7546771E-02  0.1461891E+00
          2   -1    0    0  502    0  0.00000000000E+00  0.00000000000E+00  0.67503811109E+02  0.67503811109E+02  0.00000000000E+00 0.  1.
          1   -1    0    0  501    0 -0.00000000000E+00 -0.00000000000E+00 -0.14728268391E+02  0.14728268391E+02  0.00000000000E+00 0.  1.
          2    1    1    2  501    0 -0.25542382986E+02 -0.21027326432E+01  0.50339153994E+02  0.56487744139E+02  0.00000000000E+00 0.  1.
          1    1    1    2  502    0  0.25542382986E+02  0.21027326432E+01  0.24363887241E+01  0.25744335361E+02  0.00000000000E+00 0.  1.
</event>
<event>
 4    1  0.3555026E+003  0.2034323E+02  0.7546771E-02  0.1528852E+00
          2   -1    0    0  502    0  0.00000000000E+00  0.00000000000E+00  0.41623309566E+02  0.41623309566E+02  0.00000000000E+00 0.  1.
          1   -1    0    0  501    0 -0.00000000000E+00 -0.00000000000E+00 -0.91274370556E+03  0.91274370556E+03  0.00000000000E+00 0.  1.
          2    1    1    2  501    0 -0.15016520960E+02  0.13724108894E+02  0.39017171455E+02  0.44002121938E+02  0.00000000000E+00 0.  1.
          1    1    1    2  502    0  0.15016520960E+02 -0.13724108894E+02 -0.91013756745E+03  0.91036489319E+03  0.00000000000E+00 0.  1.
</event>
<event>
 4    1  0.3555026E+003  0.3494041E+02  0.7546771E-02  0.1380983E+00
          2   -1    0    0  502    0  0.00000000000E+00  0.00000000000E+00  0.50434551255E+03  0.50434551255E+03  0.00000000000E+00 0. -1.
          1   -1    0    0  501    0 -0.00000000000E+00 -0.00000000000E+00 -0.39597218409E+01  0.39597218409E+01  0.00000000000E+00 0. -1.
          2    1    1    2  501    0  0.13159275224E+02  0.32367664169E+02  0.40864389442E+03  0.41013493469E+03  0.00000000000E+00 0. -1.
          1    1    1    2  502    0 -0.13159275224E+02 -0.32367664169E+02  0.91741896287E+02  0.98170299697E+02  0.00000000000E+00 0. -1.
</event>
<event>
 4    1  0.3851113E+003  0.3297487E+02  0.7546771E-02  0.1395388E+00
          2   -1    0    0  502    0  0.00000000000E+00  0.00000000000E+00  0.12866517618E+04  0.12866517618E+04  0.00000000000E+00 0.  1.
          1   -1    0    0  501    0 -0.00000000000E+00 -0.00000000000E+00 -0.41130423335E+03  0.41130423335E+03  0.00000000000E+00 0. -1.
          2    1    1    2  501    0 -0.34826372535E+01 -0.32790445289E+02  0.12857791287E+04  0.12862018931E+04  0.00000000000E+00 0.  1.
          1    1    1    2  502    0  0.34826372535E+01  0.32790445289E+02 -0.41043160024E+03  0.41175410203E+03  0.00000000000E+00 0. -1.
</event>
<event>
 4    1  0.3555026E+003  0.3457296E+02  0.7546771E-02  0.1383591E+00
          2   -1    0    0  502    0  0.00000000000E+00  0.00000000000E+00  0.15522420425E+04  0.15522420425E+04  0.00000000000E+00 0.  1.
          1   -1    0    0  501    0 -0.00000000000E+00 -0.00000000000E+00 -0.61185325018E+01  0.61185325018E+01  0.00000000000E+00 0. -1.
          2    1    1    2  501    0  0.60728027060E+01  0.34035427445E+02  0.15015624929E+04  0.15019604553E+04  0.00000000000E+00 0.  1.
          1    1    1    2  502    0 -0.60728027060E+01 -0.34035427445E+02  0.44561017036E+02  0.56400119622E+02  0.00000000000E+00 0. -1.
</event>
<event>
 4    1  0.3555026E+003  0.2787450E+02  0.7546771E-02  0.1439016E+00
          2   -1    0    0  502    0  0.00000000000E+00  0.00000000000E+00  0.12185683781E+04  0.12185683781E+04  0.00000000000E+00 0.  1.
          1   -1    0    0  501    0 -0.00000000000E+00 -0.00000000000E+00 -0.48325584487E+01  0.48325584487E+01  0.00000000000E+00 0.  1.
          2    1    1    2  501    0 -0.26921067836E+02  0.72279909896E+01  0.11767865666E+04  0.11771166514E+04  0.00000000000E+00 0.  1.
          1    1    1    2  502    0  0.26921067836E+02 -0.72279909896E+01  0.36949253021E+02  0.46284285087E+02  0.00000000000E+00 0.  1.
</event>
<event>
 4    1  0.3555026E+003  0.7897653E+02  0.7546771E-02  0.1206244E+00
          2   -1    0    0  502    0  0.00000000000E+00  0.00000000000E+00  0.44115303767E+03  0.44115303767E+03  0.00000000000E+00 0. -1.
          1   -1    0    0  501    0 -0.00000000000E+00 -0.00000000000E+00 -0.10502730958E+03  0.10502730958E+03  0.00000000000E+00 0. -1.
          2    1    1    2  501    0  0.77896433881E+02  0.13016856807E+02  0.42210741615E+03  0.42943214102E+03  0.00000000000E+00 0. -1.
          1    1    1    2  502    0 -0.77896433881E+02 -0.13016856807E+02 -0.85981688065E+02  0.11674820622E+03  0.00000000000E+00 0. -1.
</event>
<event>
 4    1  0.3555026E+003  0.3001465E+02  0.7546771E-02  0.1419469E+00
          2   -1    0    0  502    0  0.00000000000E+00  0.00000000000E+00  0.91905018851E+01  0.91905018851E+01  0.00000000000E+00 0. -1.
          1   -1    0    0  501    0 -0.00000000000E+00 -0.00000000000E+00 -0.98306777003E+02  0.98306777003E+02  0.00000000000E+00 0. -1.
          2    1    1    2  501    0  0.24397783613E+02  0.17482176340E+02 -0.47447154290E+02  0.56143662020E+02  0.00000000000E+00 0. -1.
          1    1    1    2  502    0 -0.24397783613E+02 -0.17482176340E+02 -0.41669120828E+02  0.51353616868E+02  0.00000000000E+00 0. -1.
</event>
<event>
 4    1  0.3555026E+003  0.2964178E+02  0.7546771E-02  0.1422735E+00
          2   -1    0    0  502    0  0.00000000000E+00  0.00000000000E+00  0.19660794846E+04  0.19660794846E+04  0.00000000000E+00 0. -1.
          1   -1    0    0  501    0 -0.00000000000E+00 -0.00000000000E+00 -0.17826587296E+02  0.17826587296E+02  0.00000000000E+00 0. -1.
          2    1    1    2  501    0  0.67929280831E+01 -0.28852921476E+02  0.19535668690E+04  0.19537917357E+04  0.00000000000E+00 0. -1.
          1    1    1    2  502    0 -0.67929280831E+01  0.28852921476E+02 -0.53139716668E+01  0.30114336196E+02  0.00000000000E+00 0. -1.
</event>
<event>
 4    1  0.3555026E+003  0.2743652E+02  0.7546771E-02  0.1443272E+00
          2   -1    0    0  502    0  0.00000000000E+00  0.00000000000E+00  0.20176474892E+01  0.20176474892E+01  0.00000000000E+00 0.  1.
          1   -1    0    0  501    0 -0.00000000000E+00 -0.00000000000E+00 -0.15570598584E+04  0.15570598584E+04  0.00000000000E+00 0.  1.
          2    1    1    2  501    0  0.14100048285E+02 -0.23536172774E+02 -0.97761273284E+02  0.10153831466E+03  0.00000000000E+00 0.  1.
          1    1    1    2  502    0 -0.14100048285E+02  0.23536172774E+02 -0.14572809377E+04  0.14575391913E+04  0.00000000000E+00 0.  1.
</event>
<event>
 4    1  0.3555026E+003  0.2592685E+02  0.7546771E-02  0.1458696E+00
          2   -1    0    0  502    0  0.00000000000E+00  0.00000000000E+00  0.16422645819E+02  0.16422645819E+02  0.00000000000E+00 0. -1.
          1   -1    0    0  501    0 -0.00000000000E+00 -0.00000000000E+00 -0.84349557879E+03  0.84349557879E+03  0.00000000000E+00 0.  1.
          2    1    1    2  501    0 -0.25829204333E+02 -0.22480032718E+01  0.58608502482E+01  0.26581024826E+02  0.00000000000E+00 0. -1.
          1    1    1    2  502    0  0.25829204333E+02  0.22480032718E+01 -0.83293378322E+03  0.83333719978E+03  0.00000000000E+00 0.  1.
</event>
<event>
 4    1  0.3555026E+003  0.2569874E+02  0.7546771E-02  0.1461136E+00
          2   -1    0    0  502    0  0.00000000000E+00  0.00000000000E+00  0.30099175185E+03  0.30099175185E+03  0.00000000000E+00 0. -1.
          1   -1    0    0  501    0 -0.00000000000E+00 -0.00000000000E+00 -0.35047225204E+01  0.35047225204E+01  0.00000000000E+00 0. -1.
          2    1    1    2  501    0  0.25433751879E+02  0.36809660145E+01  0.24184437061E+03  0.24320593093E+03  0.00000000000E+00 0. -1.
          1    1    1    2  502    0 -0.25433751879E+02 -0.36809660145E+01  0.55642658724E+02  0.61290543442E+02  0.00000000000E+00 0. -1.
</event>
<event>
 4    1  0.3555026E+003  0.5109925E+02  0.7546771E-02  0.1293476E+00
          2   -1    0    0  502    0  0.00000000000E+00  0.00000000000E+00  0.49111456530E+02  0.49111456530E+02  0.00000000000E+00 0. -1.
          1   -1    0    0  501    0 -0.00000000000E+00 -0.00000000000E+00 -0.53168473531E+02  0.53168473531E+02  0.00000000000E+00 0. -1.
          2    1    1    2  501    0 -0.50963016259E+02  0.37288480992E+01 -0.18096076648E+01  0.51131282150E+02  0.00000000000E+00 0. -1.
          1    1    1    2  502    0  0.50963016259E+02 -0.37288480992E+01 -0.22474093365E+01  0.51148647911E+02  0.00000000000E+00 0. -1.
</event>
<event>
 4    1  0.3555026E+003  0.6286287E+02  0.7546771E-02  0.1250404E+00
          2   -1    0    0  502    0  0.00000000000E+00  0.00000000000E+00  0.15920599604E+03  0.15920599604E+03  0.00000000000E+00 0. -1.
          1   -1    0    0  501    0 -0.00000000000E+00 -0.00000000000E+00 -0.25086753613E+02  0.25086753613E+02  0.00000000000E+00 0. -1.
          2    1    1    2  501    0 -0.57589758024E+02  0.25202311422E+02  0.57585030632E+02  0.85251231564E+02  0.00000000000E+00 0. -1.
          1    1    1    2  502    0  0.57589758024E+02 -0.25202311422E+02  0.76534211793E+02  0.99041518087E+02  0.00000000000E+00 0. -1.
</event>
<event>
 4    1  0.3555026E+003  0.2534244E+02  0.7546771E-02  0.1465009E+00
          2   -1    0    0  502    0  0.00000000000E+00  0.00000000000E+00  0.17017700827E+03  0.17017700827E+03  0.00000000000E+00 0. -1.
          1   -1    0    0  501    0 -0.00000000000E+00 -0.00000000000E+00 -0.13389208193E+02  0.13389208193E+02  0.00000000000E+00 0. -1.
          2    1    1    2  501    0  0.17845855462E+02 -0.17993469531E+02  0.15617351543E+03  0.15821632794E+03  0.00000000000E+00 0. -1.
          1    1    1    2  502    0 -0.17845855462E+02  0.17993469531E+02  0.61428464919E+00  0.25349888532E+02  0.00000000000E+00 0. -1.
</event>
<event>
 4    1  0.3555026E+003  0.2756137E+02  0.7546771E-02  0.1442049E+00
          2   -1    0    0  502    0  0.00000000000E+00  0.00000000000E+00  0.23363664478E+03  0.23363664478E+03  0.00000000000E+00 0. -1.
          1   -1    0    0  501    0 -0.00000000000E+00 -0.00000000000E+00 -0.64960586015E+01  0.64960586015E+01  0.00000000000E+00 0.  1.
          2    1    1    2  501    0 -0.26762155872E+02 -0.65890893982E+01  0.19842691713E+03  0.20033190092E+03  0.00000000000E+00 0. -1.
          1    1    1    2  502    0  0.26762155872E+02  0.65890893982E+01  0.28713669048E+02  0.39800802457E+02  0.00000000000E+00 0.  1.
</event>
<event>
 4    1  0.3555026E+003  0.2225452E+02  0.7546771E-02  0.1502077E+00
          2   -1    0    0  502    0  0.00000000000E+00  0.00000000000E+00  0.12456354521E+02  0.12456354521E+02  0.00000000000E+00 0.  1.
          1   -1    0    0  501    0 -0.00000000000E+00 -0.00000000000E+00 -0.27295105838E+03  0.27295105838E+03  0.00000000000E+00 0. -1.
          2    1    1    2  501    0  0.64015410033E+01  0.21313942227E+02  0.16538849623E+01  0.22315895589E+02  0.00000000000E+00 0.  1.
          1    1    1    2  502    0 -0.64015410033E+01 -0.21313942227E+02 -0.26214858882E+03  0.26309151731E+03  0.00000000000E+00 0. -1.
</event>
<event>
 4    1  0.3555026E+003  0.2691734E+02  0.7546771E-02  0.1448440E+00
          2   -1    0    0  502    0  0.00000000000E+00  0.00000000000E+00  0.90914652856E+01  0.90914652856E+01  0.00000000000E+00 0.  1.
          1   -1    0    0  501    0 -0.00000000000E+00 -0.00000000000E+00 -0.36732476649E+03  0.36732476649E+03  0.00000000000E+00 0.  1.
          2    1    1    2  501    0 -0.26832727348E+02  0.21325514980E+01 -0.12572162800E+02  0.29708623500E+02  0.00000000000E+00 0.  1.
          1    1    1    2  502    0  0.26832727348E+02 -0.21325514980E+01 -0.34566113841E+03  0.34670760828E+03  0.00000000000E+00 0.  1.
</event>
<event>
 4    1  0.3555026E+003  0.2073950E+02  0.7546771E-02  0.1523017E+00
          2   -1    0    0  502    0  0.00000000000E+00  0.00000000000E+00  0.25707677798E+01  0.25707677798E+01  0.00000000000E+00 0.  1.
          1   -1    0    0  501    0 -0.00000000000E+00 -0.00000000000E+00 -0.81473300335E+03  0.81473300335E+03  0.00000000000E+00 0.  1.
          2    1    1    2  501    0  0.13424549991E+02  0.15808494924E+02 -0.41798571612E+02  0.46660986305E+02  0.00000000000E+00 0.  1.
          1    1    1    2  502    0 -0.13424549991E+02 -0.15808494924E+02 -0.77036366395E+03  0.77064278482E+03  0.00000000000E+00 0.  1.
</event>
<event>
 4    1  0.3555026E+003  0.3207976E+02  0.7546771E-02  0.1402344E+00
          2   -1    0    0  502    0  0.00000000000E+00  0.00000000000E+00  0.31326965568E+01  0.31326965568E+01  0.00000000000E+00 0. -1.
          1   -1    0    0  501    0 -0.00000000000E+00 -0.00000000000E+00 -0.46786135244E+03  0.46786135244E+03  0.00000000000E+00 0. -1.
          2    1    1    2  501    0  0.28302180583E+02 -0.15102898943E+02 -0.10383921765E+03  0.10868161806E+03  0.00000000000E+00 0. -1.
          1    1    1    2  502    0 -0.28302180583E+02  0.15102898943E+02 -0.36088943824E+03  0.36231243094E+03  0.00000000000E+00 0. -1.
</event>
<event>
 4    1  0.3555026E+003  0.2921655E+02  0.7546771E-02  0.1426529E+00
          2   -1    0    0  502    0  0.00000000000E+00  0.00000000000E+00  0.19039261543E+04  0.19039261543E+04  0.00000000000E+00 0. -1.
          1   -1    0    0  501    0 -0.00000000000E+00 -0.00000000000E+00 -0.10085749157E+01  0.10085749157E+01  0.00000000000E+00 0.  1.
          2    1    1    2  501    0  0.13333981080E+02 -0.25996378669E+02  0.16613323586E+04  0.16615892430E+04  0.00000000000E+00 0. -1.
          1    1    1    2  502    0 -0.13333981080E+02  0.25996378669E+02  0.24158522080E+03  0.24334548623E+03  0.00000000000E+00 0.  1.
</event>
<event>
 4    1  0.3555026E+003  0.2263246E+02  0.7546771E-02  0.1497166E+00
          2   -1    0    0  502    0  0.00000000000E+00  0.00000000000E+00  0.99033632257E+03  0.99033632257E+03  0.00000000000E+00 0. -1.
          1   -1    0    0  501    0 -0.00000000000E+00 -0.00000000000E+00 -0.54573251607E+02  0.54573251607E+02  0.00000000000E+00 0. -1.
          2    1    1    2  501    0 -0.13358362732E+02 -0.18269711726E+02  0.98785460486E+03  0.98811383380E+03  0.00000000000E+00 0. -1.
          1    1    1    2  502    0  0.13358362732E+02  0.18269711726E+02 -0.52091533891E+02  0.56795740374E+02  0.00000000000E+00 0. -1.
</event>
<event>
 4    1  0.3555026E+003  0.2447127E+02  0.7546771E-02  0.1474806E+00
          2   -1    0    0  502    0  0.00000000000E+00  0.00000000000E+00  0.33663894893E+02  0.33663894893E+02  0.00000000000E+00 0.  1.
          1   -1    0    0  501    0 -0.00000000000E+00 -0.00000000000E+00 -0.27845587090E+02  0.27845587090E+02  0.00000000000E+00 0. -1.
          2    1    1    2  501    0 -0.18368450589E+01 -0.24402236164E+02  0.21391695539E+02  0.32503042437E+02  0.00000000000E+00 0.  1.
          1    1    1    2  502    0  0.18368450589E+01  0.24402236164E+02 -0.15573387736E+02  0.29006439546E+02  0.00000000000E+00 0. -1.
</event>
<event>
 4    1  0.3555026E+003  0.2256090E+02  0.7546771E-02  0.1498087E+00
          2   -1    0    0  502    0  0.00000000000E+00  0.00000000000E+00  0.12112166411E+02  0.12112166411E+02  0.00000000000E+00 0. -1.
          1   -1    0    0  501    0 -0.00000000000E+00 -0.00000000000E+00 -0.17686522011E+03  0.17686522011E+03  0.00000000000E+00 0. -1.
          2    1    1    2  501    0  0.20506664143E+02 -0.94058903309E+01  0.12670766237E+00  0.22561252227E+02  0.00000000000E+00 0. -1.
          1    1    1    2  502    0 -0.20506664143E+02  0.94058903309E+01 -0.16487976136E+03  0.16641613430E+03  0.00000000000E+00 0. -1.
</event>
<event>
 4    1  0.3555026E+003  0.4537819E+02  0.7546771E-02  0.1319559E+00
          2   -1    0    0  502    0  0.00000000000E+00  0.00000000000E+00  0.22573053209E+02  0.22573053209E+02  0.00000000000E+00 0. -1.
          1   -1    0    0  501    0 -0.00000000000E+00 -0.00000000000E+00 -0.22688782683E+03  0.22688782683E+03  0.00000000000E+00 0. -1.
          2    1    1    2  501    0  0.44539425256E+02  0.86844358388E+01 -0.57077454451E+01  0.45735742981E+02  0.00000000000E+00 0. -1.
          1    1    1    2  502    0 -0.44539425256E+02 -0.86844358388E+01 -0.19860702818E+03  0.20372513706E+03  0.00000000000E+00 0. -1.
</event>
<event>
 4    1  0.3555026E+003  0.2599095E+02  0.7546771E-02  0.1458016E+00
          2   -1    0    0  502    0  0.00000000000E+00  0.00000000000E+00  0.34115304878E+02  0.34115304878E+02  0.00000000000E+00 0. -1.
          1   -1    0    0  501    0 -0.00000000000E+00 -0.00000000000E+00 -0.29100094339E+02  0.29100094339E+02  0.00000000000E+00 0.  1.
          2    1    1    2  501    0  0.91769015408E+01 -0.24316944260E+02  0.20374854780E+02  0.33025202609E+02  0.00000000000E+00 0. -1.
          1    1    1    2  502    0 -0.91769015408E+01  0.24316944260E+02 -0.15359644241E+02  0.30190196608E+02  0.00000000000E+00 0.  1.
</event>
<event>
 4    1  0.3555026E+003  0.3882009E+02  0.7546771E-02  0.1355542E+00
          2   -1    0    0  502    0  0.00000000000E+00  0.00000000000E+00  0.11979119533E+04  0.11979119533E+04  0.00000000000E+00 0.  1.
          1   -1    0    0  501    0 -0.00000000000E+00 -0.00000000000E+00 -0.13208824627E+02  0.13208824627E+02  0.00000000000E+00 0. -1.
          2    1    1    2  501    0 -0.16371073547E+02 -0.35199252643E+02  0.11683534584E+04  0.11689982050E+04  0.00000000000E+00 0.  1.
          1    1    1    2  502    0  0.16371073547E+02  0.35199252643E+02  0.16349670273E+02  0.42122572971E+02  0.00000000000E+00 0. -1.
</event>
<event>
 4    1  0.3555026E+003  0.2181611E+02  0.7546771E-02  0.1507925E+00
          2   -1    0    0  502    0  0.00000000000E+00  0.00000000000E+00  0.19160226062E+02  0.19160226062E+02  0.00000000000E+00 0.  1.
          1   -1    0    0  501    0 -0.00000000000E+00 -0.00000000000E+00 -0.27198330535E+02  0.27198330535E+02  0.00000000000E+00 0.  1.
          2    1    1    2  501    0 -0.15217942416E+02  0.15631917721E+02  0.28061982039E+01  0.21995848958E+02  0.00000000000E+00 0.  1.
          1    1    1    2  502    0  0.15217942416E+02 -0.15631917721E+02 -0.10844302676E+02  0.24362707640E+02  0.00000000000E+00 0.  1.
</event>
<event>
 4    1  0.3555026E+003  0.2910287E+02  0.7546771E-02  0.1427556E+00
          2   -1    0    0  502    0  0.00000000000E+00  0.00000000000E+00  0.26579300185E+01  0.26579300185E+01  0.00000000000E+00 0. -1.
          1   -1    0    0  501    0 -0.00000000000E+00 -0.00000000000E+00 -0.93775531578E+03  0.93775531578E+03  0.00000000000E+00 0. -1.
          2    1    1    2  501    0 -0.13158556260E+02  0.25958223528E+02 -0.85496582752E+02  0.90314133080E+02  0.00000000000E+00 0. -1.
          1    1    1    2  502    0  0.13158556260E+02 -0.25958223528E+02 -0.84960080301E+03  0.85009911272E+03  0.00000000000E+00 0. -1.
</event>
<event>
 4    1  0.3555026E+003  0.9458834E+02  0.7546771E-02  0.1173531E+00
          2   -1    0    0  502    0  0.00000000000E+00  0.00000000000E+00  0.17741728911E+02  0.17741728911E+02  0.00000000000E+00 0.  1.
          1   -1    0    0  501    0 -0.00000000000E+00 -0.00000000000E+00 -0.72741799643E+03  0.72741799643E+03  0.00000000000E+00 0.  1.
          2    1    1    2  501    0 -0.52307376407E+02 -0.78809210247E+02 -0.14848756773E+03  0.17605542030E+03  0.00000000000E+00 0.  1.
          1    1    1    2  502    0  0.52307376407E+02  0.78809210247E+02 -0.56118869979E+03  0.56910430504E+03  0.00000000000E+00 0.  1.
</event>
<event>
 4    1  0.3555026E+003  0.2718995E+02  0.7546771E-02  0.1445709E+00
          2   -1    0    0  502    0  0.00000000000E+00  0.00000000000E+00  0.14608477664E+02  0.14608477664E+02  0.00000000000E+00 0. -1.
          1   -1    0    0  501    0 -0.00000000000E+00 -0.00000000000E+00 -0.58606159797E+02  0.58606159797E+02  0.00000000000E+00 0.  1.
          2    1    1    2  501    0 -0.64877913840E+01 -0.26404583624E+02 -0.84745563855E+01  0.28480020705E+02  0.00000000000E+00 0. -1.
          1    1    1    2  502    0  0.64877913840E+01  0.26404583624E+02 -0.35523125748E+02  0.44734616756E+02  0.00000000000E+00 0.  1.
</event>
<event>
 4    1  0.3555026E+003  0.2385813E+02  0.7546771E-02  0.1481995E+00
          2   -1    0    0  502    0  0.00000000000E+00  0.00000000000E+00  0.61826195312E+01  0.61826195312E+01  0.00000000000E+00 0.  1.
          1   -1    0    0  501    0 -0.00000000000E+00 -0.00000000000E+00 -0.65079573003E+03  0.65079573003E+03  0.00000000000E+00 0. -1.
          2    1    1    2  501    0 -0.23155188912E+02 -0.57487035060E+01 -0.17938182497E+02  0.29849434783E+02  0.00000000000E+00 0.  1.
          1    1    1    2  502    0  0.23155188912E+02  0.57487035060E+01 -0.62667492800E+03  0.62712891478E+03  0.00000000000E+00 0. -1.
</event>
<event>
 4    1  0.3555026E+003  0.2515992E+02  0.7546771E-02  0.1467022E+00
          2   -1    0    0  502    0  0.00000000000E+00  0.00000000000E+00  0.75214322800E+03  0.75214322800E+03  0.00000000000E+00 0.  1.
          1   -1    0    0  501    0 -0.00000000000E+00 -0.00000000000E+00 -0.65164580366E+01  0.65164580366E+01  0.00000000000E+00 0. -1.
          2    1    1    2  501    0 -0.16386895258E+02 -0.19091647568E+02  0.72680079420E+03  0.72723614858E+03  0.00000000000E+00 0.  1.
          1    1    1    2  502    0  0.16386895258E+02  0.19091647568E+02  0.18825975757E+02  0.31423537456E+02  0.00000000000E+00 0. -1.
</event>
<event>
 4    1  0.3555026E+003  0.2412628E+02  0.7546771E-02  0.1478820E+00
          2   -1    0    0  502    0  0.00000000000E+00  0.00000000000E+00  0.34896584648E+01  0.34896584648E+01  0.00000000000E+00 0. -1.
          1   -1    0    0  501    0 -0.00000000000E+00 -0.00000000000E+00 -0.83765845885E+03  0.83765845885E+03  0.00000000000E+00 0.  1.
          2    1    1    2  501    0  0.61593063574E+01  0.23326813634E+02 -0.40706397708E+02  0.47319003619E+02  0.00000000000E+00 0. -1.
          1    1    1    2  502    0 -0.61593063574E+01 -0.23326813634E+02 -0.79346240267E+03  0.79382911369E+03  0.00000000000E+00 0.  1.
</event>
<event>
 4    1  0.3555026E+003  0.2472816E+02  0.7546771E-02  0.1471867E+00
          2   -1    0    0  502    0  0.00000000000E+00  0.00000000000E+00  0.43403739498E+02  0.43403739498E+02  0.00000000000E+00 0.  1.
          1   -1    0    0  501    0 -0.00000000000E+00 -0.00000000000E+00 -0.88810579942E+02  0.88810579942E+02  0.00000000000E+00 0.  1.
          2    1    1    2  501    0  0.20015474216E+02  0.14521119268E+02  0.37934093979E+02  0.45282199581E+02  0.00000000000E+00 0.  1.
          1    1    1    2  502    0 -0.20015474216E+02 -0.14521119268E+02 -0.83340934423E+02  0.86932119860E+02  0.00000000000E+00 0.  1.
</event>
<event>
 4    1  0.3555026E+003  0.2106798E+02  0.7546771E-02  0.1518296E+00
          2   -1    0    0  502    0  0.00000000000E+00  0.00000000000E+00  0.33081856887E+02  0.33081856887E+02  0.00000000000E+00 0.  1.
          1   -1    0    0  501    0 -0.00000000000E+00 -0.00000000000E+00 -0.52661131304E+02  0.52661131304E+02  0.00000000000E+00 0. -1.
          2    1    1    2  501    0  0.20693132081E+02  0.39565057043E+01  0.27219658758E+02  0.34420480467E+02  0.00000000000E+00 0.  1.
          1    1    1    2  502    0 -0.20693132081E+02 -0.39565057043E+01 -0.46798933175E+02  0.51322507723E+02  0.00000000000E+00 0. -1.
</event>
<event>
 4    1  0.3555026E+003  0.2263476E+02  0.7546771E-02  0.1497136E+00
          2   -1    0    0  502    0  0.00000000000E+00  0.00000000000E+00  0.10807263779E+04  0.10807263779E+04  0.00000000000E+00 0.  1.
          1   -1    0    0  501    0 -0.00000000000E+00 -0.00000000000E+00 -0.47433639054E+00  0.47433639054E+00  0.00000000000E+00 0. -1.
          2    1    1    2  501    0  0.17169633757E+02  0.14749110535E+02  0.55310022491E+03  0.55356317740E+03  0.00000000000E+00 0.  1.
          1    1    1    2  502    0 -0.17169633757E+02 -0.14749110535E+02  0.52715181662E+03  0.52763753691E+03  0.00000000000E+00 0. -1.
</event>
<event>
 4    1  0.3555026E+003  0.2736520E+02  0.7546771E-02  0.1443974E+00
          2   -1    0    0  502    0  0.00000000000E+00  0.00000000000E+00  0.11462357841E+02  0.11462357841E+02  0.00000000000E+00 0.  1.
          1   -1    0    0  501    0 -0.00000000000E+00 -0.00000000000E+00 -0.16003656480E+03  0.16003656480E+03  0.00000000000E+00 0. -1.
          2    1    1    2  501    0 -0.27363312264E+02  0.32149099918E+00 -0.83229252796E+01  0.28602889710E+02  0.00000000000E+00 0.  1.
          1    1    1    2  502    0  0.27363312264E+02 -0.32149099918E+00 -0.14025128168E+03  0.14289603293E+03  0.00000000000E+00 0. -1.
</event>
<event>
 4    1  0.3555026E+003  0.3409377E+02  0.7546771E-02  0.1387049E+00
          2   -1    0    0  502    0  0.00000000000E+00  0.00000000000E+00  0.20363240834E+03  0.20363240834E+03  0.00000000000E+00 0. -1.
          1   -1    0    0  501    0 -0.00000000000E+00 -0.00000000000E+00 -0.16518476899E+02  0.16518476899E+02  0.00000000000E+00 0.  1.
          2    1    1    2  501    0 -0.30766384521E+02  0.14690642480E+02  0.18260467999E+03  0.18576020712E+03  0.00000000000E+00 0. -1.
          1    1    1    2  502    0  0.30766384521E+02 -0.14690642480E+02  0.45092514475E+01  0.34390678121E+02  0.00000000000E+00 0.  1.
</event>
<event>
 4    1  0.3555026E+003  0.2232814E+02  0.7546771E-02  0.1501111E+00
          2   -1    0    0  502    0  0.00000000000E+00  0.00000000000E+00  0.72426367179E+03  0.72426367179E+03  0.00000000000E+00 0. -1.
          1   -1    0    0  501    0 -0.00000000000E+00 -0.00000000000E+00 -0.15240896880E+01  0.15240896880E+01  0.00000000000E+00 0.  1.
          2    1    1    2  501    0 -0.22019741706E+02 -0.36982363014E+01  0.63009612461E+03  0.63049161154E+03  0.00000000000E+00 0. -1.
          1    1    1    2  502    0  0.22019741706E+02  0.36982363014E+01  0.92643457495E+02  0.95296149939E+02  0.00000000000E+00 0.  1.
</event>
<event>
 4    1  0.3555026E+003  0.2038040E+02  0.7546771E-02  0.1528298E+00
          2   -1    0    0  502    0  0.00000000000E+00  0.00000000000E+00  0.28072181206E+01  0.28072181206E+01  0.00000000000E+00 0. -1.
          1   -1    0    0  501    0 -0.00000000000E+00 -0.00000000000E+00 -0.12029450003E+04  0.12029450003E+04  0.00000000000E+00 0. -1.
          2    1    1    2  501    0 -0.17472733467E+01 -0.20305364831E+02 -0.35485656070E+02  0.40921786274E+02  0.00000000000E+00 0. -1.
          1    1    1    2  502    0  0.17472733467E+01  0.20305364831E+02 -0.11646521261E+04  0.11648304322E+04  0.00000000000E+00 0. -1.
</event>
<event>
 4    1  0.3555026E+003  0.5385246E+02  0.7546771E-02  0.1282281E+00
          2   -1    0    0  502    0  0.00000000000E+00  0.00000000000E+00  0.22284657903E+02  0.22284657903E+02  0.00000000000E+00 0.  1.
          1   -1    0    0  501    0 -0.00000000000E+00 -0.00000000000E+00 -0.48642111231E+03  0.48642111231E+03  0.00000000000E+00 0. -1.
          2    1    1    2  501    0  0.51528272288E+01  0.53605367218E+02 -0.14383525678E+02  0.55740226354E+02  0.00000000000E+00 0.  1.
          1    1    1    2  502    0 -0.51528272288E+01 -0.53605367218E+02 -0.44975292873E+03  0.45296554386E+03  0.00000000000E+00 0. -1.
</event>
<event>
 4    1  0.3555026E+003  0.6195106E+02  0.7546771E-02  0.1253344E+00
          2   -1    0    0  502    0  0.00000000000E+00  0.00000000000E+00  0.17166077151E+02  0.17166077151E+02  0.00000000000E+00 0.  1.
          1   -1    0    0  501    0 -0.00000000000E+00 -0.00000000000E+00 -0.31521071526E+03  0.31521071526E+03  0.00000000000E+00 0.  1.
          2    1    1    2  501    0 -0.21442635097E+02  0.58121830154E+02 -0.59418044820E+02  0.85839605024E+02  0.00000000000E+00 0.  1.
          1    1    1    2  502    0  0.21442635097E+02 -0.58121830154E+02 -0.23862659329E+03  0.24653718739E+03  0.00000000000E+00 0.  1.
</event>
<event>
 4    1  0.3555026E+003  0.2459936E+02  0.7546771E-02  0.1473336E+00
          2   -1    0    0  502    0  0.00000000000E+00  0.00000000000E+00  0.68334814113E+01  0.68334814113E+01  0.00000000000E+00 0. -1.
          1   -1    0    0  501    0 -0.00000000000E+00 -0.00000000000E+00 -0.16207766117E+03  0.16207766117E+03  0.00000000000E+00 0. -1.
          2    1    1    2  501    0 -0.11426377090E+02  0.21784541404E+02 -0.20739165231E+02  0.32175166077E+02  0.00000000000E+00 0. -1.
          1    1    1    2  502    0  0.11426377090E+02 -0.21784541404E+02 -0.13450501453E+03  0.13673597651E+03  0.00000000000E+00 0. -1.
</event>
<event>
 4    1  0.3555026E+003  0.2381897E+02  0.7546771E-02  0.1482463E+00
          2   -1    0    0  502    0  0.00000000000E+00  0.00000000000E+00  0.12964749253E+03  0.12964749253E+03  0.00000000000E+00 0. -1.
          1   -1    0    0  501    0 -0.00000000000E+00 -0.00000000000E+00 -0.35352500937E+02  0.35352500937E+02  0.00000000000E+00 0. -1.
          2    1    1    2  501    0 -0.15959744416E+02 -0.17681345390E+02  0.12437281564E+03  0.12663309476E+03  0.00000000000E+00 0. -1.
          1    1    1    2  502    0  0.15959744416E+02  0.17681345390E+02 -0.30077824053E+02  0.38366898707E+02  0.00000000000E+00 0. -1.
</event>
<event>
 4    1  0.3555026E+003  0.4992568E+02  0.7546771E-02  0.1298495E+00
          2   -1    0    0  502    0  0.00000000000E+00  0.00000000000E+00  0.49476322337E+03  0.49476322337E+03  0.00000000000E+00 0.  1.
          1   -1    0    0  501    0 -0.00000000000E+00 -0.00000000000E+00 -0.36663763004E+04  0.36663763004E+04  0.00000000000E+00 0. -1.
          2    1    1    2  501    0  0.47319385798E+02 -0.15920097168E+02  0.49333329222E+03  0.49585311432E+03  0.00000000000E+00 0.  1.
          1    1    1    2  502    0 -0.47319385798E+02  0.15920097168E+02 -0.36649463692E+04  0.36652864094E+04  0.00000000000E+00 0. -1.
</event>
<event>
 4    1  0.3555026E+003  0.2023201E+02  0.7546771E-02  0.1530518E+00
          2   -1    0    0  502    0  0.00000000000E+00  0.00000000000E+00  0.68568504916E+02  0.68568504916E+02  0.00000000000E+00 0.  1.
          1   -1    0    0  501    0 -0.00000000000E+00 -0.00000000000E+00 -0.23870088750E+02  0.23870088750E+02  0.00000000000E+00 0.  1.
          2    1    1    2  501    0  0.55447599843E+01  0.19457387448E+02  0.62373844160E+02  0.65573094520E+02  0.00000000000E+00 0.  1.
          1    1    1    2  502    0 -0.55447599843E+01 -0.19457387448E+02 -0.17675427994E+02  0.26865499146E+02  0.00000000000E+00 0.  1.
</event>
<event>
 4    1  0.3555026E+003  0.2182538E+02  0.7546771E-02  0.1507799E+00
          2   -1    0    0  502    0  0.00000000000E+00  0.00000000000E+00  0.70861376603E+00  0.70861376603E+00  0.00000000000E+00 0. -1.
          1   -1    0    0  501    0 -0.00000000000E+00 -0.00000000000E+00 -0.12108425840E+04  0.12108425840E+04  0.00000000000E+00 0. -1.
          2    1    1    2  501    0  0.10964029335E+02 -0.18871598670E+02 -0.20104164729E+03  0.20222287487E+03  0.00000000000E+00 0. -1.
          1    1    1    2  502    0 -0.10964029335E+02  0.18871598670E+02 -0.10090923230E+04  0.10093283229E+04  0.00000000000E+00 0. -1.
</event>
<event>
 4    1  0.3555026E+003  0.2153073E+02  0.7546771E-02  0.1511821E+00
          2   -1    0    0  502    0  0.00000000000E+00  0.00000000000E+00  0.34152956231E+01  0.34152956231E+01  0.00000000000E+00 0. -1.
          1   -1    0    0  501    0 -0.00000000000E+00 -0.00000000000E+00 -0.20973244698E+03  0.20973244698E+03  0.00000000000E+00 0.  1.
          2    1    1    2  501    0  0.18440254423E+02 -0.11114384479E+02 -0.39854954444E+02  0.45298895343E+02  0.00000000000E+00 0. -1.
          1    1    1    2  502    0 -0.18440254423E+02  0.11114384479E+02 -0.16646219691E+03  0.16784884726E+03  0.00000000000E+00 0.  1.
</event>
<event>
 4    1  0.3555026E+003  0.4402972E+02  0.7546771E-02  0.1326363E+00
          2   -1    0    0  502    0  0.00000000000E+00  0.00000000000E+00  0.21181068520E+03  0.21181068520E+03  0.00000000000E+00 0.  1.
          1   -1    0    0  501    0 -0.00000000000E+00 -0.00000000000E+00 -0.13650039885E+04  0.13650039885E+04  0.00000000000E+00 0. -1.
          2    1    1    2  501    0 -0.18490055378E+02  0.39959154183E+02  0.20916303538E+03  0.21374702692E+03  0.00000000000E+00 0.  1.
          1    1    1    2  502    0  0.18490055378E+02 -0.39959154183E+02 -0.13623563387E+04  0.13630676468E+04  0.00000000000E+00 0. -1.
</event>
<event>
 4    1  0.3555026E+003  0.7334967E+02  0.7546771E-02  0.1220190E+00
          2   -1    0    0  502    0  0.00000000000E+00  0.00000000000E+00  0.85998124552E+03  0.85998124552E+03  0.00000000000E+00 0.  1.
          1   -1    0    0  501    0 -0.00000000000E+00 -0.00000000000E+00 -0.10545389558E+04  0.10545389558E+04  0.00000000000E+00 0. -1.
          2    1    1    2  501    0 -0.29475506723E+02  0.67166725919E+02  0.85713750293E+03  0.86027023283E+03  0.00000000000E+00 0.  1.
          1    1    1    2  502    0  0.29475506723E+02 -0.67166725919E+02 -0.10516952132E+04  0.10542499684E+04  0.00000000000E+00 0. -1.
</event>
<event>
 4    1  0.3555026E+003  0.4097956E+02  0.7546771E-02  0.1342839E+00
          2   -1    0    0  502    0  0.00000000000E+00  0.00000000000E+00  0.28926282706E+04  0.28926282706E+04  0.00000000000E+00 0. -1.
          1   -1    0    0  501    0 -0.00000000000E+00 -0.00000000000E+00 -0.52721300966E+03  0.52721300966E+03  0.00000000000E+00 0.  1.
          2    1    1    2  501    0  0.21774588853E+02 -0.34715870202E+02  0.28916865514E+04  0.28919769079E+04  0.00000000000E+00 0. -1.
          1    1    1    2  502    0 -0.21774588853E+02  0.34715870202E+02 -0.52627129049E+03  0.52786437232E+03  0.00000000000E+00 0.  1.
</event>
<event>
 4    1  0.3555026E+003  0.2497001E+02  0.7546771E-02  0.1469139E+00
          2   -1    0    0  502    0  0.00000000000E+00  0.00000000000E+00  0.11301509272E+02  0.11301509272E+02  0.00000000000E+00 0.  1.
          1   -1    0    0  501    0 -0.00000000000E+00 -0.00000000000E+00 -0.28733765669E+03  0.28733765669E+03  0.00000000000E+00 0. -1.
          2    1    1    2  501    0 -0.20547722472E+02  0.14187751597E+02 -0.37967218091E+01  0.25257004784E+02  0.00000000000E+00 0.  1.
          1    1    1    2  502    0  0.20547722472E+02 -0.14187751597E+02 -0.27223942561E+03  0.27338216118E+03  0.00000000000E+00 0. -1.
</event>
<event>
 4    1  0.3555026E+003  0.3902455E+02  0.7546771E-02  0.1354299E+00
          2   -1    0    0  502    0  0.00000000000E+00  0.00000000000E+00  0.67844804815E+02  0.67844804815E+02  0.00000000000E+00 0. -1.
          1   -1    0    0  501    0 -0.00000000000E+00 -0.00000000000E+00 -0.14157121348E+03  0.14157121348E+03  0.00000000000E+00 0. -1.
          2    1    1    2  501    0  0.36770498443E+02 -0.13070809359E+02  0.59185687811E+02  0.70893308956E+02  0.00000000000E+00 0. -1.
          1    1    1    2  502    0 -0.36770498443E+02  0.13070809359E+02 -0.13291209648E+03  0.13852270934E+03  0.00000000000E+00 0. -1.
</event>
<event>
 4    1  0.3555026E+003  0.4631920E+02  0.7546771E-02  0.1314972E+00
          2   -1    0    0  502    0  0.00000000000E+00  0.00000000000E+00  0.20589427157E+04  0.20589427157E+04  0.00000000000E+00 0.  1.
          1   -1    0    0  501    0 -0.00000000000E+00 -0.00000000000E+00 -0.74902890197E+01  0.74902890197E+01  0.00000000000E+00 0. -1.
          2    1    1    2  501    0 -0.39758604323E+02  0.23763872963E+02  0.19843837179E+04  0.19849242324E+04  0.00000000000E+00 0.  1.
          1    1    1    2  502    0  0.39758604323E+02 -0.23763872963E+02  0.67068708748E+02  0.81508772344E+02  0.00000000000E+00 0. -1.
</event>
<event>
 4    1  0.3555026E+003  0.2222526E+02  0.7546771E-02  0.1502463E+00
          2   -1    0    0  502    0  0.00000000000E+00  0.00000000000E+00  0.13955649719E+04  0.13955649719E+04  0.00000000000E+00 0.  1.
          1   -1    0    0  501    0 -0.00000000000E+00 -0.00000000000E+00 -0.77227424931E+01  0.77227424931E+01  0.00000000000E+00 0. -1.
          2    1    1    2  501    0  0.70398442590E+01  0.21080858869E+02  0.13792974040E+04  0.13794764553E+04  0.00000000000E+00 0.  1.
          1    1    1    2  502    0 -0.70398442590E+01 -0.21080858869E+02  0.85448253745E+01  0.23811259071E+02  0.00000000000E+00 0. -1.
</event>
<event>
 4    1  0.3555026E+003  0.2446758E+02  0.7546771E-02  0.1474848E+00
          2   -1    0    0  502    0  0.00000000000E+00  0.00000000000E+00  0.17472557242E+02  0.17472557242E+02  0.00000000000E+00 0. -1.
          1   -1    0    0  501    0 -0.00000000000E+00 -0.00000000000E+00 -0.34354268065E+03  0.34354268065E+03  0.00000000000E+00 0.  1.
          2    1    1    2  501    0 -0.11680615050E+02 -0.21499434367E+02  0.82347707444E+01  0.25816155703E+02  0.00000000000E+00 0. -1.
          1    1    1    2  502    0  0.11680615050E+02  0.21499434367E+02 -0.33430489415E+03  0.33519908219E+03  0.00000000000E+00 0.  1.
</event>
<event>
 4    1  0.3555026E+003  0.2404527E+02  0.7546771E-02  0.1479774E+00
          2   -1    0    0  502    0  0.00000000000E+00  0.00000000000E+00  0.95439150270E+03  0.95439150270E+03  0.00000000000E+00 0. -1.
          1   -1    0    0  501    0 -0.00000000000E+00 -0.00000000000E+00 -0.18643209606E+03  0.18643209606E+03  0.00000000000E+00 0. -1.
          2    1    1    2  501    0 -0.20073587109E+02 -0.13237292775E+02  0.95346398188E+03  0.95376713068E+03  0.00000000000E+00 0. -1.
          1    1    1    2  502    0  0.20073587109E+02  0.13237292775E+02 -0.18550457524E+03  0.18705646809E+03  0.00000000000E+00 0. -1.
</event>
<event>
 4    1  0.3555026E+003  0.6081173E+02  0.7546771E-02  0.1257099E+00
          2   -1    0    0  502    0  0.00000000000E+00  0.00000000000E+00  0.46227990205E+01  0.46227990205E+01  0.00000000000E+00 0. -1.
          1   -1    0    0  501    0 -0.00000000000E+00 -0.00000000000E+00 -0.15191522568E+04  0.15191522568E+04  0.00000000000E+00 0. -1.
          2    1    1    2  501    0  0.42107737762E+02  0.43874880001E+02 -0.23304675665E+03  0.24085028017E+03  0.00000000000E+00 0. -1.
          1    1    1    2  502    0 -0.42107737762E+02 -0.43874880001E+02 -0.12814827011E+04  0.12829247756E+04  0.00000000000E+00 0. -1.
</event>
<event>
 4    1  0.3555026E+003  0.2917045E+02  0.7546771E-02  0.1426945E+00
          2   -1    0    0  502    0  0.00000000000E+00  0.00000000000E+00  0.20053916567E+01  0.20053916567E+01  0.00000000000E+00 0. -1.
          1   -1    0    0  501    0 -0.00000000000E+00 -0.00000000000E+00 -0.82758164205E+03  0.82758164205E+03  0.00000000000E+00 0. -1.
          2    1    1    2  501    0  0.75845002030E+01  0.28167183404E+02 -0.12323819611E+03  0.12664346743E+03  0.00000000000E+00 0. -1.
          1    1    1    2  502    0 -0.75845002030E+01 -0.28167183404E+02 -0.70233805428E+03  0.70294356627E+03  0.00000000000E+00 0. -1.
</event>
<event>
 4    1  0.3555026E+003  0.2421575E+02  0.7546771E-02  0.1477771E+00
          2   -1    0    0  502    0  0.00000000000E+00  0.00000000000E+00  0.46333753888E+03  0.46333753888E+03  0.00000000000E+00 0.  1.
          1   -1    0    0  501    0 -0.00000000000E+00 -0.00000000000E+00 -0.13619559999E+01  0.13619559999E+01  0.00000000000E+00 0.  1.
          2    1    1    2  501    0  0.14960473260E+02  0.19041691478E+02  0.16918738037E+03  0.17091158958E+03  0.00000000000E+00 0.  1.
          1    1    1    2  502    0 -0.14960473260E+02 -0.19041691478E+02  0.29278820251E+03  0.29378790530E+03  0.00000000000E+00 0.  1.
</event>
<event>
 4    1  0.3555026E+003  0.2851657E+02  0.7546771E-02  0.1432941E+00
          2   -1    0    0  502    0  0.00000000000E+00  0.00000000000E+00  0.99333918747E+03  0.99333918747E+03  0.00000000000E+00 0. -1.
          1   -1    0    0  501    0 -0.00000000000E+00 -0.00000000000E+00 -0.84516382204E+00  0.84516382204E+00  0.00000000000E+00 0.  1.
          2    1    1    2  501    0  0.10966776265E+02 -0.26323462911E+02  0.58429534763E+03  0.58499081031E+03  0.00000000000E+00 0. -1.
          1    1    1    2  502    0 -0.10966776265E+02  0.26323462911E+02  0.40819867602E+03  0.40919354099E+03  0.00000000000E+00 0.  1.
</event>
<event>
 4    1  0.3555026E+003  0.2127320E+02  0.7546771E-02  0.1515400E+00
          2   -1    0    0  502    0  0.00000000000E+00  0.00000000000E+00  0.10272260099E+04  0.10272260099E+04  0.00000000000E+00 0. -1.
          1   -1    0    0  501    0 -0.00000000000E+00 -0.00000000000E+00 -0.67120008936E+00  0.67120008936E+00  0.00000000000E+00 0.  1.
          2    1    1    2  501    0  0.21110277677E+02  0.26278076658E+01  0.81455450557E+03  0.81483224761E+03  0.00000000000E+00 0. -1.
          1    1    1    2  502    0 -0.21110277677E+02 -0.26278076658E+01  0.21200030428E+03  0.21306496242E+03  0.00000000000E+00 0.  1.
</event>
<event>
 4    1  0.3555026E+003  0.2138161E+02  0.7546771E-02  0.1513886E+00
          2   -1    0    0  502    0  0.00000000000E+00  0.00000000000E+00  0.75632072409E+03  0.75632072409E+03  0.00000000000E+00 0.  1.
          1   -1    0    0  501    0 -0.00000000000E+00 -0.00000000000E+00 -0.84692777843E+01  0.84692777843E+01  0.00000000000E+00 0.  1.
          2    1    1    2  501    0  0.11181114238E+02 -0.18225142976E+02  0.74242197526E+03  0.74272980450E+03  0.00000000000E+00 0.  1.
          1    1    1    2  502    0 -0.11181114238E+02  0.18225142976E+02  0.54294710461E+01  0.22060197369E+02  0.00000000000E+00 0.  1.
</event>
<event>
 4    1  0.3555026E+003  0.3696231E+02  0.7546771E-02  0.1367269E+00
          2   -1    0    0  502    0  0.00000000000E+00  0.00000000000E+00  0.51747736391E+03  0.51747736391E+03  0.00000000000E+00 0. -1.
          1   -1    0    0  501    0 -0.00000000000E+00 -0.00000000000E+00 -0.49481421109E+01  0.49481421109E+01  0.00000000000E+00 0. -1.
          2    1    1    2  501    0 -0.19176999292E+02  0.31598341684E+02  0.43466320580E+03  0.43623195088E+03  0.00000000000E+00 0. -1.
          1    1    1    2  502    0  0.19176999292E+02 -0.31598341684E+02  0.77866016003E+02  0.86193555137E+02  0.00000000000E+00 0. -1.
</event>
<event>
 4    1  0.3555026E+003  0.2009729E+02  0.7546771E-02  0.1532554E+00
          2   -1    0    0  502    0  0.00000000000E+00  0.00000000000E+00  0.43488472612E+01  0.43488472612E+01  0.00000000000E+00 0.  1.
          1   -1    0    0  501    0 -0.00000000000E+00 -0.00000000000E+00 -0.11381973306E+03  0.11381973306E+03  0.00000000000E+00 0. -1.
          2    1    1    2  501    0  0.16684832764E+02 -0.11203457710E+02 -0.29390222083E+02  0.35604582052E+02  0.00000000000E+00 0.  1.
          1    1    1    2  502    0 -0.16684832764E+02  0.11203457710E+02 -0.80080663717E+02  0.82563998271E+02  0.00000000000E+00 0. -1.
</event>
<event>
 4    1  0.3555026E+003  0.2945050E+02  0.7546771E-02  0.1424432E+00
          2   -1    0    0  502    0  0.00000000000E+00  0.00000000000E+00  0.38748489547E+01  0.38748489547E+01  0.00000000000E+00 0. -1.
          1   -1    0    0  501    0 -0.00000000000E+00 -0.00000000000E+00 -0.16908989158E+04  0.16908989158E+04  0.00000000000E+00 0. -1.
          2    1    1    2  501    0 -0.41093737786E+01 -0.29162392123E+02 -0.54202713260E+02  0.61686839698E+02  0.00000000000E+00 0. -1.
          1    1    1    2  502    0  0.41093737786E+01  0.29162392123E+02 -0.16328213536E+04  0.16330869251E+04  0.00000000000E+00 0. -1.
</event>
<event>
 4    1  0.3555026E+003  0.2138003E+02  0.7546771E-02  0.1513908E+00
          2   -1    0    0  502    0  0.00000000000E+00  0.00000000000E+00  0.55554511327E+02  0.55554511327E+02  0.00000000000E+00 0.  1.
          1   -1    0    0  501    0 -0.00000000000E+00 -0.00000000000E+00 -0.24981590651E+03  0.24981590651E+03  0.00000000000E+00 0. -1.
          2    1    1    2  501    0 -0.21084826511E+02  0.35406047616E+01  0.53019001464E+02  0.57167475958E+02  0.00000000000E+00 0.  1.
          1    1    1    2  502    0  0.21084826511E+02 -0.35406047616E+01 -0.24728039664E+03  0.24820294187E+03  0.00000000000E+00 0. -1.
</event>
<event>
 4    1  0.3555026E+003  0.2388635E+02  0.7546771E-02  0.1481658E+00
          2   -1    0    0  502    0  0.00000000000E+00  0.00000000000E+00  0.29995806067E+01  0.29995806067E+01  0.00000000000E+00 0.  1.
          1   -1    0    0  501    0 -0.00000000000E+00 -0.00000000000E+00 -0.93766515543E+03  0.93766515543E+03  0.00000000000E+00 0. -1.
          2    1    1    2  501    0  0.64665999017E+01 -0.22994367765E+02 -0.47406743782E+02  0.53084434811E+02  0.00000000000E+00 0.  1.
          1    1    1    2  502    0 -0.64665999017E+01  0.22994367765E+02 -0.88725883104E+03  0.88758030123E+03  0.00000000000E+00 0. -1.
</event>
<event>
 4    1  0.3555026E+003  0.2229115E+02  0.7546771E-02  0.1501596E+00
          2   -1    0    0  502    0  0.00000000000E+00  0.00000000000E+00  0.45345281987E+03  0.45345281987E+03  0.00000000000E+00 0.  1.
          1   -1    0    0  501    0 -0.00000000000E+00 -0.00000000000E+00 -0.15372075580E+01  0.15372075580E+01  0.00000000000E+00 0. -1.
          2    1    1    2  501    0 -0.18738373364E+02 -0.12073468920E+02  0.34786341217E+03  0.34857689083E+03  0.00000000000E+00 0.  1.
          1    1    1    2  502    0  0.18738373364E+02  0.12073468920E+02  0.10405220014E+03  0.10641313660E+03  0.00000000000E+00 0. -1.
</event>
<event>
 4    1  0.3555026E+003  0.2299465E+02  0.7546771E-02  0.1492565E+00
          2   -1    0    0  502    0  0.00000000000E+00  0.00000000000E+00  0.24174225851E+03  0.24174225851E+03  0.00000000000E+00 0. -1.
          1   -1    0    0  501    0 -0.00000000000E+00 -0.00000000000E+00 -0.21879068128E+02  0.21879068128E+02  0.00000000000E+00 0. -1.
          2    1    1    2  501    0  0.16809929381E+02  0.15690128465E+02  0.23498021473E+03  0.23610263695E+03  0.00000000000E+00 0. -1.
          1    1    1    2  502    0 -0.16809929381E+02 -0.15690128465E+02 -0.15117024352E+02  0.27518689691E+02  0.00000000000E+00 0. -1.
</event>
<event>
 4    1  0.3555026E+003  0.2445910E+02  0.7546771E-02  0.1474946E+00
          2   -1    0    0  502    0  0.00000000000E+00  0.00000000000E+00  0.26187309510E+02  0.26187309510E+02  0.00000000000E+00 0.  1.
          1   -1    0    0  501    0 -0.00000000000E+00 -0.00000000000E+00 -0.59003302962E+02  0.59003302962E+02  0.00000000000E+00 0. -1.
          2    1    1    2  501    0  0.20390038513E+02  0.13509032456E+02  0.16936789452E+02  0.29750671680E+02  0.00000000000E+00 0.  1.
          1    1    1    2  502    0 -0.20390038513E+02 -0.13509032456E+02 -0.49752782904E+02  0.55439940793E+02  0.00000000000E+00 0. -1.
</event>
<event>
 4    1  0.3555026E+003  0.4600299E+02  0.7546771E-02  0.1316499E+00
          2   -1    0    0  502    0  0.00000000000E+00  0.00000000000E+00  0.12840403081E+03  0.12840403081E+03  0.00000000000E+00 0.  1.
          1   -1    0    0  501    0 -0.00000000000E+00 -0.00000000000E+00 -0.11966499162E+03  0.11966499162E+03  0.00000000000E+00 0. -1.
          2    1    1    2  501    0  0.20671768168E+02  0.41096868941E+02  0.11954614792E+03  0.12809198304E+03  0.00000000000E+00 0.  1.
          1    1    1    2  502    0 -0.20671768168E+02 -0.41096868941E+02 -0.11080710873E+03  0.11997703940E+03  0.00000000000E+00 0. -1.
</event>
<event>
 4    1  0.3555026E+003  0.2391147E+02  0.7546771E-02  0.1481359E+00
          2   -1    0    0  502    0  0.00000000000E+00  0.00000000000E+00  0.27662282816E+03  0.27662282816E+03  0.00000000000E+00 0. -1.
          1   -1    0    0  501    0 -0.00000000000E+00 -0.00000000000E+00 -0.37405698787E+02  0.37405698787E+02  0.00000000000E+00 0.  1.
          2    1    1    2  501    0 -0.23391090685E+02 -0.49613570276E+01  0.27222312442E+03  0.27327127119E+03  0.00000000000E+00 0. -1.
          1    1    1    2  502    0  0.23391090685E+02  0.49613570276E+01 -0.33005995055E+02  0.40757255753E+02  0.00000000000E+00 0.  1.
</event>
<event>
 4    1  0.3555026E+003  0.7397561E+02  0.7546771E-02  0.1218569E+00
          2   -1    0    0  502    0  0.00000000000E+00  0.00000000000E+00  0.77202714632E+02  0.77202714632E+02  0.00000000000E+00 0. -1.
          1   -1    0    0  501    0 -0.00000000000E+00 -0.00000000000E+00 -0.76495347697E+03  0.76495347697E+03  0.00000000000E+00 0. -1.
          2    1    1    2  501    0  0.24125506298E+01  0.73936256007E+02  0.57219206504E+02  0.93522339288E+02  0.00000000000E+00 0. -1.
          1    1    1    2  502    0 -0.24125506298E+01 -0.73936256007E+02 -0.74496996884E+03  0.74863385231E+03  0.00000000000E+00 0. -1.
</event>
<event>
 4    1  0.3555026E+003  0.2403842E+02  0.7546771E-02  0.1479855E+00
          2   -1    0    0  502    0  0.00000000000E+00  0.00000000000E+00  0.73807581149E+01  0.73807581149E+01  0.00000000000E+00 0. -1.
          1   -1    0    0  501    0 -0.00000000000E+00 -0.00000000000E+00 -0.11398350183E+03  0.11398350183E+03  0.00000000000E+00 0. -1.
          2    1    1    2  501    0  0.63536183269E+01  0.23183549657E+02 -0.19344353880E+02  0.30855298857E+02  0.00000000000E+00 0. -1.
          1    1    1    2  502    0 -0.63536183269E+01 -0.23183549657E+02 -0.87258389834E+02  0.90508961087E+02  0.00000000000E+00 0. -1.
</event>
<event>
 4    1  0.3555026E+003  0.3667373E+02  0.7546771E-02  0.1369163E+00
          2   -1    0    0  502    0  0.00000000000E+00  0.00000000000E+00  0.82155849755E+03  0.82155849755E+03  0.00000000000E+00 0.  1.
          1   -1    0    0  501    0 -0.00000000000E+00 -0.00000000000E+00 -0.69101231857E+02  0.69101231857E+02  0.00000000000E+00 0.  1.
          2    1    1    2  501    0  0.28441035754E+02  0.23153181123E+02  0.81625169355E+03  0.81707514314E+03  0.00000000000E+00 0.  1.
          1    1    1    2  502    0 -0.28441035754E+02 -0.23153181123E+02 -0.63794427857E+02  0.73584586269E+02  0.00000000000E+00 0.  1.
</event>
<event>
 4    1  0.3555026E+003  0.2259628E+02  0.7546771E-02  0.1497631E+00
          2   -1    0    0  502    0  0.00000000000E+00  0.00000000000E+00  0.17162500141E+03  0.17162500141E+03  0.00000000000E+00 0. -1.
          1   -1    0    0  501    0 -0.00000000000E+00 -0.00000000000E+00 -0.66691287246E+01  0.66691287246E+01  0.00000000000E+00 0.  1.
          2    1    1    2  501    0 -0.92536422814E+01 -0.20614603686E+02  0.14882565235E+03  0.15053128106E+03  0.00000000000E+00 0. -1.
          1    1    1    2  502    0  0.92536422814E+01  0.20614603686E+02  0.16130220335E+02  0.27762849073E+02  0.00000000000E+00 0.  1.
</event>
<event>
 4    1  0.3555026E+003  0.2923490E+02  0.7546771E-02  0.1426364E+00
          2   -1    0    0  502    0  0.00000000000E+00  0.00000000000E+00  0.33972333248E+02  0.33972333248E+02  0.00000000000E+00 0. -1.
          1   -1    0    0  501    0 -0.00000000000E+00 -0.00000000000E+00 -0.27791922406E+03  0.27791922406E+03  0.00000000000E+00 0. -1.
          2    1    1    2  501    0 -0.25379784992E+02 -0.14510204379E+02  0.26746584429E+02  0.39623973753E+02  0.00000000000E+00 0. -1.
          1    1    1    2  502    0  0.25379784992E+02  0.14510204379E+02 -0.27069347524E+03  0.27226758355E+03  0.00000000000E+00 0. -1.
</event>
<event>
 4    1  0.3555026E+003  0.6417748E+02  0.7546771E-02  0.1246263E+00
          2   -1    0    0  502    0  0.00000000000E+00  0.00000000000E+00  0.14304944603E+03  0.14304944603E+03  0.00000000000E+00 0. -1.
          1   -1    0    0  501    0 -0.00000000000E+00 -0.00000000000E+00 -0.95164935065E+03  0.95164935065E+03  0.00000000000E+00 0.  1.
          2    1    1    2  501    0 -0.57581472259E+02 -0.28339414101E+02  0.13470572814E+03  0.14921253812E+03  0.00000000000E+00 0. -1.
          1    1    1    2  502    0  0.57581472259E+02  0.28339414101E+02 -0.94330563276E+03  0.94548625856E+03  0.00000000000E+00 0.  1.
</event>
<event>
 4    1  0.3555026E+003  0.5572075E+02  0.7546771E-02  0.1275109E+00
          2   -1    0    0  502    0  0.00000000000E+00  0.00000000000E+00  0.58292210086E+02  0.58292210086E+02  0.00000000000E+00 0. -1.
          1   -1    0    0  501    0 -0.00000000000E+00 -0.00000000000E+00 -0.38338498467E+03  0.38338498467E+03  0.00000000000E+00 0. -1.
          2    1    1    2  501    0  0.29127548388E+02 -0.47501447517E+02  0.42378563269E+02  0.70005315627E+02  0.00000000000E+00 0. -1.
          1    1    1    2  502    0 -0.29127548388E+02  0.47501447517E+02 -0.36747133785E+03  0.37167187913E+03  0.00000000000E+00 0. -1.
</event>
<event>
 4    1  0.3555026E+003  0.2272976E+02  0.7546771E-02  0.1495920E+00
          2   -1    0    0  502    0  0.00000000000E+00  0.00000000000E+00  0.14150069504E+02  0.14150069504E+02  0.00000000000E+00 0.  1.
          1   -1    0    0  501    0 -0.00000000000E+00 -0.00000000000E+00 -0.38104137928E+02  0.38104137928E+02  0.00000000000E+00 0.  1.
          2    1    1    2  501    0  0.22526586630E+02  0.30322573434E+01 -0.17318371151E+02  0.28575648184E+02  0.00000000000E+00 0.  1.
          1    1    1    2  502    0 -0.22526586630E+02 -0.30322573434E+01 -0.66356972729E+01  0.23678559249E+02  0.00000000000E+00 0.  1.
</event>
<event>
 4    1  0.3555026E+003  0.5751029E+02  0.7546771E-02  0.1268535E+00
          2   -1    0    0  502    0  0.00000000000E+00  0.00000000000E+00  0.18927618123E+04  0.18927618123E+04  0.00000000000E+00 0.  1.
          1   -1    0    0  501    0 -0.00000000000E+00 -0.00000000000E+00 -0.95026195858E+01  0.95026195858E+01  0.00000000000E+00 0. -1.
          2    1    1    2  501    0 -0.55528652407E+02 -0.14966708861E+02  0.18008724918E+04  0.18017905442E+04  0.00000000000E+00 0.  1.
          1    1    1    2  502    0  0.55528652407E+02  0.14966708861E+02  0.82386700980E+02  0.10047388771E+03  0.00000000000E+00 0. -1.
</event>
<event>
 4    1  0.3555026E+003  0.2527234E+02  0.7546771E-02  0.1465780E+00
          2   -1    0    0  502    0  0.00000000000E+00  0.00000000000E+00  0.16141096819E+02  0.16141096819E+02  0.00000000000E+00 0. -1.
          1   -1    0    0  501    0 -0.00000000000E+00 -0.00000000000E+00 -0.31280540806E+03  0.31280540806E+03  0.00000000000E+00 0.  1.
          2    1    1    2  501    0  0.25123472546E+02 -0.27390471243E+01  0.53867314611E+01  0.25840048911E+02  0.00000000000E+00 0. -1.
          1    1    1    2  502    0 -0.25123472546E+02  0.27390471243E+01 -0.30205104270E+03  0.30310645597E+03  0.00000000000E+00 0.  1.
</event>
<event>
 4    1  0.3555026E+003  0.1503664E+03  0.7546771E-02  0.1097242E+00
          2   -1    0    0  502    0  0.00000000000E+00  0.00000000000E+00  0.44376657045E+03  0.44376657045E+03  0.00000000000E+00 0. -1.
          1   -1    0    0  501    0 -0.00000000000E+00 -0.00000000000E+00 -0.11974798465E+03  0.11974798465E+03  0.00000000000E+00 0.  1.
          2    1    1    2  501    0  0.13178015873E+03 -0.72415830466E+02  0.37557316412E+03  0.40455563813E+03  0.00000000000E+00 0. -1.
          1    1    1    2  502    0 -0.13178015873E+03  0.72415830466E+02 -0.51554578324E+02  0.15895891697E+03  0.00000000000E+00 0.  1.
</event>
<event>
 4    1  0.3555026E+003  0.2531092E+02  0.7546771E-02  0.1465355E+00
          2   -1    0    0  502    0  0.00000000000E+00  0.00000000000E+00  0.56316160358E+01  0.56316160358E+01  0.00000000000E+00 0.  1.
          1   -1    0    0  501    0 -0.00000000000E+00 -0.00000000000E+00 -0.82772021562E+03  0.82772021562E+03  0.00000000000E+00 0. -1.
          2    1    1    2  501    0 -0.13224114119E+02 -0.21581605386E+02 -0.24059283028E+02  0.34921225423E+02  0.00000000000E+00 0.  1.
          1    1    1    2  502    0  0.13224114119E+02  0.21581605386E+02 -0.79802931656E+03  0.79843060624E+03  0.00000000000E+00 0. -1.
</event>
<event>
 4    1  0.3555026E+003  0.2843434E+02  0.7546771E-02  0.1433709E+00
          2   -1    0    0  502    0  0.00000000000E+00  0.00000000000E+00  0.11443611210E+03  0.11443611210E+03  0.00000000000E+00 0. -1.
          1   -1    0    0  501    0 -0.00000000000E+00 -0.00000000000E+00 -0.10090932858E+02  0.10090932858E+02  0.00000000000E+00 0. -1.
          2    1    1    2  501    0  0.37595279192E+01  0.28184705254E+02  0.86267126728E+02  0.90832421603E+02  0.00000000000E+00 0. -1.
          1    1    1    2  502    0 -0.37595279192E+01 -0.28184705254E+02  0.18078052518E+02  0.33694623359E+02  0.00000000000E+00 0. -1.
</event>
<event>
 4    1  0.3555026E+003  0.2505189E+02  0.7546771E-02  0.1468224E+00
          2   -1    0    0  502    0  0.00000000000E+00  0.00000000000E+00  0.10673348707E+04  0.10673348707E+04  0.00000000000E+00 0.  1.
          1   -1    0    0  501    0 -0.00000000000E+00 -0.00000000000E+00 -0.19564168845E+02  0.19564168845E+02  0.00000000000E+00 0.  1.
          2    1    1    2  501    0 -0.24055441001E+02 -0.69952259973E+01  0.10591058364E+04  0.10594020814E+04  0.00000000000E+00 0.  1.
          1    1    1    2  502    0  0.24055441001E+02  0.69952259973E+01 -0.11335134574E+02  0.27496958092E+02  0.00000000000E+00 0.  1.
</event>
<event>
 4    1  0.3555026E+003  0.4726276E+02  0.7546771E-02  0.1310497E+00
          2   -1    0    0  502    0  0.00000000000E+00  0.00000000000E+00  0.21681494815E+01  0.21681494815E+01  0.00000000000E+00 0.  1.
          1   -1    0    0  501    0 -0.00000000000E+00 -0.00000000000E+00 -0.13530343994E+04  0.13530343994E+04  0.00000000000E+00 0.  1.
          2    1    1    2  501    0  0.14702176681E+02 -0.44917861074E+02 -0.34448032484E+03  0.34770743801E+03  0.00000000000E+00 0.  1.
          1    1    1    2  502    0 -0.14702176681E+02  0.44917861074E+02 -0.10063859251E+04  0.10074951109E+04  0.00000000000E+00 0.  1.
</event>
<event>
 4    1  0.3555026E+003  0.3005646E+02  0.7546771E-02  0.1419106E+00
          2   -1    0    0  502    0  0.00000000000E+00  0.00000000000E+00  0.10139366179E+03  0.10139366179E+03  0.00000000000E+00 0.  1.
          1   -1    0    0  501    0 -0.00000000000E+00 -0.00000000000E+00 -0.10008246761E+03  0.10008246761E+03  0.00000000000E+00 0. -1.
          2    1    1    2  501    0  0.27071075760E+02  0.13059389222E+02  0.96805108927E+02  0.10136379977E+03  0.00000000000E+00 0.  1.
          1    1    1    2  502    0 -0.27071075760E+02 -0.13059389222E+02 -0.95493914750E+02  0.10011232963E+03  0.00000000000E+00 0. -1.
</event>
<event>
 4    1  0.3555026E+003  0.3514690E+02  0.7546771E-02  0.1379533E+00
          2   -1    0    0  502    0  0.00000000000E+00  0.00000000000E+00  0.65134277018E+03  0.65134277018E+03  0.00000000000E+00 0.  1.
          1   -1    0    0  501    0 -0.00000000000E+00 -0.00000000000E+00 -0.18342768556E+02  0.18342768556E+02  0.00000000000E+00 0.  1.
          2    1    1    2  501    0 -0.33462875620E+02 -0.10748983656E+02  0.63356003293E+03  0.63453417562E+03  0.00000000000E+00 0.  1.
          1    1    1    2  502    0  0.33462875620E+02  0.10748983656E+02 -0.56003130591E+00  0.35151363123E+02  0.00000000000E+00 0.  1.
</event>
<event>
 4    1  0.3555026E+003  0.2056519E+02  0.7546771E-02  0.1525564E+00
          2   -1    0    0  502    0  0.00000000000E+00  0.00000000000E+00  0.47212248659E+03  0.47212248659E+03  0.00000000000E+00 0.  1.
          1   -1    0    0  501    0 -0.00000000000E+00 -0.00000000000E+00 -0.21841144359E+01  0.21841144359E+01  0.00000000000E+00 0.  1.
          2    1    1    2  501    0  0.15451026241E+02 -0.13571761042E+02  0.41710802463E+03  0.41761469218E+03  0.00000000000E+00 0.  1.
          1    1    1    2  502    0 -0.15451026241E+02  0.13571761042E+02  0.52830347526E+02  0.56691908853E+02  0.00000000000E+00 0.  1.
</event>
<event>
 4    1  0.3555026E+003  0.2172841E+02  0.7546771E-02  0.1509114E+00
          2   -1    0    0  502    0  0.00000000000E+00  0.00000000000E+00  0.23355510951E+03  0.23355510951E+03  0.00000000000E+00 0.  1.
          1   -1    0    0  501    0 -0.00000000000E+00 -0.00000000000E+00 -0.44032807352E+01  0.44032807352E+01  0.00000000000E+00 0. -1.
          2    1    1    2  501    0 -0.20803640293E+02  0.62715399754E+01  0.20208171596E+03  0.20324650941E+03  0.00000000000E+00 0.  1.
          1    1    1    2  502    0  0.20803640293E+02 -0.62715399754E+01  0.27070112815E+02  0.34711880833E+02  0.00000000000E+00 0. -1.
</event>
<event>
 4    1  0.3555026E+003  0.2529324E+02  0.7546771E-02  0.1465550E+00
          2   -1    0    0  502    0  0.00000000000E+00  0.00000000000E+00  0.37375502003E+02  0.37375502003E+02  0.00000000000E+00 0. -1.
          1   -1    0    0  501    0 -0.00000000000E+00 -0.00000000000E+00 -0.20441001430E+02  0.20441001430E+02  0.00000000000E+00 0. -1.
          2    1    1    2  501    0 -0.13421152582E+02  0.21438761277E+02  0.20125046409E+02  0.32322829621E+02  0.00000000000E+00 0. -1.
          1    1    1    2  502    0  0.13421152582E+02 -0.21438761277E+02 -0.31905458371E+01  0.25493673812E+02  0.00000000000E+00 0. -1.
</event>
<event>
 4    1  0.3555026E+003  0.3142751E+02  0.7546771E-02  0.1407584E+00
          2   -1    0    0  502    0  0.00000000000E+00  0.00000000000E+00  0.17413066952E+03  0.17413066952E+03  0.00000000000E+00 0.  1.
          1   -1    0    0  501    0 -0.00000000000E+00 -0.00000000000E+00 -0.15622104850E+02  0.15622104850E+02  0.00000000000E+00 0.  1.
          2    1    1    2  501    0 -0.78062628696E+01 -0.30442582697E+02  0.15497239126E+03  0.15812694468E+03  0.00000000000E+00 0.  1.
          1    1    1    2  502    0  0.78062628696E+01  0.30442582697E+02  0.35361734119E+01  0.31625829691E+02  0.00000000000E+00 0.  1.
</event>
<event>
 4    1  0.3555026E+003  0.3355666E+02  0.7546771E-02  0.1391004E+00
          2   -1    0    0  502    0  0.00000000000E+00  0.00000000000E+00  0.10168368454E+04  0.10168368454E+04  0.00000000000E+00 0.  1.
          1   -1    0    0  501    0 -0.00000000000E+00 -0.00000000000E+00 -0.46219794569E+02  0.46219794569E+02  0.00000000000E+00 0. -1.
          2    1    1    2  501    0 -0.20225838896E+02  0.26776202044E+02  0.10104306572E+04  0.10109877164E+04  0.00000000000E+00 0.  1.
          1    1    1    2  502    0  0.20225838896E+02 -0.26776202044E+02 -0.39813606381E+02  0.52068923630E+02  0.00000000000E+00 0. -1.
</event>
<event>
 4    1  0.3555026E+003  0.3358325E+02  0.7546771E-02  0.1390807E+00
          2   -1    0    0  502    0  0.00000000000E+00  0.00000000000E+00  0.12374614518E+03  0.12374614518E+03  0.00000000000E+00 0.  1.
          1   -1    0    0  501    0 -0.00000000000E+00 -0.00000000000E+00 -0.21346687647E+02  0.21346687647E+02  0.00000000000E+00 0.  1.
          2    1    1    2  501    0  0.32113205533E+02 -0.98273287899E+01  0.10611712517E+03  0.11130444113E+03  0.00000000000E+00 0.  1.
          1    1    1    2  502    0 -0.32113205533E+02  0.98273287899E+01 -0.37176676380E+01  0.33788391697E+02  0.00000000000E+00 0.  1.
</event>
<event>
 4    1  0.3555026E+003  0.3240037E+02  0.7546771E-02  0.1399822E+00
          2   -1    0    0  502    0  0.00000000000E+00  0.00000000000E+00  0.13461743787E+04  0.13461743787E+04  0.00000000000E+00 0. -1.
          1   -1    0    0  501    0 -0.00000000000E+00 -0.00000000000E+00 -0.13937413993E+03  0.13937413993E+03  0.00000000000E+00 0. -1.
          2    1    1    2  501    0 -0.29842638967E+02  0.12617494164E+02  0.13440934742E+04  0.13444839351E+04  0.00000000000E+00 0. -1.
          1    1    1    2  502    0  0.29842638967E+02 -0.12617494164E+02 -0.13729323540E+03  0.14106458360E+03  0.00000000000E+00 0. -1.
</event>
<event>
 4    1  0.3555026E+003  0.4163446E+02  0.7546771E-02  0.1339165E+00
          2   -1    0    0  502    0  0.00000000000E+00  0.00000000000E+00  0.15134120765E+02  0.15134120765E+02  0.00000000000E+00 0.  1.
          1   -1    0    0  501    0 -0.00000000000E+00 -0.00000000000E+00 -0.56592028152E+03  0.56592028152E+03  0.00000000000E+00 0. -1.
          2    1    1    2  501    0  0.40948909637E+02 -0.75243068206E+01 -0.15926435004E+02  0.44576672436E+02  0.00000000000E+00 0.  1.
          1    1    1    2  502    0 -0.40948909637E+02  0.75243068206E+01 -0.53485972575E+03  0.53647772985E+03  0.00000000000E+00 0. -1.
</event>
<event>
 4    1  0.3555026E+003  0.2293692E+02  0.7546771E-02  0.1493292E+00
          2   -1    0    0  502    0  0.00000000000E+00  0.00000000000E+00  0.46660763688E+03  0.46660763688E+03  0.00000000000E+00 0. -1.
          1   -1    0    0  501    0 -0.00000000000E+00 -0.00000000000E+00 -0.10334032290E+04  0.10334032290E+04  0.00000000000E+00 0.  1.
          2    1    1    2  501    0 -0.20865521624E+02 -0.95253551965E+01  0.46619837478E+03  0.46676228107E+03  0.00000000000E+00 0. -1.
          1    1    1    2  502    0  0.20865521624E+02  0.95253551965E+01 -0.10329939669E+04  0.10332485848E+04  0.00000000000E+00 0.  1.
</event>
<event>
 4    1  0.3555026E+003  0.2732655E+02  0.7546771E-02  0.1444355E+00
          2   -1    0    0  502    0  0.00000000000E+00  0.00000000000E+00  0.56964686963E+02  0.56964686963E+02  0.00000000000E+00 0.  1.
          1   -1    0    0  501    0 -0.00000000000E+00 -0.00000000000E+00 -0.10708109765E+03  0.10708109765E+03  0.00000000000E+00 0.  1.
          2    1    1    2  501    0  0.26981752287E+02  0.43272809449E+01  0.51780232868E+02  0.58548551072E+02  0.00000000000E+00 0.  1.
          1    1    1    2  502    0 -0.26981752287E+02 -0.43272809449E+01 -0.10189664356E+03  0.10549723354E+03  0.00000000000E+00 0.  1.
</event>
<event>
 4    1  0.3555026E+003  0.3198209E+02  0.7546771E-02  0.1403120E+00
          2   -1    0    0  502    0  0.00000000000E+00  0.00000000000E+00  0.13292595174E+03  0.13292595174E+03  0.00000000000E+00 0.  1.
          1   -1    0    0  501    0 -0.00000000000E+00 -0.00000000000E+00 -0.14073255239E+02  0.14073255239E+02  0.00000000000E+00 0. -1.
          2    1    1    2  501    0  0.50760027942E+01 -0.31576700540E+02  0.10890770226E+03  0.11350657000E+03  0.00000000000E+00 0.  1.
          1    1    1    2  502    0 -0.50760027942E+01  0.31576700540E+02  0.99449942386E+01  0.33492636978E+02  0.00000000000E+00 0. -1.
</event>
<event>
 4    1  0.3555026E+003  0.2834981E+02  0.7546771E-02  0.1434501E+00
          2   -1    0    0  502    0  0.00000000000E+00  0.00000000000E+00  0.20354485665E+02  0.20354485665E+02  0.00000000000E+00 0. -1.
          1   -1    0    0  501    0 -0.00000000000E+00 -0.00000000000E+00 -0.17536414634E+03  0.17536414634E+03  0.00000000000E+00 0.  1.
          2    1    1    2  501    0  0.24441852529E+02  0.14363413896E+02  0.86355935363E+01  0.29635878417E+02  0.00000000000E+00 0. -1.
          1    1    1    2  502    0 -0.24441852529E+02 -0.14363413896E+02 -0.16364525421E+03  0.16608275359E+03  0.00000000000E+00 0.  1.
</event>
<event>
 4    1  0.3555026E+003  0.3794660E+02  0.7546771E-02  0.1360958E+00
          2   -1    0    0  502    0  0.00000000000E+00  0.00000000000E+00  0.11586112870E+02  0.11586112870E+02  0.00000000000E+00 0.  1.
          1   -1    0    0  501    0 -0.00000000000E+00 -0.00000000000E+00 -0.49084651406E+03  0.49084651406E+03  0.00000000000E+00 0. -1.
          2    1    1    2  501    0 -0.18421041970E+02  0.33175436038E+02 -0.22534990973E+02  0.44133549163E+02  0.00000000000E+00 0.  1.
          1    1    1    2  502    0  0.18421041970E+02 -0.33175436038E+02 -0.45672541022E+03  0.45829907777E+03  0.00000000000E+00 0. -1.
</event>
<event>
 4    1  0.3555026E+003  0.3308440E+02  0.7546771E-02  0.1394555E+00
          2   -1    0    0  502    0  0.00000000000E+00  0.00000000000E+00  0.13192994106E+03  0.13192994106E+03  0.00000000000E+00 0. -1.
          1   -1    0    0  501    0 -0.00000000000E+00 -0.00000000000E+00 -0.15463010667E+02  0.15463010667E+02  0.00000000000E+00 0.  1.
          2    1    1    2  501    0 -0.13111565233E+02 -0.30375391342E+02  0.10840400741E+03  0.11334022395E+03  0.00000000000E+00 0. -1.
          1    1    1    2  502    0  0.13111565233E+02  0.30375391342E+02  0.80629229792E+01  0.34052727776E+02  0.00000000000E+00 0.  1.
</event>
<event>
 4    1  0.4336509E+003  0.2860932E+02  0.7546771E-02  0.1432079E+00
          2   -1    0    0  502    0  0.00000000000E+00  0.00000000000E+00  0.18355199026E+04  0.18355199026E+04  0.00000000000E+00 0. -1.
          1   -1    0    0  501    0 -0.00000000000E+00 -0.00000000000E+00 -0.46788555226E+03  0.46788555226E+03  0.00000000000E+00 0. -1.
          2    1    1    2  501    0 -0.27155758167E+02  0.90032283402E+01  0.18349709557E+04  0.18351939684E+04  0.00000000000E+00 0. -1.
          1    1    1    2  502    0  0.27155758167E+02 -0.90032283402E+01 -0.46733660538E+03  0.46821148646E+03  0.00000000000E+00 0. -1.
</event>
<event>
 4    1  0.3555026E+003  0.2261418E+02  0.7546771E-02  0.1497401E+00
          2   -1    0    0  502    0  0.00000000000E+00  0.00000000000E+00  0.34948823635E+00  0.34948823635E+00  0.00000000000E+00 0.  1.
          1   -1    0    0  501    0 -0.00000000000E+00 -0.00000000000E+00 -0.16849879469E+04  0.16849879469E+04  0.00000000000E+00 0.  1.
          2    1    1    2  501    0  0.78965349873E+01  0.21190700991E+02 -0.53665564406E+03  0.53713190315E+03  0.00000000000E+00 0.  1.
          1    1    1    2  502    0 -0.78965349873E+01 -0.21190700991E+02 -0.11479828146E+04  0.11482055320E+04  0.00000000000E+00 0.  1.
</event>
<event>
 4    1  0.3555026E+003  0.2531034E+02  0.7546771E-02  0.1465361E+00
          2   -1    0    0  502    0  0.00000000000E+00  0.00000000000E+00  0.48553475094E+02  0.48553475094E+02  0.00000000000E+00 0.  1.
          1   -1    0    0  501    0 -0.00000000000E+00 -0.00000000000E+00 -0.11243530876E+04  0.11243530876E+04  0.00000000000E+00 0. -1.
          2    1    1    2  501    0  0.67422864469E+00  0.25301356713E+02  0.45102387190E+02  0.51718841499E+02  0.00000000000E+00 0.  1.
          1    1    1    2  502    0 -0.67422864469E+00 -0.25301356713E+02 -0.11209019997E+04  0.11211877212E+04  0.00000000000E+00 0. -1.
</event>
<event>
 4    1  0.3555026E+003  0.2767263E+02  0.7546771E-02  0.1440966E+00
          2   -1    0    0  502    0  0.00000000000E+00  0.00000000000E+00  0.24518309986E+02  0.24518309986E+02  0.00000000000E+00 0. -1.
          1   -1    0    0  501    0 -0.00000000000E+00 -0.00000000000E+00 -0.19238611152E+04  0.19238611152E+04  0.00000000000E+00 0.  1.
          2    1    1    2  501    0  0.10650520542E+02 -0.25540961399E+02  0.16578254494E+02  0.32258530950E+02  0.00000000000E+00 0. -1.
          1    1    1    2  502    0 -0.10650520542E+02  0.25540961399E+02 -0.19159210598E+04  0.19161208943E+04  0.00000000000E+00 0.  1.
</event>
<event>
 4    1  0.3555026E+003  0.2502058E+02  0.7546771E-02  0.1468573E+00
          2   -1    0    0  502    0  0.00000000000E+00  0.00000000000E+00  0.53210941857E+02  0.53210941857E+02  0.00000000000E+00 0. -1.
          1   -1    0    0  501    0 -0.00000000000E+00 -0.00000000000E+00 -0.22864905252E+02  0.22864905252E+02  0.00000000000E+00 0.  1.
          2    1    1    2  501    0 -0.24093484681E+02 -0.67478487813E+01  0.41675755377E+02  0.48609649798E+02  0.00000000000E+00 0. -1.
          1    1    1    2  502    0  0.24093484681E+02  0.67478487813E+01 -0.11329718772E+02  0.27466197310E+02  0.00000000000E+00 0.  1.
</event>
<event>
 4    1  0.3555026E+003  0.2113297E+02  0.7546771E-02  0.1517375E+00
          2   -1    0    0  502    0  0.00000000000E+00  0.00000000000E+00  0.11484573650E+04  0.11484573650E+04  0.00000000000E+00 0.  1.
          1   -1    0    0  501    0 -0.00000000000E+00 -0.00000000000E+00 -0.49451205005E+02  0.49451205005E+02  0.00000000000E+00 0.  1.
          2    1    1    2  501    0  0.17661402946E+02  0.11605052819E+02  0.11460977056E+04  0.11462925252E+04  0.00000000000E+00 0.  1.
          1    1    1    2  502    0 -0.17661402946E+02 -0.11605052819E+02 -0.47091545683E+02  0.51616044790E+02  0.00000000000E+00 0.  1.
</event>
<event>
 4    1  0.3555026E+003  0.7154739E+02  0.7546771E-02  0.1224959E+00
          2   -1    0    0  502    0  0.00000000000E+00  0.00000000000E+00  0.17391690164E+04  0.17391690164E+04  0.00000000000E+00 0.  1.
          1   -1    0    0  501    0 -0.00000000000E+00 -0.00000000000E+00 -0.47842795380E+01  0.47842795380E+01  0.00000000000E+00 0.  1.
          2    1    1    2  501    0 -0.28648843788E+02 -0.65561210825E+02  0.14080862623E+04  0.14099028160E+04  0.00000000000E+00 0.  1.
          1    1    1    2  502    0  0.28648843788E+02  0.65561210825E+02  0.32629847458E+03  0.33405047991E+03  0.00000000000E+00 0.  1.
</event>
<event>
 4    1  0.3555026E+003  0.2832242E+02  0.7546771E-02  0.1434758E+00
          2   -1    0    0  502    0  0.00000000000E+00  0.00000000000E+00  0.30150879642E+02  0.30150879642E+02  0.00000000000E+00 0. -1.
          1   -1    0    0  501    0 -0.00000000000E+00 -0.00000000000E+00 -0.71657228948E+03  0.71657228948E+03  0.00000000000E+00 0. -1.
          2    1    1    2  501    0  0.55698491730E+01 -0.27769344567E+02  0.23154249538E+02  0.36582495666E+02  0.00000000000E+00 0. -1.
          1    1    1    2  502    0 -0.55698491730E+01  0.27769344567E+02 -0.70957565937E+03  0.71014067345E+03  0.00000000000E+00 0. -1.
</event>
<event>
 4    1  0.3555026E+003  0.2643377E+02  0.7546771E-02  0.1453380E+00
          2   -1    0    0  502    0  0.00000000000E+00  0.00000000000E+00  0.34829402367E+03  0.34829402367E+03  0.00000000000E+00 0. -1.
          1   -1    0    0  501    0 -0.00000000000E+00 -0.00000000000E+00 -0.41869126075E+01  0.41869126075E+01  0.00000000000E+00 0. -1.
          2    1    1    2  501    0  0.13433490574E+02 -0.22765883467E+02  0.29924528278E+03  0.30041052476E+03  0.00000000000E+00 0. -1.
          1    1    1    2  502    0 -0.13433490574E+02  0.22765883467E+02  0.44861828283E+02  0.52070411521E+02  0.00000000000E+00 0. -1.
</event>
<event>
 4    1  0.3555026E+003  0.2254989E+02  0.7546771E-02  0.1498229E+00
          2   -1    0    0  502    0  0.00000000000E+00  0.00000000000E+00  0.62783523268E+01  0.62783523268E+01  0.00000000000E+00 0. -1.
          1   -1    0    0  501    0 -0.00000000000E+00 -0.00000000000E+00 -0.32700807811E+03  0.32700807811E+03  0.00000000000E+00 0.  1.
          2    1    1    2  501    0 -0.16758837220E+02  0.15087700191E+02 -0.15824214328E+02  0.27548195606E+02  0.00000000000E+00 0. -1.
          1    1    1    2  502    0  0.16758837220E+02 -0.15087700191E+02 -0.30490551146E+03  0.30573823483E+03  0.00000000000E+00 0.  1.
</event>
<event>
 4    1  0.3555026E+003  0.2731630E+02  0.7546771E-02  0.1444456E+00
          2   -1    0    0  502    0  0.00000000000E+00  0.00000000000E+00  0.67659886092E+03  0.67659886092E+03  0.00000000000E+00 0. -1.
          1   -1    0    0  501    0 -0.00000000000E+00 -0.00000000000E+00 -0.28391783063E+01  0.28391783063E+01  0.00000000000E+00 0.  1.
          2    1    1    2  501    0 -0.20816737935E+02  0.17687387105E+02  0.60254873671E+03  0.60316760552E+03  0.00000000000E+00 0. -1.
          1    1    1    2  502    0  0.20816737935E+02 -0.17687387105E+02  0.71210945903E+02  0.76270433703E+02  0.00000000000E+00 0.  1.
</event>
<event>
 4    1  0.3555026E+003  0.2327584E+02  0.7546771E-02  0.1489063E+00
          2   -1    0    0  502    0  0.00000000000E+00  0.00000000000E+00  0.24069607178E+03  0.24069607178E+03  0.00000000000E+00 0.  1.
          1   -1    0    0  501    0 -0.00000000000E+00 -0.00000000000E+00 -0.26569218220E+03  0.26569218220E+03  0.00000000000E+00 0.  1.
          2    1    1    2  501    0  0.11565173060E+02 -0.20199292666E+02  0.23962131735E+03  0.24074912333E+03  0.00000000000E+00 0.  1.
          1    1    1    2  502    0 -0.11565173060E+02  0.20199292666E+02 -0.26461742778E+03  0.26563913065E+03  0.00000000000E+00 0.  1.
</event>
<event>
 4    1  0.3555026E+003  0.2464723E+02  0.7546771E-02  0.1472789E+00
          2   -1    0    0  502    0  0.00000000000E+00  0.00000000000E+00  0.80077834426E+03  0.80077834426E+03  0.00000000000E+00 0. -1.
          1   -1    0    0  501    0 -0.00000000000E+00 -0.00000000000E+00 -0.92189707720E+01  0.92189707720E+01  0.00000000000E+00 0.  1.
          2    1    1    2  501    0  0.63409290526E+01 -0.23817612360E+02  0.78375720713E+03  0.78414465870E+03  0.00000000000E+00 0. -1.
          1    1    1    2  502    0 -0.63409290526E+01  0.23817612360E+02  0.78021663645E+01  0.25852656338E+02  0.00000000000E+00 0.  1.
</event>
<event>
 4    1  0.3555026E+003  0.2033355E+02  0.7546771E-02  0.1528996E+00
          2   -1    0    0  502    0  0.00000000000E+00  0.00000000000E+00  0.33420092405E+03  0.33420092405E+03  0.00000000000E+00 0.  1.
          1   -1    0    0  501    0 -0.00000000000E+00 -0.00000000000E+00 -0.27550257372E+01  0.27550257372E+01  0.00000000000E+00 0. -1.
          2    1    1    2  501    0 -0.16937545288E+02  0.11250460006E+02  0.29077760370E+03  0.29148768088E+03  0.00000000000E+00 0.  1.
          1    1    1    2  502    0  0.16937545288E+02 -0.11250460006E+02  0.40668294608E+02  0.45468268904E+02  0.00000000000E+00 0. -1.
</event>
<event>
 4    1  0.3555026E+003  0.2807080E+02  0.7546771E-02  0.1437138E+00
          2   -1    0    0  502    0  0.00000000000E+00  0.00000000000E+00  0.66590341314E+03  0.66590341314E+03  0.00000000000E+00 0.  1.
          1   -1    0    0  501    0 -0.00000000000E+00 -0.00000000000E+00 -0.69148341726E+01  0.69148341726E+01  0.00000000000E+00 0.  1.
          2    1    1    2  501    0 -0.16444033569E+02 -0.22750027599E+02  0.63576957603E+03  0.63638897209E+03  0.00000000000E+00 0.  1.
          1    1    1    2  502    0  0.16444033569E+02  0.22750027599E+02  0.23219002942E+02  0.36429275224E+02  0.00000000000E+00 0.  1.
</event>
<event>
 4    1  0.3555026E+003  0.2299109E+02  0.7546771E-02  0.1492610E+00
          2   -1    0    0  502    0  0.00000000000E+00  0.00000000000E+00  0.62328090685E+03  0.62328090685E+03  0.00000000000E+00 0.  1.
          1   -1    0    0  501    0 -0.00000000000E+00 -0.00000000000E+00 -0.10816018882E+03  0.10816018882E+03  0.00000000000E+00 0.  1.
          2    1    1    2  501    0 -0.22964268562E+02 -0.11101755284E+01  0.62184428992E+03  0.62226916284E+03  0.00000000000E+00 0.  1.
          1    1    1    2  502    0  0.22964268562E+02  0.11101755284E+01 -0.10672357189E+03  0.10917193283E+03  0.00000000000E+00 0.  1.
</event>
<event>
 4    1  0.3555026E+003  0.3549622E+02  0.7546771E-02  0.1377108E+00
          2   -1    0    0  502    0  0.00000000000E+00  0.00000000000E+00  0.36077120671E+03  0.36077120671E+03  0.00000000000E+00 0. -1.
          1   -1    0    0  501    0 -0.00000000000E+00 -0.00000000000E+00 -0.43480177822E+02  0.43480177822E+02  0.00000000000E+00 0.  1.
          2    1    1    2  501    0 -0.31639914810E+02 -0.16090293302E+02  0.35248360933E+03  0.35426639213E+03  0.00000000000E+00 0. -1.
          1    1    1    2  502    0  0.31639914810E+02  0.16090293302E+02 -0.35192580438E+02  0.49984992405E+02  0.00000000000E+00 0.  1.
</event>
<event>
 4    1  0.3555026E+003  0.2200870E+02  0.7546771E-02  0.1505336E+00
          2   -1    0    0  502    0  0.00000000000E+00  0.00000000000E+00  0.58661041502E+03  0.58661041502E+03  0.00000000000E+00 0.  1.
          1   -1    0    0  501    0 -0.00000000000E+00 -0.00000000000E+00 -0.18343512196E+01  0.18343512196E+01  0.00000000000E+00 0. -1.
          2    1    1    2  501    0  0.21484822717E+02 -0.47733891545E+01  0.51055959019E+03  0.51103373469E+03  0.00000000000E+00 0.  1.
          1    1    1    2  502    0 -0.21484822717E+02  0.47733891545E+01  0.74216473612E+02  0.77411031557E+02  0.00000000000E+00 0. -1.
</event>
<event>
 4    1  0.3555026E+003  0.2496169E+02  0.7546771E-02  0.1469232E+00
          2   -1    0    0  502    0  0.00000000000E+00  0.00000000000E+00  0.96049044196E+03  0.96049044196E+03  0.00000000000E+00 0.  1.
          1   -1    0    0  501    0 -0.00000000000E+00 -0.00000000000E+00 -0.20749293458E+01  0.20749293458E+01  0.00000000000E+00 0. -1.
          2    1    1    2  501    0 -0.15488509405E+02  0.19575289381E+02  0.87822418058E+03  0.87857885089E+03  0.00000000000E+00 0.  1.
          1    1    1    2  502    0  0.15488509405E+02 -0.19575289381E+02  0.80191332034E+02  0.83986520414E+02  0.00000000000E+00 0. -1.
</event>
<event>
 4    1  0.3555026E+003  0.2859650E+02  0.7546771E-02  0.1432198E+00
          2   -1    0    0  502    0  0.00000000000E+00  0.00000000000E+00  0.23451090357E+01  0.23451090357E+01  0.00000000000E+00 0. -1.
          1   -1    0    0  501    0 -0.00000000000E+00 -0.00000000000E+00 -0.47394755560E+03  0.47394755560E+03  0.00000000000E+00 0.  1.
          2    1    1    2  501    0  0.24914526509E+02 -0.14036602188E+02 -0.11338235338E+03  0.11693296323E+03  0.00000000000E+00 0. -1.
          1    1    1    2  502    0 -0.24914526509E+02  0.14036602188E+02 -0.35822009319E+03  0.35935970141E+03  0.00000000000E+00 0.  1.
</event>
<event>
 4    1  0.3555026E+003  0.2530859E+02  0.7546771E-02  0.1465381E+00
          2   -1    0    0  502    0  0.00000000000E+00  0.00000000000E+00  0.10084330978E+03  0.10084330978E+03  0.00000000000E+00 0. -1.
          1   -1    0    0  501    0 -0.00000000000E+00 -0.00000000000E+00 -0.76816225806E+01  0.76816225806E+01  0.00000000000E+00 0. -1.
          2    1    1    2  501    0 -0.25276856753E+01  0.25182043419E+02  0.69159046673E+02  0.73644404012E+02  0.00000000000E+00 0. -1.
          1    1    1    2  502    0  0.25276856753E+01 -0.25182043419E+02  0.24002640526E+02  0.34880528348E+02  0.00000000000E+00 0. -1.
</event>
<event>
 4    1  0.3555026E+003  0.2259324E+02  0.7546771E-02  0.1497670E+00
          2   -1    0    0  502    0  0.00000000000E+00  0.00000000000E+00  0.18751549787E+03  0.18751549787E+03  0.00000000000E+00 0. -1.
          1   -1    0    0  501    0 -0.00000000000E+00 -0.00000000000E+00 -0.11204126412E+03  0.11204126412E+03  0.00000000000E+00 0.  1.
          2    1    1    2  501    0 -0.19283161375E+02  0.11773452538E+02  0.18568477202E+03  0.18705424095E+03  0.00000000000E+00 0. -1.
          1    1    1    2  502    0  0.19283161375E+02 -0.11773452538E+02 -0.11021053826E+03  0.11250252105E+03  0.00000000000E+00 0.  1.
</event>
<event>
 4    1  0.3555026E+003  0.2245959E+02  0.7546771E-02  0.1499398E+00
          2   -1    0    0  502    0  0.00000000000E+00  0.00000000000E+00  0.21730412194E+02  0.21730412194E+02  0.00000000000E+00 0.  1.
          1   -1    0    0  501    0 -0.00000000000E+00 -0.00000000000E+00 -0.41977581901E+03  0.41977581901E+03  0.00000000000E+00 0. -1.
          2    1    1    2  501    0  0.12916457557E+02 -0.18373848307E+02  0.15539885372E+02  0.27311558264E+02  0.00000000000E+00 0.  1.
          1    1    1    2  502    0 -0.12916457557E+02  0.18373848307E+02 -0.41358529219E+03  0.41419467294E+03  0.00000000000E+00 0. -1.
</event>
<event>
 4    1  0.3555026E+003  0.2738735E+02  0.7546771E-02  0.1443755E+00
          2   -1    0    0  502    0  0.00000000000E+00  0.00000000000E+00  0.34351639422E+03  0.34351639422E+03  0.00000000000E+00 0.  1.
          1   -1    0    0  501    0 -0.00000000000E+00 -0.00000000000E+00 -0.74898960239E+01  0.74898960239E+01  0.00000000000E+00 0. -1.
          2    1    1    2  501    0 -0.15377984409E+01  0.27344140019E+02  0.31573586349E+03  0.31692144502E+03  0.00000000000E+00 0.  1.
          1    1    1    2  502    0  0.15377984409E+01 -0.27344140019E+02  0.20290634707E+02  0.34084845228E+02  0.00000000000E+00 0. -1.
</event>
<event>
 4    1  0.3555026E+003  0.2299583E+02  0.7546771E-02  0.1492551E+00
          2   -1    0    0  502    0  0.00000000000E+00  0.00000000000E+00  0.70131043569E+02  0.70131043569E+02  0.00000000000E+00 0. -1.
          1   -1    0    0  501    0 -0.00000000000E+00 -0.00000000000E+00 -0.77098391517E+01  0.77098391517E+01  0.00000000000E+00 0. -1.
          2    1    1    2  501    0 -0.15024830930E+02 -0.17408675109E+02  0.25438696668E+02  0.34291905776E+02  0.00000000000E+00 0. -1.
          1    1    1    2  502    0  0.15024830930E+02  0.17408675109E+02  0.36982507749E+02  0.43548976945E+02  0.00000000000E+00 0. -1.
</event>
<event>
 4    1  0.3555026E+003  0.2282217E+02  0.7546771E-02  0.1494743E+00
          2   -1    0    0  502    0  0.00000000000E+00  0.00000000000E+00  0.49370946345E+03  0.49370946345E+03  0.00000000000E+00 0. -1.
          1   -1    0    0  501    0 -0.00000000000E+00 -0.00000000000E+00 -0.10990680869E+01  0.10990680869E+01  0.00000000000E+00 0. -1.
          2    1    1    2  501    0  0.18228977958E+02 -0.13731568967E+02  0.29585881062E+03  0.29673774187E+03  0.00000000000E+00 0. -1.
          1    1    1    2  502    0 -0.18228977958E+02  0.13731568967E+02  0.19675158473E+03  0.19807078967E+03  0.00000000000E+00 0. -1.
</event>
<event>
 4    1  0.3555026E+003  0.2556334E+02  0.7546771E-02  0.1462599E+00
          2   -1    0    0  502    0  0.00000000000E+00  0.00000000000E+00  0.52780002541E+02  0.52780002541E+02  0.00000000000E+00 0.  1.
          1   -1    0    0  501    0 -0.00000000000E+00 -0.00000000000E+00 -0.29017482108E+03  0.29017482108E+03  0.00000000000E+00 0.  1.
          2    1    1    2  501    0  0.62426817663E+01  0.24789380730E+02  0.49081791774E+02  0.55339920097E+02  0.00000000000E+00 0.  1.
          1    1    1    2  502    0 -0.62426817663E+01 -0.24789380730E+02 -0.28647661031E+03  0.28761490352E+03  0.00000000000E+00 0.  1.
</event>
<event>
 4    1  0.3555026E+003  0.1068278E+03  0.7546771E-02  0.1152475E+00
          2   -1    0    0  502    0  0.00000000000E+00  0.00000000000E+00  0.12035660517E+04  0.12035660517E+04  0.00000000000E+00 0. -1.
          1   -1    0    0  501    0 -0.00000000000E+00 -0.00000000000E+00 -0.92661660874E+03  0.92661660874E+03  0.00000000000E+00 0. -1.
          2    1    1    2  501    0 -0.22660254214E+02  0.10439680792E+03  0.11981025536E+04  0.12028557310E+04  0.00000000000E+00 0. -1.
          1    1    1    2  502    0  0.22660254214E+02 -0.10439680792E+03 -0.92115311070E+03  0.92732692939E+03  0.00000000000E+00 0. -1.
</event>
<event>
 4    1  0.3555026E+003  0.3289164E+02  0.7546771E-02  0.1396024E+00
          2   -1    0    0  502    0  0.00000000000E+00  0.00000000000E+00  0.56184908972E+03  0.56184908972E+03  0.00000000000E+00 0. -1.
          1   -1    0    0  501    0 -0.00000000000E+00 -0.00000000000E+00 -0.25380739603E+03  0.25380739603E+03  0.00000000000E+00 0. -1.
          2    1    1    2  501    0 -0.20906136199E+02  0.25392787403E+02  0.56029912954E+03  0.56126373011E+03  0.00000000000E+00 0. -1.
          1    1    1    2  502    0  0.20906136199E+02 -0.25392787403E+02 -0.25225743584E+03  0.25439275563E+03  0.00000000000E+00 0. -1.
</event>
<event>
 4    1  0.3555026E+003  0.3219859E+02  0.7546771E-02  0.1401406E+00
          2   -1    0    0  502    0  0.00000000000E+00  0.00000000000E+00  0.17296100518E+03  0.17296100518E+03  0.00000000000E+00 0. -1.
          1   -1    0    0  501    0 -0.00000000000E+00 -0.00000000000E+00 -0.97561970249E+01  0.97561970249E+01  0.00000000000E+00 0. -1.
          2    1    1    2  501    0 -0.21414380888E+02 -0.24045244452E+02  0.13833371835E+03  0.14203157087E+03  0.00000000000E+00 0. -1.
          1    1    1    2  502    0  0.21414380888E+02  0.24045244452E+02  0.24871089807E+02  0.40685631342E+02  0.00000000000E+00 0. -1.
</event>
<event>
 4    1  0.3555026E+003  0.2350526E+02  0.7546771E-02  0.1486249E+00
          2   -1    0    0  502    0  0.00000000000E+00  0.00000000000E+00  0.15427557085E+02  0.15427557085E+02  0.00000000000E+00 0. -1.
          1   -1    0    0  501    0 -0.00000000000E+00 -0.00000000000E+00 -0.20688202875E+03  0.20688202875E+03  0.00000000000E+00 0. -1.
          2    1    1    2  501    0  0.77252477852E+01  0.22199496889E+02  0.53499931331E+01  0.24106421178E+02  0.00000000000E+00 0. -1.
          1    1    1    2  502    0 -0.77252477852E+01 -0.22199496889E+02 -0.19680446480E+03  0.19820316466E+03  0.00000000000E+00 0. -1.
</event>
<event>
 4    1  0.3555026E+003  0.2816489E+02  0.7546771E-02  0.1436245E+00
          2   -1    0    0  502    0  0.00000000000E+00  0.00000000000E+00  0.13878148156E+02  0.13878148156E+02  0.00000000000E+00 0. -1.
          1   -1    0    0  501    0 -0.00000000000E+00 -0.00000000000E+00 -0.23004579788E+03  0.23004579788E+03  0.00000000000E+00 0. -1.
          2    1    1    2  501    0  0.13113203602E+02 -0.24925992735E+02 -0.23538349711E+01  0.28263081247E+02  0.00000000000E+00 0. -1.
          1    1    1    2  502    0 -0.13113203602E+02  0.24925992735E+02 -0.21381381475E+03  0.21566086479E+03  0.00000000000E+00 0. -1.
</event>
<event>
 4    1  0.3555026E+003  0.3248110E+02  0.7546771E-02  0.1399193E+00
          2   -1    0    0  502    0  0.00000000000E+00  0.00000000000E+00  0.61910675355E+03  0.61910675355E+03  0.00000000000E+00 0.  1.
          1   -1    0    0  501    0 -0.00000000000E+00 -0.00000000000E+00 -0.37438057313E+01  0.37438057313E+01  0.00000000000E+00 0.  1.
          2    1    1    2  501    0 -0.27920230402E+02 -0.16597671706E+02  0.53755057556E+03  0.53853100491E+03  0.00000000000E+00 0.  1.
          1    1    1    2  502    0  0.27920230402E+02  0.16597671706E+02  0.77812372265E+02  0.84319554371E+02  0.00000000000E+00 0.  1.
</event>
<event>
 4    1  0.3555026E+003  0.2107266E+02  0.7546771E-02  0.1518230E+00
          2   -1    0    0  502    0  0.00000000000E+00  0.00000000000E+00  0.65581407712E+03  0.65581407712E+03  0.00000000000E+00 0. -1.
          1   -1    0    0  501    0 -0.00000000000E+00 -0.00000000000E+00 -0.75053968874E+00  0.75053968874E+00  0.00000000000E+00 0. -1.
          2    1    1    2  501    0 -0.17693518262E+02 -0.11445370011E+02  0.43021554725E+03  0.43073132482E+03  0.00000000000E+00 0. -1.
          1    1    1    2  502    0  0.17693518262E+02  0.11445370011E+02  0.22484799018E+03  0.22583329199E+03  0.00000000000E+00 0. -1.
</event>
<event>
 4    1  0.3555026E+003  0.2065281E+02  0.7546771E-02  0.1524280E+00
          2   -1    0    0  502    0  0.00000000000E+00  0.00000000000E+00  0.10945440768E+04  0.10945440768E+04  0.00000000000E+00 0. -1.
          1   -1    0    0  501    0 -0.00000000000E+00 -0.00000000000E+00 -0.44307335567E+03  0.44307335567E+03  0.00000000000E+00 0. -1.
          2    1    1    2  501    0  0.19841735077E+02  0.57309859122E+01  0.10942059082E+04  0.10944007987E+04  0.00000000000E+00 0. -1.
          1    1    1    2  502    0 -0.19841735077E+02 -0.57309859122E+01 -0.44273518703E+03  0.44321663381E+03  0.00000000000E+00 0. -1.
</event>
<event>
 4    1  0.3555026E+003  0.2115920E+02  0.7546771E-02  0.1517004E+00
          2   -1    0    0  502    0  0.00000000000E+00  0.00000000000E+00  0.91229061142E+03  0.91229061142E+03  0.00000000000E+00 0.  1.
          1   -1    0    0  501    0 -0.00000000000E+00 -0.00000000000E+00 -0.69894866262E+01  0.69894866262E+01  0.00000000000E+00 0. -1.
          2    1    1    2  501    0  0.24545829062E+01  0.21016340980E+02  0.89586052120E+03  0.89611036430E+03  0.00000000000E+00 0.  1.
          1    1    1    2  502    0 -0.24545829062E+01 -0.21016340980E+02  0.94406035896E+01  0.23169733740E+02  0.00000000000E+00 0. -1.
</event>
<event>
 4    1  0.3555026E+003  0.2566436E+02  0.7546771E-02  0.1461507E+00
          2   -1    0    0  502    0  0.00000000000E+00  0.00000000000E+00  0.12935425173E+04  0.12935425173E+04  0.00000000000E+00 0. -1.
          1   -1    0    0  501    0 -0.00000000000E+00 -0.00000000000E+00 -0.22354152674E+02  0.22354152674E+02  0.00000000000E+00 0. -1.
          2    1    1    2  501    0 -0.25526732304E+02 -0.26542528574E+01  0.12860058714E+04  0.12862619331E+04  0.00000000000E+00 0. -1.
          1    1    1    2  502    0  0.25526732304E+02  0.26542528574E+01 -0.14817506838E+02  0.29634736868E+02  0.00000000000E+00 0. -1.
</event>
<event>
 4    1  0.3555026E+003  0.2894484E+02  0.7546771E-02  0.1428993E+00
          2   -1    0    0  502    0  0.00000000000E+00  0.00000000000E+00  0.85968182432E+02  0.85968182432E+02  0.00000000000E+00 0. -1.
          1   -1    0    0  501    0 -0.00000000000E+00 -0.00000000000E+00 -0.48790506327E+02  0.48790506327E+02  0.00000000000E+00 0.  1.
          2    1    1    2  501    0  0.94215560612E+01 -0.27368559537E+02  0.78864475538E+02  0.84008388103E+02  0.00000000000E+00 0. -1.
          1    1    1    2  502    0 -0.94215560612E+01  0.27368559537E+02 -0.41686799433E+02  0.50750300656E+02  0.00000000000E+00 0.  1.
</event>
<event>
 4    1  0.3555026E+003  0.3820681E+02  0.7546771E-02  0.1359327E+00
          2   -1    0    0  502    0  0.00000000000E+00  0.00000000000E+00  0.16822744468E+02  0.16822744468E+02  0.00000000000E+00 0. -1.
          1   -1    0    0  501    0 -0.00000000000E+00 -0.00000000000E+00 -0.26906657339E+03  0.26906657339E+03  0.00000000000E+00 0. -1.
          2    1    1    2  501    0 -0.58246930524E+00  0.38202369672E+02 -0.84633038367E+01  0.39132950705E+02  0.00000000000E+00 0. -1.
          1    1    1    2  502    0  0.58246930524E+00 -0.38202369672E+02 -0.24378052509E+03  0.24675636715E+03  0.00000000000E+00 0. -1.
</event>
<event>
 4    1  0.3555026E+003  0.2004970E+02  0.7546771E-02  0.1533277E+00
          2   -1    0    0  502    0  0.00000000000E+00  0.00000000000E+00  0.14040874283E+03  0.14040874283E+03  0.00000000000E+00 0. -1.
          1   -1    0    0  501    0 -0.00000000000E+00 -0.00000000000E+00 -0.36314622860E+01  0.36314622860E+01  0.00000000000E+00 0.  1.
          2    1    1    2  501    0  0.19009663611E+02 -0.63736187052E+01  0.10151883998E+03  0.10347978159E+03  0.00000000000E+00 0. -1.
          1    1    1    2  502    0 -0.19009663611E+02  0.63736187052E+01  0.35258440566E+02  0.40560423533E+02  0.00000000000E+00 0.  1.
</event>
<event>
 4    1  0.3555026E+003  0.4146452E+02  0.7546771E-02  0.1340111E+00
          2   -1    0    0  502    0  0.00000000000E+00  0.00000000000E+00  0.97405020286E+00  0.97405020286E+00  0.00000000000E+00 0.  1.
          1   -1    0    0  501    0 -0.00000000000E+00 -0.00000000000E+00 -0.28826464659E+04  0.28826464659E+04  0.00000000000E+00 0.  1.
          2    1    1    2  501    0 -0.26887161732E+02 -0.31565602958E+02 -0.54311172114E+03  0.54469225108E+03  0.00000000000E+00 0.  1.
          1    1    1    2  502    0  0.26887161732E+02  0.31565602958E+02 -0.23385606946E+04  0.23389282650E+04  0.00000000000E+00 0.  1.
</event>
<event>
 4    1  0.3555026E+003  0.2931639E+02  0.7546771E-02  0.1425631E+00
          2   -1    0    0  502    0  0.00000000000E+00  0.00000000000E+00  0.96545099711E+03  0.96545099711E+03  0.00000000000E+00 0. -1.
          1   -1    0    0  501    0 -0.00000000000E+00 -0.00000000000E+00 -0.14016251189E+01  0.14016251189E+01  0.00000000000E+00 0. -1.
          2    1    1    2  501    0 -0.13935478681E+02 -0.25792505183E+02  0.77403793423E+03  0.77459290890E+03  0.00000000000E+00 0. -1.
          1    1    1    2  502    0  0.13935478681E+02  0.25792505183E+02  0.19001143776E+03  0.19225971333E+03  0.00000000000E+00 0. -1.
</event>
<event>
 4    1  0.3555026E+003  0.4196528E+02  0.7546771E-02  0.1337339E+00
          2   -1    0    0  502    0  0.00000000000E+00  0.00000000000E+00  0.70449942548E+03  0.70449942548E+03  0.00000000000E+00 0.  1.
          1   -1    0    0  501    0 -0.00000000000E+00 -0.00000000000E+00 -0.12207630390E+03  0.12207630390E+03  0.00000000000E+00 0. -1.
          2    1    1    2  501    0 -0.27458751694E+02  0.31734869758E+02  0.70024607175E+03  0.70150242052E+03  0.00000000000E+00 0.  1.
          1    1    1    2  502    0  0.27458751694E+02 -0.31734869758E+02 -0.11782295017E+03  0.12507330886E+03  0.00000000000E+00 0. -1.
</event>
<event>
 4    1  0.3555026E+003  0.2641589E+02  0.7546771E-02  0.1453565E+00
          2   -1    0    0  502    0  0.00000000000E+00  0.00000000000E+00  0.68440491095E+00  0.68440491095E+00  0.00000000000E+00 0. -1.
          1   -1    0    0  501    0 -0.00000000000E+00 -0.00000000000E+00 -0.15223217350E+04  0.15223217350E+04  0.00000000000E+00 0.  1.
          2    1    1    2  501    0 -0.12048955541E+02 -0.23507915781E+02 -0.32320107540E+03  0.32427879143E+03  0.00000000000E+00 0. -1.
          1    1    1    2  502    0  0.12048955541E+02  0.23507915781E+02 -0.11984362547E+04  0.11987273484E+04  0.00000000000E+00 0.  1.
</event>
<event>
 4    1  0.3555026E+003  0.2081678E+02  0.7546771E-02  0.1521897E+00
          2   -1    0    0  502    0  0.00000000000E+00  0.00000000000E+00  0.21315687126E+01  0.21315687126E+01  0.00000000000E+00 0.  1.
          1   -1    0    0  501    0 -0.00000000000E+00 -0.00000000000E+00 -0.22605394114E+03  0.22605394114E+03  0.00000000000E+00 0.  1.
          2    1    1    2  501    0 -0.86319177023E+01  0.18942764724E+02 -0.75759964278E+02  0.78567872098E+02  0.00000000000E+00 0.  1.
          1    1    1    2  502    0  0.86319177023E+01 -0.18942764724E+02 -0.14816240815E+03  0.14961763775E+03  0.00000000000E+00 0.  1.
</event>
<event>
 4    1  0.3555026E+003  0.3126862E+02  0.7546771E-02  0.1408883E+00
          2   -1    0    0  502    0  0.00000000000E+00  0.00000000000E+00  0.26011052611E+02  0.26011052611E+02  0.00000000000E+00 0.  1.
          1   -1    0    0  501    0 -0.00000000000E+00 -0.00000000000E+00 -0.42489631861E+02  0.42489631861E+02  0.00000000000E+00 0.  1.
          2    1    1    2  501    0 -0.19797751485E+01 -0.31205885950E+02  0.33926984792E+01  0.31452141907E+02  0.00000000000E+00 0.  1.
          1    1    1    2  502    0  0.19797751485E+01  0.31205885950E+02 -0.19871277730E+02  0.37048542565E+02  0.00000000000E+00 0.  1.
</event>
<event>
 4    1  0.3555026E+003  0.2245734E+02  0.7546771E-02  0.1499427E+00
          2   -1    0    0  502    0  0.00000000000E+00  0.00000000000E+00  0.72060925409E+03  0.72060925409E+03  0.00000000000E+00 0. -1.
          1   -1    0    0  501    0 -0.00000000000E+00 -0.00000000000E+00 -0.12963297147E+01  0.12963297147E+01  0.00000000000E+00 0.  1.
          2    1    1    2  501    0  0.29779737898E+01  0.22259013304E+02  0.60449717118E+03  0.60491417735E+03  0.00000000000E+00 0. -1.
          1    1    1    2  502    0 -0.29779737898E+01 -0.22259013304E+02  0.11481575320E+03  0.11699140645E+03  0.00000000000E+00 0.  1.
</event>
<event>
 4    1  0.3555026E+003  0.2162805E+02  0.7546771E-02  0.1510484E+00
          2   -1    0    0  502    0  0.00000000000E+00  0.00000000000E+00  0.71747164383E+02  0.71747164383E+02  0.00000000000E+00 0.  1.
          1   -1    0    0  501    0 -0.00000000000E+00 -0.00000000000E+00 -0.79612068396E+01  0.79612068396E+01  0.00000000000E+00 0.  1.
          2    1    1    2  501    0  0.21625803531E+02  0.31193932133E+00  0.48851468657E+02  0.53425075334E+02  0.00000000000E+00 0.  1.
          1    1    1    2  502    0 -0.21625803531E+02 -0.31193932133E+00  0.14934488887E+02  0.26283295889E+02  0.00000000000E+00 0.  1.
</event>
<event>
 4    1  0.3555026E+003  0.2443029E+02  0.7546771E-02  0.1475279E+00
          2   -1    0    0  502    0  0.00000000000E+00  0.00000000000E+00  0.31291472279E+03  0.31291472279E+03  0.00000000000E+00 0. -1.
          1   -1    0    0  501    0 -0.00000000000E+00 -0.00000000000E+00 -0.42106472118E+01  0.42106472118E+01  0.00000000000E+00 0.  1.
          2    1    1    2  501    0  0.24428193678E+02  0.32040192088E+00  0.27162587361E+03  0.27272230294E+03  0.00000000000E+00 0. -1.
          1    1    1    2  502    0 -0.24428193678E+02 -0.32040192088E+00  0.37078201968E+02  0.44403067066E+02  0.00000000000E+00 0.  1.
</event>
<event>
 4    1  0.3555026E+003  0.2257454E+02  0.7546771E-02  0.1497911E+00
          2   -1    0    0  502    0  0.00000000000E+00  0.00000000000E+00  0.24099910545E+02  0.24099910545E+02  0.00000000000E+00 0. -1.
          1   -1    0    0  501    0 -0.00000000000E+00 -0.00000000000E+00 -0.14413250687E+03  0.14413250687E+03  0.00000000000E+00 0.  1.
          2    1    1    2  501    0 -0.91860021455E+00  0.22555844081E+02  0.17684941871E+02  0.28676943658E+02  0.00000000000E+00 0. -1.
          1    1    1    2  502    0  0.91860021455E+00 -0.22555844081E+02 -0.13771753820E+03  0.13955547376E+03  0.00000000000E+00 0.  1.
</event>
<event>
 4    1  0.3555026E+003  0.2189935E+02  0.7546771E-02  0.1506802E+00
          2   -1    0    0  502    0  0.00000000000E+00  0.00000000000E+00  0.13091528212E+03  0.13091528212E+03  0.00000000000E+00 0. -1.
          1   -1    0    0  501    0 -0.00000000000E+00 -0.00000000000E+00 -0.64071609909E+01  0.64071609909E+01  0.00000000000E+00 0.  1.
          2    1    1    2  501    0 -0.15377195470E+02  0.15592410849E+02  0.10718650898E+03  0.10940077296E+03  0.00000000000E+00 0. -1.
          1    1    1    2  502    0  0.15377195470E+02 -0.15592410849E+02  0.17321612146E+02  0.27921670149E+02  0.00000000000E+00 0.  1.
</event>
<event>
 4    1  0.3555026E+003  0.2031492E+02  0.7546771E-02  0.1529275E+00
          2   -1    0    0  502    0  0.00000000000E+00  0.00000000000E+00  0.13540535143E+01  0.13540535143E+01  0.00000000000E+00 0. -1.
          1   -1    0    0  501    0 -0.00000000000E+00 -0.00000000000E+00 -0.31069643585E+03  0.31069643585E+03  0.00000000000E+00 0. -1.
          2    1    1    2  501    0 -0.20229080888E+02 -0.18655515032E+01 -0.13315072662E+03  0.13469154389E+03  0.00000000000E+00 0. -1.
          1    1    1    2  502    0  0.20229080888E+02  0.18655515032E+01 -0.17619165571E+03  0.17735894547E+03  0.00000000000E+00 0. -1.
</event>
<event>
 4    1  0.3555026E+003  0.2241366E+02  0.7546771E-02  0.1499995E+00
          2   -1    0    0  502    0  0.00000000000E+00  0.00000000000E+00  0.11940595278E+04  0.11940595278E+04  0.00000000000E+00 0.  1.
          1   -1    0    0  501    0 -0.00000000000E+00 -0.00000000000E+00 -0.11971811200E+02  0.11971811200E+02  0.00000000000E+00 0. -1.
          2    1    1    2  501    0  0.14893804065E+02 -0.16749526664E+02  0.11833688528E+04  0.11835810973E+04  0.00000000000E+00 0.  1.
          1    1    1    2  502    0 -0.14893804065E+02  0.16749526664E+02 -0.12811362144E+01  0.22450241714E+02  0.00000000000E+00 0. -1.
</event>
<event>
 4    1  0.3555026E+003  0.2112718E+02  0.7546771E-02  0.1517457E+00
          2   -1    0    0  502    0  0.00000000000E+00  0.00000000000E+00  0.78004016932E+00  0.78004016932E+00  0.00000000000E+00 0. -1.
          1   -1    0    0  501    0 -0.00000000000E+00 -0.00000000000E+00 -0.85192767548E+03  0.85192767548E+03  0.00000000000E+00 0.  1.
          2    1    1    2  501    0 -0.10475394250E+02  0.18347317321E+02 -0.18127706753E+03  0.18250406338E+03  0.00000000000E+00 0. -1.
          1    1    1    2  502    0  0.10475394250E+02 -0.18347317321E+02 -0.66987056778E+03  0.67020365227E+03  0.00000000000E+00 0.  1.
</event>
<event>
 4    1  0.3555026E+003  0.2151720E+02  0.7546771E-02  0.1512007E+00
          2   -1    0    0  502    0  0.00000000000E+00  0.00000000000E+00  0.37468488687E+02  0.37468488687E+02  0.00000000000E+00 0.  1.
          1   -1    0    0  501    0 -0.00000000000E+00 -0.00000000000E+00 -0.22375866870E+02  0.22375866870E+02  0.00000000000E+00 0.  1.
          2    1    1    2  501    0 -0.21244167836E+02 -0.34169077258E+01  0.27568764888E+02  0.34971798966E+02  0.00000000000E+00 0.  1.
          1    1    1    2  502    0  0.21244167836E+02  0.34169077258E+01 -0.12476143071E+02  0.24872556591E+02  0.00000000000E+00 0.  1.
</event>
<event>
 4    1  0.3555026E+003  0.3678775E+02  0.7546771E-02  0.1368412E+00
          2   -1    0    0  502    0  0.00000000000E+00  0.00000000000E+00  0.57332777980E+01  0.57332777980E+01  0.00000000000E+00 0. -1.
          1   -1    0    0  501    0 -0.00000000000E+00 -0.00000000000E+00 -0.25990908515E+03  0.25990908515E+03  0.00000000000E+00 0.  1.
          2    1    1    2  501    0  0.20514097579E+02  0.30537034132E+02 -0.86845306968E+02  0.94315672057E+02  0.00000000000E+00 0. -1.
          1    1    1    2  502    0 -0.20514097579E+02 -0.30537034132E+02 -0.16733050038E+03  0.17132669089E+03  0.00000000000E+00 0.  1.
</event>
<event>
 4    1  0.3555026E+003  0.3300743E+02  0.7546771E-02  0.1395140E+00
          2   -1    0    0  502    0  0.00000000000E+00  0.00000000000E+00  0.95360615222E+01  0.95360615222E+01  0.00000000000E+00 0. -1.
          1   -1    0    0  501    0 -0.00000000000E+00 -0.00000000000E+00 -0.17423817044E+03  0.17423817044E+03  0.00000000000E+00 0. -1.
          2    1    1    2  501    0  0.30885748831E+02  0.11643061481E+02 -0.28435068726E+02  0.43566541003E+02  0.00000000000E+00 0. -1.
          1    1    1    2  502    0 -0.30885748831E+02 -0.11643061481E+02 -0.13626704019E+03  0.14020769096E+03  0.00000000000E+00 0. -1.
</event>
<event>
 4    1  0.3555026E+003  0.2348611E+02  0.7546771E-02  0.1486483E+00
          2   -1    0    0  502    0  0.00000000000E+00  0.00000000000E+00  0.15472867509E+02  0.15472867509E+02  0.00000000000E+00 0.  1.
          1   -1    0    0  501    0 -0.00000000000E+00 -0.00000000000E+00 -0.65053399676E+03  0.65053399676E+03  0.00000000000E+00 0. -1.
          2    1    1    2  501    0  0.20528435138E+02 -0.11409672073E+02  0.62200075250E+01  0.24295797160E+02  0.00000000000E+00 0.  1.
          1    1    1    2  502    0 -0.20528435138E+02  0.11409672073E+02 -0.64128113678E+03  0.64171106711E+03  0.00000000000E+00 0. -1.
</event>
<event>
 4    1  0.3555026E+003  0.2943365E+02  0.7546771E-02  0.1424583E+00
          2   -1    0    0  502    0  0.00000000000E+00  0.00000000000E+00  0.13791803638E+04  0.13791803638E+04  0.00000000000E+00 0.  1.
          1   -1    0    0  501    0 -0.00000000000E+00 -0.00000000000E+00 -0.11172208054E+02  0.11172208054E+02  0.00000000000E+00 0. -1.
          2    1    1    2  501    0  0.16552881953E+02 -0.24338076794E+02  0.13593545693E+04  0.13596731905E+04  0.00000000000E+00 0.  1.
          1    1    1    2  502    0 -0.16552881953E+02  0.24338076794E+02  0.86535864681E+01  0.30679381378E+02  0.00000000000E+00 0. -1.
</event>
<event>
 4    1  0.3555026E+003  0.2923309E+02  0.7546771E-02  0.1426380E+00
          2   -1    0    0  502    0  0.00000000000E+00  0.00000000000E+00  0.44756161932E+02  0.44756161932E+02  0.00000000000E+00 0.  1.
          1   -1    0    0  501    0 -0.00000000000E+00 -0.00000000000E+00 -0.27401830444E+02  0.27401830444E+02  0.00000000000E+00 0.  1.
          2    1    1    2  501    0 -0.20831530112E+02  0.20509039248E+02  0.28543097926E+02  0.40856844921E+02  0.00000000000E+00 0.  1.
          1    1    1    2  502    0  0.20831530112E+02 -0.20509039248E+02 -0.11188766438E+02  0.31301147456E+02  0.00000000000E+00 0.  1.
</event>
<event>
 4    1  0.3555026E+003  0.2137732E+02  0.7546771E-02  0.1513945E+00
          2   -1    0    0  502    0  0.00000000000E+00  0.00000000000E+00  0.17152926688E+02  0.17152926688E+02  0.00000000000E+00 0.  1.
          1   -1    0    0  501    0 -0.00000000000E+00 -0.00000000000E+00 -0.25866557365E+03  0.25866557365E+03  0.00000000000E+00 0.  1.
          2    1    1    2  501    0  0.94029201603E+01  0.19198307131E+02  0.98577723028E+01  0.23540721718E+02  0.00000000000E+00 0.  1.
          1    1    1    2  502    0 -0.94029201603E+01 -0.19198307131E+02 -0.25137041926E+03  0.25227777862E+03  0.00000000000E+00 0.  1.
</event>
<event>
 4    1  0.3555026E+003  0.3041890E+02  0.7546771E-02  0.1415990E+00
          2   -1    0    0  502    0  0.00000000000E+00  0.00000000000E+00  0.16408988600E+03  0.16408988600E+03  0.00000000000E+00 0.  1.
          1   -1    0    0  501    0 -0.00000000000E+00 -0.00000000000E+00 -0.21080194542E+02  0.21080194542E+02  0.00000000000E+00 0.  1.
          2    1    1    2  501    0  0.19276154061E+02  0.23531660851E+02  0.15074465455E+03  0.15378315919E+03  0.00000000000E+00 0.  1.
          1    1    1    2  502    0 -0.19276154061E+02 -0.23531660851E+02 -0.77349630867E+01  0.31386921349E+02  0.00000000000E+00 0.  1.
</event>
<event>
 4    1  0.3555026E+003  0.2157020E+02  0.7546771E-02  0.1511277E+00
          2   -1    0    0  502    0  0.00000000000E+00  0.00000000000E+00  0.56403746625E+01  0.56403746625E+01  0.00000000000E+00 0. -1.
          1   -1    0    0  501    0 -0.00000000000E+00 -0.00000000000E+00 -0.16306058047E+03  0.16306058047E+03  0.00000000000E+00 0. -1.
          2    1    1    2  501    0  0.19280461834E+02 -0.96714744175E+01 -0.19417335551E+02  0.29022517910E+02  0.00000000000E+00 0. -1.
          1    1    1    2  502    0 -0.19280461834E+02  0.96714744175E+01 -0.13800287025E+03  0.13967843722E+03  0.00000000000E+00 0. -1.
</event>
<event>
 4    1  0.3555026E+003  0.2011855E+02  0.7546771E-02  0.1532231E+00
          2   -1    0    0  502    0  0.00000000000E+00  0.00000000000E+00  0.21167819759E+02  0.21167819759E+02  0.00000000000E+00 0.  1.
          1   -1    0    0  501    0 -0.00000000000E+00 -0.00000000000E+00 -0.38449741781E+02  0.38449741781E+02  0.00000000000E+00 0.  1.
          2    1    1    2  501    0  0.13294574173E+02 -0.15100010068E+02  0.12493736708E+02  0.23682260522E+02  0.00000000000E+00 0.  1.
          1    1    1    2  502    0 -0.13294574173E+02  0.15100010068E+02 -0.29775658729E+02  0.35935301018E+02  0.00000000000E+00 0.  1.
</event>
<event>
 4    1  0.3555026E+003  0.2067749E+02  0.7546771E-02  0.1523920E+00
          2   -1    0    0  502    0  0.00000000000E+00  0.00000000000E+00  0.79920748864E+03  0.79920748864E+03  0.00000000000E+00 0.  1.
          1   -1    0    0  501    0 -0.00000000000E+00 -0.00000000000E+00 -0.78178925038E+01  0.78178925038E+01  0.00000000000E+00 0. -1.
          2    1    1    2  501    0  0.11089857046E+02 -0.17452037475E+02  0.78515667463E+03  0.78542890338E+03  0.00000000000E+00 0.  1.
          1    1    1    2  502    0 -0.11089857046E+02  0.17452037475E+02  0.62329215006E+01  0.21596477763E+02  0.00000000000E+00 0. -1.
</event>
<event>
 4    1  0.3555026E+003  0.2306852E+02  0.7546771E-02  0.1491640E+00
          2   -1    0    0  502    0  0.00000000000E+00  0.00000000000E+00  0.10945238674E+04  0.10945238674E+04  0.00000000000E+00 0. -1.
          1   -1    0    0  501    0 -0.00000000000E+00 -0.00000000000E+00 -0.84902677032E+00  0.84902677032E+00  0.00000000000E+00 0. -1.
          2    1    1    2  501    0  0.22262845792E+02 -0.60433244610E+01  0.18880550148E+03  0.19020955145E+03  0.00000000000E+00 0. -1.
          1    1    1    2  502    0 -0.22262845792E+02  0.60433244610E+01  0.90486933915E+03  0.90516334272E+03  0.00000000000E+00 0. -1.
</event>
<event>
 4    1  0.3555026E+003  0.4126471E+02  0.7546771E-02  0.1341230E+00
          2   -1    0    0  502    0  0.00000000000E+00  0.00000000000E+00  0.44398253831E+03  0.44398253831E+03  0.00000000000E+00 0.  1.
          1   -1    0    0  501    0 -0.00000000000E+00 -0.00000000000E+00 -0.61338020430E+02  0.61338020430E+02  0.00000000000E+00 0.  1.
          2    1    1    2  501    0 -0.31427741283E+02 -0.26740858047E+02  0.43595610513E+03  0.43790467228E+03  0.00000000000E+00 0.  1.
          1    1    1    2  502    0  0.31427741283E+02  0.26740858047E+02 -0.53311587249E+02  0.67415886453E+02  0.00000000000E+00 0.  1.
</event>
<event>
 4    1  0.3555026E+003  0.3349512E+02  0.7546771E-02  0.1391463E+00
          2   -1    0    0  502    0  0.00000000000E+00  0.00000000000E+00  0.79896440531E+03  0.79896440531E+03  0.00000000000E+00 0. -1.
          1   -1    0    0  501    0 -0.00000000000E+00 -0.00000000000E+00 -0.14491661569E+01  0.14491661569E+01  0.00000000000E+00 0. -1.
          2    1    1    2  501    0  0.33455050950E+02 -0.16374373617E+01  0.32827652857E+03  0.32998090982E+03  0.00000000000E+00 0. -1.
          1    1    1    2  502    0 -0.33455050950E+02  0.16374373617E+01  0.46923871058E+03  0.47043266165E+03  0.00000000000E+00 0. -1.
</event>
<event>
 4    1  0.3555026E+003  0.2287665E+02  0.7546771E-02  0.1494053E+00
          2   -1    0    0  502    0  0.00000000000E+00  0.00000000000E+00  0.75320205584E+01  0.75320205584E+01  0.00000000000E+00 0.  1.
          1   -1    0    0  501    0 -0.00000000000E+00 -0.00000000000E+00 -0.58578102068E+03  0.58578102068E+03  0.00000000000E+00 0. -1.
          2    1    1    2  501    0 -0.20331477835E+02 -0.10486761523E+02 -0.10617042802E+02  0.25220284615E+02  0.00000000000E+00 0.  1.
          1    1    1    2  502    0  0.20331477835E+02  0.10486761523E+02 -0.56763195732E+03  0.56809275663E+03  0.00000000000E+00 0. -1.
</event>
<event>
 4    1  0.3555026E+003  0.2020657E+02  0.7546771E-02  0.1530901E+00
          2   -1    0    0  502    0  0.00000000000E+00  0.00000000000E+00  0.38597042667E+03  0.38597042667E+03  0.00000000000E+00 0.  1.
          1   -1    0    0  501    0 -0.00000000000E+00 -0.00000000000E+00 -0.59744969429E+02  0.59744969429E+02  0.00000000000E+00 0. -1.
          2    1    1    2  501    0  0.16327867027E+02 -0.11904050915E+02  0.38398861208E+03  0.38451990830E+03  0.00000000000E+00 0.  1.
          1    1    1    2  502    0 -0.16327867027E+02  0.11904050915E+02 -0.57763154841E+02  0.61195487800E+02  0.00000000000E+00 0. -1.
</event>
<event>
 4    1  0.3555026E+003  0.2223176E+02  0.7546771E-02  0.1502377E+00
          2   -1    0    0  502    0  0.00000000000E+00  0.00000000000E+00  0.44273378546E+02  0.44273378546E+02  0.00000000000E+00 0.  1.
          1   -1    0    0  501    0 -0.00000000000E+00 -0.00000000000E+00 -0.14051805956E+02  0.14051805956E+02  0.00000000000E+00 0.  1.
          2    1    1    2  501    0  0.22230505923E+02  0.23597177674E+00  0.28332044775E+02  0.36013273073E+02  0.00000000000E+00 0.  1.
          1    1    1    2  502    0 -0.22230505923E+02 -0.23597177674E+00  0.18895278140E+01  0.22311911429E+02  0.00000000000E+00 0.  1.
</event>
<event>
 4    1  0.3555026E+003  0.2257184E+02  0.7546771E-02  0.1497946E+00
          2   -1    0    0  502    0  0.00000000000E+00  0.00000000000E+00  0.10193893180E+03  0.10193893180E+03  0.00000000000E+00 0.  1.
          1   -1    0    0  501    0 -0.00000000000E+00 -0.00000000000E+00 -0.12861493542E+02  0.12861493542E+02  0.00000000000E+00 0.  1.
          2    1    1    2  501    0  0.10306061307E+02  0.20081659052E+02  0.89421146733E+02  0.92225969298E+02  0.00000000000E+00 0.  1.
          1    1    1    2  502    0 -0.10306061307E+02 -0.20081659052E+02 -0.34370848008E+00  0.22574456039E+02  0.00000000000E+00 0.  1.
</event>
<event>
 4    1  0.3555026E+003  0.2070766E+02  0.7546771E-02  0.1523480E+00
          2   -1    0    0  502    0  0.00000000000E+00  0.00000000000E+00  0.42175541860E+02  0.42175541860E+02  0.00000000000E+00 0.  1.
          1   -1    0    0  501    0 -0.00000000000E+00 -0.00000000000E+00 -0.16320871716E+02  0.16320871716E+02  0.00000000000E+00 0. -1.
          2    1    1    2  501    0  0.20315940317E+02  0.40086969950E+01  0.30886858308E+02  0.37186087435E+02  0.00000000000E+00 0.  1.
          1    1    1    2  502    0 -0.20315940317E+02 -0.40086969950E+01 -0.50321881643E+01  0.21310326142E+02  0.00000000000E+00 0. -1.
</event>
<event>
 4    1  0.3555026E+003  0.2361955E+02  0.7546771E-02  0.1484862E+00
          2   -1    0    0  502    0  0.00000000000E+00  0.00000000000E+00  0.23437974695E+02  0.23437974695E+02  0.00000000000E+00 0.  1.
          1   -1    0    0  501    0 -0.00000000000E+00 -0.00000000000E+00 -0.39422908742E+02  0.39422908742E+02  0.00000000000E+00 0.  1.
          2    1    1    2  501    0 -0.87425902047E+01  0.21941973857E+02  0.11791889496E+02  0.26399465110E+02  0.00000000000E+00 0.  1.
          1    1    1    2  502    0  0.87425902047E+01 -0.21941973857E+02 -0.27776823544E+02  0.36461418327E+02  0.00000000000E+00 0.  1.
</event>
<event>
 4    1  0.3555026E+003  0.3153271E+02  0.7546771E-02  0.1406729E+00
          2   -1    0    0  502    0  0.00000000000E+00  0.00000000000E+00  0.10270735684E+02  0.10270735684E+02  0.00000000000E+00 0.  1.
          1   -1    0    0  501    0 -0.00000000000E+00 -0.00000000000E+00 -0.25558450868E+03  0.25558450868E+03  0.00000000000E+00 0. -1.
          2    1    1    2  501    0  0.63996155877E+01  0.30876477030E+02 -0.17886608544E+02  0.36252485138E+02  0.00000000000E+00 0.  1.
          1    1    1    2  502    0 -0.63996155877E+01 -0.30876477030E+02 -0.22742716445E+03  0.22960275922E+03  0.00000000000E+00 0. -1.
</event>
<event>
 4    1  0.3555026E+003  0.2190883E+02  0.7546771E-02  0.1506674E+00
          2   -1    0    0  502    0  0.00000000000E+00  0.00000000000E+00  0.52241845523E+03  0.52241845523E+03  0.00000000000E+00 0. -1.
          1   -1    0    0  501    0 -0.00000000000E+00 -0.00000000000E+00 -0.23523013303E+02  0.23523013303E+02  0.00000000000E+00 0. -1.
          2    1    1    2  501    0  0.17481460960E+02  0.13205879453E+02  0.51703430414E+03  0.51749827863E+03  0.00000000000E+00 0. -1.
          1    1    1    2  502    0 -0.17481460960E+02 -0.13205879453E+02 -0.18138862213E+02  0.28443189902E+02  0.00000000000E+00 0. -1.
</event>
<event>
 4    1  0.3555026E+003  0.2588386E+02  0.7546771E-02  0.1459154E+00
          2   -1    0    0  502    0  0.00000000000E+00  0.00000000000E+00  0.16160367599E+04  0.16160367599E+04  0.00000000000E+00 0. -1.
          1   -1    0    0  501    0 -0.00000000000E+00 -0.00000000000E+00 -0.34032757128E+02  0.34032757128E+02  0.00000000000E+00 0. -1.
          2    1    1    2  501    0  0.93808811662E+01 -0.24124124819E+02  0.16109961772E+04  0.16112041017E+04  0.00000000000E+00 0. -1.
          1    1    1    2  502    0 -0.93808811662E+01  0.24124124819E+02 -0.28992174443E+02  0.38865415329E+02  0.00000000000E+00 0. -1.
</event>
<event>
 4    1  0.3555026E+003  0.2345643E+02  0.7546771E-02  0.1486845E+00
          2   -1    0    0  502    0  0.00000000000E+00  0.00000000000E+00  0.91339981046E+02  0.91339981046E+02  0.00000000000E+00 0. -1.
          1   -1    0    0  501    0 -0.00000000000E+00 -0.00000000000E+00 -0.10475829517E+04  0.10475829517E+04  0.00000000000E+00 0.  1.
          2    1    1    2  501    0  0.16807360016E+02  0.16362055991E+02  0.89700393586E+02  0.92716583395E+02  0.00000000000E+00 0. -1.
          1    1    1    2  502    0 -0.16807360016E+02 -0.16362055991E+02 -0.10459433643E+04  0.10462063494E+04  0.00000000000E+00 0.  1.
</event>
<event>
 4    1  0.3555026E+003  0.2245762E+02  0.7546771E-02  0.1499424E+00
          2   -1    0    0  502    0  0.00000000000E+00  0.00000000000E+00  0.30383787179E+02  0.30383787179E+02  0.00000000000E+00 0. -1.
          1   -1    0    0  501    0 -0.00000000000E+00 -0.00000000000E+00 -0.22725266910E+02  0.22725266910E+02  0.00000000000E+00 0. -1.
          2    1    1    2  501    0  0.83744975412E+01 -0.20837762261E+02  0.17616498784E+02  0.28542697394E+02  0.00000000000E+00 0. -1.
          1    1    1    2  502    0 -0.83744975412E+01  0.20837762261E+02 -0.99579785157E+01  0.24566356695E+02  0.00000000000E+00 0. -1.
</event>
<event>
 4    1  0.3555026E+003  0.9833940E+02  0.7546771E-02  0.1166717E+00
          2   -1    0    0  502    0  0.00000000000E+00  0.00000000000E+00  0.25605676661E+03  0.25605676661E+03  0.00000000000E+00 0. -1.
          1   -1    0    0  501    0 -0.00000000000E+00 -0.00000000000E+00 -0.15442280395E+04  0.15442280395E+04  0.00000000000E+00 0. -1.
          2    1    1    2  501    0 -0.58485409910E+02 -0.79057539292E+02  0.24498112873E+03  0.26398180075E+03  0.00000000000E+00 0. -1.
          1    1    1    2  502    0  0.58485409910E+02  0.79057539292E+02 -0.15331524016E+04  0.15363030054E+04  0.00000000000E+00 0. -1.
</event>
<event>
 4    1  0.3555026E+003  0.2741763E+02  0.7546771E-02  0.1443457E+00
          2   -1    0    0  502    0  0.00000000000E+00  0.00000000000E+00  0.13960948105E+04  0.13960948105E+04  0.00000000000E+00 0.  1.
          1   -1    0    0  501    0 -0.00000000000E+00 -0.00000000000E+00 -0.22170567520E+01  0.22170567520E+01  0.00000000000E+00 0. -1.
          2    1    1    2  501    0  0.95367082598E+01 -0.25705592331E+02  0.13052982662E+04  0.13055861863E+04  0.00000000000E+00 0.  1.
          1    1    1    2  502    0 -0.95367082598E+01  0.25705592331E+02  0.88579487521E+02  0.92725680860E+02  0.00000000000E+00 0. -1.
</event>
<event>
 4    1  0.3555026E+003  0.2284559E+02  0.7546771E-02  0.1494446E+00
          2   -1    0    0  502    0  0.00000000000E+00  0.00000000000E+00  0.12888948280E+03  0.12888948280E+03  0.00000000000E+00 0. -1.
          1   -1    0    0  501    0 -0.00000000000E+00 -0.00000000000E+00 -0.81833340341E+01  0.81833340341E+01  0.00000000000E+00 0. -1.
          2    1    1    2  501    0  0.22745326114E+02  0.21379668720E+01  0.10906549710E+03  0.11143250612E+03  0.00000000000E+00 0. -1.
          1    1    1    2  502    0 -0.22745326114E+02 -0.21379668720E+01  0.11640651666E+02  0.25640310715E+02  0.00000000000E+00 0. -1.
</event>
<event>
 4    1  0.3555026E+003  0.2049592E+02  0.7546771E-02  0.1526585E+00
          2   -1    0    0  502    0  0.00000000000E+00  0.00000000000E+00  0.40678724028E+02  0.40678724028E+02  0.00000000000E+00 0. -1.
          1   -1    0    0  501    0 -0.00000000000E+00 -0.00000000000E+00 -0.24642155556E+02  0.24642155556E+02  0.00000000000E+00 0. -1.
          2    1    1    2  501    0 -0.34616128201E+01  0.20201479985E+02  0.32911625206E+02  0.38771866483E+02  0.00000000000E+00 0. -1.
          1    1    1    2  502    0  0.34616128201E+01 -0.20201479985E+02 -0.16875056734E+02  0.26549013101E+02  0.00000000000E+00 0. -1.
</event>
<event>
 4    1  0.3555026E+003  0.2238124E+02  0.7546771E-02  0.1500418E+00
          2   -1    0    0  502    0  0.00000000000E+00  0.00000000000E+00  0.24171988922E+03  0.24171988922E+03  0.00000000000E+00 0.  1.
          1   -1    0    0  501    0 -0.00000000000E+00 -0.00000000000E+00 -0.28362678317E+01  0.28362678317E+01  0.00000000000E+00 0. -1.
          2    1    1    2  501    0  0.10840281672E+02  0.19580812728E+02  0.18290297634E+03  0.18426724801E+03  0.00000000000E+00 0.  1.
          1    1    1    2  502    0 -0.10840281672E+02 -0.19580812728E+02  0.55980645044E+02  0.60288909041E+02  0.00000000000E+00 0. -1.
</event>
<event>
 4    1  0.3555026E+003  0.2316582E+02  0.7546771E-02  0.1490426E+00
          2   -1    0    0  502    0  0.00000000000E+00  0.00000000000E+00  0.14204374406E+02  0.14204374406E+02  0.00000000000E+00 0.  1.
          1   -1    0    0  501    0 -0.00000000000E+00 -0.00000000000E+00 -0.63457645147E+03  0.63457645147E+03  0.00000000000E+00 0.  1.
          2    1    1    2  501    0  0.22576572674E+02 -0.51916629846E+01  0.43995323653E+01  0.23579883021E+02  0.00000000000E+00 0.  1.
          1    1    1    2  502    0 -0.22576572674E+02  0.51916629846E+01 -0.62477160943E+03  0.62520094286E+03  0.00000000000E+00 0.  1.
</event>
<event>
 4    1  0.3555026E+003  0.6349899E+02  0.7546771E-02  0.1248386E+00
          2   -1    0    0  502    0  0.00000000000E+00  0.00000000000E+00  0.36423659476E+03  0.36423659476E+03  0.00000000000E+00 0.  1.
          1   -1    0    0  501    0 -0.00000000000E+00 -0.00000000000E+00 -0.90563778473E+02  0.90563778473E+02  0.00000000000E+00 0.  1.
          2    1    1    2  501    0  0.52375115152E+02  0.35902215474E+02  0.34988562890E+03  0.35560100545E+03  0.00000000000E+00 0.  1.
          1    1    1    2  502    0 -0.52375115152E+02 -0.35902215474E+02 -0.76212812613E+02  0.99199367788E+02  0.00000000000E+00 0.  1.
</event>
<event>
 4    1  0.3555026E+003  0.6714341E+02  0.7546771E-02  0.1237320E+00
          2   -1    0    0  502    0  0.00000000000E+00  0.00000000000E+00  0.26061834350E+03  0.26061834350E+03  0.00000000000E+00 0. -1.
          1   -1    0    0  501    0 -0.00000000000E+00 -0.00000000000E+00 -0.21312691610E+03  0.21312691610E+03  0.00000000000E+00 0. -1.
          2    1    1    2  501    0 -0.38577584328E+02 -0.54954596939E+02  0.25080218235E+03  0.25963430514E+03  0.00000000000E+00 0. -1.
          1    1    1    2  502    0  0.38577584328E+02  0.54954596939E+02 -0.20331075495E+03  0.21411095445E+03  0.00000000000E+00 0. -1.
</event>
<event>
 4    1  0.3555026E+003  0.2108075E+02  0.7546771E-02  0.1518115E+00
          2   -1    0    0  502    0  0.00000000000E+00  0.00000000000E+00  0.10426241607E+03  0.10426241607E+03  0.00000000000E+00 0.  1.
          1   -1    0    0  501    0 -0.00000000000E+00 -0.00000000000E+00 -0.32685729940E+02  0.32685729940E+02  0.00000000000E+00 0.  1.
          2    1    1    2  501    0  0.94038518384E+00  0.21059761385E+02  0.99641929722E+02  0.10184749399E+03  0.00000000000E+00 0.  1.
          1    1    1    2  502    0 -0.94038518384E+00 -0.21059761385E+02 -0.28065243594E+02  0.35100652015E+02  0.00000000000E+00 0.  1.
</event>
<event>
 4    1  0.3555026E+003  0.2191920E+02  0.7546771E-02  0.1506535E+00
          2   -1    0    0  502    0  0.00000000000E+00  0.00000000000E+00  0.57214165485E+03  0.57214165485E+03  0.00000000000E+00 0.  1.
          1   -1    0    0  501    0 -0.00000000000E+00 -0.00000000000E+00 -0.31377533226E+01  0.31377533226E+01  0.00000000000E+00 0. -1.
          2    1    1    2  501    0  0.24605302341E+01 -0.21780662371E+02  0.53066082797E+03  0.53111332670E+03  0.00000000000E+00 0.  1.
          1    1    1    2  502    0 -0.24605302341E+01  0.21780662371E+02  0.38343073559E+02  0.44166081469E+02  0.00000000000E+00 0. -1.
</event>
<event>
 4    1  0.3555026E+003  0.2218343E+02  0.7546771E-02  0.1503014E+00
          2   -1    0    0  502    0  0.00000000000E+00  0.00000000000E+00  0.56781647429E+01  0.56781647429E+01  0.00000000000E+00 0. -1.
          1   -1    0    0  501    0 -0.00000000000E+00 -0.00000000000E+00 -0.43818582495E+03  0.43818582495E+03  0.00000000000E+00 0.  1.
          2    1    1    2  501    0 -0.73772480143E+01 -0.20920824540E+02 -0.17477086070E+02  0.28240984848E+02  0.00000000000E+00 0. -1.
          1    1    1    2  502    0  0.73772480143E+01  0.20920824540E+02 -0.41503057414E+03  0.41562300485E+03  0.00000000000E+00 0.  1.
</event>
<event>
 4    1  0.3555026E+003  0.2971843E+02  0.7546771E-02  0.1422059E+00
          2   -1    0    0  502    0  0.00000000000E+00  0.00000000000E+00  0.63131947234E+03  0.63131947234E+03  0.00000000000E+00 0.  1.
          1   -1    0    0  501    0 -0.00000000000E+00 -0.00000000000E+00 -0.21400428324E+03  0.21400428324E+03  0.00000000000E+00 0. -1.
          2    1    1    2  501    0 -0.11445807172E+02 -0.27425873238E+02  0.62993573193E+03  0.63063635432E+03  0.00000000000E+00 0.  1.
          1    1    1    2  502    0  0.11445807172E+02  0.27425873238E+02 -0.21262054283E+03  0.21468740126E+03  0.00000000000E+00 0. -1.
</event>
<event>
 4    1  0.3555026E+003  0.2229182E+02  0.7546771E-02  0.1501587E+00
          2   -1    0    0  502    0  0.00000000000E+00  0.00000000000E+00  0.47253368350E+03  0.47253368350E+03  0.00000000000E+00 0. -1.
          1   -1    0    0  501    0 -0.00000000000E+00 -0.00000000000E+00 -0.11107347105E+02  0.11107347105E+02  0.00000000000E+00 0.  1.
          2    1    1    2  501    0 -0.50945405374E+01 -0.21701866876E+02  0.46080157281E+03  0.46134045441E+03  0.00000000000E+00 0. -1.
          1    1    1    2  502    0  0.50945405374E+01  0.21701866876E+02  0.62476358616E+00  0.22300576198E+02  0.00000000000E+00 0.  1.
</event>
<event>
 4    1  0.3555026E+003  0.6513223E+02  0.7546771E-02  0.1243326E+00
          2   -1    0    0  502    0  0.00000000000E+00  0.00000000000E+00  0.21437728808E+04  0.21437728808E+04  0.00000000000E+00 0.  1.
          1   -1    0    0  501    0 -0.00000000000E+00 -0.00000000000E+00 -0.98746217476E+01  0.98746217476E+01  0.00000000000E+00 0.  1.
          2    1    1    2  501    0  0.49918612410E+02  0.41837059092E+02  0.20298501643E+04  0.20308948512E+04  0.00000000000E+00 0.  1.
          1    1    1    2  502    0 -0.49918612410E+02 -0.41837059092E+02  0.10404809482E+03  0.12275265135E+03  0.00000000000E+00 0.  1.
</event>
<event>
 4    1  0.3555026E+003  0.2895981E+02  0.7546771E-02  0.1428856E+00
          2   -1    0    0  502    0  0.00000000000E+00  0.00000000000E+00  0.28118239780E+02  0.28118239780E+02  0.00000000000E+00 0.  1.
          1   -1    0    0  501    0 -0.00000000000E+00 -0.00000000000E+00 -0.17815588182E+03  0.17815588182E+03  0.00000000000E+00 0. -1.
          2    1    1    2  501    0 -0.27454855956E+02 -0.92142143201E+01  0.19089526572E+02  0.34685456403E+02  0.00000000000E+00 0.  1.
          1    1    1    2  502    0  0.27454855956E+02  0.92142143201E+01 -0.16912716861E+03  0.17158866520E+03  0.00000000000E+00 0. -1.
</event>
<event>
 4    1  0.3555026E+003  0.2527340E+02  0.7546771E-02  0.1465768E+00
          2   -1    0    0  502    0  0.00000000000E+00  0.00000000000E+00  0.11240175430E+04  0.11240175430E+04  0.00000000000E+00 0.  1.
          1   -1    0    0  501    0 -0.00000000000E+00 -0.00000000000E+00 -0.60823961991E+00  0.60823961991E+00  0.00000000000E+00 0. -1.
          2    1    1    2  501    0  0.68430265093E+01  0.24329347247E+02  0.41755553712E+03  0.41831969919E+03  0.00000000000E+00 0.  1.
          1    1    1    2  502    0 -0.68430265093E+01 -0.24329347247E+02  0.70585376630E+03  0.70630608347E+03  0.00000000000E+00 0. -1.
</event>
<event>
 4    1  0.3555026E+003  0.2023975E+02  0.7546771E-02  0.1530402E+00
          2   -1    0    0  502    0  0.00000000000E+00  0.00000000000E+00  0.26941894763E+02  0.26941894763E+02  0.00000000000E+00 0. -1.
          1   -1    0    0  501    0 -0.00000000000E+00 -0.00000000000E+00 -0.13936265400E+04  0.13936265400E+04  0.00000000000E+00 0.  1.
          2    1    1    2  501    0  0.20117234372E+02 -0.22236003252E+01  0.23056569369E+02  0.30679845310E+02  0.00000000000E+00 0. -1.
          1    1    1    2  502    0 -0.20117234372E+02  0.22236003252E+01 -0.13897412146E+04  0.13898885894E+04  0.00000000000E+00 0.  1.
</event>
<event>
 4    1  0.3555026E+003  0.2162609E+02  0.7546771E-02  0.1510511E+00
          2   -1    0    0  502    0  0.00000000000E+00  0.00000000000E+00  0.26664939118E+01  0.26664939118E+01  0.00000000000E+00 0. -1.
          1   -1    0    0  501    0 -0.00000000000E+00 -0.00000000000E+00 -0.44283440866E+03  0.44283440866E+03  0.00000000000E+00 0. -1.
          2    1    1    2  501    0  0.16242018132E+02 -0.14278823490E+02 -0.46978345781E+02  0.51717046760E+02  0.00000000000E+00 0. -1.
          1    1    1    2  502    0 -0.16242018132E+02  0.14278823490E+02 -0.39318956896E+03  0.39378385581E+03  0.00000000000E+00 0. -1.
</event>
<event>
 4    1  0.3555026E+003  0.2155200E+02  0.7546771E-02  0.1511528E+00
          2   -1    0    0  502    0  0.00000000000E+00  0.00000000000E+00  0.13136195889E+03  0.13136195889E+03  0.00000000000E+00 0.  1.
          1   -1    0    0  501    0 -0.00000000000E+00 -0.00000000000E+00 -0.10698511175E+03  0.10698511175E+03  0.00000000000E+00 0.  1.
          2    1    1    2  501    0 -0.19923025612E+02 -0.82195874544E+01  0.12937602105E+03  0.13115884793E+03  0.00000000000E+00 0.  1.
          1    1    1    2  502    0  0.19923025612E+02  0.82195874544E+01 -0.10499917391E+03  0.10718822272E+03  0.00000000000E+00 0.  1.
</event>
<event>
 4    1  0.3555026E+003  0.2357956E+02  0.7546771E-02  0.1485346E+00
          2   -1    0    0  502    0  0.00000000000E+00  0.00000000000E+00  0.11698455903E+02  0.11698455903E+02  0.00000000000E+00 0. -1.
          1   -1    0    0  501    0 -0.00000000000E+00 -0.00000000000E+00 -0.63529903949E+03  0.63529903949E+03  0.00000000000E+00 0.  1.
          2    1    1    2  501    0  0.23513686157E+02 -0.17613244817E+01 -0.63735257690E+00  0.23588173285E+02  0.00000000000E+00 0. -1.
          1    1    1    2  502    0 -0.23513686157E+02  0.17613244817E+01 -0.62296323101E+03  0.62340932211E+03  0.00000000000E+00 0.  1.
</event>
<event>
 4    1  0.3555026E+003  0.2201237E+02  0.7546771E-02  0.1505287E+00
          2   -1    0    0  502    0  0.00000000000E+00  0.00000000000E+00  0.76477523676E+03  0.76477523676E+03  0.00000000000E+00 0. -1.
          1   -1    0    0  501    0 -0.00000000000E+00 -0.00000000000E+00 -0.77452176751E+02  0.77452176751E+02  0.00000000000E+00 0.  1.
          2    1    1    2  501    0  0.31391274765E+01 -0.21787386426E+02  0.76304929417E+03  0.76336673340E+03  0.00000000000E+00 0. -1.
          1    1    1    2  502    0 -0.31391274765E+01  0.21787386426E+02 -0.75726234157E+02  0.78860680115E+02  0.00000000000E+00 0.  1.
</event>
<event>
 4    1  0.3555026E+003  0.2838874E+02  0.7546771E-02  0.1434135E+00
          2   -1    0    0  502    0  0.00000000000E+00  0.00000000000E+00  0.18501472867E+04  0.18501472867E+04  0.00000000000E+00 0. -1.
          1   -1    0    0  501    0 -0.00000000000E+00 -0.00000000000E+00 -0.33443607711E+03  0.33443607711E+03  0.00000000000E+00 0. -1.
          2    1    1    2  501    0  0.28308429537E+02 -0.21339159265E+01  0.18494357078E+04  0.18496535778E+04  0.00000000000E+00 0. -1.
          1    1    1    2  502    0 -0.28308429537E+02  0.21339159265E+01 -0.33372449823E+03  0.33492978593E+03  0.00000000000E+00 0. -1.
</event>
<event>
 4    1  0.3555026E+003  0.3985194E+02  0.7546771E-02  0.1349356E+00
          2   -1    0    0  502    0  0.00000000000E+00  0.00000000000E+00  0.68249955828E+03  0.68249955828E+03  0.00000000000E+00 0.  1.
          1   -1    0    0  501    0 -0.00000000000E+00 -0.00000000000E+00 -0.12968946346E+03  0.12968946346E+03  0.00000000000E+00 0.  1.
          2    1    1    2  501    0  0.82239231235E+01 -0.38994159313E+02  0.67883981669E+03  0.68000858384E+03  0.00000000000E+00 0.  1.
          1    1    1    2  502    0 -0.82239231235E+01  0.38994159313E+02 -0.12602972187E+03  0.13218043791E+03  0.00000000000E+00 0.  1.
</event>
<event>
 4    1  0.3555026E+003  0.2137748E+02  0.7546771E-02  0.1513943E+00
          2   -1    0    0  502    0  0.00000000000E+00  0.00000000000E+00  0.63548307130E+03  0.63548307130E+03  0.00000000000E+00 0.  1.
          1   -1    0    0  501    0 -0.00000000000E+00 -0.00000000000E+00 -0.23360034130E+02  0.23360034130E+02  0.00000000000E+00 0. -1.
          2    1    1    2  501    0 -0.75644410643E+01 -0.19994392776E+02  0.63037285704E+03  0.63073523400E+03  0.00000000000E+00 0.  1.
          1    1    1    2  502    0  0.75644410643E+01  0.19994392776E+02 -0.18249819872E+02  0.28107871433E+02  0.00000000000E+00 0. -1.
</event>
<event>
 4    1  0.3555026E+003  0.2008361E+02  0.7546771E-02  0.1532761E+00
          2   -1    0    0  502    0  0.00000000000E+00  0.00000000000E+00  0.57852218700E+01  0.57852218700E+01  0.00000000000E+00 0. -1.
          1   -1    0    0  501    0 -0.00000000000E+00 -0.00000000000E+00 -0.70894304500E+02  0.70894304500E+02  0.00000000000E+00 0. -1.
          2    1    1    2  501    0  0.14835050300E+02 -0.13537801668E+02 -0.37487077924E+02  0.42528011977E+02  0.00000000000E+00 0. -1.
          1    1    1    2  502    0 -0.14835050300E+02  0.13537801668E+02 -0.27622004706E+02  0.34151514394E+02  0.00000000000E+00 0. -1.
</event>
<event>
 4    1  0.3555026E+003  0.3448335E+02  0.7546771E-02  0.1384232E+00
          2   -1    0    0  502    0  0.00000000000E+00  0.00000000000E+00  0.37408334084E+01  0.37408334084E+01  0.00000000000E+00 0. -1.
          1   -1    0    0  501    0 -0.00000000000E+00 -0.00000000000E+00 -0.59672451666E+03  0.59672451666E+03  0.00000000000E+00 0. -1.
          2    1    1    2  501    0 -0.16699952729E+02 -0.30169737355E+02 -0.91253128615E+02  0.97551191460E+02  0.00000000000E+00 0. -1.
          1    1    1    2  502    0  0.16699952729E+02  0.30169737355E+02 -0.50173055463E+03  0.50291415861E+03  0.00000000000E+00 0. -1.
</event>
<event>
 4    1  0.3555026E+003  0.4672270E+02  0.7546771E-02  0.1313043E+00
          2   -1    0    0  502    0  0.00000000000E+00  0.00000000000E+00  0.27161871995E+03  0.27161871995E+03  0.00000000000E+00 0. -1.
          1   -1    0    0  501    0 -0.00000000000E+00 -0.00000000000E+00 -0.14403184928E+02  0.14403184928E+02  0.00000000000E+00 0.  1.
          2    1    1    2  501    0  0.34157030117E+02 -0.31879584486E+02  0.22368538254E+03  0.22851293393E+03  0.00000000000E+00 0. -1.
          1    1    1    2  502    0 -0.34157030117E+02  0.31879584486E+02  0.33530152482E+02  0.57508970943E+02  0.00000000000E+00 0.  1.
</event>
<event>
 4    1  0.3555026E+003  0.3653090E+02  0.7546771E-02  0.1370109E+00
          2   -1    0    0  502    0  0.00000000000E+00  0.00000000000E+00  0.34646679346E+02  0.34646679346E+02  0.00000000000E+00 0. -1.
          1   -1    0    0  501    0 -0.00000000000E+00 -0.00000000000E+00 -0.50917304005E+03  0.50917304005E+03  0.00000000000E+00 0. -1.
          2    1    1    2  501    0  0.24416692152E+02  0.27172256692E+02  0.24159825756E+02  0.43797300944E+02  0.00000000000E+00 0. -1.
          1    1    1    2  502    0 -0.24416692152E+02 -0.27172256692E+02 -0.49868618646E+03  0.50002241845E+03  0.00000000000E+00 0. -1.
</event>
<event>
 4    1  0.3555026E+003  0.2010819E+02  0.7546771E-02  0.1532388E+00
          2   -1    0    0  502    0  0.00000000000E+00  0.00000000000E+00  0.30249728315E+03  0.30249728315E+03  0.00000000000E+00 0. -1.
          1   -1    0    0  501    0 -0.00000000000E+00 -0.00000000000E+00 -0.23854082817E+02  0.23854082817E+02  0.00000000000E+00 0.  1.
          2    1    1    2  501    0 -0.35121584297E+01  0.19799089988E+02  0.29785957897E+03  0.29853754874E+03  0.00000000000E+00 0. -1.
          1    1    1    2  502    0  0.35121584297E+01 -0.19799089988E+02 -0.19216378636E+02  0.27813817232E+02  0.00000000000E+00 0.  1.
</event>
<event>
 4    1  0.3555026E+003  0.2480645E+02  0.7546771E-02  0.1470980E+00
          2   -1    0    0  502    0  0.00000000000E+00  0.00000000000E+00  0.59462488405E+01  0.59462488405E+01  0.00000000000E+00 0. -1.
          1   -1    0    0  501    0 -0.00000000000E+00 -0.00000000000E+00 -0.10135179930E+04  0.10135179930E+04  0.00000000000E+00 0. -1.
          2    1    1    2  501    0  0.23929502176E+01  0.24690764714E+02 -0.20777857682E+02  0.32358606935E+02  0.00000000000E+00 0. -1.
          1    1    1    2  502    0 -0.23929502176E+01 -0.24690764714E+02 -0.98679388648E+03  0.98710563490E+03  0.00000000000E+00 0. -1.
</event>
<event>
 4    1  0.5145192E+003  0.3224242E+02  0.7546771E-02  0.1401061E+00
          2   -1    0    0  502    0  0.00000000000E+00  0.00000000000E+00  0.13298805548E+04  0.13298805548E+04  0.00000000000E+00 0.  1.
          1   -1    0    0  501    0 -0.00000000000E+00 -0.00000000000E+00 -0.74251136606E+03  0.74251136606E+03  0.00000000000E+00 0. -1.
          2    1    1    2  501    0  0.96221549594E+01 -0.30773164099E+02  0.13293349657E+04  0.13297259208E+04  0.00000000000E+00 0.  1.
          1    1    1    2  502    0 -0.96221549594E+01  0.30773164099E+02 -0.74196577694E+03  0.74266600006E+03  0.00000000000E+00 0. -1.
</event>
<event>
 4    1  0.3555026E+003  0.2299255E+02  0.7546771E-02  0.1492592E+00
          2   -1    0    0  502    0  0.00000000000E+00  0.00000000000E+00  0.11855140994E+03  0.11855140994E+03  0.00000000000E+00 0.  1.
          1   -1    0    0  501    0 -0.00000000000E+00 -0.00000000000E+00 -0.11625953207E+02  0.11625953207E+02  0.00000000000E+00 0. -1.
          2    1    1    2  501    0 -0.20259128357E+02 -0.10873126399E+02  0.10456605418E+03  0.10706407822E+03  0.00000000000E+00 0.  1.
          1    1    1    2  502    0  0.20259128357E+02  0.10873126399E+02  0.23594025522E+01  0.23113284922E+02  0.00000000000E+00 0. -1.
</event>
<event>
 4    1  0.3555026E+003  0.2106358E+02  0.7546771E-02  0.1518359E+00
          2   -1    0    0  502    0  0.00000000000E+00  0.00000000000E+00  0.66972975482E+03  0.66972975482E+03  0.00000000000E+00 0. -1.
          1   -1    0    0  501    0 -0.00000000000E+00 -0.00000000000E+00 -0.13503619332E+01  0.13503619332E+01  0.00000000000E+00 0. -1.
          2    1    1    2  501    0  0.20966835715E+02  0.20165229018E+01  0.57367562811E+03  0.57406219249E+03  0.00000000000E+00 0. -1.
          1    1    1    2  502    0 -0.20966835715E+02 -0.20165229018E+01  0.94703764779E+02  0.97017924261E+02  0.00000000000E+00 0. -1.
</event>
<event>
 4    1  0.3555026E+003  0.2343640E+02  0.7546771E-02  0.1487090E+00
          2   -1    0    0  502    0  0.00000000000E+00  0.00000000000E+00  0.94055690615E+03  0.94055690615E+03  0.00000000000E+00 0.  1.
          1   -1    0    0  501    0 -0.00000000000E+00 -0.00000000000E+00 -0.20456630299E+01  0.20456630299E+01  0.00000000000E+00 0.  1.
          2    1    1    2  501    0  0.21306079144E+02  0.97629739870E+01  0.86764564525E+03  0.86796211345E+03  0.00000000000E+00 0.  1.
          1    1    1    2  502    0 -0.21306079144E+02 -0.97629739870E+01  0.70865597872E+02  0.74640455728E+02  0.00000000000E+00 0.  1.
</event>
<event>
 4    1  0.3555026E+003  0.3161553E+02  0.7546771E-02  0.1406058E+00
          2   -1    0    0  502    0  0.00000000000E+00  0.00000000000E+00  0.11467338591E+04  0.11467338591E+04  0.00000000000E+00 0. -1.
          1   -1    0    0  501    0 -0.00000000000E+00 -0.00000000000E+00 -0.70321194685E+01  0.70321194685E+01  0.00000000000E+00 0.  1.
          2    1    1    2  501    0  0.20251884242E+02 -0.24277619367E+02  0.11097986905E+04  0.11102489249E+04  0.00000000000E+00 0. -1.
          1    1    1    2  502    0 -0.20251884242E+02  0.24277619367E+02  0.29903049037E+02  0.43517053659E+02  0.00000000000E+00 0.  1.
</event>
<event>
 4    1  0.3555026E+003  0.3526080E+02  0.7546771E-02  0.1378739E+00
          2   -1    0    0  502    0  0.00000000000E+00  0.00000000000E+00  0.97997950573E+03  0.97997950573E+03  0.00000000000E+00 0. -1.
          1   -1    0    0  501    0 -0.00000000000E+00 -0.00000000000E+00 -0.86828693498E+02  0.86828693498E+02  0.00000000000E+00 0. -1.
          2    1    1    2  501    0  0.33936379494E+02 -0.95732132419E+01  0.97606816433E+03  0.97670486109E+03  0.00000000000E+00 0. -1.
          1    1    1    2  502    0 -0.33936379494E+02  0.95732132419E+01 -0.82917352096E+02  0.90103338137E+02  0.00000000000E+00 0. -1.
</event>
<event>
 4    1  0.3555026E+003  0.5800431E+02  0.7546771E-02  0.1266768E+00
          2   -1    0    0  502    0  0.00000000000E+00  0.00000000000E+00  0.34162703801E+03  0.34162703801E+03  0.00000000000E+00 0.  1.
          1   -1    0    0  501    0 -0.00000000000E+00 -0.00000000000E+00 -0.46770902561E+02  0.46770902561E+02  0.00000000000E+00 0.  1.
          2    1    1    2  501    0 -0.32518915238E+02  0.48031451565E+02  0.31997381499E+03  0.32518877974E+03  0.00000000000E+00 0.  1.
          1    1    1    2  502    0  0.32518915238E+02 -0.48031451565E+02 -0.25117679541E+02  0.63209160833E+02  0.00000000000E+00 0.  1.
</event>
<event>
 4    1  0.3555026E+003  0.2395987E+02  0.7546771E-02  0.1480784E+00
          2   -1    0    0  502    0  0.00000000000E+00  0.00000000000E+00  0.65510505642E+03  0.65510505642E+03  0.00000000000E+00 0. -1.
          1   -1    0    0  501    0 -0.00000000000E+00 -0.00000000000E+00 -0.57036285214E+02  0.57036285214E+02  0.00000000000E+00 0. -1.
          2    1    1    2  501    0  0.19946670067E+02  0.13274255969E+02  0.65235911746E+03  0.65279896879E+03  0.00000000000E+00 0. -1.
          1    1    1    2  502    0 -0.19946670067E+02 -0.13274255969E+02 -0.54290346255E+02  0.59342372844E+02  0.00000000000E+00 0. -1.
</event>
<event>
 4    1  0.3555026E+003  0.2224641E+02  0.7546771E-02  0.1502184E+00
          2   -1    0    0  502    0  0.00000000000E+00  0.00000000000E+00  0.92509288344E+03  0.92509288344E+03  0.00000000000E+00 0. -1.
          1   -1    0    0  501    0 -0.00000000000E+00 -0.00000000000E+00 -0.11366975549E+01  0.11366975549E+01  0.00000000000E+00 0.  1.
          2    1    1    2  501    0 -0.12754838495E+00 -0.22246044670E+02  0.79892685340E+03  0.79923652310E+03  0.00000000000E+00 0. -1.
          1    1    1    2  502    0  0.12754838495E+00  0.22246044670E+02  0.12502933249E+03  0.12699305790E+03  0.00000000000E+00 0.  1.
</event>
<event>
 4    1  0.3555026E+003  0.2960103E+02  0.7546771E-02  0.1423096E+00
          2   -1    0    0  502    0  0.00000000000E+00  0.00000000000E+00  0.46722842880E+03  0.46722842880E+03  0.00000000000E+00 0.  1.
          1   -1    0    0  501    0 -0.00000000000E+00 -0.00000000000E+00 -0.46771101879E+02  0.46771101879E+02  0.00000000000E+00 0.  1.
          2    1    1    2  501    0 -0.12811765409E+02  0.26684822001E+02  0.46202331848E+03  0.46297059073E+03  0.00000000000E+00 0.  1.
          1    1    1    2  502    0  0.12811765409E+02 -0.26684822001E+02 -0.41565991560E+02  0.51028939951E+02  0.00000000000E+00 0.  1.
</event>
<event>
 4    1  0.3555026E+003  0.2357836E+02  0.7546771E-02  0.1485361E+00
          2   -1    0    0  502    0  0.00000000000E+00  0.00000000000E+00  0.26631290516E+03  0.26631290516E+03  0.00000000000E+00 0. -1.
          1   -1    0    0  501    0 -0.00000000000E+00 -0.00000000000E+00 -0.18417229811E+03  0.18417229811E+03  0.00000000000E+00 0. -1.
          2    1    1    2  501    0 -0.14429429854E+02  0.18647531592E+02  0.26503273712E+03  0.26607948178E+03  0.00000000000E+00 0. -1.
          1    1    1    2  502    0  0.14429429854E+02 -0.18647531592E+02 -0.18289213006E+03  0.18440572149E+03  0.00000000000E+00 0. -1.
</event>
<event>
 4    1  0.3555026E+003  0.3090279E+02  0.7546771E-02  0.1411910E+00
          2   -1    0    0  502    0  0.00000000000E+00  0.00000000000E+00  0.35758078433E+02  0.35758078433E+02  0.00000000000E+00 0. -1.
          1   -1    0    0  501    0 -0.00000000000E+00 -0.00000000000E+00 -0.32857501763E+03  0.32857501763E+03  0.00000000000E+00 0. -1.
          2    1    1    2  501    0  0.30233699715E+02  0.63957470183E+01  0.28197902023E+02  0.41834242636E+02  0.00000000000E+00 0. -1.
          1    1    1    2  502    0 -0.30233699715E+02 -0.63957470183E+01 -0.32101484122E+03  0.32249885342E+03  0.00000000000E+00 0. -1.
</event>
<event>
 4    1  0.3555026E+003  0.6536631E+02  0.7546771E-02  0.1242614E+00
          2   -1    0    0  502    0  0.00000000000E+00  0.00000000000E+00  0.15807531847E+03  0.15807531847E+03  0.00000000000E+00 0.  1.
          1   -1    0    0  501    0 -0.00000000000E+00 -0.00000000000E+00 -0.92485286295E+02  0.92485286295E+02  0.00000000000E+00 0. -1.
          2    1    1    2  501    0  0.47010384797E+02 -0.45417817868E+02  0.13818984005E+03  0.15286983467E+03  0.00000000000E+00 0.  1.
          1    1    1    2  502    0 -0.47010384797E+02  0.45417817868E+02 -0.72599807874E+02  0.97690770097E+02  0.00000000000E+00 0. -1.
</event>
<event>
 4    1  0.3555026E+003  0.2679611E+02  0.7546771E-02  0.1449667E+00
          2   -1    0    0  502    0  0.00000000000E+00  0.00000000000E+00  0.30944483897E+01  0.30944483897E+01  0.00000000000E+00 0.  1.
          1   -1    0    0  501    0 -0.00000000000E+00 -0.00000000000E+00 -0.27730328981E+03  0.27730328981E+03  0.00000000000E+00 0.  1.
          2    1    1    2  501    0  0.24788628598E+02 -0.10176215028E+02 -0.80461349562E+02  0.84806015314E+02  0.00000000000E+00 0.  1.
          1    1    1    2  502    0 -0.24788628598E+02  0.10176215028E+02 -0.19374749186E+03  0.19559172288E+03  0.00000000000E+00 0.  1.
</event>
<event>
 4    1  0.3555026E+003  0.2037159E+02  0.7546771E-02  0.1528429E+00
          2   -1    0    0  502    0  0.00000000000E+00  0.00000000000E+00  0.18794037582E+03  0.18794037582E+03  0.00000000000E+00 0. -1.
          1   -1    0    0  501    0 -0.00000000000E+00 -0.00000000000E+00 -0.21538775581E+02  0.21538775581E+02  0.00000000000E+00 0.  1.
          2    1    1    2  501    0  0.64854907338E+00 -0.20361265240E+02  0.18242627534E+03  0.18356020177E+03  0.00000000000E+00 0. -1.
          1    1    1    2  502    0 -0.64854907338E+00  0.20361265240E+02 -0.16024675101E+02  0.25918949635E+02  0.00000000000E+00 0.  1.
</event>
<event>
 4    1  0.3555026E+003  0.3084890E+02  0.7546771E-02  0.1412360E+00
          2   -1    0    0  502    0  0.00000000000E+00  0.00000000000E+00  0.89393740980E+01  0.89393740980E+01  0.00000000000E+00 0.  1.
          1   -1    0    0  501    0 -0.00000000000E+00 -0.00000000000E+00 -0.18497948844E+04  0.18497948844E+04  0.00000000000E+00 0.  1.
          2    1    1    2  501    0 -0.10844333619E+02 -0.28880006595E+02 -0.18199614241E+02  0.35817318592E+02  0.00000000000E+00 0.  1.
          1    1    1    2  502    0  0.10844333619E+02  0.28880006595E+02 -0.18226558961E+04  0.18229169399E+04  0.00000000000E+00 0.  1.
</event>
<event>
 4    1  0.3555026E+003  0.2241336E+02  0.7546771E-02  0.1499999E+00
          2   -1    0    0  502    0  0.00000000000E+00  0.00000000000E+00  0.14521447480E+02  0.14521447480E+02  0.00000000000E+00 0.  1.
          1   -1    0    0  501    0 -0.00000000000E+00 -0.00000000000E+00 -0.12673524108E+04  0.12673524108E+04  0.00000000000E+00 0.  1.
          2    1    1    2  501    0  0.19464446852E+02 -0.11112778431E+02  0.57132658107E+01  0.23130065757E+02  0.00000000000E+00 0.  1.
          1    1    1    2  502    0 -0.19464446852E+02  0.11112778431E+02 -0.12585442292E+04  0.12587437925E+04  0.00000000000E+00 0.  1.
</event>
<event>
 4    1  0.3555026E+003  0.2954408E+02  0.7546771E-02  0.1423600E+00
          2   -1    0    0  502    0  0.00000000000E+00  0.00000000000E+00  0.10748054136E+03  0.10748054136E+03  0.00000000000E+00 0. -1.
          1   -1    0    0  501    0 -0.00000000000E+00 -0.00000000000E+00 -0.52469475531E+03  0.52469475531E+03  0.00000000000E+00 0.  1.
          2    1    1    2  501    0  0.35615089107E+01 -0.29328629803E+02  0.10502485834E+03  0.10910120870E+03  0.00000000000E+00 0. -1.
          1    1    1    2  502    0 -0.35615089107E+01  0.29328629803E+02 -0.52223907229E+03  0.52307408796E+03  0.00000000000E+00 0.  1.
</event>
<event>
 4    1  0.3555026E+003  0.2320009E+02  0.7546771E-02  0.1490001E+00
          2   -1    0    0  502    0  0.00000000000E+00  0.00000000000E+00  0.11780020915E+03  0.11780020915E+03  0.00000000000E+00 0.  1.
          1   -1    0    0  501    0 -0.00000000000E+00 -0.00000000000E+00 -0.33622829649E+02  0.33622829649E+02  0.00000000000E+00 0. -1.
          2    1    1    2  501    0 -0.22959528318E+02  0.33322829912E+01  0.11246809291E+03  0.11483603953E+03  0.00000000000E+00 0.  1.
          1    1    1    2  502    0  0.22959528318E+02 -0.33322829912E+01 -0.28290713411E+02  0.36586999274E+02  0.00000000000E+00 0. -1.
</event>
<event>
 4    1  0.3555026E+003  0.7258942E+02  0.7546771E-02  0.1222182E+00
          2   -1    0    0  502    0  0.00000000000E+00  0.00000000000E+00  0.17978875771E+03  0.17978875771E+03  0.00000000000E+00 0.  1.
          1   -1    0    0  501    0 -0.00000000000E+00 -0.00000000000E+00 -0.99077935946E+02  0.99077935946E+02  0.00000000000E+00 0.  1.
          2    1    1    2  501    0  0.23562951923E+02  0.68658656986E+02  0.15736266081E+03  0.17329809837E+03  0.00000000000E+00 0.  1.
          1    1    1    2  502    0 -0.23562951923E+02 -0.68658656986E+02 -0.76651839041E+02  0.10556859529E+03  0.00000000000E+00 0.  1.
</event>
<event>
 4    1  0.3555026E+003  0.3038159E+02  0.7546771E-02  0.1416309E+00
          2   -1    0    0  502    0  0.00000000000E+00  0.00000000000E+00  0.83247059841E+00  0.83247059841E+00  0.00000000000E+00 0.  1.
          1   -1    0    0  501    0 -0.00000000000E+00 -0.00000000000E+00 -0.11900977908E+04  0.11900977908E+04  0.00000000000E+00 0.  1.
          2    1    1    2  501    0 -0.24998525212E+02  0.17265972720E+02 -0.75027044597E+03  0.75088533224E+03  0.00000000000E+00 0.  1.
          1    1    1    2  502    0  0.24998525212E+02 -0.17265972720E+02 -0.43899487426E+03  0.44004492918E+03  0.00000000000E+00 0.  1.
</event>
<event>
 4    1  0.3555026E+003  0.4528702E+02  0.7546771E-02  0.1320010E+00
          2   -1    0    0  502    0  0.00000000000E+00  0.00000000000E+00  0.17509866897E+02  0.17509866897E+02  0.00000000000E+00 0. -1.
          1   -1    0    0  501    0 -0.00000000000E+00 -0.00000000000E+00 -0.10689427617E+04  0.10689427617E+04  0.00000000000E+00 0. -1.
          2    1    1    2  501    0 -0.43454714042E+02  0.12751557617E+02 -0.13115330390E+02  0.47147919205E+02  0.00000000000E+00 0. -1.
          1    1    1    2  502    0  0.43454714042E+02 -0.12751557617E+02 -0.10383175644E+04  0.10393047094E+04  0.00000000000E+00 0. -1.
</event>
<event>
 4    1  0.3555026E+003  0.4709463E+02  0.7546771E-02  0.1311286E+00
          2   -1    0    0  502    0  0.00000000000E+00  0.00000000000E+00  0.40363060981E+03  0.40363060981E+03  0.00000000000E+00 0.  1.
          1   -1    0    0  501    0 -0.00000000000E+00 -0.00000000000E+00 -0.11232698193E+02  0.11232698193E+02  0.00000000000E+00 0.  1.
          2    1    1    2  501    0 -0.30570261554E+02  0.35824055549E+02  0.34445287450E+03  0.34765742707E+03  0.00000000000E+00 0.  1.
          1    1    1    2  502    0  0.30570261554E+02 -0.35824055549E+02  0.47945037119E+02  0.67205880932E+02  0.00000000000E+00 0.  1.
</event>
<event>
 4    1  0.3555026E+003  0.2449948E+02  0.7546771E-02  0.1474481E+00
          2   -1    0    0  502    0  0.00000000000E+00  0.00000000000E+00  0.60942211545E+02  0.60942211545E+02  0.00000000000E+00 0. -1.
          1   -1    0    0  501    0 -0.00000000000E+00 -0.00000000000E+00 -0.10635930192E+02  0.10635930192E+02  0.00000000000E+00 0. -1.
          2    1    1    2  501    0  0.24418328009E+02  0.19922469832E+01  0.15418657346E+02  0.28947517772E+02  0.00000000000E+00 0. -1.
          1    1    1    2  502    0 -0.24418328009E+02 -0.19922469832E+01  0.34887624007E+02  0.42630623965E+02  0.00000000000E+00 0. -1.
</event>
<event>
 4    1  0.3555026E+003  0.2493855E+02  0.7546771E-02  0.1469492E+00
          2   -1    0    0  502    0  0.00000000000E+00  0.00000000000E+00  0.21204742273E+02  0.21204742273E+02  0.00000000000E+00 0. -1.
          1   -1    0    0  501    0 -0.00000000000E+00 -0.00000000000E+00 -0.40066109400E+02  0.40066109400E+02  0.00000000000E+00 0.  1.
          2    1    1    2  501    0  0.17838266943E+02 -0.17427782662E+02  0.64278250568E+01  0.25753607728E+02  0.00000000000E+00 0. -1.
          1    1    1    2  502    0 -0.17838266943E+02  0.17427782662E+02 -0.25289192185E+02  0.35517243945E+02  0.00000000000E+00 0.  1.
</event>
<event>
 4    1  0.3555026E+003  0.2059326E+02  0.7546771E-02  0.1525152E+00
          2   -1    0    0  502    0  0.00000000000E+00  0.00000000000E+00  0.55782091526E+00  0.55782091526E+00  0.00000000000E+00 0.  1.
          1   -1    0    0  501    0 -0.00000000000E+00 -0.00000000000E+00 -0.12379378995E+04  0.12379378995E+04  0.00000000000E+00 0.  1.
          2    1    1    2  501    0  0.59057261096E+01  0.19728274159E+02 -0.23402033980E+03  0.23492467270E+03  0.00000000000E+00 0.  1.
          1    1    1    2  502    0 -0.59057261096E+01 -0.19728274159E+02 -0.10033597388E+04  0.10035710477E+04  0.00000000000E+00 0.  1.
</event>
<event>
 4    1  0.3555026E+003  0.2499048E+02  0.7546771E-02  0.1468910E+00
          2   -1    0    0  502    0  0.00000000000E+00  0.00000000000E+00  0.11493422054E+03  0.11493422054E+03  0.00000000000E+00 0.  1.
          1   -1    0    0  501    0 -0.00000000000E+00 -0.00000000000E+00 -0.14150825165E+04  0.14150825165E+04  0.00000000000E+00 0. -1.
          2    1    1    2  501    0  0.24496088403E+02  0.49463050457E+01  0.11346403580E+03  0.11618352594E+03  0.00000000000E+00 0.  1.
          1    1    1    2  502    0 -0.24496088403E+02 -0.49463050457E+01 -0.14136123318E+04  0.14138332111E+04  0.00000000000E+00 0. -1.
</event>
<event>
 4    1  0.3555026E+003  0.2375224E+02  0.7546771E-02  0.1483262E+00
          2   -1    0    0  502    0  0.00000000000E+00  0.00000000000E+00  0.16020721792E+03  0.16020721792E+03  0.00000000000E+00 0.  1.
          1   -1    0    0  501    0 -0.00000000000E+00 -0.00000000000E+00 -0.45885489664E+01  0.45885489664E+01  0.00000000000E+00 0.  1.
          2    1    1    2  501    0 -0.17198047979E+02 -0.16382795513E+02  0.11754419170E+03  0.11991999768E+03  0.00000000000E+00 0.  1.
          1    1    1    2  502    0  0.17198047979E+02  0.16382795513E+02  0.38074477261E+02  0.44875769206E+02  0.00000000000E+00 0.  1.
</event>
<event>
 4    1  0.3555026E+003  0.2541045E+02  0.7546771E-02  0.1464264E+00
          2   -1    0    0  502    0  0.00000000000E+00  0.00000000000E+00  0.76297545920E+01  0.76297545920E+01  0.00000000000E+00 0. -1.
          1   -1    0    0  501    0 -0.00000000000E+00 -0.00000000000E+00 -0.14892063238E+03  0.14892063238E+03  0.00000000000E+00 0.  1.
          2    1    1    2  501    0  0.11790440446E+02 -0.22509479729E+02 -0.19214175998E+02  0.31857114164E+02  0.00000000000E+00 0. -1.
          1    1    1    2  502    0 -0.11790440446E+02  0.22509479729E+02 -0.12207670179E+03  0.12469327281E+03  0.00000000000E+00 0.  1.
</event>
<event>
 4    1  0.3555026E+003  0.2857477E+02  0.7546771E-02  0.1432400E+00
          2   -1    0    0  502    0  0.00000000000E+00  0.00000000000E+00  0.13716489125E+02  0.13716489125E+02  0.00000000000E+00 0. -1.
          1   -1    0    0  501    0 -0.00000000000E+00 -0.00000000000E+00 -0.15434938437E+03  0.15434938437E+03  0.00000000000E+00 0.  1.
          2    1    1    2  501    0 -0.27584870416E+02 -0.74560453372E+01 -0.44521878843E+01  0.28919537772E+02  0.00000000000E+00 0. -1.
          1    1    1    2  502    0  0.27584870416E+02  0.74560453372E+01 -0.13618070736E+03  0.13914633572E+03  0.00000000000E+00 0.  1.
</event>
<event>
 4    1  0.3555026E+003  0.2966199E+02  0.7546771E-02  0.1422557E+00
          2   -1    0    0  502    0  0.00000000000E+00  0.00000000000E+00  0.37983428329E+02  0.37983428329E+02  0.00000000000E+00 0.  1.
          1   -1    0    0  501    0 -0.00000000000E+00 -0.00000000000E+00 -0.82730664650E+02  0.82730664650E+02  0.00000000000E+00 0. -1.
          2    1    1    2  501    0 -0.27276420518E+02  0.11654647607E+02  0.28841446831E+02  0.41372248941E+02  0.00000000000E+00 0.  1.
          1    1    1    2  502    0  0.27276420518E+02 -0.11654647607E+02 -0.73588683153E+02  0.79341844037E+02  0.00000000000E+00 0. -1.
</event>
<event>
 4    1  0.3555026E+003  0.2049366E+02  0.7546771E-02  0.1526618E+00
          2   -1    0    0  502    0  0.00000000000E+00  0.00000000000E+00  0.57303223334E+02  0.57303223334E+02  0.00000000000E+00 0. -1.
          1   -1    0    0  501    0 -0.00000000000E+00 -0.00000000000E+00 -0.56608645906E+02  0.56608645906E+02  0.00000000000E+00 0.  1.
          2    1    1    2  501    0 -0.89248900924E+01 -0.18448207233E+02  0.53488354375E+02  0.57279962177E+02  0.00000000000E+00 0. -1.
          1    1    1    2  502    0  0.89248900924E+01  0.18448207233E+02 -0.52793776947E+02  0.56631907063E+02  0.00000000000E+00 0.  1.
</event>
<event>
 4    1  0.3555026E+003  0.2424563E+02  0.7546771E-02  0.1477422E+00
          2   -1    0    0  502    0  0.00000000000E+00  0.00000000000E+00  0.62459834849E+03  0.62459834849E+03  0.00000000000E+00 0.  1.
          1   -1    0    0  501    0 -0.00000000000E+00 -0.00000000000E+00 -0.45015154775E+01  0.45015154775E+01  0.00000000000E+00 0.  1.
          2    1    1    2  501    0 -0.87054070226E+01  0.22628886055E+02  0.58978969129E+03  0.59028783703E+03  0.00000000000E+00 0.  1.
          1    1    1    2  502    0  0.87054070226E+01 -0.22628886055E+02  0.30307141724E+02  0.38812026938E+02  0.00000000000E+00 0.  1.
</event>
<event>
 4    1  0.3555026E+003  0.2027104E+02  0.7546771E-02  0.1529932E+00
          2   -1    0    0  502    0  0.00000000000E+00  0.00000000000E+00  0.11038985912E+04  0.11038985912E+04  0.00000000000E+00 0.  1.
          1   -1    0    0  501    0 -0.00000000000E+00 -0.00000000000E+00 -0.53773847638E+01  0.53773847638E+01  0.00000000000E+00 0. -1.
          2    1    1    2  501    0  0.10141960023E+02  0.17551512723E+02  0.10843574446E+04  0.10845469019E+04  0.00000000000E+00 0.  1.
          1    1    1    2  502    0 -0.10141960023E+02 -0.17551512723E+02  0.14163761912E+02  0.24729074052E+02  0.00000000000E+00 0. -1.
</event>
<event>
 4    1  0.3555026E+003  0.2103896E+02  0.7546771E-02  0.1518709E+00
          2   -1    0    0  502    0  0.00000000000E+00  0.00000000000E+00  0.43360216549E+03  0.43360216549E+03  0.00000000000E+00 0. -1.
          1   -1    0    0  501    0 -0.00000000000E+00 -0.00000000000E+00 -0.78273229814E+01  0.78273229814E+01  0.00000000000E+00 0. -1.
          2    1    1    2  501    0 -0.16343863712E+02  0.13248248329E+02  0.41870673921E+03  0.41923498354E+03  0.00000000000E+00 0. -1.
          1    1    1    2  502    0  0.16343863712E+02 -0.13248248329E+02  0.70681032965E+01  0.22194504928E+02  0.00000000000E+00 0. -1.
</event>
<event>
 4    1  0.3555026E+003  0.2603257E+02  0.7546771E-02  0.1457576E+00
          2   -1    0    0  502    0  0.00000000000E+00  0.00000000000E+00  0.13791710035E+03  0.13791710035E+03  0.00000000000E+00 0. -1.
          1   -1    0    0  501    0 -0.00000000000E+00 -0.00000000000E+00 -0.23784664125E+02  0.23784664125E+02  0.00000000000E+00 0. -1.
          2    1    1    2  501    0  0.24655305830E+02  0.83552670421E+01  0.12908277442E+03  0.13168165113E+03  0.00000000000E+00 0. -1.
          1    1    1    2  502    0 -0.24655305830E+02 -0.83552670421E+01 -0.14950338196E+02  0.30020113342E+02  0.00000000000E+00 0. -1.
</event>
<event>
 4    1  0.3555026E+003  0.3011270E+02  0.7546771E-02  0.1418620E+00
          2   -1    0    0  502    0  0.00000000000E+00  0.00000000000E+00  0.10124623625E+04  0.10124623625E+04  0.00000000000E+00 0.  1.
          1   -1    0    0  501    0 -0.00000000000E+00 -0.00000000000E+00 -0.12727479327E+01  0.12727479327E+01  0.00000000000E+00 0.  1.
          2    1    1    2  501    0 -0.13068299892E+02  0.27129210154E+02  0.78150747724E+03  0.78208740655E+03  0.00000000000E+00 0.  1.
          1    1    1    2  502    0  0.13068299892E+02 -0.27129210154E+02  0.22968213728E+03  0.23164770383E+03  0.00000000000E+00 0.  1.
</event>
<event>
 4    1  0.3555026E+003  0.2058264E+02  0.7546771E-02  0.1525308E+00
          2   -1    0    0  502    0  0.00000000000E+00  0.00000000000E+00  0.38055283903E+02  0.38055283903E+02  0.00000000000E+00 0.  1.
          1   -1    0    0  501    0 -0.00000000000E+00 -0.00000000000E+00 -0.28490317851E+02  0.28490317851E+02  0.00000000000E+00 0.  1.
          2    1    1    2  501    0  0.10619693291E+02 -0.17631424796E+02  0.30753565985E+02  0.37005767750E+02  0.00000000000E+00 0.  1.
          1    1    1    2  502    0 -0.10619693291E+02  0.17631424796E+02 -0.21188599933E+02  0.29539834005E+02  0.00000000000E+00 0.  1.
</event>
<event>
 4    1  0.3555026E+003  0.2413260E+02  0.7546771E-02  0.1478745E+00
          2   -1    0    0  502    0  0.00000000000E+00  0.00000000000E+00  0.14467322661E+03  0.14467322661E+03  0.00000000000E+00 0. -1.
          1   -1    0    0  501    0 -0.00000000000E+00 -0.00000000000E+00 -0.81905143014E+01  0.81905143014E+01  0.00000000000E+00 0.  1.
          2    1    1    2  501    0 -0.26270356211E+01  0.23989189985E+02  0.12274518064E+03  0.12509501158E+03  0.00000000000E+00 0. -1.
          1    1    1    2  502    0  0.26270356211E+01 -0.23989189985E+02  0.13737531671E+02  0.27768729332E+02  0.00000000000E+00 0.  1.
</event>
<event>
 4    1  0.3555026E+003  0.3113361E+02  0.7546771E-02  0.1409995E+00
          2   -1    0    0  502    0  0.00000000000E+00  0.00000000000E+00  0.53021589171E+01  0.53021589171E+01  0.00000000000E+00 0.  1.
          1   -1    0    0  501    0 -0.00000000000E+00 -0.00000000000E+00 -0.38728822677E+03  0.38728822677E+03  0.00000000000E+00 0.  1.
          2    1    1    2  501    0  0.97936856341E+01 -0.29553093394E+02 -0.48362252829E+02  0.57517033183E+02  0.00000000000E+00 0.  1.
          1    1    1    2  502    0 -0.97936856341E+01  0.29553093394E+02 -0.33362381502E+03  0.33507335250E+03  0.00000000000E+00 0.  1.
</event>
<event>
 4    1  0.3555026E+003  0.2093357E+02  0.7546771E-02  0.1520215E+00
          2   -1    0    0  502    0  0.00000000000E+00  0.00000000000E+00  0.22057812463E+03  0.22057812463E+03  0.00000000000E+00 0.  1.
          1   -1    0    0  501    0 -0.00000000000E+00 -0.00000000000E+00 -0.13517812471E+02  0.13517812471E+02  0.00000000000E+00 0. -1.
          2    1    1    2  501    0 -0.20259309295E+02 -0.52701677116E+01  0.21163545522E+03  0.21266823972E+03  0.00000000000E+00 0.  1.
          1    1    1    2  502    0  0.20259309295E+02  0.52701677116E+01 -0.45751430629E+01  0.21427697377E+02  0.00000000000E+00 0. -1.
</event>
<event>
 4    1  0.3555026E+003  0.2972515E+02  0.7546771E-02  0.1422000E+00
          2   -1    0    0  502    0  0.00000000000E+00  0.00000000000E+00  0.78499210481E+03  0.78499210481E+03  0.00000000000E+00 0.  1.
          1   -1    0    0  501    0 -0.00000000000E+00 -0.00000000000E+00 -0.22314049658E+03  0.22314049658E+03  0.00000000000E+00 0.  1.
          2    1    1    2  501    0  0.22762726461E+02  0.19116563572E+02  0.78371915611E+03  0.78428266611E+03  0.00000000000E+00 0.  1.
          1    1    1    2  502    0 -0.22762726461E+02 -0.19116563572E+02 -0.22186754788E+03  0.22384993527E+03  0.00000000000E+00 0.  1.
</event>
<event>
 4    1  0.3555026E+003  0.2617053E+02  0.7546771E-02  0.1456123E+00
          2   -1    0    0  502    0  0.00000000000E+00  0.00000000000E+00  0.26581519805E+01  0.26581519805E+01  0.00000000000E+00 0.  1.
          1   -1    0    0  501    0 -0.00000000000E+00 -0.00000000000E+00 -0.13510922870E+04  0.13510922870E+04  0.00000000000E+00 0.  1.
          2    1    1    2  501    0  0.21981903748E+02  0.14201851223E+02 -0.65294231913E+02  0.70343680538E+02  0.00000000000E+00 0.  1.
          1    1    1    2  502    0 -0.21981903748E+02 -0.14201851223E+02 -0.12831399031E+04  0.12834067585E+04  0.00000000000E+00 0.  1.
</event>
<event>
 4    1  0.3555026E+003  0.2384527E+02  0.7546771E-02  0.1482148E+00
          2   -1    0    0  502    0  0.00000000000E+00  0.00000000000E+00  0.30241146280E+01  0.30241146280E+01  0.00000000000E+00 0.  1.
          1   -1    0    0  501    0 -0.00000000000E+00 -0.00000000000E+00 -0.25806494600E+03  0.25806494600E+03  0.00000000000E+00 0.  1.
          2    1    1    2  501    0  0.28104157900E+01 -0.23679073616E+02 -0.59509351789E+02  0.64108969065E+02  0.00000000000E+00 0.  1.
          1    1    1    2  502    0 -0.28104157900E+01  0.23679073616E+02 -0.19553147958E+03  0.19698009156E+03  0.00000000000E+00 0.  1.
</event>
<event>
 4    1  0.3555026E+003  0.2738337E+02  0.7546771E-02  0.1443795E+00
          2   -1    0    0  502    0  0.00000000000E+00  0.00000000000E+00  0.92892529426E+01  0.92892529426E+01  0.00000000000E+00 0. -1.
          1   -1    0    0  501    0 -0.00000000000E+00 -0.00000000000E+00 -0.20721595080E+03  0.20721595080E+03  0.00000000000E+00 0. -1.
          2    1    1    2  501    0  0.21263936349E+02  0.17253813604E+02 -0.14384599080E+02  0.30931630471E+02  0.00000000000E+00 0. -1.
          1    1    1    2  502    0 -0.21263936349E+02 -0.17253813604E+02 -0.18354209878E+03  0.18557357327E+03  0.00000000000E+00 0. -1.
</event>
<event>
 4    1  0.3555026E+003  0.2440323E+02  0.7546771E-02  0.1475591E+00
          2   -1    0    0  502    0  0.00000000000E+00  0.00000000000E+00  0.10921802699E+04  0.10921802699E+04  0.00000000000E+00 0.  1.
          1   -1    0    0  501    0 -0.00000000000E+00 -0.00000000000E+00 -0.90540560860E+00  0.90540560860E+00  0.00000000000E+00 0.  1.
          2    1    1    2  501    0 -0.23577704574E+02 -0.62936103226E+01  0.89033973110E+03  0.89067410115E+03  0.00000000000E+00 0.  1.
          1    1    1    2  502    0  0.23577704574E+02  0.62936103226E+01  0.20093513324E+03  0.20241157441E+03  0.00000000000E+00 0.  1.
</event>
<event>
 4    1  0.3555026E+003  0.2751410E+02  0.7546771E-02  0.1442511E+00
          2   -1    0    0  502    0  0.00000000000E+00  0.00000000000E+00  0.71464333618E+01  0.71464333618E+01  0.00000000000E+00 0.  1.
          1   -1    0    0  501    0 -0.00000000000E+00 -0.00000000000E+00 -0.30411484845E+03  0.30411484845E+03  0.00000000000E+00 0. -1.
          2    1    1    2  501    0 -0.36688644126E+01  0.27268394060E+02 -0.22849140837E+02  0.35764635014E+02  0.00000000000E+00 0.  1.
          1    1    1    2  502    0  0.36688644126E+01 -0.27268394060E+02 -0.27411927425E+03  0.27549664680E+03  0.00000000000E+00 0. -1.
</event>
<event>
 4    1  0.3555026E+003  0.3327301E+02  0.7546771E-02  0.1393129E+00
          2   -1    0    0  502    0  0.00000000000E+00  0.00000000000E+00  0.53287582524E+03  0.53287582524E+03  0.00000000000E+00 0.  1.
          1   -1    0    0  501    0 -0.00000000000E+00 -0.00000000000E+00 -0.25797381797E+02  0.25797381797E+02  0.00000000000E+00 0.  1.
          2    1    1    2  501    0 -0.21346166053E+02 -0.25523207251E+02  0.52139162506E+03  0.52245221752E+03  0.00000000000E+00 0.  1.
          1    1    1    2  502    0  0.21346166053E+02  0.25523207251E+02 -0.14313181614E+02  0.36220989515E+02  0.00000000000E+00 0.  1.
</event>
<event>
 4    1  0.3555026E+003  0.3360821E+02  0.7546771E-02  0.1390621E+00
          2   -1    0    0  502    0  0.00000000000E+00  0.00000000000E+00  0.14478326923E+03  0.14478326923E+03  0.00000000000E+00 0.  1.
          1   -1    0    0  501    0 -0.00000000000E+00 -0.00000000000E+00 -0.78031957097E+02  0.78031957097E+02  0.00000000000E+00 0. -1.
          2    1    1    2  501    0  0.30477588947E+02 -0.14164340064E+02  0.13906755041E+03  0.14307094581E+03  0.00000000000E+00 0.  1.
          1    1    1    2  502    0 -0.30477588947E+02  0.14164340064E+02 -0.72316238275E+02  0.79744280520E+02  0.00000000000E+00 0. -1.
</event>
<event>
 4    1  0.3555026E+003  0.3214048E+02  0.7546771E-02  0.1401864E+00
          2   -1    0    0  502    0  0.00000000000E+00  0.00000000000E+00  0.20304180479E+02  0.20304180479E+02  0.00000000000E+00 0. -1.
          1   -1    0    0  501    0 -0.00000000000E+00 -0.00000000000E+00 -0.43220292246E+03  0.43220292246E+03  0.00000000000E+00 0.  1.
          2    1    1    2  501    0  0.31959010404E+02 -0.34105469575E+01  0.65706634489E+01  0.32805240354E+02  0.00000000000E+00 0. -1.
          1    1    1    2  502    0 -0.31959010404E+02  0.34105469575E+01 -0.41846940543E+03  0.41970186259E+03  0.00000000000E+00 0.  1.
</event>
<event>
 4    1  0.3555026E+003  0.2599430E+02  0.7546771E-02  0.1457981E+00
          2   -1    0    0  502    0  0.00000000000E+00  0.00000000000E+00  0.22217555823E+04  0.22217555823E+04  0.00000000000E+00 0.  1.
          1   -1    0    0  501    0 -0.00000000000E+00 -0.00000000000E+00 -0.30563802464E+00  0.30563802464E+00  0.00000000000E+00 0.  1.
          2    1    1    2  501    0  0.46294910656E+01  0.25578728282E+02  0.11887549620E+04  0.11890391344E+04  0.00000000000E+00 0.  1.
          1    1    1    2  502    0 -0.46294910656E+01 -0.25578728282E+02  0.10326949823E+04  0.10330220859E+04  0.00000000000E+00 0.  1.
</event>
<event>
 4    1  0.3555026E+003  0.2593732E+02  0.7546771E-02  0.1458585E+00
          2   -1    0    0  502    0  0.00000000000E+00  0.00000000000E+00  0.14523164429E+03  0.14523164429E+03  0.00000000000E+00 0.  1.
          1   -1    0    0  501    0 -0.00000000000E+00 -0.00000000000E+00 -0.73363021883E+01  0.73363021883E+01  0.00000000000E+00 0.  1.
          2    1    1    2  501    0 -0.25874099272E+02 -0.18098916394E+01  0.11526086759E+03  0.11814318566E+03  0.00000000000E+00 0.  1.
          1    1    1    2  502    0  0.25874099272E+02  0.18098916394E+01  0.22634474516E+02  0.34424760820E+02  0.00000000000E+00 0.  1.
</event>
<event>
 4    1  0.3555026E+003  0.2097728E+02  0.7546771E-02  0.1519589E+00
          2   -1    0    0  502    0  0.00000000000E+00  0.00000000000E+00  0.46944940784E+00  0.46944940784E+00  0.00000000000E+00 0.  1.
          1   -1    0    0  501    0 -0.00000000000E+00 -0.00000000000E+00 -0.11237653983E+04  0.11237653983E+04  0.00000000000E+00 0. -1.
          2    1    1    2  501    0  0.20343830481E+02 -0.51161344989E+01 -0.33271382182E+03  0.33337446438E+03  0.00000000000E+00 0.  1.
          1    1    1    2  502    0 -0.20343830481E+02  0.51161344989E+01 -0.79058212710E+03  0.79086038336E+03  0.00000000000E+00 0. -1.
</event>
<event>
 4    1  0.3555026E+003  0.2096450E+02  0.7546771E-02  0.1519772E+00
          2   -1    0    0  502    0  0.00000000000E+00  0.00000000000E+00  0.12040290298E+03  0.12040290298E+03  0.00000000000E+00 0. -1.
          1   -1    0    0  501    0 -0.00000000000E+00 -0.00000000000E+00 -0.24656853505E+02  0.24656853505E+02  0.00000000000E+00 0.  1.
          2    1    1    2  501    0 -0.18929777168E+02 -0.90096486363E+01  0.11481911542E+03  0.11671734875E+03  0.00000000000E+00 0. -1.
          1    1    1    2  502    0  0.18929777168E+02  0.90096486363E+01 -0.19073065943E+02  0.28342407743E+02  0.00000000000E+00 0.  1.
</event>
<event>
 4    1  0.3555026E+003  0.3285023E+02  0.7546771E-02  0.1396341E+00
          2   -1    0    0  502    0  0.00000000000E+00  0.00000000000E+00  0.18895721217E+02  0.18895721217E+02  0.00000000000E+00 0. -1.
          1   -1    0    0  501    0 -0.00000000000E+00 -0.00000000000E+00 -0.16970007635E+03  0.16970007635E+03  0.00000000000E+00 0.  1.
          2    1    1    2  501    0  0.43014005599E+00  0.32847413820E+02  0.14065816919E+01  0.32880329792E+02  0.00000000000E+00 0. -1.
          1    1    1    2  502    0 -0.43014005599E+00 -0.32847413820E+02 -0.15221093682E+03  0.15571546777E+03  0.00000000000E+00 0.  1.
</event>
<event>
 4    1  0.3555026E+003  0.2262973E+02  0.7546771E-02  0.1497201E+00
          2   -1    0    0  502    0  0.00000000000E+00  0.00000000000E+00  0.73691131968E+02  0.73691131968E+02  0.00000000000E+00 0. -1.
          1   -1    0    0  501    0 -0.00000000000E+00 -0.00000000000E+00 -0.69667856323E+01  0.69667856323E+01  0.00000000000E+00 0.  1.
          2    1    1    2  501    0  0.22447460299E+02  0.28662867229E+01  0.31343550309E+02  0.38659050938E+02  0.00000000000E+00 0. -1.
          1    1    1    2  502    0 -0.22447460299E+02 -0.28662867229E+01  0.35380796027E+02  0.41998866662E+02  0.00000000000E+00 0.  1.
</event>
<event>
 4    1  0.3555026E+003  0.2324395E+02  0.7546771E-02  0.1489457E+00
          2   -1    0    0  502    0  0.00000000000E+00  0.00000000000E+00  0.26456905508E+02  0.26456905508E+02  0.00000000000E+00 0. -1.
          1   -1    0    0  501    0 -0.00000000000E+00 -0.00000000000E+00 -0.29361813065E+02  0.29361813065E+02  0.00000000000E+00 0. -1.
          2    1    1    2  501    0  0.29339135445E+01 -0.23058038440E+02  0.13948328869E+02  0.27107874569E+02  0.00000000000E+00 0. -1.
          1    1    1    2  502    0 -0.29339135445E+01  0.23058038440E+02 -0.16853236426E+02  0.28710844004E+02  0.00000000000E+00 0. -1.
</event>
<event>
 4    1  0.3555026E+003  0.2190443E+02  0.7546771E-02  0.1506733E+00
          2   -1    0    0  502    0  0.00000000000E+00  0.00000000000E+00  0.98942558286E+02  0.98942558286E+02  0.00000000000E+00 0.  1.
          1   -1    0    0  501    0 -0.00000000000E+00 -0.00000000000E+00 -0.17923996241E+03  0.17923996241E+03  0.00000000000E+00 0. -1.
          2    1    1    2  501    0  0.21674137910E+02 -0.31679581996E+01  0.97048106172E+02  0.99489392022E+02  0.00000000000E+00 0.  1.
          1    1    1    2  502    0 -0.21674137910E+02  0.31679581996E+01 -0.17734551029E+03  0.17869312867E+03  0.00000000000E+00 0. -1.
</event>
<event>
 4    1  0.3555026E+003  0.2833823E+02  0.7546771E-02  0.1434609E+00
          2   -1    0    0  502    0  0.00000000000E+00  0.00000000000E+00  0.14009508355E+04  0.14009508355E+04  0.00000000000E+00 0. -1.
          1   -1    0    0  501    0 -0.00000000000E+00 -0.00000000000E+00 -0.39378579618E+01  0.39378579618E+01  0.00000000000E+00 0.  1.
          2    1    1    2  501    0  0.46835473137E+00  0.28334361827E+02  0.13478147954E+04  0.13481126726E+04  0.00000000000E+00 0. -1.
          1    1    1    2  502    0 -0.46835473137E+00 -0.28334361827E+02  0.49198182199E+02  0.56776020889E+02  0.00000000000E+00 0.  1.
</event>
<event>
 4    1  0.3555026E+003  0.2937937E+02  0.7546771E-02  0.1425067E+00
          2   -1    0    0  502    0  0.00000000000E+00  0.00000000000E+00  0.20126175398E+04  0.20126175398E+04  0.00000000000E+00 0.  1.
          1   -1    0    0  501    0 -0.00000000000E+00 -0.00000000000E+00 -0.84871033859E+00  0.84871033859E+00  0.00000000000E+00 0. -1.
          2    1    1    2  501    0  0.24063276077E+02  0.16855455280E+02  0.17139567616E+04  0.17142085428E+04  0.00000000000E+00 0.  1.
          1    1    1    2  502    0 -0.24063276077E+02 -0.16855455280E+02  0.29781206788E+03  0.29925770734E+03  0.00000000000E+00 0. -1.
</event>
<event>
 4    1  0.3555026E+003  0.2512642E+02  0.7546771E-02  0.1467394E+00
          2   -1    0    0  502    0  0.00000000000E+00  0.00000000000E+00  0.13770083073E+04  0.13770083073E+04  0.00000000000E+00 0.  1.
          1   -1    0    0  501    0 -0.00000000000E+00 -0.00000000000E+00 -0.26670239816E+01  0.26670239816E+01  0.00000000000E+00 0.  1.
          2    1    1    2  501    0 -0.22249450192E+02 -0.11674706383E+02  0.13149196544E+04  0.13151596991E+04  0.00000000000E+00 0.  1.
          1    1    1    2  502    0  0.22249450192E+02  0.11674706383E+02  0.59421628918E+02  0.64515632108E+02  0.00000000000E+00 0.  1.
</event>
<event>
 4    1  0.3555026E+003  0.3416007E+02  0.7546771E-02  0.1386566E+00
          2   -1    0    0  502    0  0.00000000000E+00  0.00000000000E+00  0.80948279050E+03  0.80948279050E+03  0.00000000000E+00 0. -1.
          1   -1    0    0  501    0 -0.00000000000E+00 -0.00000000000E+00 -0.49761681141E+01  0.49761681141E+01  0.00000000000E+00 0.  1.
          2    1    1    2  501    0  0.86314662559E+01  0.33051601060E+02  0.74546564694E+03  0.74624790875E+03  0.00000000000E+00 0. -1.
          1    1    1    2  502    0 -0.86314662559E+01 -0.33051601060E+02  0.59040975450E+02  0.68211049871E+02  0.00000000000E+00 0.  1.
</event>
<event>
 4    1  0.3555026E+003  0.8068490E+02  0.7546771E-02  0.1202266E+00
          2   -1    0    0  502    0  0.00000000000E+00  0.00000000000E+00  0.16724734029E+04  0.16724734029E+04  0.00000000000E+00 0.  1.
          1   -1    0    0  501    0 -0.00000000000E+00 -0.00000000000E+00 -0.16246055538E+02  0.16246055538E+02  0.00000000000E+00 0. -1.
          2    1    1    2  501    0 -0.35523278099E+02  0.72444110174E+02  0.15644056371E+04  0.15664849345E+04  0.00000000000E+00 0.  1.
          1    1    1    2  502    0  0.35523278099E+02 -0.72444110174E+02  0.91821710268E+02  0.12223452402E+03  0.00000000000E+00 0. -1.
</event>
<event>
 4    1  0.3555026E+003  0.2155977E+02  0.7546771E-02  0.1511421E+00
          2   -1    0    0  502    0  0.00000000000E+00  0.00000000000E+00  0.64995678104E+03  0.64995678104E+03  0.00000000000E+00 0.  1.
          1   -1    0    0  501    0 -0.00000000000E+00 -0.00000000000E+00 -0.82291207964E+00  0.82291207964E+00  0.00000000000E+00 0.  1.
          2    1    1    2  501    0  0.36461891740E+01  0.21249214052E+02  0.44231070330E+03  0.44283584096E+03  0.00000000000E+00 0.  1.
          1    1    1    2  502    0 -0.36461891740E+01 -0.21249214052E+02  0.20682316567E+03  0.20794385216E+03  0.00000000000E+00 0.  1.
</event>
<event>
 4    1  0.3555026E+003  0.4996874E+02  0.7546771E-02  0.1298308E+00
          2   -1    0    0  502    0  0.00000000000E+00  0.00000000000E+00  0.77497715313E+01  0.77497715313E+01  0.00000000000E+00 0. -1.
          1   -1    0    0  501    0 -0.00000000000E+00 -0.00000000000E+00 -0.54787218238E+03  0.54787218238E+03  0.00000000000E+00 0. -1.
          2    1    1    2  501    0 -0.38415305708E+02 -0.31955272359E+02 -0.91757092467E+02  0.10448080763E+03  0.00000000000E+00 0. -1.
          1    1    1    2  502    0  0.38415305708E+02  0.31955272359E+02 -0.44836531838E+03  0.45114114629E+03  0.00000000000E+00 0. -1.
</event>
<event>
 4    1  0.3555026E+003  0.3836996E+02  0.7546771E-02  0.1358312E+00
          2   -1    0    0  502    0  0.00000000000E+00  0.00000000000E+00  0.61887295969E+02  0.61887295969E+02  0.00000000000E+00 0.  1.
          1   -1    0    0  501    0 -0.00000000000E+00 -0.00000000000E+00 -0.50170292112E+03  0.50170292112E+03  0.00000000000E+00 0. -1.
          2    1    1    2  501    0  0.34609635530E+02  0.16565830326E+02  0.55125217340E+02  0.67164299987E+02  0.00000000000E+00 0.  1.
          1    1    1    2  502    0 -0.34609635530E+02 -0.16565830326E+02 -0.49494084249E+03  0.49642591710E+03  0.00000000000E+00 0. -1.
</event>
<event>
 4    1  0.3555026E+003  0.2647757E+02  0.7546771E-02  0.1452928E+00
          2   -1    0    0  502    0  0.00000000000E+00  0.00000000000E+00  0.20275965094E+03  0.20275965094E+03  0.00000000000E+00 0.  1.
          1   -1    0    0  501    0 -0.00000000000E+00 -0.00000000000E+00 -0.16412251647E+02  0.16412251647E+02  0.00000000000E+00 0. -1.
          2    1    1    2  501    0  0.62733054448E+01  0.25723676387E+02  0.19053439302E+03  0.19236532123E+03  0.00000000000E+00 0.  1.
          1    1    1    2  502    0 -0.62733054448E+01 -0.25723676387E+02 -0.41869937200E+01  0.26806581365E+02  0.00000000000E+00 0. -1.
</event>
<event>
 4    1  0.3555026E+003  0.2490491E+02  0.7546771E-02  0.1469870E+00
          2   -1    0    0  502    0  0.00000000000E+00  0.00000000000E+00  0.31530855226E+01  0.31530855226E+01  0.00000000000E+00 0. -1.
          1   -1    0    0  501    0 -0.00000000000E+00 -0.00000000000E+00 -0.99718055948E+03  0.99718055948E+03  0.00000000000E+00 0. -1.
          2    1    1    2  501    0 -0.11180064078E+02 -0.22254450337E+02 -0.48888173162E+02  0.54866272588E+02  0.00000000000E+00 0. -1.
          1    1    1    2  502    0  0.11180064078E+02  0.22254450337E+02 -0.94513930079E+03  0.94546737241E+03  0.00000000000E+00 0. -1.
</event>
<event>
 4    1  0.3555026E+003  0.2275813E+02  0.7546771E-02  0.1495558E+00
          2   -1    0    0  502    0  0.00000000000E+00  0.00000000000E+00  0.58014545930E+02  0.58014545930E+02  0.00000000000E+00 0. -1.
          1   -1    0    0  501    0 -0.00000000000E+00 -0.00000000000E+00 -0.74979630880E+02  0.74979630880E+02  0.00000000000E+00 0. -1.
          2    1    1    2  501    0 -0.20213829633E+02 -0.10456272059E+02  0.53930300039E+02  0.58535543016E+02  0.00000000000E+00 0. -1.
          1    1    1    2  502    0  0.20213829633E+02  0.10456272059E+02 -0.70895384989E+02  0.74458633794E+02  0.00000000000E+00 0. -1.
</event>
<event>
 4    1  0.3555026E+003  0.3537449E+02  0.7546771E-02  0.1377949E+00
          2   -1    0    0  502    0  0.00000000000E+00  0.00000000000E+00  0.45838120793E+02  0.45838120793E+02  0.00000000000E+00 0. -1.
          1   -1    0    0  501    0 -0.00000000000E+00 -0.00000000000E+00 -0.10451921115E+04  0.10451921115E+04  0.00000000000E+00 0. -1.
          2    1    1    2  501    0  0.34893611889E+02  0.58129480655E+01  0.38666814744E+02  0.52406841904E+02  0.00000000000E+00 0. -1.
          1    1    1    2  502    0 -0.34893611889E+02 -0.58129480655E+01 -0.10380208054E+04  0.10386233903E+04  0.00000000000E+00 0. -1.
</event>
<event>
 4    1  0.3555026E+003  0.3800315E+02  0.7546771E-02  0.1360602E+00
          2   -1    0    0  502    0  0.00000000000E+00  0.00000000000E+00  0.13904922942E+02  0.13904922942E+02  0.00000000000E+00 0.  1.
          1   -1    0    0  501    0 -0.00000000000E+00 -0.00000000000E+00 -0.52406475009E+03  0.52406475009E+03  0.00000000000E+00 0.  1.
          2    1    1    2  501    0 -0.37323656333E+02 -0.71543032629E+01 -0.14220819077E+02  0.40576730678E+02  0.00000000000E+00 0.  1.
          1    1    1    2  502    0  0.37323656333E+02  0.71543032629E+01 -0.49593900807E+03  0.49739294235E+03  0.00000000000E+00 0.  1.
</event>
<event>
 4    1  0.3555026E+003  0.2221571E+02  0.7546771E-02  0.1502588E+00
          2   -1    0    0  502    0  0.00000000000E+00  0.00000000000E+00  0.18303060115E+01  0.18303060115E+01  0.00000000000E+00 0.  1.
          1   -1    0    0  501    0 -0.00000000000E+00 -0.00000000000E+00 -0.43704276665E+03  0.43704276665E+03  0.00000000000E+00 0.  1.
          2    1    1    2  501    0  0.18754786599E+02 -0.11907807065E+02 -0.81800454913E+02  0.84763508147E+02  0.00000000000E+00 0.  1.
          1    1    1    2  502    0 -0.18754786599E+02  0.11907807065E+02 -0.35341200573E+03  0.35410956452E+03  0.00000000000E+00 0.  1.
</event>
<event>
 4    1  0.3555026E+003  0.5306205E+02  0.7546771E-02  0.1285416E+00
          2   -1    0    0  502    0  0.00000000000E+00  0.00000000000E+00  0.75389412187E+02  0.75389412187E+02  0.00000000000E+00 0. -1.
          1   -1    0    0  501    0 -0.00000000000E+00 -0.00000000000E+00 -0.55567975176E+02  0.55567975176E+02  0.00000000000E+00 0.  1.
          2    1    1    2  501    0 -0.31426444407E+02 -0.42754645519E+02  0.47405559320E+02  0.71153834583E+02  0.00000000000E+00 0. -1.
          1    1    1    2  502    0  0.31426444407E+02  0.42754645519E+02 -0.27584122308E+02  0.59803552779E+02  0.00000000000E+00 0.  1.
</event>
<event>
 4    1  0.3555026E+003  0.5715744E+02  0.7546771E-02  0.1269809E+00
          2   -1    0    0  502    0  0.00000000000E+00  0.00000000000E+00  0.36655587682E+03  0.36655587682E+03  0.00000000000E+00 0.  1.
          1   -1    0    0  501    0 -0.00000000000E+00 -0.00000000000E+00 -0.95635685234E+01  0.95635685234E+01  0.00000000000E+00 0.  1.
          2    1    1    2  501    0  0.61373753223E+01  0.56826979115E+02  0.22755975375E+03  0.23462824736E+03  0.00000000000E+00 0.  1.
          1    1    1    2  502    0 -0.61373753223E+01 -0.56826979115E+02  0.12943255455E+03  0.14149119799E+03  0.00000000000E+00 0.  1.
</event>
<event>
 4    1  0.3555026E+003  0.3266054E+02  0.7546771E-02  0.1397801E+00
          2   -1    0    0  502    0  0.00000000000E+00  0.00000000000E+00  0.17934933629E+04  0.17934933629E+04  0.00000000000E+00 0.  1.
          1   -1    0    0  501    0 -0.00000000000E+00 -0.00000000000E+00 -0.65092450560E+01  0.65092450560E+01  0.00000000000E+00 0.  1.
          2    1    1    2  501    0  0.10191730500E+02 -0.31029652417E+02  0.17513908177E+04  0.17516953237E+04  0.00000000000E+00 0.  1.
          1    1    1    2  502    0 -0.10191730500E+02  0.31029652417E+02  0.35593300197E+02  0.48307284323E+02  0.00000000000E+00 0.  1.
</event>
<event>
 4    1  0.3555026E+003  0.2212522E+02  0.7546771E-02  0.1503785E+00
          2   -1    0    0  502    0  0.00000000000E+00  0.00000000000E+00  0.75675173919E+03  0.75675173919E+03  0.00000000000E+00 0. -1.
          1   -1    0    0  501    0 -0.00000000000E+00 -0.00000000000E+00 -0.87939708415E+00  0.87939708415E+00  0.00000000000E+00 0. -1.
          2    1    1    2  501    0  0.15307798931E+02 -0.15974880146E+02  0.57272555587E+03  0.57315276136E+03  0.00000000000E+00 0. -1.
          1    1    1    2  502    0 -0.15307798931E+02  0.15974880146E+02  0.18314678623E+03  0.18447837491E+03  0.00000000000E+00 0. -1.
</event>
<event>
 4    1  0.3555026E+003  0.2047879E+02  0.7546771E-02  0.1526838E+00
          2   -1    0    0  502    0  0.00000000000E+00  0.00000000000E+00  0.69430725385E+03  0.69430725385E+03  0.00000000000E+00 0. -1.
          1   -1    0    0  501    0 -0.00000000000E+00 -0.00000000000E+00 -0.33661256189E+01  0.33661256189E+01  0.00000000000E+00 0. -1.
          2    1    1    2  501    0 -0.15997670220E+02  0.12784972893E+02  0.66146287361E+03  0.66177980790E+03  0.00000000000E+00 0. -1.
          1    1    1    2  502    0  0.15997670220E+02 -0.12784972893E+02  0.29478254631E+02  0.35893571575E+02  0.00000000000E+00 0. -1.
</event>
<event>
 4    1  0.3555026E+003  0.4255354E+02  0.7546771E-02  0.1334139E+00
          2   -1    0    0  502    0  0.00000000000E+00  0.00000000000E+00  0.42419798225E+02  0.42419798225E+02  0.00000000000E+00 0.  1.
          1   -1    0    0  501    0 -0.00000000000E+00 -0.00000000000E+00 -0.63235076079E+02  0.63235076079E+02  0.00000000000E+00 0. -1.
          2    1    1    2  501    0  0.42542958202E+02  0.94881538640E+00  0.19705686924E+02  0.46894750669E+02  0.00000000000E+00 0.  1.
          1    1    1    2  502    0 -0.42542958202E+02 -0.94881538640E+00 -0.40520964777E+02  0.58760123636E+02  0.00000000000E+00 0. -1.
</event>
<event>
 4    1  0.3555026E+003  0.2118916E+02  0.7546771E-02  0.1516581E+00
          2   -1    0    0  502    0  0.00000000000E+00  0.00000000000E+00  0.44458946992E+03  0.44458946992E+03  0.00000000000E+00 0. -1.
          1   -1    0    0  501    0 -0.00000000000E+00 -0.00000000000E+00 -0.25770796199E+01  0.25770796199E+01  0.00000000000E+00 0.  1.
          2    1    1    2  501    0 -0.11306690191E+02 -0.17920355738E+02  0.39536266150E+03  0.39593006264E+03  0.00000000000E+00 0. -1.
          1    1    1    2  502    0  0.11306690191E+02  0.17920355738E+02  0.46649728801E+02  0.51236486901E+02  0.00000000000E+00 0.  1.
</event>
<event>
 4    1  0.3555026E+003  0.2045738E+02  0.7546771E-02  0.1527155E+00
          2   -1    0    0  502    0  0.00000000000E+00  0.00000000000E+00  0.34494876899E+03  0.34494876899E+03  0.00000000000E+00 0. -1.
          1   -1    0    0  501    0 -0.00000000000E+00 -0.00000000000E+00 -0.21157967226E+02  0.21157967226E+02  0.00000000000E+00 0. -1.
          2    1    1    2  501    0 -0.17029145694E+02 -0.11336339670E+02  0.33962298762E+03  0.34023856060E+03  0.00000000000E+00 0. -1.
          1    1    1    2  502    0  0.17029145694E+02  0.11336339670E+02 -0.15832185862E+02  0.25868175609E+02  0.00000000000E+00 0. -1.
</event>
<event>
 4    1  0.3555026E+003  0.7382103E+02  0.7546771E-02  0.1218968E+00
          2   -1    0    0  502    0  0.00000000000E+00  0.00000000000E+00  0.16093706846E+03  0.16093706846E+03  0.00000000000E+00 0. -1.
          1   -1    0    0  501    0 -0.00000000000E+00 -0.00000000000E+00 -0.40575998431E+03  0.40575998431E+03  0.00000000000E+00 0.  1.
          2    1    1    2  501    0  0.39557544687E+02  0.62327729416E+02  0.14885659299E+03  0.16615604254E+03  0.00000000000E+00 0. -1.
          1    1    1    2  502    0 -0.39557544687E+02 -0.62327729416E+02 -0.39367950884E+03  0.40054101023E+03  0.00000000000E+00 0.  1.
</event>
<event>
 4    1  0.3555026E+003  0.2144879E+02  0.7546771E-02  0.1512953E+00
          2   -1    0    0  502    0  0.00000000000E+00  0.00000000000E+00  0.61232588151E+02  0.61232588151E+02  0.00000000000E+00 0. -1.
          1   -1    0    0  501    0 -0.00000000000E+00 -0.00000000000E+00 -0.91923231489E+01  0.91923231489E+01  0.00000000000E+00 0. -1.
          2    1    1    2  501    0  0.14786867195E+02 -0.15537021804E+02  0.41069892632E+02  0.46333428200E+02  0.00000000000E+00 0. -1.
          1    1    1    2  502    0 -0.14786867195E+02  0.15537021804E+02  0.10970372370E+02  0.24091483099E+02  0.00000000000E+00 0. -1.
</event>
<event>
 4    1  0.3555026E+003  0.2350298E+02  0.7546771E-02  0.1486277E+00
          2   -1    0    0  502    0  0.00000000000E+00  0.00000000000E+00  0.14391348134E+03  0.14391348134E+03  0.00000000000E+00 0. -1.
          1   -1    0    0  501    0 -0.00000000000E+00 -0.00000000000E+00 -0.72225863052E+01  0.72225863052E+01  0.00000000000E+00 0. -1.
          2    1    1    2  501    0  0.19339040979E+02  0.13356322307E+02  0.12007304377E+03  0.12235164769E+03  0.00000000000E+00 0. -1.
          1    1    1    2  502    0 -0.19339040979E+02 -0.13356322307E+02  0.16617851261E+02  0.28784419954E+02  0.00000000000E+00 0. -1.
</event>
<event>
 4    1  0.3555026E+003  0.2010774E+02  0.7546771E-02  0.1532395E+00
          2   -1    0    0  502    0  0.00000000000E+00  0.00000000000E+00  0.11550564589E+03  0.11550564589E+03  0.00000000000E+00 0.  1.
          1   -1    0    0  501    0 -0.00000000000E+00 -0.00000000000E+00 -0.38403489400E+02  0.38403489400E+02  0.00000000000E+00 0. -1.
          2    1    1    2  501    0  0.74317595693E+01  0.18683950187E+02  0.11191469276E+03  0.11370672583E+03  0.00000000000E+00 0.  1.
          1    1    1    2  502    0 -0.74317595693E+01 -0.18683950187E+02 -0.34812536266E+02  0.40202409457E+02  0.00000000000E+00 0. -1.
</event>
<event>
 4    1  0.3555026E+003  0.2270195E+02  0.7546771E-02  0.1496275E+00
          2   -1    0    0  502    0  0.00000000000E+00  0.00000000000E+00  0.17830934108E+01  0.17830934108E+01  0.00000000000E+00 0. -1.
          1   -1    0    0  501    0 -0.00000000000E+00 -0.00000000000E+00 -0.17296345283E+04  0.17296345283E+04  0.00000000000E+00 0. -1.
          2    1    1    2  501    0  0.59469735858E+01 -0.21909181311E+02 -0.73854750849E+02  0.77265147016E+02  0.00000000000E+00 0. -1.
          1    1    1    2  502    0 -0.59469735858E+01  0.21909181311E+02 -0.16539966840E+04  0.16541524747E+04  0.00000000000E+00 0. -1.
</event>
<event>
 4    1  0.3555026E+003  0.2010120E+02  0.7546771E-02  0.1532494E+00
          2   -1    0    0  502    0  0.00000000000E+00  0.00000000000E+00  0.57798420522E+03  0.57798420522E+03  0.00000000000E+00 0. -1.
          1   -1    0    0  501    0 -0.00000000000E+00 -0.00000000000E+00 -0.23021132322E+03  0.23021132322E+03  0.00000000000E+00 0.  1.
          2    1    1    2  501    0 -0.18358558033E+02  0.81866715126E+01  0.57737017768E+03  0.57771998435E+03  0.00000000000E+00 0. -1.
          1    1    1    2  502    0  0.18358558033E+02 -0.81866715126E+01 -0.22959729568E+03  0.23047554410E+03  0.00000000000E+00 0.  1.
</event>
<event>
 4    1  0.3555026E+003  0.4144726E+02  0.7546771E-02  0.1340207E+00
          2   -1    0    0  502    0  0.00000000000E+00  0.00000000000E+00  0.10246515459E+04  0.10246515459E+04  0.00000000000E+00 0.  1.
          1   -1    0    0  501    0 -0.00000000000E+00 -0.00000000000E+00 -0.25537984786E+01  0.25537984786E+01  0.00000000000E+00 0.  1.
          2    1    1    2  501    0  0.14820178283E+02  0.38707078680E+02  0.81206947766E+03  0.81312650441E+03  0.00000000000E+00 0.  1.
          1    1    1    2  502    0 -0.14820178283E+02 -0.38707078680E+02  0.21002826979E+03  0.21407884000E+03  0.00000000000E+00 0.  1.
</event>
<event>
 4    1  0.3555026E+003  0.2417820E+02  0.7546771E-02  0.1478211E+00
          2   -1    0    0  502    0  0.00000000000E+00  0.00000000000E+00  0.21545167606E+01  0.21545167606E+01  0.00000000000E+00 0. -1.
          1   -1    0    0  501    0 -0.00000000000E+00 -0.00000000000E+00 -0.11376866765E+04  0.11376866765E+04  0.00000000000E+00 0.  1.
          2    1    1    2  501    0 -0.24090008241E+02  0.20632140726E+01 -0.70428424216E+02  0.74463066596E+02  0.00000000000E+00 0. -1.
          1    1    1    2  502    0  0.24090008241E+02 -0.20632140726E+01 -0.10651037355E+04  0.10653781266E+04  0.00000000000E+00 0.  1.
</event>
<event>
 4    1  0.3555026E+003  0.2894077E+02  0.7546771E-02  0.1429030E+00
          2   -1    0    0  502    0  0.00000000000E+00  0.00000000000E+00  0.20701673284E+03  0.20701673284E+03  0.00000000000E+00 0.  1.
          1   -1    0    0  501    0 -0.00000000000E+00 -0.00000000000E+00 -0.12161764624E+02  0.12161764624E+02  0.00000000000E+00 0. -1.
          2    1    1    2  501    0  0.50589985799E+00 -0.28936347696E+02  0.18695100603E+03  0.18917781796E+03  0.00000000000E+00 0.  1.
          1    1    1    2  502    0 -0.50589985799E+00  0.28936347696E+02  0.79039621899E+01  0.30000679508E+02  0.00000000000E+00 0. -1.
</event>
<event>
 4    1  0.3555026E+003  0.2270043E+02  0.7546771E-02  0.1496295E+00
          2   -1    0    0  502    0  0.00000000000E+00  0.00000000000E+00  0.14669561966E+01  0.14669561966E+01  0.00000000000E+00 0. -1.
          1   -1    0    0  501    0 -0.00000000000E+00 -0.00000000000E+00 -0.51741446494E+03  0.51741446494E+03  0.00000000000E+00 0. -1.
          2    1    1    2  501    0  0.22654958163E+02  0.14361052976E+01 -0.11096227577E+03  0.11326047930E+03  0.00000000000E+00 0. -1.
          1    1    1    2  502    0 -0.22654958163E+02 -0.14361052976E+01 -0.40498523297E+03  0.40562094183E+03  0.00000000000E+00 0. -1.
</event>
<event>
 4    1  0.3555026E+003  0.2773135E+02  0.7546771E-02  0.1440397E+00
          2   -1    0    0  502    0  0.00000000000E+00  0.00000000000E+00  0.13048127702E+04  0.13048127702E+04  0.00000000000E+00 0. -1.
          1   -1    0    0  501    0 -0.00000000000E+00 -0.00000000000E+00 -0.20784334817E+02  0.20784334817E+02  0.00000000000E+00 0. -1.
          2    1    1    2  501    0 -0.21553323002E+02  0.17449414728E+02  0.12953477545E+04  0.12956445627E+04  0.00000000000E+00 0. -1.
          1    1    1    2  502    0  0.21553323002E+02 -0.17449414728E+02 -0.11319319095E+02  0.29952542323E+02  0.00000000000E+00 0. -1.
</event>
<event>
 4    1  0.3555026E+003  0.4245304E+02  0.7546771E-02  0.1334681E+00
          2   -1    0    0  502    0  0.00000000000E+00  0.00000000000E+00  0.31494432055E+02  0.31494432055E+02  0.00000000000E+00 0. -1.
          1   -1    0    0  501    0 -0.00000000000E+00 -0.00000000000E+00 -0.23039354723E+03  0.23039354723E+03  0.00000000000E+00 0. -1.
          2    1    1    2  501    0  0.31199253071E+02  0.28790060509E+02  0.14073801865E+02  0.44725081053E+02  0.00000000000E+00 0. -1.
          1    1    1    2  502    0 -0.31199253071E+02 -0.28790060509E+02 -0.21297291704E+03  0.21716289823E+03  0.00000000000E+00 0. -1.
</event>
<event>
 4    1  0.3555026E+003  0.2166433E+02  0.7546771E-02  0.1509988E+00
          2   -1    0    0  502    0  0.00000000000E+00  0.00000000000E+00  0.44014908675E+02  0.44014908675E+02  0.00000000000E+00 0.  1.
          1   -1    0    0  501    0 -0.00000000000E+00 -0.00000000000E+00 -0.19488830279E+03  0.19488830279E+03  0.00000000000E+00 0. -1.
          2    1    1    2  501    0  0.21641773698E+02 -0.98843121134E+00  0.40701054287E+02  0.46107691171E+02  0.00000000000E+00 0.  1.
          1    1    1    2  502    0 -0.21641773698E+02  0.98843121134E+00 -0.19157444840E+03  0.19279552030E+03  0.00000000000E+00 0. -1.
</event>
<event>
 4    1  0.3555026E+003  0.2150065E+02  0.7546771E-02  0.1512236E+00
          2   -1    0    0  502    0  0.00000000000E+00  0.00000000000E+00  0.31121249853E+02  0.31121249853E+02  0.00000000000E+00 0. -1.
          1   -1    0    0  501    0 -0.00000000000E+00 -0.00000000000E+00 -0.15195537034E+02  0.15195537034E+02  0.00000000000E+00 0. -1.
          2    1    1    2  501    0  0.21382306684E+02 -0.22527267332E+01  0.11434320472E+02  0.24352032801E+02  0.00000000000E+00 0. -1.
          1    1    1    2  502    0 -0.21382306684E+02  0.22527267332E+01  0.44913923466E+01  0.21964754087E+02  0.00000000000E+00 0. -1.
</event>
<event>
 4    1  0.3555026E+003  0.6487774E+02  0.7546771E-02  0.1244103E+00
          2   -1    0    0  502    0  0.00000000000E+00  0.00000000000E+00  0.36370507492E+03  0.36370507492E+03  0.00000000000E+00 0.  1.
          1   -1    0    0  501    0 -0.00000000000E+00 -0.00000000000E+00 -0.17578146327E+02  0.17578146327E+02  0.00000000000E+00 0. -1.
          2    1    1    2  501    0  0.74709806641E+01  0.64446144203E+02  0.28449207449E+03  0.29179592441E+03  0.00000000000E+00 0.  1.
          1    1    1    2  502    0 -0.74709806641E+01 -0.64446144203E+02  0.61634854102E+02  0.89487296836E+02  0.00000000000E+00 0. -1.
</event>
<event>
 4    1  0.3555026E+003  0.2505540E+02  0.7546771E-02  0.1468185E+00
          2   -1    0    0  502    0  0.00000000000E+00  0.00000000000E+00  0.10117612826E+03  0.10117612826E+03  0.00000000000E+00 0. -1.
          1   -1    0    0  501    0 -0.00000000000E+00 -0.00000000000E+00 -0.45237561617E+02  0.45237561617E+02  0.00000000000E+00 0.  1.
          2    1    1    2  501    0  0.24427779980E+02 -0.55728599534E+01  0.95970546461E+02  0.99187292486E+02  0.00000000000E+00 0. -1.
          1    1    1    2  502    0 -0.24427779980E+02  0.55728599534E+01 -0.40031979816E+02  0.47226397393E+02  0.00000000000E+00 0.  1.
</event>
<event>
 4    1  0.3555026E+003  0.2488276E+02  0.7546771E-02  0.1470119E+00
          2   -1    0    0  502    0  0.00000000000E+00  0.00000000000E+00  0.74025511326E+00  0.74025511326E+00  0.00000000000E+00 0.  1.
          1   -1    0    0  501    0 -0.00000000000E+00 -0.00000000000E+00 -0.18080800835E+04  0.18080800835E+04  0.00000000000E+00 0.  1.
          2    1    1    2  501    0  0.11941484340E+02  0.21830089752E+02 -0.24066384404E+03  0.24194676624E+03  0.00000000000E+00 0.  1.
          1    1    1    2  502    0 -0.11941484340E+02 -0.21830089752E+02 -0.15666759843E+04  0.15668735723E+04  0.00000000000E+00 0.  1.
</event>
<event>
 4    1  0.3555026E+003  0.2700132E+02  0.7546771E-02  0.1447595E+00
          2   -1    0    0  502    0  0.00000000000E+00  0.00000000000E+00  0.68216037892E+02  0.68216037892E+02  0.00000000000E+00 0. -1.
          1   -1    0    0  501    0 -0.00000000000E+00 -0.00000000000E+00 -0.17666017717E+02  0.17666017717E+02  0.00000000000E+00 0. -1.
          2    1    1    2  501    0  0.54897125010E+01 -0.26437367833E+02  0.52263526717E+02  0.58826419117E+02  0.00000000000E+00 0. -1.
          1    1    1    2  502    0 -0.54897125010E+01  0.26437367833E+02 -0.17135065417E+01  0.27055636491E+02  0.00000000000E+00 0. -1.
</event>
<event>
 4    1  0.3555026E+003  0.2223702E+02  0.7546771E-02  0.1502308E+00
          2   -1    0    0  502    0  0.00000000000E+00  0.00000000000E+00  0.17390910385E+04  0.17390910385E+04  0.00000000000E+00 0. -1.
          1   -1    0    0  501    0 -0.00000000000E+00 -0.00000000000E+00 -0.13665041679E+01  0.13665041679E+01  0.00000000000E+00 0.  1.
          2    1    1    2  501    0  0.90097043387E+01 -0.20330034439E+02  0.16432803117E+04  0.16434307615E+04  0.00000000000E+00 0. -1.
          1    1    1    2  502    0 -0.90097043387E+01  0.20330034439E+02  0.94444222681E+02  0.97026781202E+02  0.00000000000E+00 0.  1.
</event>
<event>
 4    1  0.3555026E+003  0.3204666E+02  0.7546771E-02  0.1402607E+00
          2   -1    0    0  502    0  0.00000000000E+00  0.00000000000E+00  0.45570671964E+03  0.45570671964E+03  0.00000000000E+00 0. -1.
          1   -1    0    0  501    0 -0.00000000000E+00 -0.00000000000E+00 -0.22546511025E+01  0.22546511025E+01  0.00000000000E+00 0.  1.
          2    1    1    2  501    0 -0.25275159770E+02 -0.19701644482E+02  0.23162947810E+03  0.23383584760E+03  0.00000000000E+00 0. -1.
          1    1    1    2  502    0  0.25275159770E+02  0.19701644482E+02  0.22182259043E+03  0.22412552314E+03  0.00000000000E+00 0.  1.
</event>
<event>
 4    1  0.3555026E+003  0.2305530E+02  0.7546771E-02  0.1491805E+00
          2   -1    0    0  502    0  0.00000000000E+00  0.00000000000E+00  0.96550827562E+01  0.96550827562E+01  0.00000000000E+00 0.  1.
          1   -1    0    0  501    0 -0.00000000000E+00 -0.00000000000E+00 -0.20798084973E+03  0.20798084973E+03  0.00000000000E+00 0. -1.
          2    1    1    2  501    0  0.22710355402E+02  0.39732342355E+01 -0.58521928490E+01  0.23786445592E+02  0.00000000000E+00 0.  1.
          1    1    1    2  502    0 -0.22710355402E+02 -0.39732342355E+01 -0.19247357413E+03  0.19384948690E+03  0.00000000000E+00 0. -1.
</event>
<event>
 4    1  0.3555026E+003  0.2334742E+02  0.7546771E-02  0.1488181E+00
          2   -1    0    0  502    0  0.00000000000E+00  0.00000000000E+00  0.20713180765E+03  0.20713180765E+03  0.00000000000E+00 0. -1.
          1   -1    0    0  501    0 -0.00000000000E+00 -0.00000000000E+00 -0.68284570838E+01  0.68284570838E+01  0.00000000000E+00 0. -1.
          2    1    1    2  501    0 -0.17673435119E+02 -0.15256195308E+02  0.18402048838E+03  0.18549566558E+03  0.00000000000E+00 0. -1.
          1    1    1    2  502    0  0.17673435119E+02  0.15256195308E+02  0.16282862186E+02  0.28464599157E+02  0.00000000000E+00 0. -1.
</event>
<event>
 4    1  0.3555026E+003  0.3915216E+02  0.7546771E-02  0.1353527E+00
          2   -1    0    0  502    0  0.00000000000E+00  0.00000000000E+00  0.15067020489E+03  0.15067020489E+03  0.00000000000E+00 0.  1.
          1   -1    0    0  501    0 -0.00000000000E+00 -0.00000000000E+00 -0.61676540353E+02  0.61676540353E+02  0.00000000000E+00 0.  1.
          2    1    1    2  501    0  0.57980460308E+01  0.38720463902E+02  0.14151893704E+03  0.14683494544E+03  0.00000000000E+00 0.  1.
          1    1    1    2  502    0 -0.57980460308E+01 -0.38720463902E+02 -0.52525272498E+02  0.65511799804E+02  0.00000000000E+00 0.  1.
</event>
<event>
 4    1  0.3555026E+003  0.2898430E+02  0.7546771E-02  0.1428633E+00
          2   -1    0    0  502    0  0.00000000000E+00  0.00000000000E+00  0.36553706185E+01  0.36553706185E+01  0.00000000000E+00 0.  1.
          1   -1    0    0  501    0 -0.00000000000E+00 -0.00000000000E+00 -0.10929545304E+04  0.10929545304E+04  0.00000000000E+00 0. -1.
          2    1    1    2  501    0 -0.27085663211E+02 -0.10317777774E+02 -0.57390982241E+02  0.64294747316E+02  0.00000000000E+00 0.  1.
          1    1    1    2  502    0  0.27085663211E+02  0.10317777774E+02 -0.10319081775E+04  0.10323151537E+04  0.00000000000E+00 0. -1.
</event>
<event>
 4    1  0.3555026E+003  0.2272867E+02  0.7546771E-02  0.1495934E+00
          2   -1    0    0  502    0  0.00000000000E+00  0.00000000000E+00  0.19727302030E+03  0.19727302030E+03  0.00000000000E+00 0.  1.
          1   -1    0    0  501    0 -0.00000000000E+00 -0.00000000000E+00 -0.85468797915E+01  0.85468797915E+01  0.00000000000E+00 0.  1.
          2    1    1    2  501    0 -0.13977566762E+02 -0.17922608355E+02  0.18006990915E+03  0.18149866238E+03  0.00000000000E+00 0.  1.
          1    1    1    2  502    0  0.13977566762E+02  0.17922608355E+02  0.86562313616E+01  0.24321237719E+02  0.00000000000E+00 0.  1.
</event>
<event>
 4    1  0.3555026E+003  0.3065729E+02  0.7546771E-02  0.1413969E+00
          2   -1    0    0  502    0  0.00000000000E+00  0.00000000000E+00  0.34945311728E+03  0.34945311728E+03  0.00000000000E+00 0.  1.
          1   -1    0    0  501    0 -0.00000000000E+00 -0.00000000000E+00 -0.84551519516E+02  0.84551519516E+02  0.00000000000E+00 0.  1.
          2    1    1    2  501    0 -0.25819784537E+02  0.16529007410E+02  0.34597385515E+03  0.34732949458E+03  0.00000000000E+00 0.  1.
          1    1    1    2  502    0  0.25819784537E+02 -0.16529007410E+02 -0.81072257387E+02  0.86675142211E+02  0.00000000000E+00 0.  1.
</event>
<event>
 4    1  0.3555026E+003  0.2327167E+02  0.7546771E-02  0.1489115E+00
          2   -1    0    0  502    0  0.00000000000E+00  0.00000000000E+00  0.10742658768E+01  0.10742658768E+01  0.00000000000E+00 0. -1.
          1   -1    0    0  501    0 -0.00000000000E+00 -0.00000000000E+00 -0.12313671297E+04  0.12313671297E+04  0.00000000000E+00 0. -1.
          2    1    1    2  501    0 -0.17486360681E+02  0.15355711564E+02 -0.14158073246E+03  0.14348057183E+03  0.00000000000E+00 0. -1.
          1    1    1    2  502    0  0.17486360681E+02 -0.15355711564E+02 -0.10887121313E+04  0.10889608237E+04  0.00000000000E+00 0. -1.
</event>
<event>
 4    1  0.3555026E+003  0.2588971E+02  0.7546771E-02  0.1459092E+00
          2   -1    0    0  502    0  0.00000000000E+00  0.00000000000E+00  0.32654662212E+03  0.32654662212E+03  0.00000000000E+00 0. -1.
          1   -1    0    0  501    0 -0.00000000000E+00 -0.00000000000E+00 -0.13654422416E+03  0.13654422416E+03  0.00000000000E+00 0. -1.
          2    1    1    2  501    0  0.25584649913E+02  0.39626483173E+01  0.32479966054E+03  0.32582985803E+03  0.00000000000E+00 0. -1.
          1    1    1    2  502    0 -0.25584649913E+02 -0.39626483173E+01 -0.13479726259E+03  0.13726098825E+03  0.00000000000E+00 0. -1.
</event>
<event>
 4    1  0.3555026E+003  0.2444497E+02  0.7546771E-02  0.1475109E+00
          2   -1    0    0  502    0  0.00000000000E+00  0.00000000000E+00  0.12684900077E+01  0.12684900077E+01  0.00000000000E+00 0. -1.
          1   -1    0    0  501    0 -0.00000000000E+00 -0.00000000000E+00 -0.11621891426E+04  0.11621891426E+04  0.00000000000E+00 0. -1.
          2    1    1    2  501    0  0.10298129212E+02  0.22169914310E+02 -0.13186328199E+03  0.13410996124E+03  0.00000000000E+00 0. -1.
          1    1    1    2  502    0 -0.10298129212E+02 -0.22169914310E+02 -0.10290573706E+04  0.10293476713E+04  0.00000000000E+00 0. -1.
</event>
<event>
 4    1  0.3555026E+003  0.2615986E+02  0.7546771E-02  0.1456235E+00
          2   -1    0    0  502    0  0.00000000000E+00  0.00000000000E+00  0.32618677770E+03  0.32618677770E+03  0.00000000000E+00 0.  1.
          1   -1    0    0  501    0 -0.00000000000E+00 -0.00000000000E+00 -0.36277089025E+01  0.36277089025E+01  0.00000000000E+00 0. -1.
          2    1    1    2  501    0 -0.23076559837E+02 -0.12321151569E+02  0.26836451272E+03  0.26963651473E+03  0.00000000000E+00 0.  1.
          1    1    1    2  502    0  0.23076559837E+02  0.12321151569E+02  0.54194556080E+02  0.60177971872E+02  0.00000000000E+00 0. -1.
</event>
<event>
 4    1  0.3555026E+003  0.2048425E+02  0.7546771E-02  0.1526757E+00
          2   -1    0    0  502    0  0.00000000000E+00  0.00000000000E+00  0.22405273854E+03  0.22405273854E+03  0.00000000000E+00 0. -1.
          1   -1    0    0  501    0 -0.00000000000E+00 -0.00000000000E+00 -0.23077421043E+02  0.23077421043E+02  0.00000000000E+00 0. -1.
          2    1    1    2  501    0  0.20216599142E+02 -0.33005468360E+01  0.21893285241E+03  0.21988905919E+03  0.00000000000E+00 0. -1.
          1    1    1    2  502    0 -0.20216599142E+02  0.33005468360E+01 -0.17957534910E+02  0.27241100388E+02  0.00000000000E+00 0. -1.
</event>
<event>
 4    1  0.3555026E+003  0.2053379E+02  0.7546771E-02  0.1526026E+00
          2   -1    0    0  502    0  0.00000000000E+00  0.00000000000E+00  0.61243707029E+03  0.61243707029E+03  0.00000000000E+00 0. -1.
          1   -1    0    0  501    0 -0.00000000000E+00 -0.00000000000E+00 -0.77718924132E+01  0.77718924132E+01  0.00000000000E+00 0.  1.
          2    1    1    2  501    0  0.20136330976E+02 -0.40205423268E+01  0.59838364977E+03  0.59873585904E+03  0.00000000000E+00 0. -1.
          1    1    1    2  502    0 -0.20136330976E+02  0.40205423268E+01  0.62815281102E+01  0.21473103669E+02  0.00000000000E+00 0.  1.
</event>
<event>
 4    1  0.3555026E+003  0.4303010E+02  0.7546771E-02  0.1331589E+00
          2   -1    0    0  502    0  0.00000000000E+00  0.00000000000E+00  0.27063898727E+02  0.27063898727E+02  0.00000000000E+00 0.  1.
          1   -1    0    0  501    0 -0.00000000000E+00 -0.00000000000E+00 -0.14013325845E+03  0.14013325845E+03  0.00000000000E+00 0.  1.
          2    1    1    2  501    0 -0.27945937929E+02 -0.32720235845E+02  0.32709041011E+01  0.43154236109E+02  0.00000000000E+00 0.  1.
          1    1    1    2  502    0  0.27945937929E+02  0.32720235845E+02 -0.11634026383E+03  0.12404292107E+03  0.00000000000E+00 0.  1.
</event>
<event>
 4    1  0.3555026E+003  0.3307844E+02  0.7546771E-02  0.1394600E+00
          2   -1    0    0  502    0  0.00000000000E+00  0.00000000000E+00  0.60515883169E+03  0.60515883169E+03  0.00000000000E+00 0.  1.
          1   -1    0    0  501    0 -0.00000000000E+00 -0.00000000000E+00 -0.20204135318E+02  0.20204135318E+02  0.00000000000E+00 0. -1.
          2    1    1    2  501    0 -0.22198736137E+02  0.24523448583E+02  0.59083984310E+03  0.59176507468E+03  0.00000000000E+00 0.  1.
          1    1    1    2  502    0  0.22198736137E+02 -0.24523448583E+02 -0.58851467322E+01  0.33597892323E+02  0.00000000000E+00 0. -1.
</event>
<event>
 4    1  0.3555026E+003  0.2518071E+02  0.7546771E-02  0.1466792E+00
          2   -1    0    0  502    0  0.00000000000E+00  0.00000000000E+00  0.15088448710E+01  0.15088448710E+01  0.00000000000E+00 0.  1.
          1   -1    0    0  501    0 -0.00000000000E+00 -0.00000000000E+00 -0.76695880314E+03  0.76695880314E+03  0.00000000000E+00 0.  1.
          2    1    1    2  501    0  0.19047311000E+02  0.16470219357E+02 -0.12437887352E+03  0.12690221574E+03  0.00000000000E+00 0.  1.
          1    1    1    2  502    0 -0.19047311000E+02 -0.16470219357E+02 -0.64107108474E+03  0.64156543226E+03  0.00000000000E+00 0.  1.
</event>
<event>
 4    1  0.3555026E+003  0.2324387E+02  0.7546771E-02  0.1489458E+00
          2   -1    0    0  502    0  0.00000000000E+00  0.00000000000E+00  0.22599428213E+01  0.22599428213E+01  0.00000000000E+00 0.  1.
          1   -1    0    0  501    0 -0.00000000000E+00 -0.00000000000E+00 -0.78458698476E+03  0.78458698476E+03  0.00000000000E+00 0. -1.
          2    1    1    2  501    0  0.50356751908E+01  0.22691838691E+02 -0.63109720955E+02  0.67254103568E+02  0.00000000000E+00 0.  1.
          1    1    1    2  502    0 -0.50356751908E+01 -0.22691838691E+02 -0.71921732098E+03  0.71959282401E+03  0.00000000000E+00 0. -1.
</event>
<event>
 4    1  0.3555026E+003  0.2139936E+02  0.7546771E-02  0.1513639E+00
          2   -1    0    0  502    0  0.00000000000E+00  0.00000000000E+00  0.14513000123E+04  0.14513000123E+04  0.00000000000E+00 0. -1.
          1   -1    0    0  501    0 -0.00000000000E+00 -0.00000000000E+00 -0.40235858201E+00  0.40235858201E+00  0.00000000000E+00 0. -1.
          2    1    1    2  501    0  0.19304954810E+02 -0.92331484867E+01  0.38826551259E+03  0.38885478083E+03  0.00000000000E+00 0. -1.
          1    1    1    2  502    0 -0.19304954810E+02  0.92331484867E+01  0.10626321412E+04  0.10628475901E+04  0.00000000000E+00 0. -1.
</event>
<event>
 4    1  0.3555026E+003  0.3165008E+02  0.7546771E-02  0.1405779E+00
          2   -1    0    0  502    0  0.00000000000E+00  0.00000000000E+00  0.48647888120E+02  0.48647888120E+02  0.00000000000E+00 0.  1.
          1   -1    0    0  501    0 -0.00000000000E+00 -0.00000000000E+00 -0.78047055990E+02  0.78047055990E+02  0.00000000000E+00 0.  1.
          2    1    1    2  501    0 -0.31614831538E+02 -0.14933423573E+01  0.39652657252E+02  0.50735203476E+02  0.00000000000E+00 0.  1.
          1    1    1    2  502    0  0.31614831538E+02  0.14933423573E+01 -0.69051825122E+02  0.75959740634E+02  0.00000000000E+00 0.  1.
</event>
<event>
 4    1  0.3555026E+003  0.5793986E+02  0.7546771E-02  0.1266998E+00
          2   -1    0    0  502    0  0.00000000000E+00  0.00000000000E+00  0.26338909440E+03  0.26338909440E+03  0.00000000000E+00 0.  1.
          1   -1    0    0  501    0 -0.00000000000E+00 -0.00000000000E+00 -0.12804110139E+02  0.12804110139E+02  0.00000000000E+00 0.  1.
          2    1    1    2  501    0 -0.48046478912E+02  0.32381517392E+02  0.13463533772E+03  0.14657319321E+03  0.00000000000E+00 0.  1.
          1    1    1    2  502    0  0.48046478912E+02 -0.32381517392E+02  0.11594964654E+03  0.12962001133E+03  0.00000000000E+00 0.  1.
</event>
<event>
 4    1  0.3555026E+003  0.3202589E+02  0.7546771E-02  0.1402772E+00
          2   -1    0    0  502    0  0.00000000000E+00  0.00000000000E+00  0.73073319927E+01  0.73073319927E+01  0.00000000000E+00 0.  1.
          1   -1    0    0  501    0 -0.00000000000E+00 -0.00000000000E+00 -0.10880383048E+04  0.10880383048E+04  0.00000000000E+00 0.  1.
          2    1    1    2  501    0 -0.35868280845E+01  0.31824395155E+02 -0.29237627394E+02  0.43364689764E+02  0.00000000000E+00 0.  1.
          1    1    1    2  502    0  0.35868280845E+01 -0.31824395155E+02 -0.10514933455E+04  0.10519809471E+04  0.00000000000E+00 0.  1.
</event>
<event>
 4    1  0.3555026E+003  0.2036577E+02  0.7546771E-02  0.1528516E+00
          2   -1    0    0  502    0  0.00000000000E+00  0.00000000000E+00  0.33582991410E+03  0.33582991410E+03  0.00000000000E+00 0.  1.
          1   -1    0    0  501    0 -0.00000000000E+00 -0.00000000000E+00 -0.40769251000E+01  0.40769251000E+01  0.00000000000E+00 0.  1.
          2    1    1    2  501    0 -0.14601775696E+02  0.14196923465E+02  0.30777131580E+03  0.30844439907E+03  0.00000000000E+00 0.  1.
          1    1    1    2  502    0  0.14601775696E+02 -0.14196923465E+02  0.23981673198E+02  0.31462440126E+02  0.00000000000E+00 0.  1.
</event>
<event>
 4    1  0.3555026E+003  0.2673953E+02  0.7546771E-02  0.1450242E+00
          2   -1    0    0  502    0  0.00000000000E+00  0.00000000000E+00  0.26562388809E+02  0.26562388809E+02  0.00000000000E+00 0. -1.
          1   -1    0    0  501    0 -0.00000000000E+00 -0.00000000000E+00 -0.40080756791E+02  0.40080756791E+02  0.00000000000E+00 0. -1.
          2    1    1    2  501    0 -0.26357896386E+02 -0.45015330249E+01  0.12336418879E+02  0.29448085375E+02  0.00000000000E+00 0. -1.
          1    1    1    2  502    0  0.26357896386E+02  0.45015330249E+01 -0.25854786861E+02  0.37195060224E+02  0.00000000000E+00 0. -1.
</event>
<event>
 4    1  0.3555026E+003  0.5133167E+02  0.7546771E-02  0.1292500E+00
          2   -1    0    0  502    0  0.00000000000E+00  0.00000000000E+00  0.25544035826E+04  0.25544035826E+04  0.00000000000E+00 0.  1.
          1   -1    0    0  501    0 -0.00000000000E+00 -0.00000000000E+00 -0.65721998087E+01  0.65721998087E+01  0.00000000000E+00 0.  1.
          2    1    1    2  501    0  0.21501945126E+02 -0.46611233769E+02  0.24496285828E+04  0.24501663483E+04  0.00000000000E+00 0.  1.
          1    1    1    2  502    0 -0.21501945126E+02  0.46611233769E+02  0.98202800001E+02  0.11080943410E+03  0.00000000000E+00 0.  1.
</event>
<event>
 4    1  0.3555026E+003  0.2569537E+02  0.7546771E-02  0.1461173E+00
          2   -1    0    0  502    0  0.00000000000E+00  0.00000000000E+00  0.47646835941E+03  0.47646835941E+03  0.00000000000E+00 0.  1.
          1   -1    0    0  501    0 -0.00000000000E+00 -0.00000000000E+00 -0.39285187196E+01  0.39285187196E+01  0.00000000000E+00 0. -1.
          2    1    1    2  501    0 -0.63839869597E+00 -0.25687441353E+02  0.42951643807E+03  0.43028435106E+03  0.00000000000E+00 0.  1.
          1    1    1    2  502    0  0.63839869597E+00  0.25687441353E+02  0.43023402622E+02  0.50112527070E+02  0.00000000000E+00 0. -1.
</event>
<event>
 4    1  0.3555026E+003  0.2538108E+02  0.7546771E-02  0.1464585E+00
          2   -1    0    0  502    0  0.00000000000E+00  0.00000000000E+00  0.17304935745E+03  0.17304935745E+03  0.00000000000E+00 0. -1.
          1   -1    0    0  501    0 -0.00000000000E+00 -0.00000000000E+00 -0.62643602157E+02  0.62643602157E+02  0.00000000000E+00 0. -1.
          2    1    1    2  501    0 -0.22233342957E+02 -0.12242450364E+02  0.16949418387E+03  0.17138400595E+03  0.00000000000E+00 0. -1.
          1    1    1    2  502    0  0.22233342957E+02  0.12242450364E+02 -0.59088428572E+02  0.64308953662E+02  0.00000000000E+00 0. -1.
</event>
<event>
 4    1  0.3555026E+003  0.2495057E+02  0.7546771E-02  0.1469357E+00
          2   -1    0    0  502    0  0.00000000000E+00  0.00000000000E+00  0.55137434179E+00  0.55137434179E+00  0.00000000000E+00 0. -1.
          1   -1    0    0  501    0 -0.00000000000E+00 -0.00000000000E+00 -0.18795157284E+04  0.18795157284E+04  0.00000000000E+00 0.  1.
          2    1    1    2  501    0  0.16708495757E+02  0.18529897550E+02 -0.34548429710E+03  0.34638407942E+03  0.00000000000E+00 0. -1.
          1    1    1    2  502    0 -0.16708495757E+02 -0.18529897550E+02 -0.15334800569E+04  0.15336830233E+04  0.00000000000E+00 0.  1.
</event>
<event>
 4    1  0.3555026E+003  0.2660748E+02  0.7546771E-02  0.1451591E+00
          2   -1    0    0  502    0  0.00000000000E+00  0.00000000000E+00  0.16289088606E+03  0.16289088606E+03  0.00000000000E+00 0. -1.
          1   -1    0    0  501    0 -0.00000000000E+00 -0.00000000000E+00 -0.61915851256E+02  0.61915851256E+02  0.00000000000E+00 0. -1.
          2    1    1    2  501    0 -0.12724229517E+02 -0.23367755166E+02  0.15887401043E+03  0.16108665118E+03  0.00000000000E+00 0. -1.
          1    1    1    2  502    0  0.12724229517E+02  0.23367755166E+02 -0.57898975628E+02  0.63720086135E+02  0.00000000000E+00 0. -1.
</event>
<event>
 4    1  0.3555026E+003  0.2286165E+02  0.7546771E-02  0.1494243E+00
          2   -1    0    0  502    0  0.00000000000E+00  0.00000000000E+00  0.74941464526E+00  0.74941464526E+00  0.00000000000E+00 0.  1.
          1   -1    0    0  501    0 -0.00000000000E+00 -0.00000000000E+00 -0.82675808672E+03  0.82675808672E+03  0.00000000000E+00 0.  1.
          2    1    1    2  501    0  0.18504972247E+02 -0.13424645188E+02 -0.24935295845E+03  0.25039878791E+03  0.00000000000E+00 0.  1.
          1    1    1    2  502    0 -0.18504972247E+02  0.13424645188E+02 -0.57665571362E+03  0.57710871346E+03  0.00000000000E+00 0.  1.
</event>
<event>
 4    1  0.3555026E+003  0.2559180E+02  0.7546771E-02  0.1462291E+00
          2   -1    0    0  502    0  0.00000000000E+00  0.00000000000E+00  0.11527813557E+03  0.11527813557E+03  0.00000000000E+00 0.  1.
          1   -1    0    0  501    0 -0.00000000000E+00 -0.00000000000E+00 -0.15771182262E+02  0.15771182262E+02  0.00000000000E+00 0.  1.
          2    1    1    2  501    0 -0.15208067507E+02 -0.20582883389E+02  0.10216341982E+03  0.10532001119E+03  0.00000000000E+00 0.  1.
          1    1    1    2  502    0  0.15208067507E+02  0.20582883389E+02 -0.26564665216E+01  0.25729306642E+02  0.00000000000E+00 0.  1.
</event>
<event>
 4    1  0.3555026E+003  0.3651361E+02  0.7546771E-02  0.1370223E+00
          2   -1    0    0  502    0  0.00000000000E+00  0.00000000000E+00  0.11045692981E+03  0.11045692981E+03  0.00000000000E+00 0. -1.
          1   -1    0    0  501    0 -0.00000000000E+00 -0.00000000000E+00 -0.56544269935E+02  0.56544269935E+02  0.00000000000E+00 0. -1.
          2    1    1    2  501    0 -0.25362370636E+02  0.26267736619E+02  0.10101031611E+03  0.10740729860E+03  0.00000000000E+00 0. -1.
          1    1    1    2  502    0  0.25362370636E+02 -0.26267736619E+02 -0.47097656234E+02  0.59593901149E+02  0.00000000000E+00 0. -1.
</event>
<event>
 4    1  0.3555026E+003  0.4611174E+02  0.7546771E-02  0.1315972E+00
          2   -1    0    0  502    0  0.00000000000E+00  0.00000000000E+00  0.11941440727E+04  0.11941440727E+04  0.00000000000E+00 0.  1.
          1   -1    0    0  501    0 -0.00000000000E+00 -0.00000000000E+00 -0.55850330699E+01  0.55850330699E+01  0.00000000000E+00 0.  1.
          2    1    1    2  501    0  0.16095428923E+02 -0.43211455087E+02  0.10893708384E+04  0.10903463286E+04  0.00000000000E+00 0.  1.
          1    1    1    2  502    0 -0.16095428923E+02  0.43211455087E+02  0.99188201208E+02  0.10938277717E+03  0.00000000000E+00 0.  1.
</event>
<event>
 4    1  0.3555026E+003  0.2154801E+02  0.7546771E-02  0.1511583E+00
          2   -1    0    0  502    0  0.00000000000E+00  0.00000000000E+00  0.40486971482E+03  0.40486971482E+03  0.00000000000E+00 0. -1.
          1   -1    0    0  501    0 -0.00000000000E+00 -0.00000000000E+00 -0.34081495022E+02  0.34081495022E+02  0.00000000000E+00 0.  1.
          2    1    1    2  501    0 -0.11527769146E+02  0.18205138703E+02  0.40114548111E+03  0.40172380257E+03  0.00000000000E+00 0. -1.
          1    1    1    2  502    0  0.11527769146E+02 -0.18205138703E+02 -0.30357261321E+02  0.37227407264E+02  0.00000000000E+00 0.  1.
</event>
<event>
 4    1  0.3555026E+003  0.2612596E+02  0.7546771E-02  0.1456591E+00
          2   -1    0    0  502    0  0.00000000000E+00  0.00000000000E+00  0.78534223648E+03  0.78534223648E+03  0.00000000000E+00 0.  1.
          1   -1    0    0  501    0 -0.00000000000E+00 -0.00000000000E+00 -0.18693760640E+03  0.18693760640E+03  0.00000000000E+00 0.  1.
          2    1    1    2  501    0 -0.11331176617E+02 -0.23540823700E+02  0.78421081101E+03  0.78464588322E+03  0.00000000000E+00 0.  1.
          1    1    1    2  502    0  0.11331176617E+02  0.23540823700E+02 -0.18580618093E+03  0.18763395966E+03  0.00000000000E+00 0.  1.
</event>
<event>
 4    1  0.3555026E+003  0.3149604E+02  0.7546771E-02  0.1407027E+00
          2   -1    0    0  502    0  0.00000000000E+00  0.00000000000E+00  0.91048159933E+01  0.91048159933E+01  0.00000000000E+00 0.  1.
          1   -1    0    0  501    0 -0.00000000000E+00 -0.00000000000E+00 -0.34289237362E+03  0.34289237362E+03  0.00000000000E+00 0.  1.
          2    1    1    2  501    0  0.30657415663E+02  0.72196676082E+01 -0.21521509607E+02  0.38146770654E+02  0.00000000000E+00 0.  1.
          1    1    1    2  502    0 -0.30657415663E+02 -0.72196676082E+01 -0.31226604802E+03  0.31385041896E+03  0.00000000000E+00 0.  1.
</event>
<event>
 4    1  0.3555026E+003  0.2443541E+02  0.7546771E-02  0.1475220E+00
          2   -1    0    0  502    0  0.00000000000E+00  0.00000000000E+00  0.76727057624E+01  0.76727057624E+01  0.00000000000E+00 0. -1.
          1   -1    0    0  501    0 -0.00000000000E+00 -0.00000000000E+00 -0.18556709192E+03  0.18556709192E+03  0.00000000000E+00 0.  1.
          2    1    1    2  501    0  0.21763134568E+02  0.11111034003E+02 -0.15323245120E+02  0.28842519721E+02  0.00000000000E+00 0. -1.
          1    1    1    2  502    0 -0.21763134568E+02 -0.11111034003E+02 -0.16257114104E+03  0.16439727796E+03  0.00000000000E+00 0.  1.
</event>
<event>
 4    1  0.3555026E+003  0.2013214E+02  0.7546771E-02  0.1532025E+00
          2   -1    0    0  502    0  0.00000000000E+00  0.00000000000E+00  0.36444660233E+03  0.36444660233E+03  0.00000000000E+00 0. -1.
          1   -1    0    0  501    0 -0.00000000000E+00 -0.00000000000E+00 -0.76770607210E+01  0.76770607210E+01  0.00000000000E+00 0. -1.
          2    1    1    2  501    0 -0.13941157406E+02  0.14524017246E+02  0.35044309917E+03  0.35102089497E+03  0.00000000000E+00 0. -1.
          1    1    1    2  502    0  0.13941157406E+02 -0.14524017246E+02  0.63264424344E+01  0.21102768081E+02  0.00000000000E+00 0. -1.
</event>
<event>
 4    1  0.3555026E+003  0.2663076E+02  0.7546771E-02  0.1451353E+00
          2   -1    0    0  502    0  0.00000000000E+00  0.00000000000E+00  0.30964934721E+02  0.30964934721E+02  0.00000000000E+00 0. -1.
          1   -1    0    0  501    0 -0.00000000000E+00 -0.00000000000E+00 -0.29154348347E+03  0.29154348347E+03  0.00000000000E+00 0.  1.
          2    1    1    2  501    0 -0.20208611795E+01  0.26553973098E+02  0.24501447458E+02  0.36187267025E+02  0.00000000000E+00 0. -1.
          1    1    1    2  502    0  0.20208611795E+01 -0.26553973098E+02 -0.28507999621E+03  0.28632115117E+03  0.00000000000E+00 0.  1.
</event>
<event>
 4    1  0.3555026E+003  0.4871745E+02  0.7546771E-02  0.1303831E+00
          2   -1    0    0  502    0  0.00000000000E+00  0.00000000000E+00  0.63756147989E+03  0.63756147989E+03  0.00000000000E+00 0. -1.
          1   -1    0    0  501    0 -0.00000000000E+00 -0.00000000000E+00 -0.28471885332E+02  0.28471885332E+02  0.00000000000E+00 0. -1.
          2    1    1    2  501    0  0.10123000107E+02  0.47654117646E+02  0.61502874931E+03  0.61695522733E+03  0.00000000000E+00 0. -1.
          1    1    1    2  502    0 -0.10123000107E+02 -0.47654117646E+02 -0.59391547455E+01  0.49078137891E+02  0.00000000000E+00 0. -1.
</event>
<event>
 4    1  0.3555026E+003  0.2603324E+02  0.7546771E-02  0.1457569E+00
          2   -1    0    0  502    0  0.00000000000E+00  0.00000000000E+00  0.76796424920E+00  0.76796424920E+00  0.00000000000E+00 0. -1.
          1   -1    0    0  501    0 -0.00000000000E+00 -0.00000000000E+00 -0.19038186439E+04  0.19038186439E+04  0.00000000000E+00 0.  1.
          2    1    1    2  501    0 -0.10015955072E+02 -0.24029365420E+02 -0.25403497828E+03  0.25536542434E+03  0.00000000000E+00 0. -1.
          1    1    1    2  502    0  0.10015955072E+02  0.24029365420E+02 -0.16490157014E+04  0.16492211838E+04  0.00000000000E+00 0.  1.
</event>
<event>
 4    1  0.3555026E+003  0.2222072E+02  0.7546771E-02  0.1502523E+00
          2   -1    0    0  502    0  0.00000000000E+00  0.00000000000E+00  0.19228448333E+03  0.19228448333E+03  0.00000000000E+00 0.  1.
          1   -1    0    0  501    0 -0.00000000000E+00 -0.00000000000E+00 -0.48494108180E+01  0.48494108180E+01  0.00000000000E+00 0.  1.
          2    1    1    2  501    0 -0.13414121434E+02  0.17715010462E+02  0.16132608055E+03  0.16284920790E+03  0.00000000000E+00 0.  1.
          1    1    1    2  502    0  0.13414121434E+02 -0.17715010462E+02  0.26108991959E+02  0.34284686240E+02  0.00000000000E+00 0.  1.
</event>
<event>
 4    1  0.3555026E+003  0.2681443E+02  0.7546771E-02  0.1449481E+00
          2   -1    0    0  502    0  0.00000000000E+00  0.00000000000E+00  0.22785395794E+03  0.22785395794E+03  0.00000000000E+00 0. -1.
          1   -1    0    0  501    0 -0.00000000000E+00 -0.00000000000E+00 -0.19793144093E+03  0.19793144093E+03  0.00000000000E+00 0. -1.
          2    1    1    2  501    0 -0.79093470203E+00 -0.26802764714E+02  0.22615008175E+03  0.22773421624E+03  0.00000000000E+00 0. -1.
          1    1    1    2  502    0  0.79093470203E+00  0.26802764714E+02 -0.19622756474E+03  0.19805118263E+03  0.00000000000E+00 0. -1.
</event>
<event>
 4    1  0.3555026E+003  0.2843758E+02  0.7546771E-02  0.1433678E+00
          2   -1    0    0  502    0  0.00000000000E+00  0.00000000000E+00  0.72674520722E+03  0.72674520722E+03  0.00000000000E+00 0. -1.
          1   -1    0    0  501    0 -0.00000000000E+00 -0.00000000000E+00 -0.84031606397E+01  0.84031606397E+01  0.00000000000E+00 0. -1.
          2    1    1    2  501    0 -0.58737003066E+01 -0.27824375229E+02  0.70154380758E+03  0.70211994002E+03  0.00000000000E+00 0. -1.
          1    1    1    2  502    0  0.58737003066E+01  0.27824375229E+02  0.16798238993E+02  0.33028427838E+02  0.00000000000E+00 0. -1.
</event>
<event>
 4    1  0.3555026E+003  0.2176458E+02  0.7546771E-02  0.1508623E+00
          2   -1    0    0  502    0  0.00000000000E+00  0.00000000000E+00  0.44067239762E+02  0.44067239762E+02  0.00000000000E+00 0. -1.
          1   -1    0    0  501    0 -0.00000000000E+00 -0.00000000000E+00 -0.24367347729E+03  0.24367347729E+03  0.00000000000E+00 0.  1.
          2    1    1    2  501    0  0.14321431102E+02  0.16388826295E+02  0.40858099338E+02  0.46293426074E+02  0.00000000000E+00 0. -1.
          1    1    1    2  502    0 -0.14321431102E+02 -0.16388826295E+02 -0.24046433687E+03  0.24144729098E+03  0.00000000000E+00 0.  1.
</event>
<event>
 4    1  0.3555026E+003  0.3272774E+02  0.7546771E-02  0.1397282E+00
          2   -1    0    0  502    0  0.00000000000E+00  0.00000000000E+00  0.28521179541E+03  0.28521179541E+03  0.00000000000E+00 0. -1.
          1   -1    0    0  501    0 -0.00000000000E+00 -0.00000000000E+00 -0.52841328716E+03  0.52841328716E+03  0.00000000000E+00 0. -1.
          2    1    1    2  501    0  0.10528140751E+02 -0.30988118359E+02  0.28376359399E+03  0.28564467875E+03  0.00000000000E+00 0. -1.
          1    1    1    2  502    0 -0.10528140751E+02  0.30988118359E+02 -0.52696508574E+03  0.52798040382E+03  0.00000000000E+00 0. -1.
</event>
<event>
 4    1  0.3555026E+003  0.2499121E+02  0.7546771E-02  0.1468902E+00
          2   -1    0    0  502    0  0.00000000000E+00  0.00000000000E+00  0.29484984105E+03  0.29484984105E+03  0.00000000000E+00 0.  1.
          1   -1    0    0  501    0 -0.00000000000E+00 -0.00000000000E+00 -0.54896712348E+02  0.54896712348E+02  0.00000000000E+00 0.  1.
          2    1    1    2  501    0  0.12317099954E+02 -0.21745102492E+02  0.29144284181E+03  0.29251237662E+03  0.00000000000E+00 0.  1.
          1    1    1    2  502    0 -0.12317099954E+02  0.21745102492E+02 -0.51489713116E+02  0.57234176769E+02  0.00000000000E+00 0.  1.
</event>
<event>
 4    1  0.3555026E+003  0.2553268E+02  0.7546771E-02  0.1462932E+00
          2   -1    0    0  502    0  0.00000000000E+00  0.00000000000E+00  0.12346398322E+04  0.12346398322E+04  0.00000000000E+00 0.  1.
          1   -1    0    0  501    0 -0.00000000000E+00 -0.00000000000E+00 -0.19330196260E+01  0.19330196260E+01  0.00000000000E+00 0.  1.
          2    1    1    2  501    0  0.22285727480E+02 -0.12460499284E+02  0.11434731556E+04  0.11437581804E+04  0.00000000000E+00 0.  1.
          1    1    1    2  502    0 -0.22285727480E+02  0.12460499284E+02  0.89233656946E+02  0.92814671381E+02  0.00000000000E+00 0.  1.
</event>
