<event>
 4    1  0.1322546E+002  0.2877651E+02  0.7546771E-02  0.1430535E+00
          2   -1    0    0  502    0  0.00000000000E+00  0.00000000000E+00  0.48975531241E+02  0.48975531241E+02  0.00000000000E+00 0.  1.
         -2   -1    0    0    0  501 -0.00000000000E+00 -0.00000000000E+00 -0.17110957864E+02  0.17110957864E+02  0.00000000000E+00 0. -1.
          1    1    1    2  502    0  0.91498801227E+01 -0.27283093927E+02  0.12335236033E+02  0.31308873638E+02  0.00000000000E+00 0. -1.
         -1    1    1    2    0  501 -0.91498801227E+01  0.27283093927E+02  0.19529337343E+02  0.34777615467E+02  0.00000000000E+00 0.  1.
</event>
<event>
 4    1  0.1322546E+002  0.4433088E+02  0.7546771E-02  0.1324819E+00
          2   -1    0    0  502    0  0.00000000000E+00  0.00000000000E+00  0.14396204881E+03  0.14396204881E+03  0.00000000000E+00 0.  1.
         -2   -1    0    0    0  501 -0.00000000000E+00 -0.00000000000E+00 -0.17759247399E+02  0.17759247399E+02  0.00000000000E+00 0. -1.
          1    1    1    2  502    0  0.42883253666E+02 -0.11236272368E+02  0.10199272612E+03  0.11121035673E+03  0.00000000000E+00 0.  1.
         -1    1    1    2    0  501 -0.42883253666E+02  0.11236272368E+02  0.24210075287E+02  0.50510939480E+02  0.00000000000E+00 0. -1.
</event>
<event>
 4    1  0.1322546E+002  0.3695138E+02  0.7546771E-02  0.1367340E+00
          2   -1    0    0  502    0  0.00000000000E+00  0.00000000000E+00  0.92440344500E+02  0.92440344500E+02  0.00000000000E+00 0. -1.
         -2   -1    0    0    0  501 -0.00000000000E+00 -0.00000000000E+00 -0.20269791570E+02  0.20269791570E+02  0.00000000000E+00 0.  1.
          1    1    1    2  502    0  0.27021203942E+02  0.25204339903E+02  0.65438492131E+02  0.75150518726E+02  0.00000000000E+00 0. -1.
         -1    1    1    2    0  501 -0.27021203942E+02 -0.25204339903E+02  0.67320607992E+01  0.37559617344E+02  0.00000000000E+00 0.  1.
</event>
<event>
 4    1  0.1322546E+002  0.2394555E+02  0.7546771E-02  0.1480954E+00
          2   -1    0    0  502    0  0.00000000000E+00  0.00000000000E+00  0.42287841949E+03  0.42287841949E+03  0.00000000000E+00 0.  1.
         -2   -1    0    0    0  501 -0.00000000000E+00 -0.00000000000E+00 -0.15010959118E+01  0.15010959118E+01  0.00000000000E+00 0. -1.
          1    1    1    2  502    0  0.23942664215E+02  0.37183172854E+00  0.14470034577E+03  0.14666826342E+03  0.00000000000E+00 0. -1.
         -1    1    1    2    0  501 -0.23942664215E+02 -0.37183172854E+00  0.27667697781E+03  0.27771125198E+03  0.00000000000E+00 0.  1.
</event>
<event>
 4    1  0.1322546E+002  0.2696611E+02  0.7546771E-02  0.1447949E+00
          2   -1    0    0  502    0  0.00000000000E+00  0.00000000000E+00  0.45482778819E+02  0.45482778819E+02  0.00000000000E+00 0.  1.
         -2   -1    0    0    0  501 -0.00000000000E+00 -0.00000000000E+00 -0.23055271286E+02  0.23055271286E+02  0.00000000000E+00 0. -1.
          1    1    1    2  502    0 -0.16686091803E+02 -0.21183608578E+02  0.30187266261E+02  0.40477672567E+02  0.00000000000E+00 0.  1.
         -1    1    1    2    0  501  0.16686091803E+02  0.21183608578E+02 -0.77597587281E+01  0.28060377538E+02  0.00000000000E+00 0. -1.
</event>
<event>
 4    1  0.1322546E+002  0.2337678E+02  0.7546771E-02  0.1487820E+00
          2   -1    0    0  502    0  0.00000000000E+00  0.00000000000E+00  0.13226128233E+04  0.13226128233E+04  0.00000000000E+00 0. -1.
         -2   -1    0    0    0  501 -0.00000000000E+00 -0.00000000000E+00 -0.53909674932E+00  0.53909674932E+00  0.00000000000E+00 0.  1.
          1    1    1    2  502    0 -0.14449344238E+02 -0.18376354879E+02  0.98077341107E+03  0.98105196489E+03  0.00000000000E+00 0. -1.
         -1    1    1    2    0  501  0.14449344238E+02  0.18376354879E+02  0.34130031545E+03  0.34209995512E+03  0.00000000000E+00 0.  1.
</event>
<event>
 4    1  0.1322546E+002  0.2662719E+02  0.7546771E-02  0.1451389E+00
          2   -1    0    0  502    0  0.00000000000E+00  0.00000000000E+00  0.40859404665E+03  0.40859404665E+03  0.00000000000E+00 0. -1.
         -2   -1    0    0    0  501 -0.00000000000E+00 -0.00000000000E+00 -0.17611018712E+01  0.17611018712E+01  0.00000000000E+00 0.  1.
          1    1    1    2  502    0  0.15472395798E+02 -0.21670534842E+02  0.22828218683E+03  0.22982985867E+03  0.00000000000E+00 0.  1.
         -1    1    1    2    0  501 -0.15472395798E+02  0.21670534842E+02  0.17855075795E+03  0.18052528985E+03  0.00000000000E+00 0. -1.
</event>
<event>
 4    1  0.1322546E+002  0.6479621E+02  0.7546771E-02  0.1244353E+00
          2   -1    0    0  502    0  0.00000000000E+00  0.00000000000E+00  0.78803023638E+03  0.78803023638E+03  0.00000000000E+00 0.  1.
         -2   -1    0    0    0  501 -0.00000000000E+00 -0.00000000000E+00 -0.53557034421E+01  0.53557034421E+01  0.00000000000E+00 0. -1.
          1    1    1    2  502    0  0.64262310761E+02 -0.83008470877E+01  0.41991792498E+03  0.42488776444E+03  0.00000000000E+00 0.  1.
         -1    1    1    2    0  501 -0.64262310761E+02  0.83008470877E+01  0.36275660795E+03  0.36849817538E+03  0.00000000000E+00 0. -1.
</event>
<event>
 4    1  0.1322546E+002  0.2056577E+02  0.7546771E-02  0.1525556E+00
          2   -1    0    0  502    0  0.00000000000E+00  0.00000000000E+00  0.87049049181E+01  0.87049049181E+01  0.00000000000E+00 0.  1.
         -2   -1    0    0    0  501 -0.00000000000E+00 -0.00000000000E+00 -0.55114611807E+02  0.55114611807E+02  0.00000000000E+00 0. -1.
          1    1    1    2  502    0  0.15286133793E+02 -0.13758094396E+02 -0.12223774632E+02  0.23924291296E+02  0.00000000000E+00 0.  1.
         -1    1    1    2    0  501 -0.15286133793E+02  0.13758094396E+02 -0.34185932256E+02  0.39895225429E+02  0.00000000000E+00 0. -1.
</event>
<event>
 4    1  0.1322546E+002  0.2440311E+02  0.7546771E-02  0.1475593E+00
          2   -1    0    0  502    0  0.00000000000E+00  0.00000000000E+00  0.14891607905E+02  0.14891607905E+02  0.00000000000E+00 0.  1.
         -2   -1    0    0    0  501 -0.00000000000E+00 -0.00000000000E+00 -0.45836430961E+02  0.45836430961E+02  0.00000000000E+00 0. -1.
          1    1    1    2  502    0 -0.20417806241E+02  0.13365068760E+02 -0.26316874977E+02  0.35889967724E+02  0.00000000000E+00 0. -1.
         -1    1    1    2    0  501  0.20417806241E+02 -0.13365068760E+02 -0.46279480782E+01  0.24838071142E+02  0.00000000000E+00 0.  1.
</event>
<event>
 4    1  0.1322546E+002  0.2173376E+02  0.7546771E-02  0.1509041E+00
          2   -1    0    0  502    0  0.00000000000E+00  0.00000000000E+00  0.11489627199E+02  0.11489627199E+02  0.00000000000E+00 0.  1.
         -2   -1    0    0    0  501 -0.00000000000E+00 -0.00000000000E+00 -0.42296365107E+02  0.42296365107E+02  0.00000000000E+00 0. -1.
          1    1    1    2  502    0  0.10481741612E+02  0.19039153503E+02 -0.19904427985E+02  0.29471045566E+02  0.00000000000E+00 0.  1.
         -1    1    1    2    0  501 -0.10481741612E+02 -0.19039153503E+02 -0.10902309922E+02  0.24314946740E+02  0.00000000000E+00 0. -1.
</event>
<event>
 4    1  0.1322546E+002  0.2031196E+02  0.7546771E-02  0.1529319E+00
          2   -1    0    0  502    0  0.00000000000E+00  0.00000000000E+00  0.15707442292E+04  0.15707442292E+04  0.00000000000E+00 0.  1.
         -2   -1    0    0    0  501 -0.00000000000E+00 -0.00000000000E+00 -0.26593719122E+00  0.26593719122E+00  0.00000000000E+00 0. -1.
          1    1    1    2  502    0  0.37385078589E+01  0.19964953423E+02  0.87240295314E+03  0.87263938053E+03  0.00000000000E+00 0.  1.
         -1    1    1    2    0  501 -0.37385078589E+01 -0.19964953423E+02  0.69807533885E+03  0.69837078584E+03  0.00000000000E+00 0. -1.
</event>
<event>
 4    1  0.1322546E+002  0.2354898E+02  0.7546771E-02  0.1485717E+00
          2   -1    0    0  502    0  0.00000000000E+00  0.00000000000E+00  0.34064240617E+03  0.34064240617E+03  0.00000000000E+00 0. -1.
         -2   -1    0    0    0  501 -0.00000000000E+00 -0.00000000000E+00 -0.17686880696E+01  0.17686880696E+01  0.00000000000E+00 0.  1.
          1    1    1    2  502    0  0.20494185628E+02 -0.11599266825E+02  0.21772845898E+03  0.21899825681E+03  0.00000000000E+00 0.  1.
         -1    1    1    2    0  501 -0.20494185628E+02  0.11599266825E+02  0.12114525912E+03  0.12341283743E+03  0.00000000000E+00 0. -1.
</event>
<event>
 4    1  0.1322546E+002  0.2182675E+02  0.7546771E-02  0.1507781E+00
          2   -1    0    0  502    0  0.00000000000E+00  0.00000000000E+00  0.78964535299E+02  0.78964535299E+02  0.00000000000E+00 0.  1.
         -2   -1    0    0    0  501 -0.00000000000E+00 -0.00000000000E+00 -0.86020345746E+01  0.86020345746E+01  0.00000000000E+00 0. -1.
          1    1    1    2  502    0  0.14006164891E+02 -0.16740206534E+02  0.59107663715E+02  0.63008912700E+02  0.00000000000E+00 0.  1.
         -1    1    1    2    0  501 -0.14006164891E+02  0.16740206534E+02  0.11254837010E+02  0.24557657174E+02  0.00000000000E+00 0. -1.
</event>
<event>
 4    1  0.1322546E+002  0.2469644E+02  0.7546771E-02  0.1472228E+00
          2   -1    0    0  502    0  0.00000000000E+00  0.00000000000E+00  0.21424734598E+03  0.21424734598E+03  0.00000000000E+00 0. -1.
         -2   -1    0    0    0  501 -0.00000000000E+00 -0.00000000000E+00 -0.37014225034E+01  0.37014225034E+01  0.00000000000E+00 0.  1.
          1    1    1    2  502    0  0.39689894004E+01 -0.24375425565E+02  0.15763702020E+03  0.15955984578E+03  0.00000000000E+00 0. -1.
         -1    1    1    2    0  501 -0.39689894004E+01  0.24375425565E+02  0.52908903277E+02  0.58388922702E+02  0.00000000000E+00 0.  1.
</event>
<event>
 4    1  0.1322546E+002  0.2628614E+02  0.7546771E-02  0.1454914E+00
          2   -1    0    0  502    0  0.00000000000E+00  0.00000000000E+00  0.26896274623E+03  0.26896274623E+03  0.00000000000E+00 0.  1.
         -2   -1    0    0    0  501 -0.00000000000E+00 -0.00000000000E+00 -0.29127707366E+01  0.29127707366E+01  0.00000000000E+00 0. -1.
          1    1    1    2  502    0  0.25781136417E+02 -0.51277936132E+01  0.17972649273E+03  0.18163857919E+03  0.00000000000E+00 0.  1.
         -1    1    1    2    0  501 -0.25781136417E+02  0.51277936132E+01  0.86323482762E+02  0.90236937772E+02  0.00000000000E+00 0. -1.
</event>
<event>
 4    1  0.1322546E+002  0.2201955E+02  0.7546771E-02  0.1505191E+00
          2   -1    0    0  502    0  0.00000000000E+00  0.00000000000E+00  0.40349040383E+01  0.40349040383E+01  0.00000000000E+00 0.  1.
         -2   -1    0    0    0  501 -0.00000000000E+00 -0.00000000000E+00 -0.12367857846E+03  0.12367857846E+03  0.00000000000E+00 0. -1.
          1    1    1    2  502    0 -0.13008659549E+02  0.17766131377E+02 -0.49061243555E+02  0.53776075225E+02  0.00000000000E+00 0.  1.
         -1    1    1    2    0  501  0.13008659549E+02 -0.17766131377E+02 -0.70582430870E+02  0.73937407277E+02  0.00000000000E+00 0. -1.
</event>
<event>
 4    1  0.1322546E+002  0.2342470E+02  0.7546771E-02  0.1487233E+00
          2   -1    0    0  502    0  0.00000000000E+00  0.00000000000E+00  0.45692227787E+00  0.45692227787E+00  0.00000000000E+00 0.  1.
         -2   -1    0    0    0  501 -0.00000000000E+00 -0.00000000000E+00 -0.14475126881E+04  0.14475126881E+04  0.00000000000E+00 0. -1.
          1    1    1    2  502    0  0.27478846779E+01  0.23262966127E+02 -0.42469467189E+03  0.42534019420E+03  0.00000000000E+00 0.  1.
         -1    1    1    2    0  501 -0.27478846779E+01 -0.23262966127E+02 -0.10223610939E+04  0.10226294161E+04  0.00000000000E+00 0. -1.
</event>
<event>
 4    1  0.1322546E+002  0.2513104E+02  0.7546771E-02  0.1467343E+00
          2   -1    0    0  502    0  0.00000000000E+00  0.00000000000E+00  0.14173714007E+03  0.14173714007E+03  0.00000000000E+00 0. -1.
         -2   -1    0    0    0  501 -0.00000000000E+00 -0.00000000000E+00 -0.45806683559E+01  0.45806683559E+01  0.00000000000E+00 0.  1.
          1    1    1    2  502    0  0.22105129286E+02  0.11955434282E+02  0.80651445201E+02  0.84476178669E+02  0.00000000000E+00 0. -1.
         -1    1    1    2    0  501 -0.22105129286E+02 -0.11955434282E+02  0.56505026514E+02  0.61841629757E+02  0.00000000000E+00 0.  1.
</event>
<event>
 4    1  0.1322546E+002  0.2739151E+02  0.7546771E-02  0.1443714E+00
          2   -1    0    0  502    0  0.00000000000E+00  0.00000000000E+00  0.18670790243E+01  0.18670790243E+01  0.00000000000E+00 0. -1.
         -2   -1    0    0    0  501 -0.00000000000E+00 -0.00000000000E+00 -0.40491870089E+03  0.40491870089E+03  0.00000000000E+00 0.  1.
          1    1    1    2  502    0 -0.24463960855E+02 -0.12321100555E+02 -0.18383366918E+03  0.18586315617E+03  0.00000000000E+00 0.  1.
         -1    1    1    2    0  501  0.24463960855E+02  0.12321100555E+02 -0.21921795269E+03  0.22092262374E+03  0.00000000000E+00 0. -1.
</event>
<event>
 4    1  0.1322546E+002  0.2101773E+02  0.7546771E-02  0.1519012E+00
          2   -1    0    0  502    0  0.00000000000E+00  0.00000000000E+00  0.13623103465E+01  0.13623103465E+01  0.00000000000E+00 0.  1.
         -2   -1    0    0    0  501 -0.00000000000E+00 -0.00000000000E+00 -0.36207366347E+03  0.36207366347E+03  0.00000000000E+00 0. -1.
          1    1    1    2  502    0 -0.19981567093E+02  0.65178276595E+01 -0.12163190659E+03  0.12343445954E+03  0.00000000000E+00 0. -1.
         -1    1    1    2    0  501  0.19981567093E+02 -0.65178276595E+01 -0.23907944654E+03  0.24000151428E+03  0.00000000000E+00 0.  1.
</event>
<event>
 4    1  0.1322546E+002  0.5145616E+02  0.7546771E-02  0.1291980E+00
          2   -1    0    0  502    0  0.00000000000E+00  0.00000000000E+00  0.64115269464E+03  0.64115269464E+03  0.00000000000E+00 0. -1.
         -2   -1    0    0    0  501 -0.00000000000E+00 -0.00000000000E+00 -0.41884680371E+01  0.41884680371E+01  0.00000000000E+00 0.  1.
          1    1    1    2  502    0 -0.51381235018E+02  0.27757706208E+01  0.35671940245E+03  0.36041152632E+03  0.00000000000E+00 0. -1.
         -1    1    1    2    0  501  0.51381235018E+02 -0.27757706208E+01  0.28024482415E+03  0.28492963636E+03  0.00000000000E+00 0.  1.
</event>
<event>
 4    1  0.1322546E+002  0.2363841E+02  0.7546771E-02  0.1484633E+00
          2   -1    0    0  502    0  0.00000000000E+00  0.00000000000E+00  0.82499337149E+03  0.82499337149E+03  0.00000000000E+00 0. -1.
         -2   -1    0    0    0  501 -0.00000000000E+00 -0.00000000000E+00 -0.12836731935E+01  0.12836731935E+01  0.00000000000E+00 0.  1.
          1    1    1    2  502    0  0.52285794414E+01  0.23052905305E+02  0.69580077513E+03  0.69620219273E+03  0.00000000000E+00 0. -1.
         -1    1    1    2    0  501 -0.52285794414E+01 -0.23052905305E+02  0.12790892317E+03  0.13007485196E+03  0.00000000000E+00 0.  1.
</event>
<event>
 4    1  0.1322546E+002  0.6530767E+02  0.7546771E-02  0.1242792E+00
          2   -1    0    0  502    0  0.00000000000E+00  0.00000000000E+00  0.17888167802E+03  0.17888167802E+03  0.00000000000E+00 0.  1.
         -2   -1    0    0    0  501 -0.00000000000E+00 -0.00000000000E+00 -0.30471144139E+02  0.30471144139E+02  0.00000000000E+00 0. -1.
          1    1    1    2  502    0  0.27263768722E+02 -0.59344575346E+02  0.12302523724E+03  0.13928496224E+03  0.00000000000E+00 0.  1.
         -1    1    1    2    0  501 -0.27263768722E+02  0.59344575346E+02  0.25385296637E+02  0.70067859917E+02  0.00000000000E+00 0. -1.
</event>
<event>
 4    1  0.1322546E+002  0.5294113E+02  0.7546771E-02  0.1285901E+00
          2   -1    0    0  502    0  0.00000000000E+00  0.00000000000E+00  0.23819660481E+04  0.23819660481E+04  0.00000000000E+00 0. -1.
         -2   -1    0    0    0  501 -0.00000000000E+00 -0.00000000000E+00 -0.12757086964E+01  0.12757086964E+01  0.00000000000E+00 0.  1.
          1    1    1    2  502    0 -0.23670168792E+02 -0.47354892411E+02  0.85830696488E+03  0.85993814236E+03  0.00000000000E+00 0. -1.
         -1    1    1    2    0  501  0.23670168792E+02  0.47354892411E+02  0.15223833745E+04  0.15233036144E+04  0.00000000000E+00 0.  1.
</event>
<event>
 4    1  0.1322546E+002  0.2421731E+02  0.7546771E-02  0.1477753E+00
          2   -1    0    0  502    0  0.00000000000E+00  0.00000000000E+00  0.28293740199E+02  0.28293740199E+02  0.00000000000E+00 0.  1.
         -2   -1    0    0    0  501 -0.00000000000E+00 -0.00000000000E+00 -0.52043628804E+02  0.52043628804E+02  0.00000000000E+00 0. -1.
          1    1    1    2  502    0 -0.89983721252E+00  0.24200590361E+02 -0.43033908435E+02  0.49380112961E+02  0.00000000000E+00 0. -1.
         -1    1    1    2    0  501  0.89983721252E+00 -0.24200590361E+02  0.19284019830E+02  0.30957256042E+02  0.00000000000E+00 0.  1.
</event>
<event>
 4    1  0.1322546E+002  0.2397441E+02  0.7546771E-02  0.1480612E+00
          2   -1    0    0  502    0  0.00000000000E+00  0.00000000000E+00  0.21763228510E+02  0.21763228510E+02  0.00000000000E+00 0.  1.
         -2   -1    0    0    0  501 -0.00000000000E+00 -0.00000000000E+00 -0.50698283105E+02  0.50698283105E+02  0.00000000000E+00 0. -1.
          1    1    1    2  502    0  0.45215313489E+01  0.23544169930E+02 -0.39544608783E+02  0.46244440392E+02  0.00000000000E+00 0. -1.
         -1    1    1    2    0  501 -0.45215313489E+01 -0.23544169930E+02  0.10609554188E+02  0.26217071223E+02  0.00000000000E+00 0.  1.
</event>
<event>
 4    1  0.1322546E+002  0.3138270E+02  0.7546771E-02  0.1407950E+00
          2   -1    0    0  502    0  0.00000000000E+00  0.00000000000E+00  0.12923050621E+04  0.12923050621E+04  0.00000000000E+00 0.  1.
         -2   -1    0    0    0  501 -0.00000000000E+00 -0.00000000000E+00 -0.98997079819E+00  0.98997079819E+00  0.00000000000E+00 0. -1.
          1    1    1    2  502    0 -0.24981398163E+02 -0.18994828383E+02  0.33541967808E+03  0.33688460072E+03  0.00000000000E+00 0. -1.
         -1    1    1    2    0  501  0.24981398163E+02  0.18994828383E+02  0.95589541324E+03  0.95641043220E+03  0.00000000000E+00 0.  1.
</event>
<event>
 4    1  0.1322546E+002  0.2187928E+02  0.7546771E-02  0.1507072E+00
          2   -1    0    0  502    0  0.00000000000E+00  0.00000000000E+00  0.12814650342E+04  0.12814650342E+04  0.00000000000E+00 0. -1.
         -2   -1    0    0    0  501 -0.00000000000E+00 -0.00000000000E+00 -0.11305055376E+01  0.11305055376E+01  0.00000000000E+00 0.  1.
          1    1    1    2  502    0 -0.18112461101E+02  0.12273614760E+02  0.11649215213E+04  0.11651269689E+04  0.00000000000E+00 0. -1.
         -1    1    1    2    0  501  0.18112461101E+02 -0.12273614760E+02  0.11541300732E+03  0.11746857080E+03  0.00000000000E+00 0.  1.
</event>
<event>
 4    1  0.1322546E+002  0.2961169E+02  0.7546771E-02  0.1423001E+00
          2   -1    0    0  502    0  0.00000000000E+00  0.00000000000E+00  0.12913103447E+04  0.12913103447E+04  0.00000000000E+00 0. -1.
         -2   -1    0    0    0  501 -0.00000000000E+00 -0.00000000000E+00 -0.19483561630E+01  0.19483561630E+01  0.00000000000E+00 0.  1.
          1    1    1    2  502    0 -0.29564716474E+02 -0.16673055316E+01  0.12275850312E+03  0.12627946173E+03  0.00000000000E+00 0.  1.
         -1    1    1    2    0  501  0.29564716474E+02  0.16673055316E+01  0.11666034854E+04  0.11669792391E+04  0.00000000000E+00 0. -1.
</event>
<event>
 4    1  0.1322546E+002  0.4256320E+02  0.7546771E-02  0.1334087E+00
          2   -1    0    0  502    0  0.00000000000E+00  0.00000000000E+00  0.30024476879E+03  0.30024476879E+03  0.00000000000E+00 0.  1.
         -2   -1    0    0    0  501 -0.00000000000E+00 -0.00000000000E+00 -0.95414840724E+01  0.95414840724E+01  0.00000000000E+00 0. -1.
          1    1    1    2  502    0  0.37890687384E+02 -0.19388700272E+02  0.23926612279E+03  0.24302243395E+03  0.00000000000E+00 0. -1.
         -1    1    1    2    0  501 -0.37890687384E+02  0.19388700272E+02  0.51437161934E+02  0.66763818918E+02  0.00000000000E+00 0.  1.
</event>
<event>
 4    1  0.1322546E+002  0.2610373E+02  0.7546771E-02  0.1456825E+00
          2   -1    0    0  502    0  0.00000000000E+00  0.00000000000E+00  0.59749081425E+03  0.59749081425E+03  0.00000000000E+00 0.  1.
         -2   -1    0    0    0  501 -0.00000000000E+00 -0.00000000000E+00 -0.11422683301E+01  0.11422683301E+01  0.00000000000E+00 0. -1.
          1    1    1    2  502    0 -0.13072426575E+02 -0.22594614363E+02  0.28621308447E+03  0.28740099975E+03  0.00000000000E+00 0.  1.
         -1    1    1    2    0  501  0.13072426575E+02  0.22594614363E+02  0.31013546146E+03  0.31123208284E+03  0.00000000000E+00 0. -1.
</event>
<event>
 4    1  0.1322546E+002  0.2315403E+02  0.7546771E-02  0.1490573E+00
          2   -1    0    0  502    0  0.00000000000E+00  0.00000000000E+00  0.90138537435E+02  0.90138537435E+02  0.00000000000E+00 0.  1.
         -2   -1    0    0    0  501 -0.00000000000E+00 -0.00000000000E+00 -0.63394360335E+01  0.63394360335E+01  0.00000000000E+00 0. -1.
          1    1    1    2  502    0 -0.19193018620E+02  0.12951334472E+02  0.29906808046E+02  0.37822297601E+02  0.00000000000E+00 0.  1.
         -1    1    1    2    0  501  0.19193018620E+02 -0.12951334472E+02  0.53892293355E+02  0.58655675867E+02  0.00000000000E+00 0. -1.
</event>
<event>
 4    1  0.1322546E+002  0.2016235E+02  0.7546771E-02  0.1531568E+00
          2   -1    0    0  502    0  0.00000000000E+00  0.00000000000E+00  0.18713424707E+02  0.18713424707E+02  0.00000000000E+00 0. -1.
         -2   -1    0    0    0  501 -0.00000000000E+00 -0.00000000000E+00 -0.21999703128E+02  0.21999703128E+02  0.00000000000E+00 0.  1.
          1    1    1    2  502    0  0.10916643987E+02  0.16951324072E+02  0.63790990650E+00  0.20172442410E+02  0.00000000000E+00 0. -1.
         -1    1    1    2    0  501 -0.10916643987E+02 -0.16951324072E+02 -0.39241883276E+01  0.20540685426E+02  0.00000000000E+00 0.  1.
</event>
<event>
 4    1  0.1322546E+002  0.2014958E+02  0.7546771E-02  0.1531761E+00
          2   -1    0    0  502    0  0.00000000000E+00  0.00000000000E+00  0.26245409354E+02  0.26245409354E+02  0.00000000000E+00 0.  1.
         -2   -1    0    0    0  501 -0.00000000000E+00 -0.00000000000E+00 -0.17184255057E+02  0.17184255057E+02  0.00000000000E+00 0. -1.
          1    1    1    2  502    0  0.40478523143E+01 -0.19738805507E+02  0.11389905554E+02  0.23145960765E+02  0.00000000000E+00 0.  1.
         -1    1    1    2    0  501 -0.40478523143E+01  0.19738805507E+02 -0.23287512573E+01  0.20283703647E+02  0.00000000000E+00 0. -1.
</event>
<event>
 4    1  0.1322546E+002  0.2653324E+02  0.7546771E-02  0.1452354E+00
          2   -1    0    0  502    0  0.00000000000E+00  0.00000000000E+00  0.42985315357E+03  0.42985315357E+03  0.00000000000E+00 0. -1.
         -2   -1    0    0    0  501 -0.00000000000E+00 -0.00000000000E+00 -0.23452263830E+01  0.23452263830E+01  0.00000000000E+00 0.  1.
          1    1    1    2  502    0 -0.15123900892E+02 -0.21800927928E+02  0.95067319646E+02  0.98700598283E+02  0.00000000000E+00 0.  1.
         -1    1    1    2    0  501  0.15123900892E+02  0.21800927928E+02  0.33244060754E+03  0.33349778167E+03  0.00000000000E+00 0. -1.
</event>
<event>
 4    1  0.1322546E+002  0.2012285E+02  0.7546771E-02  0.1532166E+00
          2   -1    0    0  502    0  0.00000000000E+00  0.00000000000E+00  0.37663211749E+03  0.37663211749E+03  0.00000000000E+00 0. -1.
         -2   -1    0    0    0  501 -0.00000000000E+00 -0.00000000000E+00 -0.11403650718E+01  0.11403650718E+01  0.00000000000E+00 0.  1.
          1    1    1    2  502    0 -0.19881648338E+02  0.31063132498E+01  0.14256929746E+03  0.14398240761E+03  0.00000000000E+00 0.  1.
         -1    1    1    2    0  501  0.19881648338E+02 -0.31063132498E+01  0.23292245496E+03  0.23379007495E+03  0.00000000000E+00 0. -1.
</event>
<event>
 4    1  0.1322546E+002  0.2078645E+02  0.7546771E-02  0.1522336E+00
          2   -1    0    0  502    0  0.00000000000E+00  0.00000000000E+00  0.19003385587E+03  0.19003385587E+03  0.00000000000E+00 0.  1.
         -2   -1    0    0    0  501 -0.00000000000E+00 -0.00000000000E+00 -0.22843002138E+01  0.22843002138E+01  0.00000000000E+00 0. -1.
          1    1    1    2  502    0 -0.14335722422E+02  0.15052022523E+02  0.10043117193E+03  0.10255972219E+03  0.00000000000E+00 0.  1.
         -1    1    1    2    0  501  0.14335722422E+02 -0.15052022523E+02  0.87318383721E+02  0.89758433894E+02  0.00000000000E+00 0. -1.
</event>
<event>
 4    1  0.1322546E+002  0.4060604E+02  0.7546771E-02  0.1344971E+00
          2   -1    0    0  502    0  0.00000000000E+00  0.00000000000E+00  0.45353819545E+02  0.45353819545E+02  0.00000000000E+00 0. -1.
         -2   -1    0    0    0  501 -0.00000000000E+00 -0.00000000000E+00 -0.65000907070E+02  0.65000907070E+02  0.00000000000E+00 0.  1.
          1    1    1    2  502    0  0.10886617682E+02 -0.39119458972E+02 -0.46452998252E+02  0.61698716044E+02  0.00000000000E+00 0. -1.
         -1    1    1    2    0  501 -0.10886617682E+02  0.39119458972E+02  0.26805910728E+02  0.48656010572E+02  0.00000000000E+00 0.  1.
</event>
<event>
 4    1  0.1322546E+002  0.2237020E+02  0.7546771E-02  0.1500562E+00
          2   -1    0    0  502    0  0.00000000000E+00  0.00000000000E+00  0.46846671899E+03  0.46846671899E+03  0.00000000000E+00 0.  1.
         -2   -1    0    0    0  501 -0.00000000000E+00 -0.00000000000E+00 -0.14069478564E+01  0.14069478564E+01  0.00000000000E+00 0. -1.
          1    1    1    2  502    0  0.11984492282E+00  0.22369874311E+02  0.11825428297E+03  0.12035157282E+03  0.00000000000E+00 0. -1.
         -1    1    1    2    0  501 -0.11984492282E+00 -0.22369874311E+02  0.34880548817E+03  0.34952209403E+03  0.00000000000E+00 0.  1.
</event>
<event>
 4    1  0.1322546E+002  0.3233769E+02  0.7546771E-02  0.1400313E+00
          2   -1    0    0  502    0  0.00000000000E+00  0.00000000000E+00  0.12215384326E+03  0.12215384326E+03  0.00000000000E+00 0.  1.
         -2   -1    0    0    0  501 -0.00000000000E+00 -0.00000000000E+00 -0.88157253957E+01  0.88157253957E+01  0.00000000000E+00 0. -1.
          1    1    1    2  502    0  0.18735691097E+02  0.26357158903E+02  0.45531797603E+02  0.55846848965E+02  0.00000000000E+00 0. -1.
         -1    1    1    2    0  501 -0.18735691097E+02 -0.26357158903E+02  0.67806320259E+02  0.75122719688E+02  0.00000000000E+00 0.  1.
</event>
<event>
 4    1  0.1322546E+002  0.2131831E+02  0.7546771E-02  0.1514768E+00
          2   -1    0    0  502    0  0.00000000000E+00  0.00000000000E+00  0.67839367731E+03  0.67839367731E+03  0.00000000000E+00 0.  1.
         -2   -1    0    0    0  501 -0.00000000000E+00 -0.00000000000E+00 -0.96373279268E+00  0.96373279268E+00  0.00000000000E+00 0. -1.
          1    1    1    2  502    0 -0.16731213194E+02 -0.13211242917E+02  0.15116183764E+03  0.15265769419E+03  0.00000000000E+00 0. -1.
         -1    1    1    2    0  501  0.16731213194E+02  0.13211242917E+02  0.52626810687E+03  0.52669971591E+03  0.00000000000E+00 0.  1.
</event>
<event>
 4    1  0.1322546E+002  0.2402333E+02  0.7546771E-02  0.1480033E+00
          2   -1    0    0  502    0  0.00000000000E+00  0.00000000000E+00  0.25255697797E+02  0.25255697797E+02  0.00000000000E+00 0.  1.
         -2   -1    0    0    0  501 -0.00000000000E+00 -0.00000000000E+00 -0.22904220062E+02  0.22904220062E+02  0.00000000000E+00 0. -1.
          1    1    1    2  502    0  0.10816606856E+02 -0.21450443948E+02  0.16111083373E-01  0.24023338424E+02  0.00000000000E+00 0.  1.
         -1    1    1    2    0  501 -0.10816606856E+02  0.21450443948E+02  0.23353666517E+01  0.24136579436E+02  0.00000000000E+00 0. -1.
</event>
<event>
 4    1  0.1322546E+002  0.3207165E+02  0.7546771E-02  0.1402409E+00
          2   -1    0    0  502    0  0.00000000000E+00  0.00000000000E+00  0.18345950779E+04  0.18345950779E+04  0.00000000000E+00 0. -1.
         -2   -1    0    0    0  501 -0.00000000000E+00 -0.00000000000E+00 -0.61904746436E+00  0.61904746436E+00  0.00000000000E+00 0.  1.
          1    1    1    2  502    0 -0.21893350471E+02  0.23436551472E+02  0.11987880694E+04  0.11992170054E+04  0.00000000000E+00 0. -1.
         -1    1    1    2    0  501  0.21893350471E+02 -0.23436551472E+02  0.63518796099E+03  0.63599711991E+03  0.00000000000E+00 0.  1.
</event>
<event>
 4    1  0.1322546E+002  0.2313665E+02  0.7546771E-02  0.1490789E+00
          2   -1    0    0  502    0  0.00000000000E+00  0.00000000000E+00  0.19500348363E+01  0.19500348363E+01  0.00000000000E+00 0. -1.
         -2   -1    0    0    0  501 -0.00000000000E+00 -0.00000000000E+00 -0.27793747363E+03  0.27793747363E+03  0.00000000000E+00 0.  1.
          1    1    1    2  502    0 -0.22932230120E+02  0.30688071030E+01 -0.15353348744E+03  0.15526698465E+03  0.00000000000E+00 0.  1.
         -1    1    1    2    0  501  0.22932230120E+02 -0.30688071030E+01 -0.12245395135E+03  0.12462052382E+03  0.00000000000E+00 0. -1.
</event>
<event>
 4    1  0.1322546E+002  0.3406098E+02  0.7546771E-02  0.1387288E+00
          2   -1    0    0  502    0  0.00000000000E+00  0.00000000000E+00  0.55659348615E+03  0.55659348615E+03  0.00000000000E+00 0.  1.
         -2   -1    0    0    0  501 -0.00000000000E+00 -0.00000000000E+00 -0.35417283228E+01  0.35417283228E+01  0.00000000000E+00 0. -1.
          1    1    1    2  502    0 -0.45071836465E+00  0.34057999853E+02  0.45618010233E+03  0.45744992760E+03  0.00000000000E+00 0.  1.
         -1    1    1    2    0  501  0.45071836465E+00 -0.34057999853E+02  0.96871655499E+02  0.10268528687E+03  0.00000000000E+00 0. -1.
</event>
<event>
 4    1  0.1322546E+002  0.2036426E+02  0.7546771E-02  0.1528538E+00
          2   -1    0    0  502    0  0.00000000000E+00  0.00000000000E+00  0.11456478218E+04  0.11456478218E+04  0.00000000000E+00 0.  1.
         -2   -1    0    0    0  501 -0.00000000000E+00 -0.00000000000E+00 -0.46430328970E+00  0.46430328970E+00  0.00000000000E+00 0. -1.
          1    1    1    2  502    0  0.28207291069E+01 -0.20167961638E+02  0.30357425987E+03  0.30425652737E+03  0.00000000000E+00 0. -1.
         -1    1    1    2    0  501 -0.28207291069E+01  0.20167961638E+02  0.84160925867E+03  0.84185559775E+03  0.00000000000E+00 0.  1.
</event>
<event>
 4    1  0.1322546E+002  0.2154390E+02  0.7546771E-02  0.1511639E+00
          2   -1    0    0  502    0  0.00000000000E+00  0.00000000000E+00  0.99697263094E+02  0.99697263094E+02  0.00000000000E+00 0.  1.
         -2   -1    0    0    0  501 -0.00000000000E+00 -0.00000000000E+00 -0.46719273495E+01  0.46719273495E+01  0.00000000000E+00 0. -1.
          1    1    1    2  502    0 -0.43593119098E+01 -0.21098242654E+02  0.50608179427E+02  0.55002975086E+02  0.00000000000E+00 0. -1.
         -1    1    1    2    0  501  0.43593119098E+01  0.21098242654E+02  0.44417156318E+02  0.49366215358E+02  0.00000000000E+00 0.  1.
</event>
<event>
 4    1  0.1322546E+002  0.2994588E+02  0.7546771E-02  0.1420067E+00
          2   -1    0    0  502    0  0.00000000000E+00  0.00000000000E+00  0.89327329769E+01  0.89327329769E+01  0.00000000000E+00 0.  1.
         -2   -1    0    0    0  501 -0.00000000000E+00 -0.00000000000E+00 -0.10103923889E+03  0.10103923889E+03  0.00000000000E+00 0. -1.
          1    1    1    2  502    0  0.28630234666E+02  0.87786812864E+01 -0.50461487627E+02  0.58678082072E+02  0.00000000000E+00 0.  1.
         -1    1    1    2    0  501 -0.28630234666E+02 -0.87786812864E+01 -0.41645018285E+02  0.51293889793E+02  0.00000000000E+00 0. -1.
</event>
<event>
 4    1  0.1322546E+002  0.5045508E+02  0.7546771E-02  0.1296211E+00
          2   -1    0    0  502    0  0.00000000000E+00  0.00000000000E+00  0.27840106097E+04  0.27840106097E+04  0.00000000000E+00 0.  1.
         -2   -1    0    0    0  501 -0.00000000000E+00 -0.00000000000E+00 -0.92194181811E+00  0.92194181811E+00  0.00000000000E+00 0. -1.
          1    1    1    2  502    0 -0.45840131201E+02 -0.21080735388E+02  0.12656494163E+04  0.12666547122E+04  0.00000000000E+00 0. -1.
         -1    1    1    2    0  501  0.45840131201E+02  0.21080735388E+02  0.15174392516E+04  0.15182778393E+04  0.00000000000E+00 0.  1.
</event>
<event>
 4    1  0.1322546E+002  0.2442786E+02  0.7546771E-02  0.1475307E+00
          2   -1    0    0  502    0  0.00000000000E+00  0.00000000000E+00  0.17787151367E+02  0.17787151367E+02  0.00000000000E+00 0.  1.
         -2   -1    0    0    0  501 -0.00000000000E+00 -0.00000000000E+00 -0.68392391601E+02  0.68392391601E+02  0.00000000000E+00 0. -1.
          1    1    1    2  502    0  0.19797448196E+02  0.14310178894E+02 -0.56059186674E+02  0.61150245998E+02  0.00000000000E+00 0. -1.
         -1    1    1    2    0  501 -0.19797448196E+02 -0.14310178894E+02  0.54539464405E+01  0.25029296970E+02  0.00000000000E+00 0.  1.
</event>
<event>
 4    1  0.1322546E+002  0.2873380E+02  0.7546771E-02  0.1430928E+00
          2   -1    0    0  502    0  0.00000000000E+00  0.00000000000E+00  0.45077704602E+02  0.45077704602E+02  0.00000000000E+00 0.  1.
         -2   -1    0    0    0  501 -0.00000000000E+00 -0.00000000000E+00 -0.18575820676E+02  0.18575820676E+02  0.00000000000E+00 0. -1.
          1    1    1    2  502    0 -0.22456215507E+02  0.17926224084E+02  0.17016937254E+02  0.33394719317E+02  0.00000000000E+00 0.  1.
         -1    1    1    2    0  501  0.22456215507E+02 -0.17926224084E+02  0.94849466722E+01  0.30258805961E+02  0.00000000000E+00 0. -1.
</event>
<event>
 4    1  0.1322546E+002  0.3886341E+02  0.7546771E-02  0.1355278E+00
          2   -1    0    0  502    0  0.00000000000E+00  0.00000000000E+00  0.71446951315E+03  0.71446951315E+03  0.00000000000E+00 0.  1.
         -2   -1    0    0    0  501 -0.00000000000E+00 -0.00000000000E+00 -0.21378236510E+01  0.21378236510E+01  0.00000000000E+00 0. -1.
          1    1    1    2  502    0 -0.32630474565E+02 -0.21109637592E+02  0.31831514407E+03  0.32067880444E+03  0.00000000000E+00 0. -1.
         -1    1    1    2    0  501  0.32630474565E+02  0.21109637592E+02  0.39401654543E+03  0.39592853236E+03  0.00000000000E+00 0.  1.
</event>
<event>
 4    1  0.1322546E+002  0.3793069E+02  0.7546771E-02  0.1361058E+00
          2   -1    0    0  502    0  0.00000000000E+00  0.00000000000E+00  0.34050669478E+03  0.34050669478E+03  0.00000000000E+00 0.  1.
         -2   -1    0    0    0  501 -0.00000000000E+00 -0.00000000000E+00 -0.65372754941E+01  0.65372754941E+01  0.00000000000E+00 0. -1.
          1    1    1    2  502    0  0.27764148860E+02 -0.25843551109E+02  0.63791923500E+02  0.74216888911E+02  0.00000000000E+00 0. -1.
         -1    1    1    2    0  501 -0.27764148860E+02  0.25843551109E+02  0.27017749579E+03  0.27282708136E+03  0.00000000000E+00 0.  1.
</event>
<event>
 4    1  0.1322546E+002  0.2015578E+02  0.7546771E-02  0.1531668E+00
          2   -1    0    0  502    0  0.00000000000E+00  0.00000000000E+00  0.15502837266E+04  0.15502837266E+04  0.00000000000E+00 0. -1.
         -2   -1    0    0    0  501 -0.00000000000E+00 -0.00000000000E+00 -0.30830046505E+00  0.30830046505E+00  0.00000000000E+00 0.  1.
          1    1    1    2  502    0 -0.19387580156E+02  0.55115355656E+01  0.47470654223E+03  0.47513425105E+03  0.00000000000E+00 0.  1.
         -1    1    1    2    0  501  0.19387580156E+02 -0.55115355656E+01  0.10752688839E+04  0.10754577761E+04  0.00000000000E+00 0. -1.
</event>
<event>
 4    1  0.1322546E+002  0.4062196E+02  0.7546771E-02  0.1344879E+00
          2   -1    0    0  502    0  0.00000000000E+00  0.00000000000E+00  0.34470226048E+01  0.34470226048E+01  0.00000000000E+00 0. -1.
         -2   -1    0    0    0  501 -0.00000000000E+00 -0.00000000000E+00 -0.50120283887E+03  0.50120283887E+03  0.00000000000E+00 0.  1.
          1    1    1    2  502    0 -0.17689567439E+02  0.36568055945E+02 -0.19543114360E+03  0.19960830494E+03  0.00000000000E+00 0. -1.
         -1    1    1    2    0  501  0.17689567439E+02 -0.36568055945E+02 -0.30232467266E+03  0.30504155653E+03  0.00000000000E+00 0.  1.
</event>
<event>
 4    1  0.1322546E+002  0.3015768E+02  0.7546771E-02  0.1418231E+00
          2   -1    0    0  502    0  0.00000000000E+00  0.00000000000E+00  0.10195062047E+04  0.10195062047E+04  0.00000000000E+00 0. -1.
         -2   -1    0    0    0  501 -0.00000000000E+00 -0.00000000000E+00 -0.95317755230E+00  0.95317755230E+00  0.00000000000E+00 0.  1.
          1    1    1    2  502    0 -0.68774556133E+01  0.29363008117E+02  0.38010258120E+03  0.38129707300E+03  0.00000000000E+00 0.  1.
         -1    1    1    2    0  501  0.68774556133E+01 -0.29363008117E+02  0.63845044590E+03  0.63916230921E+03  0.00000000000E+00 0. -1.
</event>
<event>
 4    1  0.1322546E+002  0.2764355E+02  0.7546771E-02  0.1441248E+00
          2   -1    0    0  502    0  0.00000000000E+00  0.00000000000E+00  0.92650972311E+03  0.92650972311E+03  0.00000000000E+00 0. -1.
         -2   -1    0    0    0  501 -0.00000000000E+00 -0.00000000000E+00 -0.82591979094E+00  0.82591979094E+00  0.00000000000E+00 0.  1.
          1    1    1    2  502    0  0.23813882115E+02 -0.14037987237E+02  0.44561216835E+03  0.44646877903E+03  0.00000000000E+00 0.  1.
         -1    1    1    2    0  501 -0.23813882115E+02  0.14037987237E+02  0.48007163497E+03  0.48086686387E+03  0.00000000000E+00 0. -1.
</event>
<event>
 4    1  0.1322546E+002  0.2048200E+02  0.7546771E-02  0.1526791E+00
          2   -1    0    0  502    0  0.00000000000E+00  0.00000000000E+00  0.16041283458E+02  0.16041283458E+02  0.00000000000E+00 0. -1.
         -2   -1    0    0    0  501 -0.00000000000E+00 -0.00000000000E+00 -0.28131970385E+02  0.28131970385E+02  0.00000000000E+00 0.  1.
          1    1    1    2  502    0  0.17233637849E+02 -0.11068614947E+02 -0.11904738114E+02  0.23690405229E+02  0.00000000000E+00 0.  1.
         -1    1    1    2    0  501 -0.17233637849E+02  0.11068614947E+02 -0.18594881410E+00  0.20482848614E+02  0.00000000000E+00 0. -1.
</event>
<event>
 4    1  0.1322546E+002  0.2497206E+02  0.7546771E-02  0.1469116E+00
          2   -1    0    0  502    0  0.00000000000E+00  0.00000000000E+00  0.51470945730E+02  0.51470945730E+02  0.00000000000E+00 0. -1.
         -2   -1    0    0    0  501 -0.00000000000E+00 -0.00000000000E+00 -0.13773878858E+02  0.13773878858E+02  0.00000000000E+00 0.  1.
          1    1    1    2  502    0  0.21030383381E+02 -0.13465760518E+02  0.75294628606E+01  0.26082494943E+02  0.00000000000E+00 0.  1.
         -1    1    1    2    0  501 -0.21030383381E+02  0.13465760518E+02  0.30167604011E+02  0.39162329645E+02  0.00000000000E+00 0. -1.
</event>
<event>
 4    1  0.1322546E+002  0.4304094E+02  0.7546771E-02  0.1331532E+00
          2   -1    0    0  502    0  0.00000000000E+00  0.00000000000E+00  0.58316520194E+03  0.58316520194E+03  0.00000000000E+00 0. -1.
         -2   -1    0    0    0  501 -0.00000000000E+00 -0.00000000000E+00 -0.85331568701E+01  0.85331568701E+01  0.00000000000E+00 0.  1.
          1    1    1    2  502    0 -0.18131440712E+02  0.39035543956E+02  0.52171492079E+03  0.52348732688E+03  0.00000000000E+00 0. -1.
         -1    1    1    2    0  501  0.18131440712E+02 -0.39035543956E+02  0.52917124281E+02  0.68211031926E+02  0.00000000000E+00 0.  1.
</event>
<event>
 4    1  0.1322546E+002  0.4635940E+02  0.7546771E-02  0.1314778E+00
          2   -1    0    0  502    0  0.00000000000E+00  0.00000000000E+00  0.66299781894E+02  0.66299781894E+02  0.00000000000E+00 0.  1.
         -2   -1    0    0    0  501 -0.00000000000E+00 -0.00000000000E+00 -0.32938399442E+02  0.32938399442E+02  0.00000000000E+00 0. -1.
          1    1    1    2  502    0  0.43365053197E+02 -0.16391032554E+02  0.10433667988E+02  0.47518998459E+02  0.00000000000E+00 0.  1.
         -1    1    1    2    0  501 -0.43365053197E+02  0.16391032554E+02  0.22927714463E+02  0.51719182877E+02  0.00000000000E+00 0. -1.
</event>
<event>
 4    1  0.1322546E+002  0.2125914E+02  0.7546771E-02  0.1515597E+00
          2   -1    0    0  502    0  0.00000000000E+00  0.00000000000E+00  0.38710342738E+02  0.38710342738E+02  0.00000000000E+00 0.  1.
         -2   -1    0    0    0  501 -0.00000000000E+00 -0.00000000000E+00 -0.11688354709E+02  0.11688354709E+02  0.00000000000E+00 0. -1.
          1    1    1    2  502    0  0.15117239958E+02  0.14947246388E+02  0.14356272756E+02  0.25652557104E+02  0.00000000000E+00 0.  1.
         -1    1    1    2    0  501 -0.15117239958E+02 -0.14947246388E+02  0.12665715273E+02  0.24746140344E+02  0.00000000000E+00 0. -1.
</event>
<event>
 4    1  0.1322546E+002  0.2372200E+02  0.7546771E-02  0.1483626E+00
          2   -1    0    0  502    0  0.00000000000E+00  0.00000000000E+00  0.58735878355E+03  0.58735878355E+03  0.00000000000E+00 0. -1.
         -2   -1    0    0    0  501 -0.00000000000E+00 -0.00000000000E+00 -0.52256835947E+01  0.52256835947E+01  0.00000000000E+00 0.  1.
          1    1    1    2  502    0  0.16690164548E+02  0.16857393850E+02  0.55882367847E+03  0.55932694995E+03  0.00000000000E+00 0.  1.
         -1    1    1    2    0  501 -0.16690164548E+02 -0.16857393850E+02  0.23309421484E+02  0.33257517195E+02  0.00000000000E+00 0. -1.
</event>
<event>
 4    1  0.1322546E+002  0.2873851E+02  0.7546771E-02  0.1430885E+00
          2   -1    0    0  502    0  0.00000000000E+00  0.00000000000E+00  0.49669280769E+03  0.49669280769E+03  0.00000000000E+00 0.  1.
         -2   -1    0    0    0  501 -0.00000000000E+00 -0.00000000000E+00 -0.16781504314E+01  0.16781504314E+01  0.00000000000E+00 0. -1.
          1    1    1    2  502    0 -0.26012811186E+02 -0.12216200164E+02  0.27133801152E+03  0.27285567318E+03  0.00000000000E+00 0. -1.
         -1    1    1    2    0  501  0.26012811186E+02  0.12216200164E+02  0.22367664574E+03  0.22551528494E+03  0.00000000000E+00 0.  1.
</event>
<event>
 4    1  0.1322546E+002  0.3032909E+02  0.7546771E-02  0.1416758E+00
          2   -1    0    0  502    0  0.00000000000E+00  0.00000000000E+00  0.44192286273E+03  0.44192286273E+03  0.00000000000E+00 0.  1.
         -2   -1    0    0    0  501 -0.00000000000E+00 -0.00000000000E+00 -0.23686204501E+01  0.23686204501E+01  0.00000000000E+00 0. -1.
          1    1    1    2  502    0 -0.19151558922E+02  0.23517473611E+02  0.29712299421E+03  0.29866691726E+03  0.00000000000E+00 0.  1.
         -1    1    1    2    0  501  0.19151558922E+02 -0.23517473611E+02  0.14243124807E+03  0.14562456592E+03  0.00000000000E+00 0. -1.
</event>
<event>
 4    1  0.1322546E+002  0.2032509E+02  0.7546771E-02  0.1529123E+00
          2   -1    0    0  502    0  0.00000000000E+00  0.00000000000E+00  0.82001056018E+02  0.82001056018E+02  0.00000000000E+00 0.  1.
         -2   -1    0    0    0  501 -0.00000000000E+00 -0.00000000000E+00 -0.51568344165E+01  0.51568344165E+01  0.00000000000E+00 0. -1.
          1    1    1    2  502    0  0.11950234444E+02 -0.16440837618E+02  0.31802611193E+02  0.37742751934E+02  0.00000000000E+00 0. -1.
         -1    1    1    2    0  501 -0.11950234444E+02  0.16440837618E+02  0.45041610409E+02  0.49415138501E+02  0.00000000000E+00 0.  1.
</event>
<event>
 4    1  0.1322546E+002  0.3169193E+02  0.7546771E-02  0.1405442E+00
          2   -1    0    0  502    0  0.00000000000E+00  0.00000000000E+00  0.17804842870E+04  0.17804842870E+04  0.00000000000E+00 0. -1.
         -2   -1    0    0    0  501 -0.00000000000E+00 -0.00000000000E+00 -0.70125841596E+00  0.70125841596E+00  0.00000000000E+00 0.  1.
          1    1    1    2  502    0 -0.63916883202E+01 -0.31040695911E+02  0.12837542255E+04  0.12841453540E+04  0.00000000000E+00 0.  1.
         -1    1    1    2    0  501  0.63916883202E+01  0.31040695911E+02  0.49602880307E+03  0.49704019149E+03  0.00000000000E+00 0. -1.
</event>
<event>
 4    1  0.1322546E+002  0.2089093E+02  0.7546771E-02  0.1520828E+00
          2   -1    0    0  502    0  0.00000000000E+00  0.00000000000E+00  0.55478053374E+03  0.55478053374E+03  0.00000000000E+00 0. -1.
         -2   -1    0    0    0  501 -0.00000000000E+00 -0.00000000000E+00 -0.11233675335E+01  0.11233675335E+01  0.00000000000E+00 0.  1.
          1    1    1    2  502    0 -0.11018056977E+02  0.17749184995E+02  0.42899769238E+03  0.42950605492E+03  0.00000000000E+00 0.  1.
         -1    1    1    2    0  501  0.11018056977E+02 -0.17749184995E+02  0.12465947383E+03  0.12639784635E+03  0.00000000000E+00 0. -1.
</event>
<event>
 4    1  0.1322546E+002  0.2132475E+02  0.7546771E-02  0.1514678E+00
          2   -1    0    0  502    0  0.00000000000E+00  0.00000000000E+00  0.10633411216E+02  0.10633411216E+02  0.00000000000E+00 0. -1.
         -2   -1    0    0    0  501 -0.00000000000E+00 -0.00000000000E+00 -0.92731763413E+02  0.92731763413E+02  0.00000000000E+00 0.  1.
          1    1    1    2  502    0  0.11582430976E+02  0.17905085848E+02 -0.31117601502E+01  0.21550588339E+02  0.00000000000E+00 0. -1.
         -1    1    1    2    0  501 -0.11582430976E+02 -0.17905085848E+02 -0.78986592047E+02  0.81814586290E+02  0.00000000000E+00 0.  1.
</event>
<event>
 4    1  0.1322546E+002  0.2306128E+02  0.7546771E-02  0.1491730E+00
          2   -1    0    0  502    0  0.00000000000E+00  0.00000000000E+00  0.50736900511E+02  0.50736900511E+02  0.00000000000E+00 0.  1.
         -2   -1    0    0    0  501 -0.00000000000E+00 -0.00000000000E+00 -0.10854152545E+02  0.10854152545E+02  0.00000000000E+00 0. -1.
          1    1    1    2  502    0  0.92232429833E+01 -0.21136570368E+02  0.25643882740E+02  0.34488136221E+02  0.00000000000E+00 0.  1.
         -1    1    1    2    0  501 -0.92232429833E+01  0.21136570368E+02  0.14238865226E+02  0.27102916835E+02  0.00000000000E+00 0. -1.
</event>
<event>
 4    1  0.1322546E+002  0.2003126E+02  0.7546771E-02  0.1533558E+00
          2   -1    0    0  502    0  0.00000000000E+00  0.00000000000E+00  0.75516857363E+03  0.75516857363E+03  0.00000000000E+00 0.  1.
         -2   -1    0    0    0  501 -0.00000000000E+00 -0.00000000000E+00 -0.79276646142E+00  0.79276646142E+00  0.00000000000E+00 0. -1.
          1    1    1    2  502    0  0.19811667811E+02  0.29578721414E+01  0.16013189258E+03  0.16137990647E+03  0.00000000000E+00 0. -1.
         -1    1    1    2    0  501 -0.19811667811E+02 -0.29578721414E+01  0.59424391459E+03  0.59458143363E+03  0.00000000000E+00 0.  1.
</event>
<event>
 4    1  0.1322546E+002  0.2775356E+02  0.7546771E-02  0.1440182E+00
          2   -1    0    0  502    0  0.00000000000E+00  0.00000000000E+00  0.37729297185E+03  0.37729297185E+03  0.00000000000E+00 0.  1.
         -2   -1    0    0    0  501 -0.00000000000E+00 -0.00000000000E+00 -0.23805079899E+01  0.23805079899E+01  0.00000000000E+00 0. -1.
          1    1    1    2  502    0 -0.14803341985E+02  0.23475974769E+02  0.11582176736E+03  0.11910055465E+03  0.00000000000E+00 0. -1.
         -1    1    1    2    0  501  0.14803341985E+02 -0.23475974769E+02  0.25909069651E+03  0.26057292519E+03  0.00000000000E+00 0.  1.
</event>
<event>
 4    1  0.1322546E+002  0.2102623E+02  0.7546771E-02  0.1518891E+00
          2   -1    0    0  502    0  0.00000000000E+00  0.00000000000E+00  0.49301025349E+03  0.49301025349E+03  0.00000000000E+00 0.  1.
         -2   -1    0    0    0  501 -0.00000000000E+00 -0.00000000000E+00 -0.10913268394E+01  0.10913268394E+01  0.00000000000E+00 0. -1.
          1    1    1    2  502    0 -0.21026156900E+02  0.54879171754E-01  0.14164009520E+03  0.14319224439E+03  0.00000000000E+00 0.  1.
         -1    1    1    2    0  501  0.21026156900E+02 -0.54879171754E-01  0.35027883145E+03  0.35090933593E+03  0.00000000000E+00 0. -1.
</event>
<event>
 4    1  0.1322546E+002  0.2882296E+02  0.7546771E-02  0.1430108E+00
          2   -1    0    0  502    0  0.00000000000E+00  0.00000000000E+00  0.20948114381E+04  0.20948114381E+04  0.00000000000E+00 0.  1.
         -2   -1    0    0    0  501 -0.00000000000E+00 -0.00000000000E+00 -0.83198490674E+00  0.83198490674E+00  0.00000000000E+00 0. -1.
          1    1    1    2  502    0 -0.28568814578E+02  0.38191162836E+01  0.28897833117E+03  0.29041218759E+03  0.00000000000E+00 0. -1.
         -1    1    1    2    0  501  0.28568814578E+02 -0.38191162836E+01  0.18050011220E+04  0.18052312354E+04  0.00000000000E+00 0.  1.
</event>
<event>
 4    1  0.1322546E+002  0.2659485E+02  0.7546771E-02  0.1451721E+00
          2   -1    0    0  502    0  0.00000000000E+00  0.00000000000E+00  0.37791732705E+02  0.37791732705E+02  0.00000000000E+00 0.  1.
         -2   -1    0    0    0  501 -0.00000000000E+00 -0.00000000000E+00 -0.19126438568E+02  0.19126438568E+02  0.00000000000E+00 0. -1.
          1    1    1    2  502    0 -0.79902467368E+01 -0.25366154734E+02  0.51604311468E+01  0.27090882203E+02  0.00000000000E+00 0. -1.
         -1    1    1    2    0  501  0.79902467368E+01  0.25366154734E+02  0.13504862990E+02  0.29827289070E+02  0.00000000000E+00 0.  1.
</event>
<event>
 4    1  0.1322546E+002  0.2614536E+02  0.7546771E-02  0.1456387E+00
          2   -1    0    0  502    0  0.00000000000E+00  0.00000000000E+00  0.16745141627E+04  0.16745141627E+04  0.00000000000E+00 0.  1.
         -2   -1    0    0    0  501 -0.00000000000E+00 -0.00000000000E+00 -0.17754827948E+01  0.17754827948E+01  0.00000000000E+00 0. -1.
          1    1    1    2  502    0  0.11201787512E+02 -0.23624136100E+02  0.15718748198E+04  0.15720922457E+04  0.00000000000E+00 0.  1.
         -1    1    1    2    0  501 -0.11201787512E+02  0.23624136100E+02  0.10086386011E+03  0.10419739981E+03  0.00000000000E+00 0. -1.
</event>
<event>
 4    1  0.1322546E+002  0.2122089E+02  0.7546771E-02  0.1516134E+00
          2   -1    0    0  502    0  0.00000000000E+00  0.00000000000E+00  0.14066272991E+04  0.14066272991E+04  0.00000000000E+00 0.  1.
         -2   -1    0    0    0  501 -0.00000000000E+00 -0.00000000000E+00 -0.33339673448E+00  0.33339673448E+00  0.00000000000E+00 0. -1.
          1    1    1    2  502    0  0.16298564441E+02  0.13589808658E+02  0.56290069144E+03  0.56330055435E+03  0.00000000000E+00 0. -1.
         -1    1    1    2    0  501 -0.16298564441E+02 -0.13589808658E+02  0.84339321097E+03  0.84366014153E+03  0.00000000000E+00 0.  1.
</event>
<event>
 4    1  0.1322546E+002  0.2395518E+02  0.7546771E-02  0.1480840E+00
          2   -1    0    0  502    0  0.00000000000E+00  0.00000000000E+00  0.75102883715E+01  0.75102883715E+01  0.00000000000E+00 0. -1.
         -2   -1    0    0    0  501 -0.00000000000E+00 -0.00000000000E+00 -0.12368539339E+03  0.12368539339E+03  0.00000000000E+00 0.  1.
          1    1    1    2  502    0 -0.11747596766E+02 -0.20876889975E+02 -0.98643483711E+02  0.10151052873E+03  0.00000000000E+00 0.  1.
         -1    1    1    2    0  501  0.11747596766E+02  0.20876889975E+02 -0.17531621311E+02  0.29685153033E+02  0.00000000000E+00 0. -1.
</event>
<event>
 4    1  0.1322546E+002  0.3224762E+02  0.7546771E-02  0.1401020E+00
          2   -1    0    0  502    0  0.00000000000E+00  0.00000000000E+00  0.55737005330E+03  0.55737005330E+03  0.00000000000E+00 0. -1.
         -2   -1    0    0    0  501 -0.00000000000E+00 -0.00000000000E+00 -0.36226485531E+01  0.36226485531E+01  0.00000000000E+00 0.  1.
          1    1    1    2  502    0  0.17359231217E+02 -0.27176568371E+02  0.81534939778E+02  0.87680415039E+02  0.00000000000E+00 0.  1.
         -1    1    1    2    0  501 -0.17359231217E+02  0.27176568371E+02  0.47221246497E+03  0.47331228682E+03  0.00000000000E+00 0. -1.
</event>
<event>
 4    1  0.1322546E+002  0.2125100E+02  0.7546771E-02  0.1515711E+00
          2   -1    0    0  502    0  0.00000000000E+00  0.00000000000E+00  0.14772736917E+03  0.14772736917E+03  0.00000000000E+00 0. -1.
         -2   -1    0    0    0  501 -0.00000000000E+00 -0.00000000000E+00 -0.34441465661E+01  0.34441465661E+01  0.00000000000E+00 0.  1.
          1    1    1    2  502    0 -0.17707476196E+02 -0.11749474343E+02  0.46800353967E+02  0.51399202250E+02  0.00000000000E+00 0.  1.
         -1    1    1    2    0  501  0.17707476196E+02  0.11749474343E+02  0.97482868632E+02  0.99772313481E+02  0.00000000000E+00 0. -1.
</event>
<event>
 4    1  0.1322546E+002  0.2203320E+02  0.7546771E-02  0.1505009E+00
          2   -1    0    0  502    0  0.00000000000E+00  0.00000000000E+00  0.18752366751E+04  0.18752366751E+04  0.00000000000E+00 0.  1.
         -2   -1    0    0    0  501 -0.00000000000E+00 -0.00000000000E+00 -0.38553520872E+00  0.38553520872E+00  0.00000000000E+00 0. -1.
          1    1    1    2  502    0  0.11057124454E+02  0.19057860843E+02  0.14749449817E+04  0.14751095421E+04  0.00000000000E+00 0.  1.
         -1    1    1    2    0  501 -0.11057124454E+02 -0.19057860843E+02  0.39990615814E+03  0.40051266819E+03  0.00000000000E+00 0. -1.
</event>
<event>
 4    1  0.1322546E+002  0.5320677E+02  0.7546771E-02  0.1284837E+00
          2   -1    0    0  502    0  0.00000000000E+00  0.00000000000E+00  0.37872843918E+01  0.37872843918E+01  0.00000000000E+00 0.  1.
         -2   -1    0    0    0  501 -0.00000000000E+00 -0.00000000000E+00 -0.77219821134E+03  0.77219821134E+03  0.00000000000E+00 0. -1.
          1    1    1    2  502    0  0.53199473216E+02 -0.88134937319E+00 -0.45360741846E+03  0.45671725477E+03  0.00000000000E+00 0.  1.
         -1    1    1    2    0  501 -0.53199473216E+02  0.88134937319E+00 -0.31480350849E+03  0.31926824096E+03  0.00000000000E+00 0. -1.
</event>
<event>
 4    1  0.1322546E+002  0.3945610E+02  0.7546771E-02  0.1351703E+00
          2   -1    0    0  502    0  0.00000000000E+00  0.00000000000E+00  0.21036019679E+03  0.21036019679E+03  0.00000000000E+00 0.  1.
         -2   -1    0    0    0  501 -0.00000000000E+00 -0.00000000000E+00 -0.92392931441E+01  0.92392931441E+01  0.00000000000E+00 0. -1.
          1    1    1    2  502    0  0.27922542906E+02  0.27876790668E+02  0.14954295464E+03  0.15466052872E+03  0.00000000000E+00 0.  1.
         -1    1    1    2    0  501 -0.27922542906E+02 -0.27876790668E+02  0.51577949000E+02  0.64938961212E+02  0.00000000000E+00 0. -1.
</event>
<event>
 4    1  0.1322546E+002  0.2993614E+02  0.7546771E-02  0.1420152E+00
          2   -1    0    0  502    0  0.00000000000E+00  0.00000000000E+00  0.15053296518E+04  0.15053296518E+04  0.00000000000E+00 0.  1.
         -2   -1    0    0    0  501 -0.00000000000E+00 -0.00000000000E+00 -0.13427969199E+01  0.13427969199E+01  0.00000000000E+00 0. -1.
          1    1    1    2  502    0  0.52066699035E+01 -0.29479875539E+02  0.18993846163E+03  0.19228310295E+03  0.00000000000E+00 0. -1.
         -1    1    1    2    0  501 -0.52066699035E+01  0.29479875539E+02  0.13140483933E+04  0.13143893458E+04  0.00000000000E+00 0.  1.
</event>
<event>
 4    1  0.1322546E+002  0.2279283E+02  0.7546771E-02  0.1495116E+00
          2   -1    0    0  502    0  0.00000000000E+00  0.00000000000E+00  0.61555439942E+03  0.61555439942E+03  0.00000000000E+00 0.  1.
         -2   -1    0    0    0  501 -0.00000000000E+00 -0.00000000000E+00 -0.10487877803E+01  0.10487877803E+01  0.00000000000E+00 0. -1.
          1    1    1    2  502    0  0.22137964826E+02 -0.54243519034E+01  0.17101127044E+03  0.17252352795E+03  0.00000000000E+00 0. -1.
         -1    1    1    2    0  501 -0.22137964826E+02  0.54243519034E+01  0.44349434120E+03  0.44407965925E+03  0.00000000000E+00 0.  1.
</event>
<event>
 4    1  0.1322546E+002  0.2086060E+02  0.7546771E-02  0.1521265E+00
          2   -1    0    0  502    0  0.00000000000E+00  0.00000000000E+00  0.10580182616E+04  0.10580182616E+04  0.00000000000E+00 0. -1.
         -2   -1    0    0    0  501 -0.00000000000E+00 -0.00000000000E+00 -0.54893236182E+00  0.54893236182E+00  0.00000000000E+00 0.  1.
          1    1    1    2  502    0 -0.17285357537E+02  0.11678222872E+02  0.79375974027E+03  0.79403380895E+03  0.00000000000E+00 0.  1.
         -1    1    1    2    0  501  0.17285357537E+02 -0.11678222872E+02  0.26370958901E+03  0.26453338506E+03  0.00000000000E+00 0. -1.
</event>
<event>
 4    1  0.1322546E+002  0.2096008E+02  0.7546771E-02  0.1519836E+00
          2   -1    0    0  502    0  0.00000000000E+00  0.00000000000E+00  0.30747445148E+01  0.30747445148E+01  0.00000000000E+00 0. -1.
         -2   -1    0    0    0  501 -0.00000000000E+00 -0.00000000000E+00 -0.14658881746E+03  0.14658881746E+03  0.00000000000E+00 0.  1.
          1    1    1    2  502    0 -0.20072243780E+02  0.60357209744E+01 -0.59856939348E+02  0.63420644006E+02  0.00000000000E+00 0.  1.
         -1    1    1    2    0  501  0.20072243780E+02 -0.60357209744E+01 -0.83657133599E+02  0.86242917970E+02  0.00000000000E+00 0. -1.
</event>
<event>
 4    1  0.1322546E+002  0.8830878E+02  0.7546771E-02  0.1185771E+00
          2   -1    0    0  502    0  0.00000000000E+00  0.00000000000E+00  0.23264604183E+03  0.23264604183E+03  0.00000000000E+00 0. -1.
         -2   -1    0    0    0  501 -0.00000000000E+00 -0.00000000000E+00 -0.34134140817E+02  0.34134140817E+02  0.00000000000E+00 0.  1.
          1    1    1    2  502    0 -0.44479972005E+02 -0.76288750513E+02  0.81372925154E+02  0.12008328074E+03  0.00000000000E+00 0. -1.
         -1    1    1    2    0  501  0.44479972005E+02  0.76288750513E+02  0.11713897586E+03  0.14669690191E+03  0.00000000000E+00 0.  1.
</event>
<event>
 4    1  0.1322546E+002  0.2096061E+02  0.7546771E-02  0.1519828E+00
          2   -1    0    0  502    0  0.00000000000E+00  0.00000000000E+00  0.15521477446E+02  0.15521477446E+02  0.00000000000E+00 0. -1.
         -2   -1    0    0    0  501 -0.00000000000E+00 -0.00000000000E+00 -0.34482142642E+02  0.34482142642E+02  0.00000000000E+00 0.  1.
          1    1    1    2  502    0  0.15214268241E+01 -0.20905320247E+02 -0.20061694415E+02  0.29014112721E+02  0.00000000000E+00 0.  1.
         -1    1    1    2    0  501 -0.15214268241E+01  0.20905320247E+02  0.11010292181E+01  0.20989507367E+02  0.00000000000E+00 0. -1.
</event>
<event>
 4    1  0.1322546E+002  0.2690001E+02  0.7546771E-02  0.1448615E+00
          2   -1    0    0  502    0  0.00000000000E+00  0.00000000000E+00  0.12005309375E+02  0.12005309375E+02  0.00000000000E+00 0.  1.
         -2   -1    0    0    0  501 -0.00000000000E+00 -0.00000000000E+00 -0.20233697517E+03  0.20233697517E+03  0.00000000000E+00 0. -1.
          1    1    1    2  502    0 -0.26523999149E+02 -0.44819762565E+01 -0.18496666309E+03  0.18691248512E+03  0.00000000000E+00 0. -1.
         -1    1    1    2    0  501  0.26523999149E+02  0.44819762565E+01 -0.53650027057E+01  0.27429799417E+02  0.00000000000E+00 0.  1.
</event>
<event>
 4    1  0.1322546E+002  0.2097877E+02  0.7546771E-02  0.1519568E+00
          2   -1    0    0  502    0  0.00000000000E+00  0.00000000000E+00  0.11533432322E+04  0.11533432322E+04  0.00000000000E+00 0. -1.
         -2   -1    0    0    0  501 -0.00000000000E+00 -0.00000000000E+00 -0.39215332374E+00  0.39215332374E+00  0.00000000000E+00 0.  1.
          1    1    1    2  502    0  0.18439056410E+02 -0.10005489410E+02  0.67113642393E+03  0.67146422701E+03  0.00000000000E+00 0. -1.
         -1    1    1    2    0  501 -0.18439056410E+02  0.10005489410E+02  0.48181465494E+03  0.48227115852E+03  0.00000000000E+00 0.  1.
</event>
<event>
 4    1  0.1322546E+002  0.2153827E+02  0.7546771E-02  0.1511717E+00
          2   -1    0    0  502    0  0.00000000000E+00  0.00000000000E+00  0.39053667041E+03  0.39053667041E+03  0.00000000000E+00 0.  1.
         -2   -1    0    0    0  501 -0.00000000000E+00 -0.00000000000E+00 -0.12654849328E+01  0.12654849328E+01  0.00000000000E+00 0. -1.
          1    1    1    2  502    0 -0.83124544508E+01  0.19869581318E+02  0.24315885418E+03  0.24411088777E+03  0.00000000000E+00 0. -1.
         -1    1    1    2    0  501  0.83124544508E+01 -0.19869581318E+02  0.14611233129E+03  0.14769126757E+03  0.00000000000E+00 0.  1.
</event>
<event>
 4    1  0.1322546E+002  0.5476384E+02  0.7546771E-02  0.1278742E+00
          2   -1    0    0  502    0  0.00000000000E+00  0.00000000000E+00  0.18271403092E+04  0.18271403092E+04  0.00000000000E+00 0. -1.
         -2   -1    0    0    0  501 -0.00000000000E+00 -0.00000000000E+00 -0.29223309867E+01  0.29223309867E+01  0.00000000000E+00 0.  1.
          1    1    1    2  502    0 -0.11922495627E+02 -0.53450276379E+02  0.30630349097E+03  0.31116057997E+03  0.00000000000E+00 0.  1.
         -1    1    1    2    0  501  0.11922495627E+02  0.53450276379E+02  0.15179144872E+04  0.15189020602E+04  0.00000000000E+00 0. -1.
</event>
<event>
 4    1  0.1322546E+002  0.2437967E+02  0.7546771E-02  0.1475864E+00
          2   -1    0    0  502    0  0.00000000000E+00  0.00000000000E+00  0.11242967819E+01  0.11242967819E+01  0.00000000000E+00 0. -1.
         -2   -1    0    0    0  501 -0.00000000000E+00 -0.00000000000E+00 -0.56398781466E+03  0.56398781466E+03  0.00000000000E+00 0.  1.
          1    1    1    2  502    0  0.17819802169E+02  0.16638002513E+02 -0.21071204427E+03  0.21211773636E+03  0.00000000000E+00 0. -1.
         -1    1    1    2    0  501 -0.17819802169E+02 -0.16638002513E+02 -0.35215147361E+03  0.35299437509E+03  0.00000000000E+00 0.  1.
</event>
<event>
 4    1  0.1322546E+002  0.2179376E+02  0.7546771E-02  0.1508227E+00
          2   -1    0    0  502    0  0.00000000000E+00  0.00000000000E+00  0.84374043706E+03  0.84374043706E+03  0.00000000000E+00 0. -1.
         -2   -1    0    0    0  501 -0.00000000000E+00 -0.00000000000E+00 -0.67399371750E+00  0.67399371750E+00  0.00000000000E+00 0.  1.
          1    1    1    2  502    0  0.21759438460E+02  0.12226957558E+01  0.25014510036E+03  0.25109269082E+03  0.00000000000E+00 0.  1.
         -1    1    1    2    0  501 -0.21759438460E+02 -0.12226957558E+01  0.59292134298E+03  0.59332173996E+03  0.00000000000E+00 0. -1.
</event>
<event>
 4    1  0.1322546E+002  0.2661672E+02  0.7546771E-02  0.1451497E+00
          2   -1    0    0  502    0  0.00000000000E+00  0.00000000000E+00  0.10012954194E+04  0.10012954194E+04  0.00000000000E+00 0.  1.
         -2   -1    0    0    0  501 -0.00000000000E+00 -0.00000000000E+00 -0.83328058433E+00  0.83328058433E+00  0.00000000000E+00 0. -1.
          1    1    1    2  502    0 -0.17681425100E+02 -0.19895148943E+02  0.30558422585E+03  0.30674120825E+03  0.00000000000E+00 0. -1.
         -1    1    1    2    0  501  0.17681425100E+02  0.19895148943E+02  0.69487791291E+03  0.69538749169E+03  0.00000000000E+00 0.  1.
</event>
<event>
 4    1  0.1322546E+002  0.2657885E+02  0.7546771E-02  0.1451885E+00
          2   -1    0    0  502    0  0.00000000000E+00  0.00000000000E+00  0.27650371241E+01  0.27650371241E+01  0.00000000000E+00 0. -1.
         -2   -1    0    0    0  501 -0.00000000000E+00 -0.00000000000E+00 -0.28011179216E+03  0.28011179216E+03  0.00000000000E+00 0.  1.
          1    1    1    2  502    0  0.22171948823E+02  0.14657418632E+02 -0.96738576302E+02  0.10032341392E+03  0.00000000000E+00 0. -1.
         -1    1    1    2    0  501 -0.22171948823E+02 -0.14657418632E+02 -0.18060817873E+03  0.18255341536E+03  0.00000000000E+00 0.  1.
</event>
<event>
 4    1  0.1322546E+002  0.2027466E+02  0.7546771E-02  0.1529878E+00
          2   -1    0    0  502    0  0.00000000000E+00  0.00000000000E+00  0.16674110814E+04  0.16674110814E+04  0.00000000000E+00 0. -1.
         -2   -1    0    0    0  501 -0.00000000000E+00 -0.00000000000E+00 -0.24894654801E+00  0.24894654801E+00  0.00000000000E+00 0.  1.
          1    1    1    2  502    0 -0.18038889756E+02 -0.92552760089E+01  0.91578658340E+03  0.91601098684E+03  0.00000000000E+00 0.  1.
         -1    1    1    2    0  501  0.18038889756E+02  0.92552760089E+01  0.75137555150E+03  0.75164904115E+03  0.00000000000E+00 0. -1.
</event>
<event>
 4    1  0.1322546E+002  0.2000992E+02  0.7546771E-02  0.1533884E+00
          2   -1    0    0  502    0  0.00000000000E+00  0.00000000000E+00  0.10919091776E+03  0.10919091776E+03  0.00000000000E+00 0.  1.
         -2   -1    0    0    0  501 -0.00000000000E+00 -0.00000000000E+00 -0.45023980109E+01  0.45023980109E+01  0.00000000000E+00 0. -1.
          1    1    1    2  502    0 -0.12886061543E+02  0.15308375760E+02  0.27856765964E+02  0.34298634965E+02  0.00000000000E+00 0. -1.
         -1    1    1    2    0  501  0.12886061543E+02 -0.15308375760E+02  0.76831753786E+02  0.79394680807E+02  0.00000000000E+00 0.  1.
</event>
<event>
 4    1  0.1322546E+002  0.2728928E+02  0.7546771E-02  0.1444724E+00
          2   -1    0    0  502    0  0.00000000000E+00  0.00000000000E+00  0.11916100024E+02  0.11916100024E+02  0.00000000000E+00 0. -1.
         -2   -1    0    0    0  501 -0.00000000000E+00 -0.00000000000E+00 -0.72520699630E+02  0.72520699630E+02  0.00000000000E+00 0.  1.
          1    1    1    2  502    0  0.10375477753E+02  0.25239929533E+02 -0.45999194386E+02  0.53484862023E+02  0.00000000000E+00 0.  1.
         -1    1    1    2    0  501 -0.10375477753E+02 -0.25239929533E+02 -0.14605405220E+02  0.30951937631E+02  0.00000000000E+00 0. -1.
</event>
<event>
 4    1  0.1322546E+002  0.2304796E+02  0.7546771E-02  0.1491897E+00
          2   -1    0    0  502    0  0.00000000000E+00  0.00000000000E+00  0.38892984423E+02  0.38892984423E+02  0.00000000000E+00 0.  1.
         -2   -1    0    0    0  501 -0.00000000000E+00 -0.00000000000E+00 -0.23989078584E+02  0.23989078584E+02  0.00000000000E+00 0. -1.
          1    1    1    2  502    0 -0.22450308571E+02 -0.52146192653E+01 -0.13180857517E+02  0.26550774262E+02  0.00000000000E+00 0. -1.
         -1    1    1    2    0  501  0.22450308571E+02  0.52146192653E+01  0.28084763357E+02  0.36331288744E+02  0.00000000000E+00 0.  1.
</event>
<event>
 4    1  0.1322546E+002  0.2386167E+02  0.7546771E-02  0.1481953E+00
          2   -1    0    0  502    0  0.00000000000E+00  0.00000000000E+00  0.15451977209E+01  0.15451977209E+01  0.00000000000E+00 0. -1.
         -2   -1    0    0    0  501 -0.00000000000E+00 -0.00000000000E+00 -0.59881442441E+03  0.59881442441E+03  0.00000000000E+00 0.  1.
          1    1    1    2  502    0 -0.13187335222E+02  0.19886520075E+02 -0.48480547399E+03  0.48539234348E+03  0.00000000000E+00 0.  1.
         -1    1    1    2    0  501  0.13187335222E+02 -0.19886520075E+02 -0.11246375269E+03  0.11496727865E+03  0.00000000000E+00 0. -1.
</event>
<event>
 4    1  0.1322546E+002  0.2817773E+02  0.7546771E-02  0.1436123E+00
          2   -1    0    0  502    0  0.00000000000E+00  0.00000000000E+00  0.12204644217E+04  0.12204644217E+04  0.00000000000E+00 0.  1.
         -2   -1    0    0    0  501 -0.00000000000E+00 -0.00000000000E+00 -0.86032844992E+00  0.86032844992E+00  0.00000000000E+00 0. -1.
          1    1    1    2  502    0 -0.26565371239E+02 -0.93949822155E+01  0.91133841053E+03  0.91177392107E+03  0.00000000000E+00 0.  1.
         -1    1    1    2    0  501  0.26565371239E+02  0.93949822155E+01  0.30826568273E+03  0.30955082909E+03  0.00000000000E+00 0. -1.
</event>
<event>
 4    1  0.1322546E+002  0.2040448E+02  0.7546771E-02  0.1527940E+00
          2   -1    0    0  502    0  0.00000000000E+00  0.00000000000E+00  0.66049636811E+03  0.66049636811E+03  0.00000000000E+00 0.  1.
         -2   -1    0    0    0  501 -0.00000000000E+00 -0.00000000000E+00 -0.63160176265E+00  0.63160176265E+00  0.00000000000E+00 0. -1.
          1    1    1    2  502    0  0.20330088215E+02 -0.17407683612E+01  0.34465855797E+03  0.34526202273E+03  0.00000000000E+00 0.  1.
         -1    1    1    2    0  501 -0.20330088215E+02  0.17407683612E+01  0.31520620838E+03  0.31586594714E+03  0.00000000000E+00 0. -1.
</event>
<event>
 4    1  0.1322546E+002  0.2070053E+02  0.7546771E-02  0.1523584E+00
          2   -1    0    0  502    0  0.00000000000E+00  0.00000000000E+00  0.16123179936E+02  0.16123179936E+02  0.00000000000E+00 0.  1.
         -2   -1    0    0    0  501 -0.00000000000E+00 -0.00000000000E+00 -0.46120094865E+02  0.46120094865E+02  0.00000000000E+00 0. -1.
          1    1    1    2  502    0  0.32111288662E+01 -0.20449952049E+02  0.52601591243E+01  0.21358397913E+02  0.00000000000E+00 0.  1.
         -1    1    1    2    0  501 -0.32111288662E+01  0.20449952049E+02 -0.35257074053E+02  0.40884876888E+02  0.00000000000E+00 0. -1.
</event>
<event>
 4    1  0.1322546E+002  0.2144571E+02  0.7546771E-02  0.1512995E+00
          2   -1    0    0  502    0  0.00000000000E+00  0.00000000000E+00  0.91009886892E+03  0.91009886892E+03  0.00000000000E+00 0. -1.
         -2   -1    0    0    0  501 -0.00000000000E+00 -0.00000000000E+00 -0.60083699879E+00  0.60083699879E+00  0.00000000000E+00 0.  1.
          1    1    1    2  502    0  0.13390229712E+02  0.16751725729E+02  0.63627497101E+03  0.63663628337E+03  0.00000000000E+00 0. -1.
         -1    1    1    2    0  501 -0.13390229712E+02 -0.16751725729E+02  0.27322306090E+03  0.27406342254E+03  0.00000000000E+00 0.  1.
</event>
<event>
 4    1  0.1322546E+002  0.2248774E+02  0.7546771E-02  0.1499033E+00
          2   -1    0    0  502    0  0.00000000000E+00  0.00000000000E+00  0.19378584557E+04  0.19378584557E+04  0.00000000000E+00 0. -1.
         -2   -1    0    0    0  501 -0.00000000000E+00 -0.00000000000E+00 -0.30945826812E+00  0.30945826812E+00  0.00000000000E+00 0.  1.
          1    1    1    2  502    0  0.14627894085E+02 -0.17079905082E+02  0.13524245459E+04  0.13526114930E+04  0.00000000000E+00 0. -1.
         -1    1    1    2    0  501 -0.14627894085E+02  0.17079905082E+02  0.58512445145E+03  0.58555642096E+03  0.00000000000E+00 0.  1.
</event>
<event>
 4    1  0.1322546E+002  0.2221495E+02  0.7546771E-02  0.1502599E+00
          2   -1    0    0  502    0  0.00000000000E+00  0.00000000000E+00  0.17444895464E+04  0.17444895464E+04  0.00000000000E+00 0.  1.
         -2   -1    0    0    0  501 -0.00000000000E+00 -0.00000000000E+00 -0.30614614552E+00  0.30614614552E+00  0.00000000000E+00 0. -1.
          1    1    1    2  502    0 -0.19627946245E+02 -0.10404213948E+02  0.63166055881E+03  0.63205107824E+03  0.00000000000E+00 0. -1.
         -1    1    1    2    0  501  0.19627946245E+02  0.10404213948E+02  0.11125228415E+04  0.11127446143E+04  0.00000000000E+00 0.  1.
</event>
<event>
 4    1  0.1322546E+002  0.2068749E+02  0.7546771E-02  0.1523774E+00
          2   -1    0    0  502    0  0.00000000000E+00  0.00000000000E+00  0.71409218987E+00  0.71409218987E+00  0.00000000000E+00 0. -1.
         -2   -1    0    0    0  501 -0.00000000000E+00 -0.00000000000E+00 -0.11695464972E+04  0.11695464972E+04  0.00000000000E+00 0.  1.
          1    1    1    2  502    0 -0.83075465175E+01  0.18946159144E+02 -0.99298592349E+03  0.99320139776E+03  0.00000000000E+00 0.  1.
         -1    1    1    2    0  501  0.83075465175E+01 -0.18946159144E+02 -0.17584648153E+03  0.17705919163E+03  0.00000000000E+00 0. -1.
</event>
<event>
 4    1  0.1322546E+002  0.2262666E+02  0.7546771E-02  0.1497240E+00
          2   -1    0    0  502    0  0.00000000000E+00  0.00000000000E+00  0.25606466954E+01  0.25606466954E+01  0.00000000000E+00 0.  1.
         -2   -1    0    0    0  501 -0.00000000000E+00 -0.00000000000E+00 -0.19995786727E+03  0.19995786727E+03  0.00000000000E+00 0. -1.
          1    1    1    2  502    0  0.51233729449E+01  0.22038985772E+02 -0.97643352015E+02  0.10023068411E+03  0.00000000000E+00 0. -1.
         -1    1    1    2    0  501 -0.51233729449E+01 -0.22038985772E+02 -0.99753868563E+02  0.10228782986E+03  0.00000000000E+00 0.  1.
</event>
<event>
 4    1  0.1322546E+002  0.2641449E+02  0.7546771E-02  0.1453580E+00
          2   -1    0    0  502    0  0.00000000000E+00  0.00000000000E+00  0.54609138653E+03  0.54609138653E+03  0.00000000000E+00 0. -1.
         -2   -1    0    0    0  501 -0.00000000000E+00 -0.00000000000E+00 -0.15598339185E+01  0.15598339185E+01  0.00000000000E+00 0.  1.
          1    1    1    2  502    0 -0.25953149525E+02 -0.49151893230E+01  0.38872796685E+03  0.38962437971E+03  0.00000000000E+00 0. -1.
         -1    1    1    2    0  501  0.25953149525E+02  0.49151893230E+01  0.15580358577E+03  0.15802684074E+03  0.00000000000E+00 0.  1.
</event>
<event>
 4    1  0.1322546E+002  0.2890509E+02  0.7546771E-02  0.1429356E+00
          2   -1    0    0  502    0  0.00000000000E+00  0.00000000000E+00  0.87176627188E+02  0.87176627188E+02  0.00000000000E+00 0.  1.
         -2   -1    0    0    0  501 -0.00000000000E+00 -0.00000000000E+00 -0.13512879906E+02  0.13512879906E+02  0.00000000000E+00 0. -1.
          1    1    1    2  502    0  0.28879957967E+02 -0.12050920013E+01  0.96854597163E+01  0.30484624794E+02  0.00000000000E+00 0.  1.
         -1    1    1    2    0  501 -0.28879957967E+02  0.12050920013E+01  0.63978287565E+02  0.70204882300E+02  0.00000000000E+00 0. -1.
</event>
<event>
 4    1  0.1322546E+002  0.2681445E+02  0.7546771E-02  0.1449481E+00
          2   -1    0    0  502    0  0.00000000000E+00  0.00000000000E+00  0.64166753388E+03  0.64166753388E+03  0.00000000000E+00 0.  1.
         -2   -1    0    0    0  501 -0.00000000000E+00 -0.00000000000E+00 -0.12084500625E+01  0.12084500625E+01  0.00000000000E+00 0. -1.
          1    1    1    2  502    0  0.24013724226E+02 -0.11931302119E+02  0.40692555624E+03  0.40780807157E+03  0.00000000000E+00 0. -1.
         -1    1    1    2    0  501 -0.24013724226E+02  0.11931302119E+02  0.23353352758E+03  0.23506791237E+03  0.00000000000E+00 0.  1.
</event>
<event>
 4    1  0.1322546E+002  0.2183423E+02  0.7546771E-02  0.1507680E+00
          2   -1    0    0  502    0  0.00000000000E+00  0.00000000000E+00  0.18246079972E+03  0.18246079972E+03  0.00000000000E+00 0. -1.
         -2   -1    0    0    0  501 -0.00000000000E+00 -0.00000000000E+00 -0.31642598885E+01  0.31642598885E+01  0.00000000000E+00 0.  1.
          1    1    1    2  502    0 -0.12493782032E+02 -0.17906390044E+02  0.12839436127E+03  0.13023764970E+03  0.00000000000E+00 0. -1.
         -1    1    1    2    0  501  0.12493782032E+02  0.17906390044E+02  0.50902178558E+02  0.55387409904E+02  0.00000000000E+00 0.  1.
</event>
<event>
 4    1  0.1322546E+002  0.2358143E+02  0.7546771E-02  0.1485323E+00
          2   -1    0    0  502    0  0.00000000000E+00  0.00000000000E+00  0.58615798819E+02  0.58615798819E+02  0.00000000000E+00 0.  1.
         -2   -1    0    0    0  501 -0.00000000000E+00 -0.00000000000E+00 -0.13788763471E+02  0.13788763471E+02  0.00000000000E+00 0. -1.
          1    1    1    2  502    0  0.23369879899E+02 -0.31515688194E+01  0.21926243512E+01  0.23683143247E+02  0.00000000000E+00 0. -1.
         -1    1    1    2    0  501 -0.23369879899E+02  0.31515688194E+01  0.42634410996E+02  0.48721419043E+02  0.00000000000E+00 0.  1.
</event>
<event>
 4    1  0.1322546E+002  0.4217176E+02  0.7546771E-02  0.1336209E+00
          2   -1    0    0  502    0  0.00000000000E+00  0.00000000000E+00  0.50495867358E+01  0.50495867358E+01  0.00000000000E+00 0.  1.
         -2   -1    0    0    0  501 -0.00000000000E+00 -0.00000000000E+00 -0.35444578626E+03  0.35444578626E+03  0.00000000000E+00 0. -1.
          1    1    1    2  502    0  0.12606946961E+02  0.40243283905E+02 -0.18901058241E+03  0.19365809375E+03  0.00000000000E+00 0.  1.
         -1    1    1    2    0  501 -0.12606946961E+02 -0.40243283905E+02 -0.16038561711E+03  0.16583727924E+03  0.00000000000E+00 0. -1.
</event>
<event>
 4    1  0.1322546E+002  0.2418913E+02  0.7546771E-02  0.1478083E+00
          2   -1    0    0  502    0  0.00000000000E+00  0.00000000000E+00  0.65311705401E+03  0.65311705401E+03  0.00000000000E+00 0. -1.
         -2   -1    0    0    0  501 -0.00000000000E+00 -0.00000000000E+00 -0.93264126374E+00  0.93264126374E+00  0.00000000000E+00 0.  1.
          1    1    1    2  502    0 -0.22795032181E+02 -0.80932504005E+01  0.26116578313E+03  0.26228358788E+03  0.00000000000E+00 0.  1.
         -1    1    1    2    0  501  0.22795032181E+02  0.80932504005E+01  0.39101862962E+03  0.39176610739E+03  0.00000000000E+00 0. -1.
</event>
<event>
 4    1  0.1322546E+002  0.2359890E+02  0.7546771E-02  0.1485112E+00
          2   -1    0    0  502    0  0.00000000000E+00  0.00000000000E+00  0.32344580736E+03  0.32344580736E+03  0.00000000000E+00 0.  1.
         -2   -1    0    0    0  501 -0.00000000000E+00 -0.00000000000E+00 -0.18423357079E+01  0.18423357079E+01  0.00000000000E+00 0. -1.
          1    1    1    2  502    0  0.77740841293E+01  0.22281649609E+02  0.20240386907E+03  0.20377496045E+03  0.00000000000E+00 0. -1.
         -1    1    1    2    0  501 -0.77740841293E+01 -0.22281649609E+02  0.11919960259E+03  0.12151318262E+03  0.00000000000E+00 0.  1.
</event>
<event>
 4    1  0.1322546E+002  0.2448374E+02  0.7546771E-02  0.1474662E+00
          2   -1    0    0  502    0  0.00000000000E+00  0.00000000000E+00  0.52591664702E+03  0.52591664702E+03  0.00000000000E+00 0.  1.
         -2   -1    0    0    0  501 -0.00000000000E+00 -0.00000000000E+00 -0.11711749401E+01  0.11711749401E+01  0.00000000000E+00 0. -1.
          1    1    1    2  502    0  0.17229789632E+01  0.24423037980E+02  0.30549026795E+03  0.30646983090E+03  0.00000000000E+00 0. -1.
         -1    1    1    2    0  501 -0.17229789632E+01 -0.24423037980E+02  0.21925520413E+03  0.22061799106E+03  0.00000000000E+00 0.  1.
</event>
<event>
 4    1  0.1322546E+002  0.3111468E+02  0.7546771E-02  0.1410151E+00
          2   -1    0    0  502    0  0.00000000000E+00  0.00000000000E+00  0.11213307403E+03  0.11213307403E+03  0.00000000000E+00 0. -1.
         -2   -1    0    0    0  501 -0.00000000000E+00 -0.00000000000E+00 -0.10119155961E+02  0.10119155961E+02  0.00000000000E+00 0.  1.
          1    1    1    2  502    0 -0.20355762458E+02 -0.23532235833E+02  0.27587076477E+02  0.41583289638E+02  0.00000000000E+00 0.  1.
         -1    1    1    2    0  501  0.20355762458E+02  0.23532235833E+02  0.74426841587E+02  0.80668940349E+02  0.00000000000E+00 0. -1.
</event>
<event>
 4    1  0.1322546E+002  0.3250636E+02  0.7546771E-02  0.1398996E+00
          2   -1    0    0  502    0  0.00000000000E+00  0.00000000000E+00  0.87479649884E+03  0.87479649884E+03  0.00000000000E+00 0.  1.
         -2   -1    0    0    0  501 -0.00000000000E+00 -0.00000000000E+00 -0.12080323408E+01  0.12080323408E+01  0.00000000000E+00 0. -1.
          1    1    1    2  502    0  0.76572788004E+01  0.31591604339E+02  0.43214478997E+03  0.43336564571E+03  0.00000000000E+00 0.  1.
         -1    1    1    2    0  501 -0.76572788004E+01 -0.31591604339E+02  0.44144367653E+03  0.44263888548E+03  0.00000000000E+00 0. -1.
</event>
<event>
 4    1  0.1322546E+002  0.2779034E+02  0.7546771E-02  0.1439827E+00
          2   -1    0    0  502    0  0.00000000000E+00  0.00000000000E+00  0.14633933082E+04  0.14633933082E+04  0.00000000000E+00 0.  1.
         -2   -1    0    0    0  501 -0.00000000000E+00 -0.00000000000E+00 -0.80347109864E+00  0.80347109864E+00  0.00000000000E+00 0. -1.
          1    1    1    2  502    0 -0.10752414823E+01  0.27769529301E+02  0.30242963516E+03  0.30370378188E+03  0.00000000000E+00 0.  1.
         -1    1    1    2    0  501  0.10752414823E+01 -0.27769529301E+02  0.11601602019E+04  0.11604929974E+04  0.00000000000E+00 0. -1.
</event>
<event>
 4    1  0.1322546E+002  0.3274185E+02  0.7546771E-02  0.1397174E+00
          2   -1    0    0  502    0  0.00000000000E+00  0.00000000000E+00  0.11487759157E+04  0.11487759157E+04  0.00000000000E+00 0.  1.
         -2   -1    0    0    0  501 -0.00000000000E+00 -0.00000000000E+00 -0.32973068490E+01  0.32973068490E+01  0.00000000000E+00 0. -1.
          1    1    1    2  502    0  0.18261473065E+00  0.32741335944E+02  0.84980974231E+02  0.91070271817E+02  0.00000000000E+00 0. -1.
         -1    1    1    2    0  501 -0.18261473065E+00 -0.32741335944E+02  0.10604976347E+04  0.10610029508E+04  0.00000000000E+00 0.  1.
</event>
<event>
 4    1  0.1322546E+002  0.2106224E+02  0.7546771E-02  0.1518378E+00
          2   -1    0    0  502    0  0.00000000000E+00  0.00000000000E+00  0.12291736672E+04  0.12291736672E+04  0.00000000000E+00 0. -1.
         -2   -1    0    0    0  501 -0.00000000000E+00 -0.00000000000E+00 -0.37333571822E+00  0.37333571822E+00  0.00000000000E+00 0.  1.
          1    1    1    2  502    0 -0.16379489720E+02 -0.13241231645E+02  0.50223159836E+03  0.50267305109E+03  0.00000000000E+00 0.  1.
         -1    1    1    2    0  501  0.16379489720E+02  0.13241231645E+02  0.72656873310E+03  0.72687395181E+03  0.00000000000E+00 0. -1.
</event>
<event>
 4    1  0.1322546E+002  0.2823198E+02  0.7546771E-02  0.1435610E+00
          2   -1    0    0  502    0  0.00000000000E+00  0.00000000000E+00  0.73368835331E+02  0.73368835331E+02  0.00000000000E+00 0.  1.
         -2   -1    0    0    0  501 -0.00000000000E+00 -0.00000000000E+00 -0.12076603232E+02  0.12076603232E+02  0.00000000000E+00 0. -1.
          1    1    1    2  502    0 -0.16782958548E+02 -0.22701915315E+02  0.17105771272E+02  0.33009878330E+02  0.00000000000E+00 0.  1.
         -1    1    1    2    0  501  0.16782958548E+02  0.22701915315E+02  0.44186460826E+02  0.52435560233E+02  0.00000000000E+00 0. -1.
</event>
<event>
 4    1  0.1322546E+002  0.2606425E+02  0.7546771E-02  0.1457241E+00
          2   -1    0    0  502    0  0.00000000000E+00  0.00000000000E+00  0.23318749607E+04  0.23318749607E+04  0.00000000000E+00 0.  1.
         -2   -1    0    0    0  501 -0.00000000000E+00 -0.00000000000E+00 -0.29321332363E+00  0.29321332363E+00  0.00000000000E+00 0. -1.
          1    1    1    2  502    0  0.68611074553E+01  0.25144986783E+02  0.12592451831E+04  0.12595148972E+04  0.00000000000E+00 0.  1.
         -1    1    1    2    0  501 -0.68611074553E+01 -0.25144986783E+02  0.10723365642E+04  0.10726532768E+04  0.00000000000E+00 0. -1.
</event>
<event>
 4    1  0.1322546E+002  0.2475398E+02  0.7546771E-02  0.1471574E+00
          2   -1    0    0  502    0  0.00000000000E+00  0.00000000000E+00  0.12057304331E+04  0.12057304331E+04  0.00000000000E+00 0.  1.
         -2   -1    0    0    0  501 -0.00000000000E+00 -0.00000000000E+00 -0.64846524442E+00  0.64846524442E+00  0.00000000000E+00 0. -1.
          1    1    1    2  502    0 -0.20360613770E+02 -0.14078527539E+02  0.88306885499E+03  0.88341573575E+03  0.00000000000E+00 0.  1.
         -1    1    1    2    0  501  0.20360613770E+02  0.14078527539E+02  0.32201311288E+03  0.32296316260E+03  0.00000000000E+00 0. -1.
</event>
<event>
 4    1  0.1322546E+002  0.2384898E+02  0.7546771E-02  0.1482104E+00
          2   -1    0    0  502    0  0.00000000000E+00  0.00000000000E+00  0.90695916039E+03  0.90695916039E+03  0.00000000000E+00 0.  1.
         -2   -1    0    0    0  501 -0.00000000000E+00 -0.00000000000E+00 -0.92319436083E+00  0.92319436083E+00  0.00000000000E+00 0. -1.
          1    1    1    2  502    0 -0.23847422494E+02 -0.27247916410E+00  0.19594754702E+03  0.19739355356E+03  0.00000000000E+00 0. -1.
         -1    1    1    2    0  501  0.23847422494E+02  0.27247916410E+00  0.71008841901E+03  0.71048880119E+03  0.00000000000E+00 0.  1.
</event>
<event>
 4    1  0.1322546E+002  0.2788277E+02  0.7546771E-02  0.1438936E+00
          2   -1    0    0  502    0  0.00000000000E+00  0.00000000000E+00  0.15190675998E+04  0.15190675998E+04  0.00000000000E+00 0. -1.
         -2   -1    0    0    0  501 -0.00000000000E+00 -0.00000000000E+00 -0.62409489546E+00  0.62409489546E+00  0.00000000000E+00 0.  1.
          1    1    1    2  502    0  0.27444364221E+02  0.49250233330E+01  0.43689772510E+03  0.43778655893E+03  0.00000000000E+00 0.  1.
         -1    1    1    2    0  501 -0.27444364221E+02 -0.49250233330E+01  0.10815457798E+04  0.10819051358E+04  0.00000000000E+00 0. -1.
</event>
<event>
 4    1  0.1322546E+002  0.2308828E+02  0.7546771E-02  0.1491393E+00
          2   -1    0    0  502    0  0.00000000000E+00  0.00000000000E+00  0.46600127573E+03  0.46600127573E+03  0.00000000000E+00 0. -1.
         -2   -1    0    0    0  501 -0.00000000000E+00 -0.00000000000E+00 -0.11440336903E+01  0.11440336903E+01  0.00000000000E+00 0.  1.
          1    1    1    2  502    0 -0.23054784398E+02 -0.12432453436E+01  0.23011259630E+03  0.23126797383E+03  0.00000000000E+00 0.  1.
         -1    1    1    2    0  501  0.23054784398E+02  0.12432453436E+01  0.23474464574E+03  0.23587733559E+03  0.00000000000E+00 0. -1.
</event>
<event>
 4    1  0.1322546E+002  0.2102588E+02  0.7546771E-02  0.1518896E+00
          2   -1    0    0  502    0  0.00000000000E+00  0.00000000000E+00  0.67500682376E+02  0.67500682376E+02  0.00000000000E+00 0. -1.
         -2   -1    0    0    0  501 -0.00000000000E+00 -0.00000000000E+00 -0.20199715896E+02  0.20199715896E+02  0.00000000000E+00 0.  1.
          1    1    1    2  502    0 -0.60573507962E+01 -0.20134455345E+02  0.59697602886E+02  0.63292113103E+02  0.00000000000E+00 0. -1.
         -1    1    1    2    0  501  0.60573507962E+01  0.20134455345E+02 -0.12396636406E+02  0.24408285169E+02  0.00000000000E+00 0.  1.
</event>
<event>
 4    1  0.1322546E+002  0.2446289E+02  0.7546771E-02  0.1474903E+00
          2   -1    0    0  502    0  0.00000000000E+00  0.00000000000E+00  0.38483113648E+03  0.38483113648E+03  0.00000000000E+00 0.  1.
         -2   -1    0    0    0  501 -0.00000000000E+00 -0.00000000000E+00 -0.20816380474E+01  0.20816380474E+01  0.00000000000E+00 0. -1.
          1    1    1    2  502    0 -0.24169160443E+02 -0.37794882224E+01  0.28867516344E+03  0.28970982523E+03  0.00000000000E+00 0.  1.
         -1    1    1    2    0  501  0.24169160443E+02  0.37794882224E+01  0.94074334989E+02  0.97202949294E+02  0.00000000000E+00 0. -1.
</event>
<event>
 4    1  0.1322546E+002  0.2761675E+02  0.7546771E-02  0.1441509E+00
          2   -1    0    0  502    0  0.00000000000E+00  0.00000000000E+00  0.12674590966E+03  0.12674590966E+03  0.00000000000E+00 0.  1.
         -2   -1    0    0    0  501 -0.00000000000E+00 -0.00000000000E+00 -0.75948461241E+01  0.75948461241E+01  0.00000000000E+00 0. -1.
          1    1    1    2  502    0 -0.16947487733E+02  0.21805213375E+02  0.90187510681E+02  0.94321109798E+02  0.00000000000E+00 0.  1.
         -1    1    1    2    0  501  0.16947487733E+02 -0.21805213375E+02  0.28963552853E+02  0.40019645984E+02  0.00000000000E+00 0. -1.
</event>
<event>
 4    1  0.1322546E+002  0.2310926E+02  0.7546771E-02  0.1491131E+00
          2   -1    0    0  502    0  0.00000000000E+00  0.00000000000E+00  0.71151950242E+03  0.71151950242E+03  0.00000000000E+00 0.  1.
         -2   -1    0    0    0  501 -0.00000000000E+00 -0.00000000000E+00 -0.75161089071E+00  0.75161089071E+00  0.00000000000E+00 0. -1.
          1    1    1    2  502    0  0.22914336398E+02  0.29951624617E+01  0.34206483899E+03  0.34284455936E+03  0.00000000000E+00 0. -1.
         -1    1    1    2    0  501 -0.22914336398E+02 -0.29951624617E+01  0.36870305253E+03  0.36942655394E+03  0.00000000000E+00 0.  1.
</event>
<event>
 4    1  0.1322546E+002  0.3062707E+02  0.7546771E-02  0.1414224E+00
          2   -1    0    0  502    0  0.00000000000E+00  0.00000000000E+00  0.30092098544E+04  0.30092098544E+04  0.00000000000E+00 0.  1.
         -2   -1    0    0    0  501 -0.00000000000E+00 -0.00000000000E+00 -0.31420060254E+00  0.31420060254E+00  0.00000000000E+00 0. -1.
          1    1    1    2  502    0 -0.15707327224E+02  0.26292531952E+02  0.13706231616E+04  0.13709653053E+04  0.00000000000E+00 0. -1.
         -1    1    1    2    0  501  0.15707327224E+02 -0.26292531952E+02  0.16382724922E+04  0.16385587497E+04  0.00000000000E+00 0.  1.
</event>
<event>
 4    1  0.1322546E+002  0.3574585E+02  0.7546771E-02  0.1375394E+00
          2   -1    0    0  502    0  0.00000000000E+00  0.00000000000E+00  0.71923456334E+01  0.71923456334E+01  0.00000000000E+00 0. -1.
         -2   -1    0    0    0  501 -0.00000000000E+00 -0.00000000000E+00 -0.23908444345E+03  0.23908444345E+03  0.00000000000E+00 0.  1.
          1    1    1    2  502    0  0.18873038075E+02  0.30357438331E+02 -0.17836284414E+03  0.18190950991E+03  0.00000000000E+00 0.  1.
         -1    1    1    2    0  501 -0.18873038075E+02 -0.30357438331E+02 -0.53529253675E+02  0.64367279166E+02  0.00000000000E+00 0. -1.
</event>
<event>
 4    1  0.1322546E+002  0.2635925E+02  0.7546771E-02  0.1454153E+00
          2   -1    0    0  502    0  0.00000000000E+00  0.00000000000E+00  0.35958439310E+03  0.35958439310E+03  0.00000000000E+00 0. -1.
         -2   -1    0    0    0  501 -0.00000000000E+00 -0.00000000000E+00 -0.50703240629E+01  0.50703240629E+01  0.00000000000E+00 0.  1.
          1    1    1    2  502    0 -0.15846291499E+02 -0.21064305726E+02  0.33818776776E+02  0.42877961619E+02  0.00000000000E+00 0.  1.
         -1    1    1    2    0  501  0.15846291499E+02  0.21064305726E+02  0.32069529226E+03  0.32177675555E+03  0.00000000000E+00 0. -1.
</event>
<event>
 4    1  0.1322546E+002  0.2148703E+02  0.7546771E-02  0.1512424E+00
          2   -1    0    0  502    0  0.00000000000E+00  0.00000000000E+00  0.18066081285E+03  0.18066081285E+03  0.00000000000E+00 0. -1.
         -2   -1    0    0    0  501 -0.00000000000E+00 -0.00000000000E+00 -0.38423701135E+01  0.38423701135E+01  0.00000000000E+00 0.  1.
          1    1    1    2  502    0 -0.17685487113E+01 -0.21414128687E+02  0.35023073744E+02  0.41089029758E+02  0.00000000000E+00 0.  1.
         -1    1    1    2    0  501  0.17685487113E+01  0.21414128687E+02  0.14179536899E+03  0.14341415320E+03  0.00000000000E+00 0. -1.
</event>
<event>
 4    1  0.1322546E+002  0.2050738E+02  0.7546771E-02  0.1526416E+00
          2   -1    0    0  502    0  0.00000000000E+00  0.00000000000E+00  0.62459710362E+03  0.62459710362E+03  0.00000000000E+00 0. -1.
         -2   -1    0    0    0  501 -0.00000000000E+00 -0.00000000000E+00 -0.72195555526E+00  0.72195555526E+00  0.00000000000E+00 0.  1.
          1    1    1    2  502    0  0.69627074764E+01 -0.19289201282E+02  0.23078514395E+03  0.23169448688E+03  0.00000000000E+00 0.  1.
         -1    1    1    2    0  501 -0.69627074764E+01  0.19289201282E+02  0.39309000411E+03  0.39362457230E+03  0.00000000000E+00 0. -1.
</event>
<event>
 4    1  0.1322546E+002  0.3010056E+02  0.7546771E-02  0.1418725E+00
          2   -1    0    0  502    0  0.00000000000E+00  0.00000000000E+00  0.30617241735E+03  0.30617241735E+03  0.00000000000E+00 0.  1.
         -2   -1    0    0    0  501 -0.00000000000E+00 -0.00000000000E+00 -0.29767405611E+01  0.29767405611E+01  0.00000000000E+00 0. -1.
          1    1    1    2  502    0 -0.91441548072E+01 -0.28678009027E+02  0.16344313747E+03  0.16619176560E+03  0.00000000000E+00 0.  1.
         -1    1    1    2    0  501  0.91441548072E+01  0.28678009027E+02  0.13975253932E+03  0.14295739231E+03  0.00000000000E+00 0. -1.
</event>
<event>
 4    1  0.1322546E+002  0.2074669E+02  0.7546771E-02  0.1522912E+00
          2   -1    0    0  502    0  0.00000000000E+00  0.00000000000E+00  0.17055336637E+04  0.17055336637E+04  0.00000000000E+00 0.  1.
         -2   -1    0    0    0  501 -0.00000000000E+00 -0.00000000000E+00 -0.27137291347E+00  0.27137291347E+00  0.00000000000E+00 0. -1.
          1    1    1    2  502    0 -0.20737734125E+02  0.60964336955E+00  0.10783292500E+04  0.10785288112E+04  0.00000000000E+00 0.  1.
         -1    1    1    2    0  501  0.20737734125E+02 -0.60964336955E+00  0.62693304084E+03  0.62727622542E+03  0.00000000000E+00 0. -1.
</event>
<event>
 4    1  0.1322546E+002  0.4482884E+02  0.7546771E-02  0.1322298E+00
          2   -1    0    0  502    0  0.00000000000E+00  0.00000000000E+00  0.23173431974E+03  0.23173431974E+03  0.00000000000E+00 0. -1.
         -2   -1    0    0    0  501 -0.00000000000E+00 -0.00000000000E+00 -0.10093152773E+02  0.10093152773E+02  0.00000000000E+00 0.  1.
          1    1    1    2  502    0  0.44824445857E+02 -0.62753955428E+00  0.65450843166E+02  0.79331189474E+02  0.00000000000E+00 0.  1.
         -1    1    1    2    0  501 -0.44824445857E+02  0.62753955428E+00  0.15619032380E+03  0.16249628304E+03  0.00000000000E+00 0. -1.
</event>
<event>
 4    1  0.1322546E+002  0.2360885E+02  0.7546771E-02  0.1484991E+00
          2   -1    0    0  502    0  0.00000000000E+00  0.00000000000E+00  0.94051183641E+03  0.94051183641E+03  0.00000000000E+00 0.  1.
         -2   -1    0    0    0  501 -0.00000000000E+00 -0.00000000000E+00 -0.69236499619E+00  0.69236499619E+00  0.00000000000E+00 0. -1.
          1    1    1    2  502    0 -0.19657469103E+02 -0.13075229345E+02  0.64851943562E+03  0.64894902427E+03  0.00000000000E+00 0.  1.
         -1    1    1    2    0  501  0.19657469103E+02  0.13075229345E+02  0.29130003579E+03  0.29225517714E+03  0.00000000000E+00 0. -1.
</event>
<event>
 4    1  0.1322546E+002  0.2685673E+02  0.7546771E-02  0.1449053E+00
          2   -1    0    0  502    0  0.00000000000E+00  0.00000000000E+00  0.98100388099E+03  0.98100388099E+03  0.00000000000E+00 0. -1.
         -2   -1    0    0    0  501 -0.00000000000E+00 -0.00000000000E+00 -0.27099939781E+01  0.27099939781E+01  0.00000000000E+00 0.  1.
          1    1    1    2  502    0  0.22681734686E+02  0.14381337896E+02  0.69281685088E+02  0.74305019054E+02  0.00000000000E+00 0.  1.
         -1    1    1    2    0  501 -0.22681734686E+02 -0.14381337896E+02  0.90901220192E+03  0.90940885591E+03  0.00000000000E+00 0. -1.
</event>
<event>
 4    1  0.1322546E+002  0.2024471E+02  0.7546771E-02  0.1530327E+00
          2   -1    0    0  502    0  0.00000000000E+00  0.00000000000E+00  0.13027864926E+02  0.13027864926E+02  0.00000000000E+00 0. -1.
         -2   -1    0    0    0  501 -0.00000000000E+00 -0.00000000000E+00 -0.32215662603E+02  0.32215662603E+02  0.00000000000E+00 0.  1.
          1    1    1    2  502    0 -0.12079726080E+02 -0.16245875707E+02 -0.13060001769E+02  0.24091739370E+02  0.00000000000E+00 0.  1.
         -1    1    1    2    0  501  0.12079726080E+02  0.16245875707E+02 -0.61277959086E+01  0.21151788160E+02  0.00000000000E+00 0. -1.
</event>
<event>
 4    1  0.1322546E+002  0.2182069E+02  0.7546771E-02  0.1507863E+00
          2   -1    0    0  502    0  0.00000000000E+00  0.00000000000E+00  0.18801129653E+04  0.18801129653E+04  0.00000000000E+00 0.  1.
         -2   -1    0    0    0  501 -0.00000000000E+00 -0.00000000000E+00 -0.35150762020E+00  0.35150762020E+00  0.00000000000E+00 0. -1.
          1    1    1    2  502    0 -0.39903284287E+01 -0.21452731242E+02  0.44277767588E+03  0.44331502643E+03  0.00000000000E+00 0. -1.
         -1    1    1    2    0  501  0.39903284287E+01  0.21452731242E+02  0.14369837818E+04  0.14371494465E+04  0.00000000000E+00 0.  1.
</event>
<event>
 4    1  0.1322546E+002  0.2145552E+02  0.7546771E-02  0.1512860E+00
          2   -1    0    0  502    0  0.00000000000E+00  0.00000000000E+00  0.27224553279E+03  0.27224553279E+03  0.00000000000E+00 0. -1.
         -2   -1    0    0    0  501 -0.00000000000E+00 -0.00000000000E+00 -0.18357042650E+01  0.18357042650E+01  0.00000000000E+00 0.  1.
          1    1    1    2  502    0  0.21268063132E+01 -0.21349849127E+02  0.17369438865E+03  0.17501451372E+03  0.00000000000E+00 0.  1.
         -1    1    1    2    0  501 -0.21268063132E+01  0.21349849127E+02  0.96715439870E+02  0.99066723334E+02  0.00000000000E+00 0. -1.
</event>
<event>
 4    1  0.1322546E+002  0.2076900E+02  0.7546771E-02  0.1522589E+00
          2   -1    0    0  502    0  0.00000000000E+00  0.00000000000E+00  0.51683850041E+01  0.51683850041E+01  0.00000000000E+00 0. -1.
         -2   -1    0    0    0  501 -0.00000000000E+00 -0.00000000000E+00 -0.83459939490E+02  0.83459939490E+02  0.00000000000E+00 0.  1.
          1    1    1    2  502    0 -0.87933835443E+01  0.18815620607E+02 -0.39052121529E+02  0.44231429650E+02  0.00000000000E+00 0. -1.
         -1    1    1    2    0  501  0.87933835443E+01 -0.18815620607E+02 -0.39239432957E+02  0.44396894844E+02  0.00000000000E+00 0.  1.
</event>
<event>
 4    1  0.1322546E+002  0.3424637E+02  0.7546771E-02  0.1385940E+00
          2   -1    0    0  502    0  0.00000000000E+00  0.00000000000E+00  0.18007584490E+04  0.18007584490E+04  0.00000000000E+00 0. -1.
         -2   -1    0    0    0  501 -0.00000000000E+00 -0.00000000000E+00 -0.15501830590E+01  0.15501830590E+01  0.00000000000E+00 0.  1.
          1    1    1    2  502    0  0.99157595435E+01 -0.32779434695E+02  0.21338629725E+03  0.21611692548E+03  0.00000000000E+00 0.  1.
         -1    1    1    2    0  501 -0.99157595435E+01  0.32779434695E+02  0.15858219687E+04  0.15861917065E+04  0.00000000000E+00 0. -1.
</event>
<event>
 4    1  0.1322546E+002  0.2129480E+02  0.7546771E-02  0.1515097E+00
          2   -1    0    0  502    0  0.00000000000E+00  0.00000000000E+00  0.14873784475E+03  0.14873784475E+03  0.00000000000E+00 0. -1.
         -2   -1    0    0    0  501 -0.00000000000E+00 -0.00000000000E+00 -0.48654701199E+01  0.48654701199E+01  0.00000000000E+00 0.  1.
          1    1    1    2  502    0  0.21087688305E+02 -0.29627407981E+01  0.25006350414E+02  0.32844877715E+02  0.00000000000E+00 0.  1.
         -1    1    1    2    0  501 -0.21087688305E+02  0.29627407981E+01  0.11886602422E+03  0.12075843716E+03  0.00000000000E+00 0. -1.
</event>
<event>
 4    1  0.1322546E+002  0.2808891E+02  0.7546771E-02  0.1436966E+00
          2   -1    0    0  502    0  0.00000000000E+00  0.00000000000E+00  0.41686261089E+02  0.41686261089E+02  0.00000000000E+00 0.  1.
         -2   -1    0    0    0  501 -0.00000000000E+00 -0.00000000000E+00 -0.19229083184E+02  0.19229083184E+02  0.00000000000E+00 0. -1.
          1    1    1    2  502    0 -0.51259335966E+01 -0.27617230722E+02  0.15047503082E+02  0.31865560987E+02  0.00000000000E+00 0.  1.
         -1    1    1    2    0  501  0.51259335966E+01  0.27617230722E+02  0.74096748226E+01  0.29049783286E+02  0.00000000000E+00 0. -1.
</event>
<event>
 4    1  0.1322546E+002  0.4820919E+02  0.7546771E-02  0.1306129E+00
          2   -1    0    0  502    0  0.00000000000E+00  0.00000000000E+00  0.95491459351E+03  0.95491459351E+03  0.00000000000E+00 0. -1.
         -2   -1    0    0    0  501 -0.00000000000E+00 -0.00000000000E+00 -0.25980212988E+01  0.25980212988E+01  0.00000000000E+00 0.  1.
          1    1    1    2  502    0 -0.94731533298E+01  0.47269282195E+02  0.35581209019E+03  0.35906318274E+03  0.00000000000E+00 0.  1.
         -1    1    1    2    0  501  0.94731533298E+01 -0.47269282195E+02  0.59650448202E+03  0.59844943207E+03  0.00000000000E+00 0. -1.
</event>
<event>
 4    1  0.1322546E+002  0.2541790E+02  0.7546771E-02  0.1464182E+00
          2   -1    0    0  502    0  0.00000000000E+00  0.00000000000E+00  0.17326977438E+02  0.17326977438E+02  0.00000000000E+00 0. -1.
         -2   -1    0    0    0  501 -0.00000000000E+00 -0.00000000000E+00 -0.37963023543E+02  0.37963023543E+02  0.00000000000E+00 0.  1.
          1    1    1    2  502    0  0.24356251733E+02  0.72693018843E+01 -0.14007293224E+02  0.29021957409E+02  0.00000000000E+00 0.  1.
         -1    1    1    2    0  501 -0.24356251733E+02 -0.72693018843E+01 -0.66287528816E+01  0.26268043572E+02  0.00000000000E+00 0. -1.
</event>
<event>
 4    1  0.1322546E+002  0.2015846E+02  0.7546771E-02  0.1531627E+00
          2   -1    0    0  502    0  0.00000000000E+00  0.00000000000E+00  0.16788431311E+03  0.16788431311E+03  0.00000000000E+00 0.  1.
         -2   -1    0    0    0  501 -0.00000000000E+00 -0.00000000000E+00 -0.54278268990E+01  0.54278268990E+01  0.00000000000E+00 0. -1.
          1    1    1    2  502    0  0.18349532531E+02 -0.83461388922E+01  0.14573074687E+03  0.14711836718E+03  0.00000000000E+00 0.  1.
         -1    1    1    2    0  501 -0.18349532531E+02  0.83461388922E+01  0.16725739341E+02  0.26193772828E+02  0.00000000000E+00 0. -1.
</event>
<event>
 4    1  0.1322546E+002  0.2629162E+02  0.7546771E-02  0.1454857E+00
          2   -1    0    0  502    0  0.00000000000E+00  0.00000000000E+00  0.75559246923E+01  0.75559246923E+01  0.00000000000E+00 0. -1.
         -2   -1    0    0    0  501 -0.00000000000E+00 -0.00000000000E+00 -0.93535622774E+02  0.93535622774E+02  0.00000000000E+00 0.  1.
          1    1    1    2  502    0  0.20946520080E+02  0.15890018991E+02 -0.50474996484E+02  0.56911990626E+02  0.00000000000E+00 0.  1.
         -1    1    1    2    0  501 -0.20946520080E+02 -0.15890018991E+02 -0.35504701598E+02  0.44179556840E+02  0.00000000000E+00 0. -1.
</event>
<event>
 4    1  0.1322546E+002  0.2018269E+02  0.7546771E-02  0.1531261E+00
          2   -1    0    0  502    0  0.00000000000E+00  0.00000000000E+00  0.32130109675E+03  0.32130109675E+03  0.00000000000E+00 0.  1.
         -2   -1    0    0    0  501 -0.00000000000E+00 -0.00000000000E+00 -0.20571821410E+01  0.20571821410E+01  0.00000000000E+00 0. -1.
          1    1    1    2  502    0 -0.18401595518E+02 -0.82899005659E+01  0.25977519619E+03  0.26055804291E+03  0.00000000000E+00 0.  1.
         -1    1    1    2    0  501  0.18401595518E+02  0.82899005659E+01  0.59468718418E+02  0.62800235981E+02  0.00000000000E+00 0. -1.
</event>
<event>
 4    1  0.1322546E+002  0.3011378E+02  0.7546771E-02  0.1418610E+00
          2   -1    0    0  502    0  0.00000000000E+00  0.00000000000E+00  0.73560296548E+03  0.73560296548E+03  0.00000000000E+00 0. -1.
         -2   -1    0    0    0  501 -0.00000000000E+00 -0.00000000000E+00 -0.14162317839E+01  0.14162317839E+01  0.00000000000E+00 0.  1.
          1    1    1    2  502    0  0.41632839923E+01 -0.29824598289E+02  0.23446457248E+03  0.23639051450E+03  0.00000000000E+00 0.  1.
         -1    1    1    2    0  501 -0.41632839923E+01  0.29824598289E+02  0.49972216122E+03  0.50062868277E+03  0.00000000000E+00 0. -1.
</event>
<event>
 4    1  0.1322546E+002  0.2034483E+02  0.7546771E-02  0.1528828E+00
          2   -1    0    0  502    0  0.00000000000E+00  0.00000000000E+00  0.69572590181E+02  0.69572590181E+02  0.00000000000E+00 0.  1.
         -2   -1    0    0    0  501 -0.00000000000E+00 -0.00000000000E+00 -0.64292413149E+01  0.64292413149E+01  0.00000000000E+00 0. -1.
          1    1    1    2  502    0  0.18999622809E+02  0.72750641906E+01  0.21189647414E+02  0.29375387374E+02  0.00000000000E+00 0. -1.
         -1    1    1    2    0  501 -0.18999622809E+02 -0.72750641906E+01  0.41953701452E+02  0.46626444122E+02  0.00000000000E+00 0.  1.
</event>
<event>
 4    1  0.1322546E+002  0.2102851E+02  0.7546771E-02  0.1518858E+00
          2   -1    0    0  502    0  0.00000000000E+00  0.00000000000E+00  0.50755226784E+03  0.50755226784E+03  0.00000000000E+00 0.  1.
         -2   -1    0    0    0  501 -0.00000000000E+00 -0.00000000000E+00 -0.12181057981E+01  0.12181057981E+01  0.00000000000E+00 0. -1.
          1    1    1    2  502    0 -0.20735761151E+02 -0.34966550019E+01  0.11741958028E+03  0.11928770356E+03  0.00000000000E+00 0. -1.
         -1    1    1    2    0  501  0.20735761151E+02  0.34966550019E+01  0.38891458176E+03  0.38948267008E+03  0.00000000000E+00 0.  1.
</event>
<event>
 4    1  0.1322546E+002  0.3433769E+02  0.7546771E-02  0.1385280E+00
          2   -1    0    0  502    0  0.00000000000E+00  0.00000000000E+00  0.23488108129E+02  0.23488108129E+02  0.00000000000E+00 0.  1.
         -2   -1    0    0    0  501 -0.00000000000E+00 -0.00000000000E+00 -0.72983358743E+02  0.72983358743E+02  0.00000000000E+00 0. -1.
          1    1    1    2  502    0 -0.31751308424E+02  0.13074062885E+02 -0.51698726705E+02  0.62063153722E+02  0.00000000000E+00 0. -1.
         -1    1    1    2    0  501  0.31751308424E+02 -0.13074062885E+02  0.22034760912E+01  0.34408313150E+02  0.00000000000E+00 0.  1.
</event>
<event>
 4    1  0.1322546E+002  0.2485093E+02  0.7546771E-02  0.1470478E+00
          2   -1    0    0  502    0  0.00000000000E+00  0.00000000000E+00  0.67450881505E+03  0.67450881505E+03  0.00000000000E+00 0.  1.
         -2   -1    0    0    0  501 -0.00000000000E+00 -0.00000000000E+00 -0.13030687521E+01  0.13030687521E+01  0.00000000000E+00 0. -1.
          1    1    1    2  502    0  0.17714839690E+02  0.17428510914E+02  0.52086677103E+03  0.52145926178E+03  0.00000000000E+00 0.  1.
         -1    1    1    2    0  501 -0.17714839690E+02 -0.17428510914E+02  0.15233897527E+03  0.15435262202E+03  0.00000000000E+00 0. -1.
</event>
<event>
 4    1  0.1322546E+002  0.3086156E+02  0.7546771E-02  0.1412254E+00
          2   -1    0    0  502    0  0.00000000000E+00  0.00000000000E+00  0.48461594212E+03  0.48461594212E+03  0.00000000000E+00 0. -1.
         -2   -1    0    0    0  501 -0.00000000000E+00 -0.00000000000E+00 -0.19659942209E+01  0.19659942209E+01  0.00000000000E+00 0.  1.
          1    1    1    2  502    0  0.60682850446E+01  0.30259073890E+02  0.24575928999E+03  0.24768945124E+03  0.00000000000E+00 0.  1.
         -1    1    1    2    0  501 -0.60682850446E+01 -0.30259073890E+02  0.23689065791E+03  0.23889248510E+03  0.00000000000E+00 0. -1.
</event>
<event>
 4    1  0.1322546E+002  0.2207961E+02  0.7546771E-02  0.1504391E+00
          2   -1    0    0  502    0  0.00000000000E+00  0.00000000000E+00  0.19249251226E+01  0.19249251226E+01  0.00000000000E+00 0.  1.
         -2   -1    0    0    0  501 -0.00000000000E+00 -0.00000000000E+00 -0.25550110936E+03  0.25550110936E+03  0.00000000000E+00 0. -1.
          1    1    1    2  502    0  0.19653179458E+02  0.10062888207E+02 -0.11473705555E+03  0.11684220598E+03  0.00000000000E+00 0.  1.
         -1    1    1    2    0  501 -0.19653179458E+02 -0.10062888207E+02 -0.13883912869E+03  0.14058382851E+03  0.00000000000E+00 0. -1.
</event>
<event>
 4    1  0.1322546E+002  0.2087822E+02  0.7546771E-02  0.1521011E+00
          2   -1    0    0  502    0  0.00000000000E+00  0.00000000000E+00  0.12205798668E+03  0.12205798668E+03  0.00000000000E+00 0.  1.
         -2   -1    0    0    0  501 -0.00000000000E+00 -0.00000000000E+00 -0.63895498895E+01  0.63895498895E+01  0.00000000000E+00 0. -1.
          1    1    1    2  502    0 -0.18887692792E+02  0.88969269361E+01  0.15180800816E+02  0.25813890860E+02  0.00000000000E+00 0. -1.
         -1    1    1    2    0  501  0.18887692792E+02 -0.88969269361E+01  0.10048763598E+03  0.10263364571E+03  0.00000000000E+00 0.  1.
</event>
<event>
 4    1  0.1322546E+002  0.2408581E+02  0.7546771E-02  0.1479296E+00
          2   -1    0    0  502    0  0.00000000000E+00  0.00000000000E+00  0.36778557483E+01  0.36778557483E+01  0.00000000000E+00 0.  1.
         -2   -1    0    0    0  501 -0.00000000000E+00 -0.00000000000E+00 -0.16471027385E+03  0.16471027385E+03  0.00000000000E+00 0. -1.
          1    1    1    2  502    0  0.12195862278E+02 -0.20769860150E+02 -0.97842491741E+02  0.10076348216E+03  0.00000000000E+00 0.  1.
         -1    1    1    2    0  501 -0.12195862278E+02  0.20769860150E+02 -0.63189926361E+02  0.67624647436E+02  0.00000000000E+00 0. -1.
</event>
<event>
 4    1  0.1322546E+002  0.2765272E+02  0.7546771E-02  0.1441159E+00
          2   -1    0    0  502    0  0.00000000000E+00  0.00000000000E+00  0.48604918140E+03  0.48604918140E+03  0.00000000000E+00 0. -1.
         -2   -1    0    0    0  501 -0.00000000000E+00 -0.00000000000E+00 -0.15776061156E+01  0.15776061156E+01  0.00000000000E+00 0.  1.
          1    1    1    2  502    0  0.24883276125E+02 -0.12062151759E+02  0.25505943485E+03  0.25655406495E+03  0.00000000000E+00 0.  1.
         -1    1    1    2    0  501 -0.24883276125E+02  0.12062151759E+02  0.22941214043E+03  0.23107272256E+03  0.00000000000E+00 0. -1.
</event>
<event>
 4    1  0.1322546E+002  0.2628770E+02  0.7546771E-02  0.1454897E+00
          2   -1    0    0  502    0  0.00000000000E+00  0.00000000000E+00  0.75299746057E+03  0.75299746057E+03  0.00000000000E+00 0. -1.
         -2   -1    0    0    0  501 -0.00000000000E+00 -0.00000000000E+00 -0.12678773943E+01  0.12678773943E+01  0.00000000000E+00 0.  1.
          1    1    1    2  502    0 -0.36519917668E+01 -0.26032791904E+02  0.57405634567E+03  0.57465792546E+03  0.00000000000E+00 0. -1.
         -1    1    1    2    0  501  0.36519917668E+01  0.26032791904E+02  0.17767323751E+03  0.17960741250E+03  0.00000000000E+00 0.  1.
</event>
<event>
 4    1  0.1322546E+002  0.2579441E+02  0.7546771E-02  0.1460109E+00
          2   -1    0    0  502    0  0.00000000000E+00  0.00000000000E+00  0.19591443628E+04  0.19591443628E+04  0.00000000000E+00 0. -1.
         -2   -1    0    0    0  501 -0.00000000000E+00 -0.00000000000E+00 -0.33961447248E+00  0.33961447248E+00  0.00000000000E+00 0.  1.
          1    1    1    2  502    0  0.18455320350E+01  0.25728302905E+02  0.98119216641E+03  0.98153116047E+03  0.00000000000E+00 0. -1.
         -1    1    1    2    0  501 -0.18455320350E+01 -0.25728302905E+02  0.97761258191E+03  0.97795281679E+03  0.00000000000E+00 0.  1.
</event>
<event>
 4    1  0.1322546E+002  0.2919388E+02  0.7546771E-02  0.1426733E+00
          2   -1    0    0  502    0  0.00000000000E+00  0.00000000000E+00  0.11983496664E+03  0.11983496664E+03  0.00000000000E+00 0.  1.
         -2   -1    0    0    0  501 -0.00000000000E+00 -0.00000000000E+00 -0.71225580896E+01  0.71225580896E+01  0.00000000000E+00 0. -1.
          1    1    1    2  502    0 -0.11844394052E+02 -0.26683195153E+02  0.58784429340E+02  0.65634531360E+02  0.00000000000E+00 0.  1.
         -1    1    1    2    0  501  0.11844394052E+02  0.26683195153E+02  0.53927979206E+02  0.61322993365E+02  0.00000000000E+00 0. -1.
</event>
<event>
 4    1  0.1322546E+002  0.4888610E+02  0.7546771E-02  0.1303076E+00
          2   -1    0    0  502    0  0.00000000000E+00  0.00000000000E+00  0.11758506374E+04  0.11758506374E+04  0.00000000000E+00 0. -1.
         -2   -1    0    0    0  501 -0.00000000000E+00 -0.00000000000E+00 -0.23143984387E+01  0.23143984387E+01  0.00000000000E+00 0.  1.
          1    1    1    2  502    0 -0.39912056894E+02  0.28229040143E+02  0.38115715822E+03  0.38427936486E+03  0.00000000000E+00 0.  1.
         -1    1    1    2    0  501  0.39912056894E+02 -0.28229040143E+02  0.79237908077E+03  0.79388567101E+03  0.00000000000E+00 0. -1.
</event>
<event>
 4    1  0.1322546E+002  0.2207339E+02  0.7546771E-02  0.1504473E+00
          2   -1    0    0  502    0  0.00000000000E+00  0.00000000000E+00  0.40813148628E+01  0.40813148628E+01  0.00000000000E+00 0.  1.
         -2   -1    0    0    0  501 -0.00000000000E+00 -0.00000000000E+00 -0.13221440979E+03  0.13221440979E+03  0.00000000000E+00 0. -1.
          1    1    1    2  502    0 -0.40736048539E+01 -0.21694250007E+02 -0.42835558144E+02  0.48188378074E+02  0.00000000000E+00 0.  1.
         -1    1    1    2    0  501  0.40736048539E+01  0.21694250007E+02 -0.85297536779E+02  0.88107346575E+02  0.00000000000E+00 0. -1.
</event>
<event>
 4    1  0.1322546E+002  0.3037375E+02  0.7546771E-02  0.1416376E+00
          2   -1    0    0  502    0  0.00000000000E+00  0.00000000000E+00  0.23320361326E+03  0.23320361326E+03  0.00000000000E+00 0. -1.
         -2   -1    0    0    0  501 -0.00000000000E+00 -0.00000000000E+00 -0.39600010893E+01  0.39600010893E+01  0.00000000000E+00 0.  1.
          1    1    1    2  502    0 -0.10899468666E+02 -0.28350768896E+02  0.11836877096E+03  0.12220364337E+03  0.00000000000E+00 0.  1.
         -1    1    1    2    0  501  0.10899468666E+02  0.28350768896E+02  0.11087484122E+03  0.11495997098E+03  0.00000000000E+00 0. -1.
</event>
<event>
 4    1  0.1322546E+002  0.2295196E+02  0.7546771E-02  0.1493102E+00
          2   -1    0    0  502    0  0.00000000000E+00  0.00000000000E+00  0.33867745868E+03  0.33867745868E+03  0.00000000000E+00 0.  1.
         -2   -1    0    0    0  501 -0.00000000000E+00 -0.00000000000E+00 -0.17422904398E+01  0.17422904398E+01  0.00000000000E+00 0. -1.
          1    1    1    2  502    0  0.15424903020E+02  0.16996022363E+02  0.11272697215E+03  0.11503983075E+03  0.00000000000E+00 0.  1.
         -1    1    1    2    0  501 -0.15424903020E+02 -0.16996022363E+02  0.22420819609E+03  0.22537991837E+03  0.00000000000E+00 0. -1.
</event>
<event>
 4    1  0.1322546E+002  0.6978372E+02  0.7546771E-02  0.1229785E+00
          2   -1    0    0  502    0  0.00000000000E+00  0.00000000000E+00  0.39562245032E+03  0.39562245032E+03  0.00000000000E+00 0. -1.
         -2   -1    0    0    0  501 -0.00000000000E+00 -0.00000000000E+00 -0.13521445456E+02  0.13521445456E+02  0.00000000000E+00 0.  1.
          1    1    1    2  502    0  0.55585245709E+02  0.42190608839E+02  0.25230568874E+03  0.26177839404E+03  0.00000000000E+00 0. -1.
         -1    1    1    2    0  501 -0.55585245709E+02 -0.42190608839E+02  0.12979531613E+03  0.14736550174E+03  0.00000000000E+00 0.  1.
</event>
<event>
 4    1  0.1322546E+002  0.2204490E+02  0.7546771E-02  0.1504853E+00
          2   -1    0    0  502    0  0.00000000000E+00  0.00000000000E+00  0.16103921985E+04  0.16103921985E+04  0.00000000000E+00 0. -1.
         -2   -1    0    0    0  501 -0.00000000000E+00 -0.00000000000E+00 -0.30246978220E+00  0.30246978220E+00  0.00000000000E+00 0.  1.
          1    1    1    2  502    0  0.18441946463E+02  0.12077756219E+02  0.84361750341E+03  0.84390548621E+03  0.00000000000E+00 0.  1.
         -1    1    1    2    0  501 -0.18441946463E+02 -0.12077756219E+02  0.76647222529E+03  0.76678918207E+03  0.00000000000E+00 0. -1.
</event>
<event>
 4    1  0.1322546E+002  0.2440609E+02  0.7546771E-02  0.1475558E+00
          2   -1    0    0  502    0  0.00000000000E+00  0.00000000000E+00  0.17758068266E+04  0.17758068266E+04  0.00000000000E+00 0. -1.
         -2   -1    0    0    0  501 -0.00000000000E+00 -0.00000000000E+00 -0.46108185383E+00  0.46108185383E+00  0.00000000000E+00 0.  1.
          1    1    1    2  502    0  0.22484198805E+02 -0.94930533613E+01  0.13513071009E+04  0.13515274833E+04  0.00000000000E+00 0. -1.
         -1    1    1    2    0  501 -0.22484198805E+02  0.94930533613E+01  0.42403864381E+03  0.42474042508E+03  0.00000000000E+00 0.  1.
</event>
<event>
 4    1  0.1322546E+002  0.2310450E+02  0.7546771E-02  0.1491190E+00
          2   -1    0    0  502    0  0.00000000000E+00  0.00000000000E+00  0.32788928426E+02  0.32788928426E+02  0.00000000000E+00 0. -1.
         -2   -1    0    0    0  501 -0.00000000000E+00 -0.00000000000E+00 -0.16562155077E+02  0.16562155077E+02  0.00000000000E+00 0.  1.
          1    1    1    2  502    0  0.19121598655E+00 -0.23103703838E+02  0.11331673697E+02  0.25733723465E+02  0.00000000000E+00 0. -1.
         -1    1    1    2    0  501 -0.19121598655E+00  0.23103703838E+02  0.48950996519E+01  0.23617360039E+02  0.00000000000E+00 0.  1.
</event>
<event>
 4    1  0.1322546E+002  0.2087259E+02  0.7546771E-02  0.1521092E+00
          2   -1    0    0  502    0  0.00000000000E+00  0.00000000000E+00  0.97436752070E+03  0.97436752070E+03  0.00000000000E+00 0.  1.
         -2   -1    0    0    0  501 -0.00000000000E+00 -0.00000000000E+00 -0.50281543299E+00  0.50281543299E+00  0.00000000000E+00 0. -1.
          1    1    1    2  502    0  0.58594571857E+01 -0.20033270283E+02  0.32471454056E+03  0.32538469234E+03  0.00000000000E+00 0.  1.
         -1    1    1    2    0  501 -0.58594571857E+01  0.20033270283E+02  0.64915016470E+03  0.64948564379E+03  0.00000000000E+00 0. -1.
</event>
<event>
 4    1  0.1322546E+002  0.2128310E+02  0.7546771E-02  0.1515261E+00
          2   -1    0    0  502    0  0.00000000000E+00  0.00000000000E+00  0.39561578883E+02  0.39561578883E+02  0.00000000000E+00 0.  1.
         -2   -1    0    0    0  501 -0.00000000000E+00 -0.00000000000E+00 -0.13655484801E+02  0.13655484801E+02  0.00000000000E+00 0. -1.
          1    1    1    2  502    0 -0.21205532972E+02  0.18153665199E+01  0.22589527859E+01  0.21402641237E+02  0.00000000000E+00 0. -1.
         -1    1    1    2    0  501  0.21205532972E+02 -0.18153665199E+01  0.23647141296E+02  0.31814422448E+02  0.00000000000E+00 0.  1.
</event>
<event>
 4    1  0.1322546E+002  0.2271602E+02  0.7546771E-02  0.1496095E+00
          2   -1    0    0  502    0  0.00000000000E+00  0.00000000000E+00  0.53373988292E+01  0.53373988292E+01  0.00000000000E+00 0. -1.
         -2   -1    0    0    0  501 -0.00000000000E+00 -0.00000000000E+00 -0.10981498963E+03  0.10981498963E+03  0.00000000000E+00 0.  1.
          1    1    1    2  502    0 -0.20263860777E+02 -0.10266141472E+02 -0.32325954769E+02  0.39509303538E+02  0.00000000000E+00 0. -1.
         -1    1    1    2    0  501  0.20263860777E+02  0.10266141472E+02 -0.72151636028E+02  0.75643084918E+02  0.00000000000E+00 0.  1.
</event>
<event>
 4    1  0.1322546E+002  0.2430139E+02  0.7546771E-02  0.1476773E+00
          2   -1    0    0  502    0  0.00000000000E+00  0.00000000000E+00  0.56796956216E+02  0.56796956216E+02  0.00000000000E+00 0. -1.
         -2   -1    0    0    0  501 -0.00000000000E+00 -0.00000000000E+00 -0.28400568721E+02  0.28400568721E+02  0.00000000000E+00 0.  1.
          1    1    1    2  502    0  0.22483076854E+02  0.92232624730E+01 -0.19717788997E+02  0.31294544547E+02  0.00000000000E+00 0.  1.
         -1    1    1    2    0  501 -0.22483076854E+02 -0.92232624730E+01  0.48114176491E+02  0.53902980390E+02  0.00000000000E+00 0. -1.
</event>
<event>
 4    1  0.1322546E+002  0.3955785E+02  0.7546771E-02  0.1351096E+00
          2   -1    0    0  502    0  0.00000000000E+00  0.00000000000E+00  0.40898028536E+03  0.40898028536E+03  0.00000000000E+00 0.  1.
         -2   -1    0    0    0  501 -0.00000000000E+00 -0.00000000000E+00 -0.78475289574E+01  0.78475289574E+01  0.00000000000E+00 0. -1.
          1    1    1    2  502    0 -0.38870817866E+02  0.73405251961E+01  0.51373799281E+02  0.64838962393E+02  0.00000000000E+00 0. -1.
         -1    1    1    2    0  501  0.38870817866E+02 -0.73405251961E+01  0.34975895712E+03  0.35198885192E+03  0.00000000000E+00 0.  1.
</event>
<event>
 4    1  0.1322546E+002  0.4584397E+02  0.7546771E-02  0.1317272E+00
          2   -1    0    0  502    0  0.00000000000E+00  0.00000000000E+00  0.84695443626E+03  0.84695443626E+03  0.00000000000E+00 0. -1.
         -2   -1    0    0    0  501 -0.00000000000E+00 -0.00000000000E+00 -0.26177419851E+01  0.26177419851E+01  0.00000000000E+00 0.  1.
          1    1    1    2  502    0 -0.11189535600E+02 -0.44457438120E+02  0.32523961948E+03  0.32845468422E+03  0.00000000000E+00 0. -1.
         -1    1    1    2    0  501  0.11189535600E+02  0.44457438120E+02  0.51909707480E+03  0.52111749402E+03  0.00000000000E+00 0.  1.
</event>
<event>
 4    1  0.1322546E+002  0.2286672E+02  0.7546771E-02  0.1494179E+00
          2   -1    0    0  502    0  0.00000000000E+00  0.00000000000E+00  0.54201247653E+03  0.54201247653E+03  0.00000000000E+00 0. -1.
         -2   -1    0    0    0  501 -0.00000000000E+00 -0.00000000000E+00 -0.10113427269E+01  0.10113427269E+01  0.00000000000E+00 0.  1.
          1    1    1    2  502    0  0.18517580393E+02  0.13415889557E+02  0.32880045991E+03  0.32959464393E+03  0.00000000000E+00 0. -1.
         -1    1    1    2    0  501 -0.18517580393E+02 -0.13415889557E+02  0.21220067390E+03  0.21342917532E+03  0.00000000000E+00 0.  1.
</event>
<event>
 4    1  0.1322546E+002  0.7397238E+02  0.7546771E-02  0.1218578E+00
          2   -1    0    0  502    0  0.00000000000E+00  0.00000000000E+00  0.17301396287E+02  0.17301396287E+02  0.00000000000E+00 0.  1.
         -2   -1    0    0    0  501 -0.00000000000E+00 -0.00000000000E+00 -0.68045184382E+03  0.68045184382E+03  0.00000000000E+00 0. -1.
          1    1    1    2  502    0  0.43138257970E+02 -0.60091631284E+02 -0.76344892252E+02  0.10630360306E+03  0.00000000000E+00 0.  1.
         -1    1    1    2    0  501 -0.43138257970E+02  0.60091631284E+02 -0.58680555528E+03  0.59144963704E+03  0.00000000000E+00 0. -1.
</event>
<event>
 4    1  0.1322546E+002  0.2075545E+02  0.7546771E-02  0.1522785E+00
          2   -1    0    0  502    0  0.00000000000E+00  0.00000000000E+00  0.22097590463E+02  0.22097590463E+02  0.00000000000E+00 0.  1.
         -2   -1    0    0    0  501 -0.00000000000E+00 -0.00000000000E+00 -0.43710967957E+02  0.43710967957E+02  0.00000000000E+00 0. -1.
          1    1    1    2  502    0  0.13652861165E+02 -0.15632913972E+02 -0.35297866629E+02  0.40947869369E+02  0.00000000000E+00 0. -1.
         -1    1    1    2    0  501 -0.13652861165E+02  0.15632913972E+02  0.13684489135E+02  0.24860689052E+02  0.00000000000E+00 0.  1.
</event>
<event>
 4    1  0.1322546E+002  0.2722643E+02  0.7546771E-02  0.1445347E+00
          2   -1    0    0  502    0  0.00000000000E+00  0.00000000000E+00  0.27500075026E+02  0.27500075026E+02  0.00000000000E+00 0.  1.
         -2   -1    0    0    0  501 -0.00000000000E+00 -0.00000000000E+00 -0.27428876234E+02  0.27428876234E+02  0.00000000000E+00 0. -1.
          1    1    1    2  502    0 -0.11110533774E+02 -0.24856282913E+02  0.36435649206E+01  0.27469152268E+02  0.00000000000E+00 0.  1.
         -1    1    1    2    0  501  0.11110533774E+02  0.24856282913E+02 -0.35723661282E+01  0.27459798993E+02  0.00000000000E+00 0. -1.
</event>
<event>
 4    1  0.1322546E+002  0.2059594E+02  0.7546771E-02  0.1525113E+00
          2   -1    0    0  502    0  0.00000000000E+00  0.00000000000E+00  0.29361227603E+03  0.29361227603E+03  0.00000000000E+00 0. -1.
         -2   -1    0    0    0  501 -0.00000000000E+00 -0.00000000000E+00 -0.15989019456E+01  0.15989019456E+01  0.00000000000E+00 0.  1.
          1    1    1    2  502    0 -0.68744691169E+01  0.19414798520E+02  0.19184025895E+03  0.19294267978E+03  0.00000000000E+00 0. -1.
         -1    1    1    2    0  501  0.68744691169E+01 -0.19414798520E+02  0.10017311513E+03  0.10226849819E+03  0.00000000000E+00 0.  1.
</event>
<event>
 4    1  0.1322546E+002  0.2361526E+02  0.7546771E-02  0.1484914E+00
          2   -1    0    0  502    0  0.00000000000E+00  0.00000000000E+00  0.19629716805E+03  0.19629716805E+03  0.00000000000E+00 0. -1.
         -2   -1    0    0    0  501 -0.00000000000E+00 -0.00000000000E+00 -0.28674174521E+01  0.28674174521E+01  0.00000000000E+00 0.  1.
          1    1    1    2  502    0  0.18308919592E+02  0.14915221407E+02  0.10627310452E+03  0.10886529801E+03  0.00000000000E+00 0. -1.
         -1    1    1    2    0  501 -0.18308919592E+02 -0.14915221407E+02  0.87156646070E+02  0.90299287486E+02  0.00000000000E+00 0.  1.
</event>
<event>
 4    1  0.1322546E+002  0.2518255E+02  0.7546771E-02  0.1466771E+00
          2   -1    0    0  502    0  0.00000000000E+00  0.00000000000E+00  0.39262233073E+01  0.39262233073E+01  0.00000000000E+00 0.  1.
         -2   -1    0    0    0  501 -0.00000000000E+00 -0.00000000000E+00 -0.33495178175E+03  0.33495178175E+03  0.00000000000E+00 0. -1.
          1    1    1    2  502    0  0.25039831939E+02 -0.26772481553E+01 -0.28743628982E+03  0.28853731396E+03  0.00000000000E+00 0. -1.
         -1    1    1    2    0  501 -0.25039831939E+02  0.26772481553E+01 -0.43589268623E+02  0.50340691098E+02  0.00000000000E+00 0.  1.
</event>
<event>
 4    1  0.1322546E+002  0.2156765E+02  0.7546771E-02  0.1511312E+00
          2   -1    0    0  502    0  0.00000000000E+00  0.00000000000E+00  0.78146157067E+02  0.78146157067E+02  0.00000000000E+00 0. -1.
         -2   -1    0    0    0  501 -0.00000000000E+00 -0.00000000000E+00 -0.82830975465E+01  0.82830975465E+01  0.00000000000E+00 0.  1.
          1    1    1    2  502    0 -0.15613246206E+02  0.14879189238E+02  0.12008630745E+02  0.24685439875E+02  0.00000000000E+00 0.  1.
         -1    1    1    2    0  501  0.15613246206E+02 -0.14879189238E+02  0.57854428775E+02  0.61743814738E+02  0.00000000000E+00 0. -1.
</event>
<event>
 4    1  0.1322546E+002  0.2462285E+02  0.7546771E-02  0.1473067E+00
          2   -1    0    0  502    0  0.00000000000E+00  0.00000000000E+00  0.12968685404E+03  0.12968685404E+03  0.00000000000E+00 0.  1.
         -2   -1    0    0    0  501 -0.00000000000E+00 -0.00000000000E+00 -0.47824902757E+01  0.47824902757E+01  0.00000000000E+00 0. -1.
          1    1    1    2  502    0  0.73675830981E+01 -0.23494749791E+02  0.72532496946E+02  0.76597961211E+02  0.00000000000E+00 0. -1.
         -1    1    1    2    0  501 -0.73675830981E+01  0.23494749791E+02  0.52371866822E+02  0.57871383108E+02  0.00000000000E+00 0.  1.
</event>
<event>
 4    1  0.1322546E+002  0.5951106E+02  0.7546771E-02  0.1261503E+00
          2   -1    0    0  502    0  0.00000000000E+00  0.00000000000E+00  0.20640671430E+03  0.20640671430E+03  0.00000000000E+00 0. -1.
         -2   -1    0    0    0  501 -0.00000000000E+00 -0.00000000000E+00 -0.17404257646E+02  0.17404257646E+02  0.00000000000E+00 0.  1.
          1    1    1    2  502    0  0.59494973413E+02 -0.13836696449E+01  0.81195227675E+02  0.10066891973E+03  0.00000000000E+00 0.  1.
         -1    1    1    2    0  501 -0.59494973413E+02  0.13836696449E+01  0.10780722898E+03  0.12314205221E+03  0.00000000000E+00 0. -1.
</event>
<event>
 4    1  0.1322546E+002  0.2128953E+02  0.7546771E-02  0.1515171E+00
          2   -1    0    0  502    0  0.00000000000E+00  0.00000000000E+00  0.16824296713E+04  0.16824296713E+04  0.00000000000E+00 0.  1.
         -2   -1    0    0    0  501 -0.00000000000E+00 -0.00000000000E+00 -0.30170323433E+00  0.30170323433E+00  0.00000000000E+00 0. -1.
          1    1    1    2  502    0  0.18521603600E+02 -0.10497349068E+02  0.56575050736E+03  0.56615093457E+03  0.00000000000E+00 0.  1.
         -1    1    1    2    0  501 -0.18521603600E+02  0.10497349068E+02  0.11163774607E+04  0.11165804400E+04  0.00000000000E+00 0. -1.
</event>
<event>
 4    1  0.1322546E+002  0.2250255E+02  0.7546771E-02  0.1498841E+00
          2   -1    0    0  502    0  0.00000000000E+00  0.00000000000E+00  0.55174048385E+01  0.55174048385E+01  0.00000000000E+00 0. -1.
         -2   -1    0    0    0  501 -0.00000000000E+00 -0.00000000000E+00 -0.43105135048E+03  0.43105135048E+03  0.00000000000E+00 0.  1.
          1    1    1    2  502    0  0.98732983922E+01 -0.20220847530E+02 -0.19109446888E+02  0.29521782743E+02  0.00000000000E+00 0. -1.
         -1    1    1    2    0  501 -0.98732983922E+01  0.20220847530E+02 -0.40642449875E+03  0.40704697257E+03  0.00000000000E+00 0.  1.
</event>
<event>
 4    1  0.1322546E+002  0.2614952E+02  0.7546771E-02  0.1456344E+00
          2   -1    0    0  502    0  0.00000000000E+00  0.00000000000E+00  0.11997479889E+04  0.11997479889E+04  0.00000000000E+00 0.  1.
         -2   -1    0    0    0  501 -0.00000000000E+00 -0.00000000000E+00 -0.59062193720E+00  0.59062193720E+00  0.00000000000E+00 0. -1.
          1    1    1    2  502    0 -0.20554786055E+02 -0.16164718501E+02  0.48729906358E+03  0.48800017902E+03  0.00000000000E+00 0.  1.
         -1    1    1    2    0  501  0.20554786055E+02  0.16164718501E+02  0.71185830336E+03  0.71233843179E+03  0.00000000000E+00 0. -1.
</event>
<event>
 4    1  0.1322546E+002  0.2114094E+02  0.7546771E-02  0.1517262E+00
          2   -1    0    0  502    0  0.00000000000E+00  0.00000000000E+00  0.31352454566E+02  0.31352454566E+02  0.00000000000E+00 0.  1.
         -2   -1    0    0    0  501 -0.00000000000E+00 -0.00000000000E+00 -0.14255920952E+02  0.14255920952E+02  0.00000000000E+00 0. -1.
          1    1    1    2  502    0 -0.17782318864E+02 -0.11433659942E+02  0.86956521197E+01  0.22859435900E+02  0.00000000000E+00 0. -1.
         -1    1    1    2    0  501  0.17782318864E+02  0.11433659942E+02  0.84008814946E+01  0.22748939618E+02  0.00000000000E+00 0.  1.
</event>
<event>
 4    1  0.1322546E+002  0.2104423E+02  0.7546771E-02  0.1518634E+00
          2   -1    0    0  502    0  0.00000000000E+00  0.00000000000E+00  0.38095629441E+01  0.38095629441E+01  0.00000000000E+00 0.  1.
         -2   -1    0    0    0  501 -0.00000000000E+00 -0.00000000000E+00 -0.13618303969E+03  0.13618303969E+03  0.00000000000E+00 0. -1.
          1    1    1    2  502    0  0.12548563964E+02 -0.16893583054E+02 -0.92966475633E+02  0.95318545927E+02  0.00000000000E+00 0. -1.
         -1    1    1    2    0  501 -0.12548563964E+02  0.16893583054E+02 -0.39407001110E+02  0.44674056705E+02  0.00000000000E+00 0.  1.
</event>
<event>
 4    1  0.1322546E+002  0.2950463E+02  0.7546771E-02  0.1423951E+00
          2   -1    0    0  502    0  0.00000000000E+00  0.00000000000E+00  0.66328171803E+02  0.66328171803E+02  0.00000000000E+00 0.  1.
         -2   -1    0    0    0  501 -0.00000000000E+00 -0.00000000000E+00 -0.15844249143E+02  0.15844249143E+02  0.00000000000E+00 0. -1.
          1    1    1    2  502    0 -0.21368866165E+01 -0.29427148687E+02  0.82193746617E+01  0.30628115908E+02  0.00000000000E+00 0. -1.
         -1    1    1    2    0  501  0.21368866165E+01  0.29427148687E+02  0.42264547998E+02  0.51544305037E+02  0.00000000000E+00 0.  1.
</event>
<event>
 4    1  0.1322546E+002  0.3077986E+02  0.7546771E-02  0.1412938E+00
          2   -1    0    0  502    0  0.00000000000E+00  0.00000000000E+00  0.59622156839E+03  0.59622156839E+03  0.00000000000E+00 0.  1.
         -2   -1    0    0    0  501 -0.00000000000E+00 -0.00000000000E+00 -0.16842397451E+01  0.16842397451E+01  0.00000000000E+00 0. -1.
          1    1    1    2  502    0  0.61220110356E+01 -0.30164890432E+02  0.36835666696E+03  0.36964041139E+03  0.00000000000E+00 0.  1.
         -1    1    1    2    0  501 -0.61220110356E+01  0.30164890432E+02  0.22618066168E+03  0.22826539675E+03  0.00000000000E+00 0. -1.
</event>
<event>
 4    1  0.1322546E+002  0.3110046E+02  0.7546771E-02  0.1410268E+00
          2   -1    0    0  502    0  0.00000000000E+00  0.00000000000E+00  0.62888030295E+02  0.62888030295E+02  0.00000000000E+00 0.  1.
         -2   -1    0    0    0  501 -0.00000000000E+00 -0.00000000000E+00 -0.66206953238E+02  0.66206953238E+02  0.00000000000E+00 0. -1.
          1    1    1    2  502    0 -0.19286488570E+02  0.24398157939E+02  0.54895823088E+02  0.63093503189E+02  0.00000000000E+00 0.  1.
         -1    1    1    2    0  501  0.19286488570E+02 -0.24398157939E+02 -0.58214746031E+02  0.66001480344E+02  0.00000000000E+00 0. -1.
</event>
<event>
 4    1  0.1322546E+002  0.4145909E+02  0.7546771E-02  0.1340141E+00
          2   -1    0    0  502    0  0.00000000000E+00  0.00000000000E+00  0.13835056170E+02  0.13835056170E+02  0.00000000000E+00 0. -1.
         -2   -1    0    0    0  501 -0.00000000000E+00 -0.00000000000E+00 -0.16843279865E+03  0.16843279865E+03  0.00000000000E+00 0.  1.
          1    1    1    2  502    0  0.40733455428E+02 -0.77227991745E+01 -0.30617184321E+02  0.51538994887E+02  0.00000000000E+00 0. -1.
         -1    1    1    2    0  501 -0.40733455428E+02  0.77227991745E+01 -0.12398055816E+03  0.13072885994E+03  0.00000000000E+00 0.  1.
</event>
<event>
 4    1  0.1322546E+002  0.2380718E+02  0.7546771E-02  0.1482604E+00
          2   -1    0    0  502    0  0.00000000000E+00  0.00000000000E+00  0.83476467704E+02  0.83476467704E+02  0.00000000000E+00 0. -1.
         -2   -1    0    0    0  501 -0.00000000000E+00 -0.00000000000E+00 -0.15491082085E+02  0.15491082085E+02  0.00000000000E+00 0.  1.
          1    1    1    2  502    0 -0.23741795347E+02 -0.17632545828E+01  0.71079166782E+02  0.74960188523E+02  0.00000000000E+00 0. -1.
         -1    1    1    2    0  501  0.23741795347E+02  0.17632545828E+01 -0.30937811633E+01  0.24007361266E+02  0.00000000000E+00 0.  1.
</event>
<event>
 4    1  0.1322546E+002  0.2512253E+02  0.7546771E-02  0.1467437E+00
          2   -1    0    0  502    0  0.00000000000E+00  0.00000000000E+00  0.13747607735E+04  0.13747607735E+04  0.00000000000E+00 0. -1.
         -2   -1    0    0    0  501 -0.00000000000E+00 -0.00000000000E+00 -0.45913745077E+00  0.45913745077E+00  0.00000000000E+00 0.  1.
          1    1    1    2  502    0  0.25614458840E+01 -0.24991610162E+02  0.69399706083E+03  0.69445162684E+03  0.00000000000E+00 0. -1.
         -1    1    1    2    0  501 -0.25614458840E+01  0.24991610162E+02  0.68030457521E+03  0.68076828410E+03  0.00000000000E+00 0.  1.
</event>
<event>
 4    1  0.1322546E+002  0.2037907E+02  0.7546771E-02  0.1528318E+00
          2   -1    0    0  502    0  0.00000000000E+00  0.00000000000E+00  0.17384970339E+03  0.17384970339E+03  0.00000000000E+00 0. -1.
         -2   -1    0    0    0  501 -0.00000000000E+00 -0.00000000000E+00 -0.25306465320E+01  0.25306465320E+01  0.00000000000E+00 0.  1.
          1    1    1    2  502    0  0.14621110716E+02 -0.14196116467E+02  0.64786439712E+02  0.67916046498E+02  0.00000000000E+00 0.  1.
         -1    1    1    2    0  501 -0.14621110716E+02  0.14196116467E+02  0.10653261715E+03  0.10846430342E+03  0.00000000000E+00 0. -1.
</event>
<event>
 4    1  0.1322546E+002  0.2207007E+02  0.7546771E-02  0.1504518E+00
          2   -1    0    0  502    0  0.00000000000E+00  0.00000000000E+00  0.31591672962E+03  0.31591672962E+03  0.00000000000E+00 0.  1.
         -2   -1    0    0    0  501 -0.00000000000E+00 -0.00000000000E+00 -0.15685403130E+01  0.15685403130E+01  0.00000000000E+00 0. -1.
          1    1    1    2  502    0  0.19572074472E+02 -0.10199103445E+02  0.13645652647E+03  0.13822977764E+03  0.00000000000E+00 0. -1.
         -1    1    1    2    0  501 -0.19572074472E+02  0.10199103445E+02  0.17789166283E+03  0.17925549229E+03  0.00000000000E+00 0.  1.
</event>
<event>
 4    1  0.1322546E+002  0.2055621E+02  0.7546771E-02  0.1525696E+00
          2   -1    0    0  502    0  0.00000000000E+00  0.00000000000E+00  0.26236466398E+03  0.26236466398E+03  0.00000000000E+00 0. -1.
         -2   -1    0    0    0  501 -0.00000000000E+00 -0.00000000000E+00 -0.16366428804E+01  0.16366428804E+01  0.00000000000E+00 0.  1.
          1    1    1    2  502    0 -0.20397024199E+02 -0.25532691762E+01  0.14702335775E+03  0.14845344558E+03  0.00000000000E+00 0. -1.
         -1    1    1    2    0  501  0.20397024199E+02  0.25532691762E+01  0.11370466335E+03  0.11554786128E+03  0.00000000000E+00 0.  1.
</event>
<event>
 4    1  0.1322546E+002  0.3090458E+02  0.7546771E-02  0.1411895E+00
          2   -1    0    0  502    0  0.00000000000E+00  0.00000000000E+00  0.12834507246E+04  0.12834507246E+04  0.00000000000E+00 0.  1.
         -2   -1    0    0    0  501 -0.00000000000E+00 -0.00000000000E+00 -0.39490858578E+01  0.39490858578E+01  0.00000000000E+00 0. -1.
          1    1    1    2  502    0 -0.19368576804E+02  0.24082177057E+02  0.59862803682E+02  0.67369490750E+02  0.00000000000E+00 0. -1.
         -1    1    1    2    0  501  0.19368576804E+02 -0.24082177057E+02  0.12196388350E+04  0.12200303197E+04  0.00000000000E+00 0.  1.
</event>
<event>
 4    1  0.1322546E+002  0.2435967E+02  0.7546771E-02  0.1476096E+00
          2   -1    0    0  502    0  0.00000000000E+00  0.00000000000E+00  0.91492342048E+03  0.91492342048E+03  0.00000000000E+00 0. -1.
         -2   -1    0    0    0  501 -0.00000000000E+00 -0.00000000000E+00 -0.74103491391E+00  0.74103491391E+00  0.00000000000E+00 0.  1.
          1    1    1    2  502    0  0.31840390470E+01 -0.24150685836E+02  0.61881381182E+03  0.61929308686E+03  0.00000000000E+00 0. -1.
         -1    1    1    2    0  501 -0.31840390470E+01  0.24150685836E+02  0.29536857374E+03  0.29637136853E+03  0.00000000000E+00 0.  1.
</event>
<event>
 4    1  0.1322546E+002  0.2633089E+02  0.7546771E-02  0.1454448E+00
          2   -1    0    0  502    0  0.00000000000E+00  0.00000000000E+00  0.47795801083E+03  0.47795801083E+03  0.00000000000E+00 0. -1.
         -2   -1    0    0    0  501 -0.00000000000E+00 -0.00000000000E+00 -0.15098375792E+01  0.15098375792E+01  0.00000000000E+00 0.  1.
          1    1    1    2  502    0 -0.10351043070E+02 -0.24210987177E+02  0.28571810632E+03  0.28692882788E+03  0.00000000000E+00 0.  1.
         -1    1    1    2    0  501  0.10351043070E+02  0.24210987177E+02  0.19073006693E+03  0.19253902052E+03  0.00000000000E+00 0. -1.
</event>
<event>
 4    1  0.1322546E+002  0.2231092E+02  0.7546771E-02  0.1501337E+00
          2   -1    0    0  502    0  0.00000000000E+00  0.00000000000E+00  0.31425456694E+03  0.31425456694E+03  0.00000000000E+00 0. -1.
         -2   -1    0    0    0  501 -0.00000000000E+00 -0.00000000000E+00 -0.16106521155E+01  0.16106521155E+01  0.00000000000E+00 0.  1.
          1    1    1    2  502    0  0.20591739321E+01 -0.22215693017E+02  0.13600357361E+03  0.13782143973E+03  0.00000000000E+00 0.  1.
         -1    1    1    2    0  501 -0.20591739321E+01  0.22215693017E+02  0.17664034121E+03  0.17804377933E+03  0.00000000000E+00 0. -1.
</event>
<event>
 4    1  0.1322546E+002  0.2819389E+02  0.7546771E-02  0.1435970E+00
          2   -1    0    0  502    0  0.00000000000E+00  0.00000000000E+00  0.32340769872E+03  0.32340769872E+03  0.00000000000E+00 0. -1.
         -2   -1    0    0    0  501 -0.00000000000E+00 -0.00000000000E+00 -0.30526668133E+01  0.30526668133E+01  0.00000000000E+00 0.  1.
          1    1    1    2  502    0 -0.11943453257E+02  0.25539176659E+02  0.88125963507E+02  0.92526110175E+02  0.00000000000E+00 0.  1.
         -1    1    1    2    0  501  0.11943453257E+02 -0.25539176659E+02  0.23222906840E+03  0.23393425535E+03  0.00000000000E+00 0. -1.
</event>
<event>
 4    1  0.1322546E+002  0.2300001E+02  0.7546771E-02  0.1492498E+00
          2   -1    0    0  502    0  0.00000000000E+00  0.00000000000E+00  0.14434369486E+04  0.14434369486E+04  0.00000000000E+00 0. -1.
         -2   -1    0    0    0  501 -0.00000000000E+00 -0.00000000000E+00 -0.12851354325E+01  0.12851354325E+01  0.00000000000E+00 0.  1.
          1    1    1    2  502    0 -0.12457813892E+02  0.19333991151E+02  0.13318134585E+04  0.13320120452E+04  0.00000000000E+00 0. -1.
         -1    1    1    2    0  501  0.12457813892E+02 -0.19333991151E+02  0.11033835466E+03  0.11271003882E+03  0.00000000000E+00 0.  1.
</event>
<event>
 4    1  0.1322546E+002  0.2823691E+02  0.7546771E-02  0.1435564E+00
          2   -1    0    0  502    0  0.00000000000E+00  0.00000000000E+00  0.23384796607E+01  0.23384796607E+01  0.00000000000E+00 0.  1.
         -2   -1    0    0    0  501 -0.00000000000E+00 -0.00000000000E+00 -0.54340409887E+03  0.54340409887E+03  0.00000000000E+00 0. -1.
          1    1    1    2  502    0 -0.19426732545E+02  0.20492080962E+02 -0.10398032830E+03  0.10774614607E+03  0.00000000000E+00 0.  1.
         -1    1    1    2    0  501  0.19426732545E+02 -0.20492080962E+02 -0.43708529090E+03  0.43799643246E+03  0.00000000000E+00 0. -1.
</event>
<event>
 4    1  0.1322546E+002  0.3451363E+02  0.7546771E-02  0.1384015E+00
          2   -1    0    0  502    0  0.00000000000E+00  0.00000000000E+00  0.21200870337E+03  0.21200870337E+03  0.00000000000E+00 0. -1.
         -2   -1    0    0    0  501 -0.00000000000E+00 -0.00000000000E+00 -0.57882942966E+01  0.57882942966E+01  0.00000000000E+00 0.  1.
          1    1    1    2  502    0  0.91345544363E+01  0.33282889328E+02  0.12175630518E+03  0.12655350117E+03  0.00000000000E+00 0.  1.
         -1    1    1    2    0  501 -0.91345544363E+01 -0.33282889328E+02  0.84464103894E+02  0.91243496499E+02  0.00000000000E+00 0. -1.
</event>
<event>
 4    1  0.1322546E+002  0.2480705E+02  0.7546771E-02  0.1470974E+00
          2   -1    0    0  502    0  0.00000000000E+00  0.00000000000E+00  0.25455308416E+02  0.25455308416E+02  0.00000000000E+00 0.  1.
         -2   -1    0    0    0  501 -0.00000000000E+00 -0.00000000000E+00 -0.24308446780E+02  0.24308446780E+02  0.00000000000E+00 0. -1.
          1    1    1    2  502    0 -0.19198994558E+02  0.15709496531E+02 -0.12680733763E+01  0.24839438065E+02  0.00000000000E+00 0. -1.
         -1    1    1    2    0  501  0.19198994558E+02 -0.15709496531E+02  0.24149350119E+01  0.24924317130E+02  0.00000000000E+00 0.  1.
</event>
<event>
 4    1  0.1322546E+002  0.2704568E+02  0.7546771E-02  0.1447150E+00
          2   -1    0    0  502    0  0.00000000000E+00  0.00000000000E+00  0.13627372361E+04  0.13627372361E+04  0.00000000000E+00 0.  1.
         -2   -1    0    0    0  501 -0.00000000000E+00 -0.00000000000E+00 -0.92436830290E+00  0.92436830290E+00  0.00000000000E+00 0. -1.
          1    1    1    2  502    0 -0.54681774731E+01 -0.26487128827E+02  0.23938873824E+03  0.24091167875E+03  0.00000000000E+00 0. -1.
         -1    1    1    2    0  501  0.54681774731E+01  0.26487128827E+02  0.11224241295E+04  0.11227499256E+04  0.00000000000E+00 0.  1.
</event>
<event>
 4    1  0.1322546E+002  0.2872496E+02  0.7546771E-02  0.1431010E+00
          2   -1    0    0  502    0  0.00000000000E+00  0.00000000000E+00  0.22748326589E+03  0.22748326589E+03  0.00000000000E+00 0. -1.
         -2   -1    0    0    0  501 -0.00000000000E+00 -0.00000000000E+00 -0.53794687753E+01  0.53794687753E+01  0.00000000000E+00 0.  1.
          1    1    1    2  502    0  0.27677962133E+02  0.76846553771E+01  0.44600714219E+02  0.53050421534E+02  0.00000000000E+00 0.  1.
         -1    1    1    2    0  501 -0.27677962133E+02 -0.76846553771E+01  0.17750308289E+03  0.17981231313E+03  0.00000000000E+00 0. -1.
</event>
<event>
 4    1  0.1322546E+002  0.2263335E+02  0.7546771E-02  0.1497154E+00
          2   -1    0    0  502    0  0.00000000000E+00  0.00000000000E+00  0.37795474236E+01  0.37795474236E+01  0.00000000000E+00 0.  1.
         -2   -1    0    0    0  501 -0.00000000000E+00 -0.00000000000E+00 -0.14003249637E+03  0.14003249637E+03  0.00000000000E+00 0. -1.
          1    1    1    2  502    0 -0.12458327184E+01 -0.22599034395E+02 -0.55242777666E+02  0.59699522100E+02  0.00000000000E+00 0.  1.
         -1    1    1    2    0  501  0.12458327184E+01  0.22599034395E+02 -0.81010171278E+02  0.84112521692E+02  0.00000000000E+00 0. -1.
</event>
<event>
 4    1  0.1322546E+002  0.2194341E+02  0.7546771E-02  0.1506210E+00
          2   -1    0    0  502    0  0.00000000000E+00  0.00000000000E+00  0.67037308948E+03  0.67037308948E+03  0.00000000000E+00 0. -1.
         -2   -1    0    0    0  501 -0.00000000000E+00 -0.00000000000E+00 -0.14528542158E+01  0.14528542158E+01  0.00000000000E+00 0.  1.
          1    1    1    2  502    0  0.12636687540E+02 -0.17939546089E+02  0.57331529160E+03  0.57373507543E+03  0.00000000000E+00 0. -1.
         -1    1    1    2    0  501 -0.12636687540E+02  0.17939546089E+02  0.95604943664E+02  0.98090868275E+02  0.00000000000E+00 0.  1.
</event>
<event>
 4    1  0.1322546E+002  0.2282144E+02  0.7546771E-02  0.1494753E+00
          2   -1    0    0  502    0  0.00000000000E+00  0.00000000000E+00  0.56572384425E+03  0.56572384425E+03  0.00000000000E+00 0.  1.
         -2   -1    0    0    0  501 -0.00000000000E+00 -0.00000000000E+00 -0.24445977606E+01  0.24445977606E+01  0.00000000000E+00 0. -1.
          1    1    1    2  502    0  0.10914640485E+01  0.22795324781E+02  0.50594121698E+03  0.50645565765E+03  0.00000000000E+00 0.  1.
         -1    1    1    2    0  501 -0.10914640485E+01 -0.22795324781E+02  0.57338029510E+02  0.61712784362E+02  0.00000000000E+00 0. -1.
</event>
<event>
 4    1  0.1322546E+002  0.2103681E+02  0.7546771E-02  0.1518740E+00
          2   -1    0    0  502    0  0.00000000000E+00  0.00000000000E+00  0.85758661536E+03  0.85758661536E+03  0.00000000000E+00 0. -1.
         -2   -1    0    0    0  501 -0.00000000000E+00 -0.00000000000E+00 -0.58393616686E+00  0.58393616686E+00  0.00000000000E+00 0.  1.
          1    1    1    2  502    0  0.17458610845E+01  0.20964243056E+02  0.28218626641E+03  0.28296932072E+03  0.00000000000E+00 0.  1.
         -1    1    1    2    0  501 -0.17458610845E+01 -0.20964243056E+02  0.57481641278E+03  0.57520123080E+03  0.00000000000E+00 0. -1.
</event>
<event>
 4    1  0.1322546E+002  0.2164205E+02  0.7546771E-02  0.1510292E+00
          2   -1    0    0  502    0  0.00000000000E+00  0.00000000000E+00  0.15595868710E+04  0.15595868710E+04  0.00000000000E+00 0.  1.
         -2   -1    0    0    0  501 -0.00000000000E+00 -0.00000000000E+00 -0.30945698656E+00  0.30945698656E+00  0.00000000000E+00 0. -1.
          1    1    1    2  502    0  0.21222755343E+02 -0.42394662716E+01  0.64563495640E+03  0.64599758153E+03  0.00000000000E+00 0. -1.
         -1    1    1    2    0  501 -0.21222755343E+02  0.42394662716E+01  0.91364245758E+03  0.91389874642E+03  0.00000000000E+00 0.  1.
</event>
<event>
 4    1  0.1322546E+002  0.1841162E+03  0.7546771E-02  0.1067008E+00
          2   -1    0    0  502    0  0.00000000000E+00  0.00000000000E+00  0.25839844926E+03  0.25839844926E+03  0.00000000000E+00 0. -1.
         -2   -1    0    0    0  501 -0.00000000000E+00 -0.00000000000E+00 -0.15997904499E+03  0.15997904499E+03  0.00000000000E+00 0.  1.
          1    1    1    2  502    0  0.85119850427E+02 -0.16325869049E+03  0.13795290478E+03  0.23006475804E+03  0.00000000000E+00 0. -1.
         -1    1    1    2    0  501 -0.85119850427E+02  0.16325869049E+03 -0.39533500509E+02  0.18831273621E+03  0.00000000000E+00 0.  1.
</event>
<event>
 4    1  0.1322546E+002  0.2060140E+02  0.7546771E-02  0.1525033E+00
          2   -1    0    0  502    0  0.00000000000E+00  0.00000000000E+00  0.29257609614E+03  0.29257609614E+03  0.00000000000E+00 0. -1.
         -2   -1    0    0    0  501 -0.00000000000E+00 -0.00000000000E+00 -0.42801019211E+01  0.42801019211E+01  0.00000000000E+00 0.  1.
          1    1    1    2  502    0  0.17893738632E+02 -0.10209394106E+02  0.26482994251E+03  0.26563003606E+03  0.00000000000E+00 0. -1.
         -1    1    1    2    0  501 -0.17893738632E+02  0.10209394106E+02  0.23466051714E+02  0.31226162001E+02  0.00000000000E+00 0.  1.
</event>
<event>
 4    1  0.1322546E+002  0.2532124E+02  0.7546771E-02  0.1465242E+00
          2   -1    0    0  502    0  0.00000000000E+00  0.00000000000E+00  0.68670816761E+01  0.68670816761E+01  0.00000000000E+00 0.  1.
         -2   -1    0    0    0  501 -0.00000000000E+00 -0.00000000000E+00 -0.96390338244E+02  0.96390338244E+02  0.00000000000E+00 0. -1.
          1    1    1    2  502    0 -0.25256485977E+02 -0.18096701070E+01 -0.53903882558E+02  0.59554962384E+02  0.00000000000E+00 0. -1.
         -1    1    1    2    0  501  0.25256485977E+02  0.18096701070E+01 -0.35619374010E+02  0.43702457535E+02  0.00000000000E+00 0.  1.
</event>
<event>
 4    1  0.1322546E+002  0.2433030E+02  0.7546771E-02  0.1476437E+00
          2   -1    0    0  502    0  0.00000000000E+00  0.00000000000E+00  0.10511770970E+03  0.10511770970E+03  0.00000000000E+00 0.  1.
         -2   -1    0    0    0  501 -0.00000000000E+00 -0.00000000000E+00 -0.58467450120E+01  0.58467450120E+01  0.00000000000E+00 0. -1.
          1    1    1    2  502    0 -0.22327536502E+02  0.96666702606E+01  0.38988406290E+02  0.45957145530E+02  0.00000000000E+00 0. -1.
         -1    1    1    2    0  501  0.22327536502E+02 -0.96666702606E+01  0.60282558402E+02  0.65007309187E+02  0.00000000000E+00 0.  1.
</event>
<event>
 4    1  0.1322546E+002  0.3503372E+02  0.7546771E-02  0.1380326E+00
          2   -1    0    0  502    0  0.00000000000E+00  0.00000000000E+00  0.26579114909E+04  0.26579114909E+04  0.00000000000E+00 0.  1.
         -2   -1    0    0    0  501 -0.00000000000E+00 -0.00000000000E+00 -0.12826954667E+01  0.12826954667E+01  0.00000000000E+00 0. -1.
          1    1    1    2  502    0 -0.33699882527E+02  0.95749381782E+01  0.26464080741E+03  0.26694965531E+03  0.00000000000E+00 0. -1.
         -1    1    1    2    0  501  0.33699882527E+02 -0.95749381782E+01  0.23919879880E+04  0.23922445310E+04  0.00000000000E+00 0.  1.
</event>
<event>
 4    1  0.1322546E+002  0.2066536E+02  0.7546771E-02  0.1524097E+00
          2   -1    0    0  502    0  0.00000000000E+00  0.00000000000E+00  0.25035116840E+03  0.25035116840E+03  0.00000000000E+00 0. -1.
         -2   -1    0    0    0  501 -0.00000000000E+00 -0.00000000000E+00 -0.45966027722E+01  0.45966027722E+01  0.00000000000E+00 0.  1.
          1    1    1    2  502    0 -0.19294411866E+01  0.20575090432E+02  0.21786968345E+02  0.30028804159E+02  0.00000000000E+00 0.  1.
         -1    1    1    2    0  501  0.19294411866E+01 -0.20575090432E+02  0.22396759728E+03  0.22491896701E+03  0.00000000000E+00 0. -1.
</event>
<event>
 4    1  0.1322546E+002  0.2256974E+02  0.7546771E-02  0.1497973E+00
          2   -1    0    0  502    0  0.00000000000E+00  0.00000000000E+00  0.65951522216E+02  0.65951522216E+02  0.00000000000E+00 0.  1.
         -2   -1    0    0    0  501 -0.00000000000E+00 -0.00000000000E+00 -0.11506486497E+02  0.11506486497E+02  0.00000000000E+00 0. -1.
          1    1    1    2  502    0  0.65231573382E+00  0.22560315238E+02  0.49428387005E+02  0.54337452842E+02  0.00000000000E+00 0. -1.
         -1    1    1    2    0  501 -0.65231573382E+00 -0.22560315238E+02  0.50166487139E+01  0.23120555871E+02  0.00000000000E+00 0.  1.
</event>
<event>
 4    1  0.1322546E+002  0.2885065E+02  0.7546771E-02  0.1429854E+00
          2   -1    0    0  502    0  0.00000000000E+00  0.00000000000E+00  0.10048005765E+02  0.10048005765E+02  0.00000000000E+00 0.  1.
         -2   -1    0    0    0  501 -0.00000000000E+00 -0.00000000000E+00 -0.87272772886E+02  0.87272772886E+02  0.00000000000E+00 0. -1.
          1    1    1    2  502    0 -0.15504800070E+02  0.24330248114E+02 -0.49581124813E+02  0.57364167703E+02  0.00000000000E+00 0. -1.
         -1    1    1    2    0  501  0.15504800070E+02 -0.24330248114E+02 -0.27643642308E+02  0.39956610949E+02  0.00000000000E+00 0.  1.
</event>
<event>
 4    1  0.1322546E+002  0.2810809E+02  0.7546771E-02  0.1436784E+00
          2   -1    0    0  502    0  0.00000000000E+00  0.00000000000E+00  0.41404611930E+02  0.41404611930E+02  0.00000000000E+00 0.  1.
         -2   -1    0    0    0  501 -0.00000000000E+00 -0.00000000000E+00 -0.19802244038E+02  0.19802244038E+02  0.00000000000E+00 0. -1.
          1    1    1    2  502    0 -0.27359053143E+02 -0.64457048223E+01  0.16639438779E+02  0.32663983567E+02  0.00000000000E+00 0.  1.
         -1    1    1    2    0  501  0.27359053143E+02  0.64457048223E+01  0.49629291132E+01  0.28542872402E+02  0.00000000000E+00 0. -1.
</event>
<event>
 4    1  0.1322546E+002  0.2492981E+02  0.7546771E-02  0.1469590E+00
          2   -1    0    0  502    0  0.00000000000E+00  0.00000000000E+00  0.31160164480E+03  0.31160164480E+03  0.00000000000E+00 0. -1.
         -2   -1    0    0    0  501 -0.00000000000E+00 -0.00000000000E+00 -0.76085158804E+01  0.76085158804E+01  0.00000000000E+00 0.  1.
          1    1    1    2  502    0  0.91595711237E+00  0.24912979206E+02  0.14898032212E+02  0.29042156843E+02  0.00000000000E+00 0.  1.
         -1    1    1    2    0  501 -0.91595711237E+00 -0.24912979206E+02  0.28909509671E+03  0.29016800384E+03  0.00000000000E+00 0. -1.
</event>
<event>
 4    1  0.1322546E+002  0.3366627E+02  0.7546771E-02  0.1390190E+00
          2   -1    0    0  502    0  0.00000000000E+00  0.00000000000E+00  0.30059082580E+02  0.30059082580E+02  0.00000000000E+00 0.  1.
         -2   -1    0    0    0  501 -0.00000000000E+00 -0.00000000000E+00 -0.39669170089E+02  0.39669170089E+02  0.00000000000E+00 0. -1.
          1    1    1    2  502    0  0.14343758554E+02 -0.30457750538E+02 -0.12560254810E+02  0.35932965063E+02  0.00000000000E+00 0.  1.
         -1    1    1    2    0  501 -0.14343758554E+02  0.30457750538E+02  0.29501673011E+01  0.33795287606E+02  0.00000000000E+00 0. -1.
</event>
<event>
 4    1  0.1322546E+002  0.2784671E+02  0.7546771E-02  0.1439283E+00
          2   -1    0    0  502    0  0.00000000000E+00  0.00000000000E+00  0.26288550894E+03  0.26288550894E+03  0.00000000000E+00 0.  1.
         -2   -1    0    0    0  501 -0.00000000000E+00 -0.00000000000E+00 -0.46443438646E+01  0.46443438646E+01  0.00000000000E+00 0. -1.
          1    1    1    2  502    0 -0.27756347669E+02  0.22415094881E+01  0.48319634058E+02  0.55769402330E+02  0.00000000000E+00 0. -1.
         -1    1    1    2    0  501  0.27756347669E+02 -0.22415094881E+01  0.20992153102E+03  0.21176045048E+03  0.00000000000E+00 0.  1.
</event>
<event>
 4    1  0.1322546E+002  0.2181396E+02  0.7546771E-02  0.1507954E+00
          2   -1    0    0  502    0  0.00000000000E+00  0.00000000000E+00  0.97736375462E+03  0.97736375462E+03  0.00000000000E+00 0.  1.
         -2   -1    0    0    0  501 -0.00000000000E+00 -0.00000000000E+00 -0.48892514902E+00  0.48892514902E+00  0.00000000000E+00 0. -1.
          1    1    1    2  502    0 -0.23437840433E+01 -0.21687679412E+02  0.45673593755E+03  0.45725656410E+03  0.00000000000E+00 0. -1.
         -1    1    1    2    0  501  0.23437840433E+01  0.21687679412E+02  0.52013889192E+03  0.52059611567E+03  0.00000000000E+00 0.  1.
</event>
<event>
 4    1  0.1322546E+002  0.2044203E+02  0.7546771E-02  0.1527382E+00
          2   -1    0    0  502    0  0.00000000000E+00  0.00000000000E+00  0.10191352309E+04  0.10191352309E+04  0.00000000000E+00 0. -1.
         -2   -1    0    0    0  501 -0.00000000000E+00 -0.00000000000E+00 -0.70347582001E+00  0.70347582001E+00  0.00000000000E+00 0.  1.
          1    1    1    2  502    0  0.19822781841E+02 -0.49934031666E+01  0.17987901994E+03  0.18103684313E+03  0.00000000000E+00 0.  1.
         -1    1    1    2    0  501 -0.19822781841E+02  0.49934031666E+01  0.83855273518E+03  0.83880186363E+03  0.00000000000E+00 0. -1.
</event>
<event>
 4    1  0.1322546E+002  0.2711734E+02  0.7546771E-02  0.1446433E+00
          2   -1    0    0  502    0  0.00000000000E+00  0.00000000000E+00  0.14390905866E+03  0.14390905866E+03  0.00000000000E+00 0.  1.
         -2   -1    0    0    0  501 -0.00000000000E+00 -0.00000000000E+00 -0.15075058345E+02  0.15075058345E+02  0.00000000000E+00 0. -1.
          1    1    1    2  502    0  0.77398938019E+00  0.27106293784E+02  0.12904756645E+03  0.13186593430E+03  0.00000000000E+00 0.  1.
         -1    1    1    2    0  501 -0.77398938019E+00 -0.27106293784E+02 -0.21356614202E+00  0.27118182697E+02  0.00000000000E+00 0. -1.
</event>
<event>
 4    1  0.1322546E+002  0.2591944E+02  0.7546771E-02  0.1458775E+00
          2   -1    0    0  502    0  0.00000000000E+00  0.00000000000E+00  0.20796980775E+03  0.20796980775E+03  0.00000000000E+00 0. -1.
         -2   -1    0    0    0  501 -0.00000000000E+00 -0.00000000000E+00 -0.36576009414E+01  0.36576009414E+01  0.00000000000E+00 0.  1.
          1    1    1    2  502    0 -0.21729439018E+02 -0.14129720782E+02  0.65991829741E+02  0.70899500153E+02  0.00000000000E+00 0. -1.
         -1    1    1    2    0  501  0.21729439018E+02  0.14129720782E+02  0.13832037707E+03  0.14072790854E+03  0.00000000000E+00 0.  1.
</event>
<event>
 4    1  0.1322546E+002  0.2327801E+02  0.7546771E-02  0.1489036E+00
          2   -1    0    0  502    0  0.00000000000E+00  0.00000000000E+00  0.84560055048E+03  0.84560055048E+03  0.00000000000E+00 0. -1.
         -2   -1    0    0    0  501 -0.00000000000E+00 -0.00000000000E+00 -0.64879341729E+00  0.64879341729E+00  0.00000000000E+00 0.  1.
          1    1    1    2  502    0 -0.13991427952E+02 -0.18603919713E+02  0.37552767145E+03  0.37624845237E+03  0.00000000000E+00 0. -1.
         -1    1    1    2    0  501  0.13991427952E+02  0.18603919713E+02  0.46942408561E+03  0.47000089153E+03  0.00000000000E+00 0.  1.
</event>
<event>
 4    1  0.1322546E+002  0.3049115E+02  0.7546771E-02  0.1415375E+00
          2   -1    0    0  502    0  0.00000000000E+00  0.00000000000E+00  0.47295504424E+03  0.47295504424E+03  0.00000000000E+00 0. -1.
         -2   -1    0    0    0  501 -0.00000000000E+00 -0.00000000000E+00 -0.81385111175E+01  0.81385111175E+01  0.00000000000E+00 0.  1.
          1    1    1    2  502    0 -0.30490931829E+02 -0.11428039527E+00  0.44190000557E+03  0.44295070257E+03  0.00000000000E+00 0. -1.
         -1    1    1    2    0  501  0.30490931829E+02  0.11428039527E+00  0.22916527554E+02  0.38142852790E+02  0.00000000000E+00 0.  1.
</event>
<event>
 4    1  0.1322546E+002  0.2050941E+02  0.7546771E-02  0.1526386E+00
          2   -1    0    0  502    0  0.00000000000E+00  0.00000000000E+00  0.95024023777E+02  0.95024023777E+02  0.00000000000E+00 0.  1.
         -2   -1    0    0    0  501 -0.00000000000E+00 -0.00000000000E+00 -0.16756793339E+02  0.16756793339E+02  0.00000000000E+00 0. -1.
          1    1    1    2  502    0  0.12309747138E+02  0.16404450134E+02  0.87076736474E+02  0.89459453909E+02  0.00000000000E+00 0.  1.
         -1    1    1    2    0  501 -0.12309747138E+02 -0.16404450134E+02 -0.88095060354E+01  0.22321363207E+02  0.00000000000E+00 0. -1.
</event>
<event>
 4    1  0.1322546E+002  0.3239947E+02  0.7546771E-02  0.1399829E+00
          2   -1    0    0  502    0  0.00000000000E+00  0.00000000000E+00  0.73687729791E+03  0.73687729791E+03  0.00000000000E+00 0. -1.
         -2   -1    0    0    0  501 -0.00000000000E+00 -0.00000000000E+00 -0.14719131518E+01  0.14719131518E+01  0.00000000000E+00 0.  1.
          1    1    1    2  502    0 -0.16148560046E+02 -0.28088246822E+02  0.30148604655E+03  0.30322196798E+03  0.00000000000E+00 0.  1.
         -1    1    1    2    0  501  0.16148560046E+02  0.28088246822E+02  0.43391933821E+03  0.43512724309E+03  0.00000000000E+00 0. -1.
</event>
<event>
 4    1  0.1322546E+002  0.3146969E+02  0.7546771E-02  0.1407241E+00
          2   -1    0    0  502    0  0.00000000000E+00  0.00000000000E+00  0.81762714150E+02  0.81762714150E+02  0.00000000000E+00 0.  1.
         -2   -1    0    0    0  501 -0.00000000000E+00 -0.00000000000E+00 -0.12112564785E+02  0.12112564785E+02  0.00000000000E+00 0. -1.
          1    1    1    2  502    0 -0.31462571150E+02 -0.66912057434E+00  0.35008150186E+02  0.47073471140E+02  0.00000000000E+00 0. -1.
         -1    1    1    2    0  501  0.31462571150E+02  0.66912057434E+00  0.34641999179E+02  0.46801807795E+02  0.00000000000E+00 0.  1.
</event>
<event>
 4    1  0.1322546E+002  0.2750910E+02  0.7546771E-02  0.1442560E+00
          2   -1    0    0  502    0  0.00000000000E+00  0.00000000000E+00  0.36133001281E+03  0.36133001281E+03  0.00000000000E+00 0. -1.
         -2   -1    0    0    0  501 -0.00000000000E+00 -0.00000000000E+00 -0.22437045965E+01  0.22437045965E+01  0.00000000000E+00 0.  1.
          1    1    1    2  502    0  0.18501869328E+02  0.20357589484E+02  0.22644528131E+03  0.22811009633E+03  0.00000000000E+00 0. -1.
         -1    1    1    2    0  501 -0.18501869328E+02 -0.20357589484E+02  0.13264102690E+03  0.13546362108E+03  0.00000000000E+00 0.  1.
</event>
<event>
 4    1  0.1322546E+002  0.2099597E+02  0.7546771E-02  0.1519322E+00
          2   -1    0    0  502    0  0.00000000000E+00  0.00000000000E+00  0.71628409586E+01  0.71628409586E+01  0.00000000000E+00 0. -1.
         -2   -1    0    0    0  501 -0.00000000000E+00 -0.00000000000E+00 -0.10034073941E+03  0.10034073941E+03  0.00000000000E+00 0.  1.
          1    1    1    2  502    0  0.28756425508E+01 -0.20798113725E+02 -0.80012388733E+02  0.82721298378E+02  0.00000000000E+00 0.  1.
         -1    1    1    2    0  501 -0.28756425508E+01  0.20798113725E+02 -0.13165509723E+02  0.24782281995E+02  0.00000000000E+00 0. -1.
</event>
<event>
 4    1  0.1322546E+002  0.4988463E+02  0.7546771E-02  0.1298673E+00
          2   -1    0    0  502    0  0.00000000000E+00  0.00000000000E+00  0.12393543405E+02  0.12393543405E+02  0.00000000000E+00 0.  1.
         -2   -1    0    0    0  501 -0.00000000000E+00 -0.00000000000E+00 -0.34359716685E+03  0.34359716685E+03  0.00000000000E+00 0. -1.
          1    1    1    2  502    0 -0.33861181482E+02 -0.36631909360E+02 -0.50849424642E+02  0.71233000646E+02  0.00000000000E+00 0.  1.
         -1    1    1    2    0  501  0.33861181482E+02  0.36631909360E+02 -0.28035419880E+03  0.28475770961E+03  0.00000000000E+00 0. -1.
</event>
<event>
 4    1  0.1322546E+002  0.3167501E+02  0.7546771E-02  0.1405578E+00
          2   -1    0    0  502    0  0.00000000000E+00  0.00000000000E+00  0.14845062056E+03  0.14845062056E+03  0.00000000000E+00 0.  1.
         -2   -1    0    0    0  501 -0.00000000000E+00 -0.00000000000E+00 -0.73533761128E+01  0.73533761128E+01  0.00000000000E+00 0. -1.
          1    1    1    2  502    0  0.29602559484E+02 -0.11269190686E+02  0.48391573449E+02  0.57836412126E+02  0.00000000000E+00 0.  1.
         -1    1    1    2    0  501 -0.29602559484E+02  0.11269190686E+02  0.92705670994E+02  0.97967584543E+02  0.00000000000E+00 0. -1.
</event>
<event>
 4    1  0.1322546E+002  0.2112363E+02  0.7546771E-02  0.1517507E+00
          2   -1    0    0  502    0  0.00000000000E+00  0.00000000000E+00  0.49651812344E+02  0.49651812344E+02  0.00000000000E+00 0.  1.
         -2   -1    0    0    0  501 -0.00000000000E+00 -0.00000000000E+00 -0.94436229796E+01  0.94436229796E+01  0.00000000000E+00 0. -1.
          1    1    1    2  502    0 -0.15424101161E+01  0.21067241110E+02  0.26603288880E+02  0.33969731471E+02  0.00000000000E+00 0.  1.
         -1    1    1    2    0  501  0.15424101161E+01 -0.21067241110E+02  0.13604900484E+02  0.25125703853E+02  0.00000000000E+00 0. -1.
</event>
<event>
 4    1  0.1322546E+002  0.2973018E+02  0.7546771E-02  0.1421956E+00
          2   -1    0    0  502    0  0.00000000000E+00  0.00000000000E+00  0.24542055329E+03  0.24542055329E+03  0.00000000000E+00 0. -1.
         -2   -1    0    0    0  501 -0.00000000000E+00 -0.00000000000E+00 -0.85799133935E+01  0.85799133935E+01  0.00000000000E+00 0.  1.
          1    1    1    2  502    0 -0.29719123868E+02  0.81072578550E+00  0.21516080988E+03  0.21720510516E+03  0.00000000000E+00 0. -1.
         -1    1    1    2    0  501  0.29719123868E+02 -0.81072578550E+00  0.21679830009E+02  0.36795361515E+02  0.00000000000E+00 0.  1.
</event>
<event>
 4    1  0.1322546E+002  0.4609575E+02  0.7546771E-02  0.1316049E+00
          2   -1    0    0  502    0  0.00000000000E+00  0.00000000000E+00  0.40687841300E+02  0.40687841300E+02  0.00000000000E+00 0.  1.
         -2   -1    0    0    0  501 -0.00000000000E+00 -0.00000000000E+00 -0.57879580022E+02  0.57879580022E+02  0.00000000000E+00 0. -1.
          1    1    1    2  502    0  0.42963911087E+02  0.16700904914E+02  0.68118947665E+01  0.46596349547E+02  0.00000000000E+00 0. -1.
         -1    1    1    2    0  501 -0.42963911087E+02 -0.16700904914E+02 -0.24003633489E+02  0.51971071775E+02  0.00000000000E+00 0.  1.
</event>
<event>
 4    1  0.1322546E+002  0.2071679E+02  0.7546771E-02  0.1523347E+00
          2   -1    0    0  502    0  0.00000000000E+00  0.00000000000E+00  0.45056197572E+03  0.45056197572E+03  0.00000000000E+00 0. -1.
         -2   -1    0    0    0  501 -0.00000000000E+00 -0.00000000000E+00 -0.15917099392E+01  0.15917099392E+01  0.00000000000E+00 0.  1.
          1    1    1    2  502    0  0.45143602326E+01  0.20218952900E+02  0.36774576300E+03  0.36832883638E+03  0.00000000000E+00 0. -1.
         -1    1    1    2    0  501 -0.45143602326E+01 -0.20218952900E+02  0.81224502786E+02  0.83824849285E+02  0.00000000000E+00 0.  1.
</event>
<event>
 4    1  0.1322546E+002  0.2110841E+02  0.7546771E-02  0.1517723E+00
          2   -1    0    0  502    0  0.00000000000E+00  0.00000000000E+00  0.25025036560E+01  0.25025036560E+01  0.00000000000E+00 0.  1.
         -2   -1    0    0    0  501 -0.00000000000E+00 -0.00000000000E+00 -0.18047352198E+03  0.18047352198E+03  0.00000000000E+00 0. -1.
          1    1    1    2  502    0  0.17080070294E+02  0.12403074643E+02 -0.99592334576E+02  0.10180470602E+03  0.00000000000E+00 0. -1.
         -1    1    1    2    0  501 -0.17080070294E+02 -0.12403074643E+02 -0.78378683747E+02  0.81171319613E+02  0.00000000000E+00 0.  1.
</event>
<event>
 4    1  0.1322546E+002  0.2825593E+02  0.7546771E-02  0.1435384E+00
          2   -1    0    0  502    0  0.00000000000E+00  0.00000000000E+00  0.73054665266E+01  0.73054665266E+01  0.00000000000E+00 0. -1.
         -2   -1    0    0    0  501 -0.00000000000E+00 -0.00000000000E+00 -0.12600543684E+03  0.12600543684E+03  0.00000000000E+00 0.  1.
          1    1    1    2  502    0 -0.13224512120E+02  0.24970174123E+02 -0.35071010570E+02  0.45037463283E+02  0.00000000000E+00 0. -1.
         -1    1    1    2    0  501  0.13224512120E+02 -0.24970174123E+02 -0.83628959745E+02  0.88273440086E+02  0.00000000000E+00 0.  1.
</event>
<event>
 4    1  0.1322546E+002  0.2709922E+02  0.7546771E-02  0.1446614E+00
          2   -1    0    0  502    0  0.00000000000E+00  0.00000000000E+00  0.46543877884E+01  0.46543877884E+01  0.00000000000E+00 0. -1.
         -2   -1    0    0    0  501 -0.00000000000E+00 -0.00000000000E+00 -0.16301018311E+03  0.16301018311E+03  0.00000000000E+00 0.  1.
          1    1    1    2  502    0 -0.26993591236E+02 -0.23903297004E+01 -0.64161104311E+02  0.69649227923E+02  0.00000000000E+00 0. -1.
         -1    1    1    2    0  501  0.26993591236E+02  0.23903297004E+01 -0.94194691009E+02  0.98015342974E+02  0.00000000000E+00 0.  1.
</event>
<event>
 4    1  0.1322546E+002  0.2286604E+02  0.7546771E-02  0.1494187E+00
          2   -1    0    0  502    0  0.00000000000E+00  0.00000000000E+00  0.58758850388E+02  0.58758850388E+02  0.00000000000E+00 0.  1.
         -2   -1    0    0    0  501 -0.00000000000E+00 -0.00000000000E+00 -0.93367943839E+01  0.93367943839E+01  0.00000000000E+00 0. -1.
          1    1    1    2  502    0 -0.21295605569E+02  0.83278402947E+01  0.32089335770E+02  0.39402807143E+02  0.00000000000E+00 0.  1.
         -1    1    1    2    0  501  0.21295605569E+02 -0.83278402947E+01  0.17332720234E+02  0.28692837630E+02  0.00000000000E+00 0. -1.
</event>
<event>
 4    1  0.1322546E+002  0.2288811E+02  0.7546771E-02  0.1493908E+00
          2   -1    0    0  502    0  0.00000000000E+00  0.00000000000E+00  0.76210655908E+03  0.76210655908E+03  0.00000000000E+00 0.  1.
         -2   -1    0    0    0  501 -0.00000000000E+00 -0.00000000000E+00 -0.69242724460E+00  0.69242724460E+00  0.00000000000E+00 0. -1.
          1    1    1    2  502    0  0.88154538624E+01 -0.21122347451E+02  0.34818242135E+03  0.34893389678E+03  0.00000000000E+00 0. -1.
         -1    1    1    2    0  501 -0.88154538624E+01  0.21122347451E+02  0.41323171049E+03  0.41386508955E+03  0.00000000000E+00 0.  1.
</event>
<event>
 4    1  0.1322546E+002  0.2173662E+02  0.7546771E-02  0.1509002E+00
          2   -1    0    0  502    0  0.00000000000E+00  0.00000000000E+00  0.51816317951E+03  0.51816317951E+03  0.00000000000E+00 0.  1.
         -2   -1    0    0    0  501 -0.00000000000E+00 -0.00000000000E+00 -0.25849628512E+01  0.25849628512E+01  0.00000000000E+00 0. -1.
          1    1    1    2  502    0 -0.19243491474E+02 -0.10107861505E+02  0.48312869326E+02  0.52977487396E+02  0.00000000000E+00 0. -1.
         -1    1    1    2    0  501  0.19243491474E+02  0.10107861505E+02  0.46726534733E+03  0.46777065496E+03  0.00000000000E+00 0.  1.
</event>
<event>
 4    1  0.1322546E+002  0.2528279E+02  0.7546771E-02  0.1465664E+00
          2   -1    0    0  502    0  0.00000000000E+00  0.00000000000E+00  0.16421837933E+02  0.16421837933E+02  0.00000000000E+00 0. -1.
         -2   -1    0    0    0  501 -0.00000000000E+00 -0.00000000000E+00 -0.42084237241E+02  0.42084237241E+02  0.00000000000E+00 0.  1.
          1    1    1    2  502    0 -0.23850876309E+02 -0.83878097887E+01 -0.48161912461E+01  0.25737430950E+02  0.00000000000E+00 0.  1.
         -1    1    1    2    0  501  0.23850876309E+02  0.83878097887E+01 -0.20846208062E+02  0.32768644225E+02  0.00000000000E+00 0. -1.
</event>
<event>
 4    1  0.1322546E+002  0.2085098E+02  0.7546771E-02  0.1521403E+00
          2   -1    0    0  502    0  0.00000000000E+00  0.00000000000E+00  0.24665423244E+00  0.24665423244E+00  0.00000000000E+00 0.  1.
         -2   -1    0    0    0  501 -0.00000000000E+00 -0.00000000000E+00 -0.17874821919E+04  0.17874821919E+04  0.00000000000E+00 0. -1.
          1    1    1    2  502    0 -0.16282099611E+02  0.13025230623E+02 -0.99898800483E+03  0.99920558305E+03  0.00000000000E+00 0. -1.
         -1    1    1    2    0  501  0.16282099611E+02 -0.13025230623E+02 -0.78824753287E+03  0.78852326312E+03  0.00000000000E+00 0.  1.
</event>
<event>
 4    1  0.1322546E+002  0.2275346E+02  0.7546771E-02  0.1495617E+00
          2   -1    0    0  502    0  0.00000000000E+00  0.00000000000E+00  0.19316110740E+04  0.19316110740E+04  0.00000000000E+00 0. -1.
         -2   -1    0    0    0  501 -0.00000000000E+00 -0.00000000000E+00 -0.26868044338E+00  0.26868044338E+00  0.00000000000E+00 0.  1.
          1    1    1    2  502    0  0.18295653320E+02 -0.13527341175E+02  0.91795909517E+03  0.91824104694E+03  0.00000000000E+00 0.  1.
         -1    1    1    2    0  501 -0.18295653320E+02  0.13527341175E+02  0.10133832984E+04  0.10136387075E+04  0.00000000000E+00 0. -1.
</event>
<event>
 4    1  0.1322546E+002  0.3548635E+02  0.7546771E-02  0.1377176E+00
          2   -1    0    0  502    0  0.00000000000E+00  0.00000000000E+00  0.13465454699E+03  0.13465454699E+03  0.00000000000E+00 0.  1.
         -2   -1    0    0    0  501 -0.00000000000E+00 -0.00000000000E+00 -0.10723898761E+02  0.10723898761E+02  0.00000000000E+00 0. -1.
          1    1    1    2  502    0 -0.79397806052E+01 -0.34586712343E+02  0.35965839476E+02  0.50525462848E+02  0.00000000000E+00 0.  1.
         -1    1    1    2    0  501  0.79397806052E+01  0.34586712343E+02  0.87964808749E+02  0.94852982900E+02  0.00000000000E+00 0. -1.
</event>
<event>
 4    1  0.1322546E+002  0.2215875E+02  0.7546771E-02  0.1503341E+00
          2   -1    0    0  502    0  0.00000000000E+00  0.00000000000E+00  0.13973704743E+03  0.13973704743E+03  0.00000000000E+00 0. -1.
         -2   -1    0    0    0  501 -0.00000000000E+00 -0.00000000000E+00 -0.39563727175E+01  0.39563727175E+01  0.00000000000E+00 0.  1.
          1    1    1    2  502    0 -0.97413533243E+01  0.19902674638E+02  0.91919698878E+02  0.94552850111E+02  0.00000000000E+00 0. -1.
         -1    1    1    2    0  501  0.97413533243E+01 -0.19902674638E+02  0.43860975835E+02  0.49140570037E+02  0.00000000000E+00 0.  1.
</event>
<event>
 4    1  0.1322546E+002  0.5287896E+02  0.7546771E-02  0.1286151E+00
          2   -1    0    0  502    0  0.00000000000E+00  0.00000000000E+00  0.11865454873E+03  0.11865454873E+03  0.00000000000E+00 0. -1.
         -2   -1    0    0    0  501 -0.00000000000E+00 -0.00000000000E+00 -0.27658211879E+02  0.27658211879E+02  0.00000000000E+00 0.  1.
          1    1    1    2  502    0  0.43840778088E+02 -0.29566371093E+02  0.17357644981E+02  0.55654936549E+02  0.00000000000E+00 0.  1.
         -1    1    1    2    0  501 -0.43840778088E+02  0.29566371093E+02  0.73638691872E+02  0.90657824062E+02  0.00000000000E+00 0. -1.
</event>
<event>
 4    1  0.1322546E+002  0.2178558E+02  0.7546771E-02  0.1508338E+00
          2   -1    0    0  502    0  0.00000000000E+00  0.00000000000E+00  0.54829688764E+03  0.54829688764E+03  0.00000000000E+00 0.  1.
         -2   -1    0    0    0  501 -0.00000000000E+00 -0.00000000000E+00 -0.19769561003E+01  0.19769561003E+01  0.00000000000E+00 0. -1.
          1    1    1    2  502    0  0.88918388821E+01  0.19888354714E+02  0.66871492744E+02  0.70330704488E+02  0.00000000000E+00 0. -1.
         -1    1    1    2    0  501 -0.88918388821E+01 -0.19888354714E+02  0.47944843879E+03  0.47994313925E+03  0.00000000000E+00 0.  1.
</event>
<event>
 4    1  0.1322546E+002  0.2186715E+02  0.7546771E-02  0.1507235E+00
          2   -1    0    0  502    0  0.00000000000E+00  0.00000000000E+00  0.51560249544E+03  0.51560249544E+03  0.00000000000E+00 0.  1.
         -2   -1    0    0    0  501 -0.00000000000E+00 -0.00000000000E+00 -0.93049389768E+00  0.93049389768E+00  0.00000000000E+00 0. -1.
          1    1    1    2  502    0  0.21662924090E+02 -0.29816360473E+01  0.27221587435E+03  0.27309275839E+03  0.00000000000E+00 0.  1.
         -1    1    1    2    0  501 -0.21662924090E+02  0.29816360473E+01  0.24245612719E+03  0.24344023095E+03  0.00000000000E+00 0. -1.
</event>
<event>
 4    1  0.1322546E+002  0.2411487E+02  0.7546771E-02  0.1478954E+00
          2   -1    0    0  502    0  0.00000000000E+00  0.00000000000E+00  0.48338273518E+02  0.48338273518E+02  0.00000000000E+00 0.  1.
         -2   -1    0    0    0  501 -0.00000000000E+00 -0.00000000000E+00 -0.14249621411E+02  0.14249621411E+02  0.00000000000E+00 0. -1.
          1    1    1    2  502    0 -0.86363441436E+01 -0.22515337110E+02  0.29394210394E+02  0.38020342582E+02  0.00000000000E+00 0.  1.
         -1    1    1    2    0  501  0.86363441436E+01  0.22515337110E+02  0.46944417129E+01  0.24567552347E+02  0.00000000000E+00 0. -1.
</event>
<event>
 4    1  0.1322546E+002  0.3240961E+02  0.7546771E-02  0.1399750E+00
          2   -1    0    0  502    0  0.00000000000E+00  0.00000000000E+00  0.24770690701E+03  0.24770690701E+03  0.00000000000E+00 0.  1.
         -2   -1    0    0    0  501 -0.00000000000E+00 -0.00000000000E+00 -0.80009037672E+01  0.80009037672E+01  0.00000000000E+00 0. -1.
          1    1    1    2  502    0 -0.26831941502E+02 -0.18177719037E+02  0.20750585272E+03  0.21002157382E+03  0.00000000000E+00 0. -1.
         -1    1    1    2    0  501  0.26831941502E+02  0.18177719037E+02  0.32200150522E+02  0.45686236963E+02  0.00000000000E+00 0.  1.
</event>
<event>
 4    1  0.1322546E+002  0.2006013E+02  0.7546771E-02  0.1533118E+00
          2   -1    0    0  502    0  0.00000000000E+00  0.00000000000E+00  0.14342898475E+04  0.14342898475E+04  0.00000000000E+00 0. -1.
         -2   -1    0    0    0  501 -0.00000000000E+00 -0.00000000000E+00 -0.41268619116E+00  0.41268619116E+00  0.00000000000E+00 0.  1.
          1    1    1    2  502    0 -0.18533850099E+02 -0.76749799299E+01  0.31104597716E+03  0.31169216997E+03  0.00000000000E+00 0.  1.
         -1    1    1    2    0  501  0.18533850099E+02  0.76749799299E+01  0.11228311841E+04  0.11230103637E+04  0.00000000000E+00 0. -1.
</event>
<event>
 4    1  0.1322546E+002  0.3962941E+02  0.7546771E-02  0.1350671E+00
          2   -1    0    0  502    0  0.00000000000E+00  0.00000000000E+00  0.62991247592E+03  0.62991247592E+03  0.00000000000E+00 0. -1.
         -2   -1    0    0    0  501 -0.00000000000E+00 -0.00000000000E+00 -0.31471068426E+01  0.31471068426E+01  0.00000000000E+00 0.  1.
          1    1    1    2  502    0 -0.38324442264E+02 -0.10085994920E+02  0.16909781067E+03  0.17367947416E+03  0.00000000000E+00 0.  1.
         -1    1    1    2    0  501  0.38324442264E+02  0.10085994920E+02  0.45766755841E+03  0.45938010861E+03  0.00000000000E+00 0. -1.
</event>
<event>
 4    1  0.1322546E+002  0.6816857E+02  0.7546771E-02  0.1234348E+00
          2   -1    0    0  502    0  0.00000000000E+00  0.00000000000E+00  0.98760648897E+02  0.98760648897E+02  0.00000000000E+00 0. -1.
         -2   -1    0    0    0  501 -0.00000000000E+00 -0.00000000000E+00 -0.13929551249E+03  0.13929551249E+03  0.00000000000E+00 0.  1.
          1    1    1    2  502    0 -0.14584097715E+02  0.66590226685E+02 -0.11712803284E+03  0.13552095880E+03  0.00000000000E+00 0.  1.
         -1    1    1    2    0  501  0.14584097715E+02 -0.66590226685E+02  0.76593169244E+02  0.10253520259E+03  0.00000000000E+00 0. -1.
</event>
<event>
 4    1  0.1322546E+002  0.3616356E+02  0.7546771E-02  0.1372563E+00
          2   -1    0    0  502    0  0.00000000000E+00  0.00000000000E+00  0.18479641348E+03  0.18479641348E+03  0.00000000000E+00 0. -1.
         -2   -1    0    0    0  501 -0.00000000000E+00 -0.00000000000E+00 -0.12581262949E+02  0.12581262949E+02  0.00000000000E+00 0.  1.
          1    1    1    2  502    0 -0.89234884863E+01 -0.35045315207E+02  0.15138391791E+03  0.15564348161E+03  0.00000000000E+00 0. -1.
         -1    1    1    2    0  501  0.89234884863E+01  0.35045315207E+02  0.20831232613E+02  0.41734194816E+02  0.00000000000E+00 0.  1.
</event>
<event>
 4    1  0.1322546E+002  0.3859968E+02  0.7546771E-02  0.1356893E+00
          2   -1    0    0  502    0  0.00000000000E+00  0.00000000000E+00  0.38898072400E+03  0.38898072400E+03  0.00000000000E+00 0. -1.
         -2   -1    0    0    0  501 -0.00000000000E+00 -0.00000000000E+00 -0.62566964998E+01  0.62566964998E+01  0.00000000000E+00 0.  1.
          1    1    1    2  502    0 -0.31166453869E+02  0.22772515154E+02  0.68297952855E+02  0.78450912406E+02  0.00000000000E+00 0.  1.
         -1    1    1    2    0  501  0.31166453869E+02 -0.22772515154E+02  0.31442607464E+03  0.31678650809E+03  0.00000000000E+00 0. -1.
</event>
<event>
 4    1  0.1322546E+002  0.2470856E+02  0.7546771E-02  0.1472090E+00
          2   -1    0    0  502    0  0.00000000000E+00  0.00000000000E+00  0.25178150103E+01  0.25178150103E+01  0.00000000000E+00 0.  1.
         -2   -1    0    0    0  501 -0.00000000000E+00 -0.00000000000E+00 -0.29765002835E+03  0.29765002835E+03  0.00000000000E+00 0. -1.
          1    1    1    2  502    0  0.24688378171E+02 -0.99856826354E+00 -0.21218256796E+03  0.21361637414E+03  0.00000000000E+00 0. -1.
         -1    1    1    2    0  501 -0.24688378171E+02  0.99856826354E+00 -0.82949645382E+02  0.86551469220E+02  0.00000000000E+00 0.  1.
</event>
<event>
 4    1  0.1322546E+002  0.2288744E+02  0.7546771E-02  0.1493916E+00
          2   -1    0    0  502    0  0.00000000000E+00  0.00000000000E+00  0.17035325280E+04  0.17035325280E+04  0.00000000000E+00 0. -1.
         -2   -1    0    0    0  501 -0.00000000000E+00 -0.00000000000E+00 -0.32138790963E+00  0.32138790963E+00  0.00000000000E+00 0.  1.
          1    1    1    2  502    0 -0.76794833155E+01  0.21560626050E+02  0.10287049258E+04  0.10289595033E+04  0.00000000000E+00 0. -1.
         -1    1    1    2    0  501  0.76794833155E+01 -0.21560626050E+02  0.67450621429E+03  0.67489441261E+03  0.00000000000E+00 0.  1.
</event>
<event>
 4    1  0.1322546E+002  0.2354385E+02  0.7546771E-02  0.1485780E+00
          2   -1    0    0  502    0  0.00000000000E+00  0.00000000000E+00  0.23513007937E+04  0.23513007937E+04  0.00000000000E+00 0. -1.
         -2   -1    0    0    0  501 -0.00000000000E+00 -0.00000000000E+00 -0.24841261481E+00  0.24841261481E+00  0.00000000000E+00 0.  1.
          1    1    1    2  502    0 -0.53886514571E+01 -0.22918885438E+02  0.91003824651E+03  0.91034275028E+03  0.00000000000E+00 0.  1.
         -1    1    1    2    0  501  0.53886514571E+01  0.22918885438E+02  0.14410141346E+04  0.14412064561E+04  0.00000000000E+00 0. -1.
</event>
<event>
 4    1  0.1322546E+002  0.3131950E+02  0.7546771E-02  0.1408466E+00
          2   -1    0    0  502    0  0.00000000000E+00  0.00000000000E+00  0.46812543325E+03  0.46812543325E+03  0.00000000000E+00 0.  1.
         -2   -1    0    0    0  501 -0.00000000000E+00 -0.00000000000E+00 -0.21276043545E+01  0.21276043545E+01  0.00000000000E+00 0. -1.
          1    1    1    2  502    0  0.22582266382E+02 -0.21701443058E+02  0.20407254091E+03  0.20646189319E+03  0.00000000000E+00 0.  1.
         -1    1    1    2    0  501 -0.22582266382E+02  0.21701443058E+02  0.26192528799E+03  0.26379114442E+03  0.00000000000E+00 0. -1.
</event>
<event>
 4    1  0.1322546E+002  0.2377283E+02  0.7546771E-02  0.1483015E+00
          2   -1    0    0  502    0  0.00000000000E+00  0.00000000000E+00  0.23808128157E+01  0.23808128157E+01  0.00000000000E+00 0.  1.
         -2   -1    0    0    0  501 -0.00000000000E+00 -0.00000000000E+00 -0.24362224101E+03  0.24362224101E+03  0.00000000000E+00 0. -1.
          1    1    1    2  502    0  0.17053109307E+02  0.16563174046E+02 -0.10092510319E+03  0.10368714349E+03  0.00000000000E+00 0.  1.
         -1    1    1    2    0  501 -0.17053109307E+02 -0.16563174046E+02 -0.14031632500E+03  0.14231591033E+03  0.00000000000E+00 0. -1.
</event>
<event>
 4    1  0.1322546E+002  0.2162647E+02  0.7546771E-02  0.1510505E+00
          2   -1    0    0  502    0  0.00000000000E+00  0.00000000000E+00  0.27834217461E+01  0.27834217461E+01  0.00000000000E+00 0.  1.
         -2   -1    0    0    0  501 -0.00000000000E+00 -0.00000000000E+00 -0.18970937364E+03  0.18970937364E+03  0.00000000000E+00 0. -1.
          1    1    1    2  502    0 -0.12268754223E+02  0.17809603056E+02 -0.60928628929E+02  0.64652935853E+02  0.00000000000E+00 0.  1.
         -1    1    1    2    0  501  0.12268754223E+02 -0.17809603056E+02 -0.12599732296E+03  0.12783985953E+03  0.00000000000E+00 0. -1.
</event>
<event>
 4    1  0.1322546E+002  0.2633223E+02  0.7546771E-02  0.1454434E+00
          2   -1    0    0  502    0  0.00000000000E+00  0.00000000000E+00  0.20922177261E+03  0.20922177261E+03  0.00000000000E+00 0.  1.
         -2   -1    0    0    0  501 -0.00000000000E+00 -0.00000000000E+00 -0.35938369174E+01  0.35938369174E+01  0.00000000000E+00 0. -1.
          1    1    1    2  502    0  0.27887805782E+01 -0.26184136441E+02  0.13250004333E+03  0.13509125723E+03  0.00000000000E+00 0.  1.
         -1    1    1    2    0  501 -0.27887805782E+01  0.26184136441E+02  0.73127892367E+02  0.77724352299E+02  0.00000000000E+00 0. -1.
</event>
<event>
 4    1  0.1322546E+002  0.2218605E+02  0.7546771E-02  0.1502980E+00
          2   -1    0    0  502    0  0.00000000000E+00  0.00000000000E+00  0.10002612306E+04  0.10002612306E+04  0.00000000000E+00 0.  1.
         -2   -1    0    0    0  501 -0.00000000000E+00 -0.00000000000E+00 -0.70049195837E+00  0.70049195837E+00  0.00000000000E+00 0. -1.
          1    1    1    2  502    0 -0.26315994246E+01 -0.22029422759E+02  0.77276265669E+03  0.77308107231E+03  0.00000000000E+00 0.  1.
         -1    1    1    2    0  501  0.26315994246E+01  0.22029422759E+02  0.22679808194E+03  0.22788065024E+03  0.00000000000E+00 0. -1.
</event>
<event>
 4    1  0.1322546E+002  0.2233924E+02  0.7546771E-02  0.1500966E+00
          2   -1    0    0  502    0  0.00000000000E+00  0.00000000000E+00  0.19387107188E+03  0.19387107188E+03  0.00000000000E+00 0. -1.
         -2   -1    0    0    0  501 -0.00000000000E+00 -0.00000000000E+00 -0.26177278089E+01  0.26177278089E+01  0.00000000000E+00 0.  1.
          1    1    1    2  502    0 -0.16492640142E+01 -0.22278271724E+02  0.10831137282E+03  0.11059111603E+03  0.00000000000E+00 0. -1.
         -1    1    1    2    0  501  0.16492640142E+01  0.22278271724E+02  0.82941971246E+02  0.85897683653E+02  0.00000000000E+00 0.  1.
</event>
<event>
 4    1  0.1322546E+002  0.2010105E+02  0.7546771E-02  0.1532497E+00
          2   -1    0    0  502    0  0.00000000000E+00  0.00000000000E+00  0.48892738931E+02  0.48892738931E+02  0.00000000000E+00 0.  1.
         -2   -1    0    0    0  501 -0.00000000000E+00 -0.00000000000E+00 -0.84508370490E+01  0.84508370490E+01  0.00000000000E+00 0. -1.
          1    1    1    2  502    0  0.16421023762E+02  0.11593191808E+02  0.24483569054E+02  0.31678025054E+02  0.00000000000E+00 0.  1.
         -1    1    1    2    0  501 -0.16421023762E+02 -0.11593191808E+02  0.15958332827E+02  0.25665550926E+02  0.00000000000E+00 0. -1.
</event>
<event>
 4    1  0.1322546E+002  0.2604613E+02  0.7546771E-02  0.1457433E+00
          2   -1    0    0  502    0  0.00000000000E+00  0.00000000000E+00  0.49483466592E+02  0.49483466592E+02  0.00000000000E+00 0. -1.
         -2   -1    0    0    0  501 -0.00000000000E+00 -0.00000000000E+00 -0.31838475619E+02  0.31838475619E+02  0.00000000000E+00 0.  1.
          1    1    1    2  502    0  0.13474998607E+01  0.26011248744E+02  0.39504695414E+02  0.47318302768E+02  0.00000000000E+00 0. -1.
         -1    1    1    2    0  501 -0.13474998607E+01 -0.26011248744E+02 -0.21859704441E+02  0.34003639443E+02  0.00000000000E+00 0.  1.
</event>
<event>
 4    1  0.1322546E+002  0.2318526E+02  0.7546771E-02  0.1490185E+00
          2   -1    0    0  502    0  0.00000000000E+00  0.00000000000E+00  0.32421383977E+03  0.32421383977E+03  0.00000000000E+00 0. -1.
         -2   -1    0    0    0  501 -0.00000000000E+00 -0.00000000000E+00 -0.17134447130E+01  0.17134447130E+01  0.00000000000E+00 0.  1.
          1    1    1    2  502    0 -0.21965821538E+02 -0.74201684430E+01  0.19055703193E+03  0.19196233649E+03  0.00000000000E+00 0.  1.
         -1    1    1    2    0  501  0.21965821538E+02  0.74201684430E+01  0.13194336313E+03  0.13396494799E+03  0.00000000000E+00 0. -1.
</event>
<event>
 4    1  0.1322546E+002  0.2934275E+02  0.7546771E-02  0.1425395E+00
          2   -1    0    0  502    0  0.00000000000E+00  0.00000000000E+00  0.14691583955E+01  0.14691583955E+01  0.00000000000E+00 0. -1.
         -2   -1    0    0    0  501 -0.00000000000E+00 -0.00000000000E+00 -0.62636733223E+03  0.62636733223E+03  0.00000000000E+00 0.  1.
          1    1    1    2  502    0  0.10872855044E+02  0.27253951346E+02 -0.39209445096E+03  0.39319086372E+03  0.00000000000E+00 0.  1.
         -1    1    1    2    0  501 -0.10872855044E+02 -0.27253951346E+02 -0.23280372288E+03  0.23464562691E+03  0.00000000000E+00 0. -1.
</event>
<event>
 4    1  0.1322546E+002  0.3576124E+02  0.7546771E-02  0.1375289E+00
          2   -1    0    0  502    0  0.00000000000E+00  0.00000000000E+00  0.18127072145E+03  0.18127072145E+03  0.00000000000E+00 0. -1.
         -2   -1    0    0    0  501 -0.00000000000E+00 -0.00000000000E+00 -0.74014415975E+01  0.74014415975E+01  0.00000000000E+00 0.  1.
          1    1    1    2  502    0  0.31979847862E+02  0.16004852552E+02  0.10734408108E+03  0.11314423413E+03  0.00000000000E+00 0.  1.
         -1    1    1    2    0  501 -0.31979847862E+02 -0.16004852552E+02  0.66525198771E+02  0.75527928914E+02  0.00000000000E+00 0. -1.
</event>
<event>
 4    1  0.1322546E+002  0.2196580E+02  0.7546771E-02  0.1505910E+00
          2   -1    0    0  502    0  0.00000000000E+00  0.00000000000E+00  0.32018648280E+03  0.32018648280E+03  0.00000000000E+00 0.  1.
         -2   -1    0    0    0  501 -0.00000000000E+00 -0.00000000000E+00 -0.17278837616E+01  0.17278837616E+01  0.00000000000E+00 0. -1.
          1    1    1    2  502    0 -0.18167256711E+02 -0.12346941027E+02  0.10167055487E+03  0.10401633476E+03  0.00000000000E+00 0. -1.
         -1    1    1    2    0  501  0.18167256711E+02  0.12346941027E+02  0.21678804417E+03  0.21789803180E+03  0.00000000000E+00 0.  1.
</event>
<event>
 4    1  0.1322546E+002  0.2955895E+02  0.7546771E-02  0.1423468E+00
          2   -1    0    0  502    0  0.00000000000E+00  0.00000000000E+00  0.66767220140E+02  0.66767220140E+02  0.00000000000E+00 0.  1.
         -2   -1    0    0    0  501 -0.00000000000E+00 -0.00000000000E+00 -0.13996740723E+02  0.13996740723E+02  0.00000000000E+00 0. -1.
          1    1    1    2  502    0 -0.16939756214E+02  0.24223467490E+02  0.36684708715E+02  0.47111565155E+02  0.00000000000E+00 0.  1.
         -1    1    1    2    0  501  0.16939756214E+02 -0.24223467490E+02  0.16085770703E+02  0.33652395709E+02  0.00000000000E+00 0. -1.
</event>
<event>
 4    1  0.1322546E+002  0.2513476E+02  0.7546771E-02  0.1467301E+00
          2   -1    0    0  502    0  0.00000000000E+00  0.00000000000E+00  0.51033239967E+01  0.51033239967E+01  0.00000000000E+00 0.  1.
         -2   -1    0    0    0  501 -0.00000000000E+00 -0.00000000000E+00 -0.16289804775E+03  0.16289804775E+03  0.00000000000E+00 0. -1.
          1    1    1    2  502    0 -0.14626428852E+02  0.20440733708E+02 -0.12005411016E+03  0.12265702337E+03  0.00000000000E+00 0. -1.
         -1    1    1    2    0  501  0.14626428852E+02 -0.20440733708E+02 -0.37740613599E+02  0.45344348383E+02  0.00000000000E+00 0.  1.
</event>
<event>
 4    1  0.1322546E+002  0.2405061E+02  0.7546771E-02  0.1479711E+00
          2   -1    0    0  502    0  0.00000000000E+00  0.00000000000E+00  0.13942205359E+01  0.13942205359E+01  0.00000000000E+00 0.  1.
         -2   -1    0    0    0  501 -0.00000000000E+00 -0.00000000000E+00 -0.59343674288E+03  0.59343674288E+03  0.00000000000E+00 0. -1.
          1    1    1    2  502    0 -0.37485427468E+01  0.23756689651E+02 -0.13287898243E+03  0.13503797928E+03  0.00000000000E+00 0.  1.
         -1    1    1    2    0  501  0.37485427468E+01 -0.23756689651E+02 -0.45916353991E+03  0.45979298413E+03  0.00000000000E+00 0. -1.
</event>
<event>
 4    1  0.1322546E+002  0.2424171E+02  0.7546771E-02  0.1477468E+00
          2   -1    0    0  502    0  0.00000000000E+00  0.00000000000E+00  0.90592640158E+03  0.90592640158E+03  0.00000000000E+00 0. -1.
         -2   -1    0    0    0  501 -0.00000000000E+00 -0.00000000000E+00 -0.66048856007E+00  0.66048856007E+00  0.00000000000E+00 0.  1.
          1    1    1    2  502    0  0.24188232615E+02 -0.16093032684E+01  0.39203448110E+03  0.39278326699E+03  0.00000000000E+00 0. -1.
         -1    1    1    2    0  501 -0.24188232615E+02  0.16093032684E+01  0.51323143192E+03  0.51380362315E+03  0.00000000000E+00 0.  1.
</event>
<event>
 4    1  0.1322546E+002  0.5323886E+02  0.7546771E-02  0.1284709E+00
          2   -1    0    0  502    0  0.00000000000E+00  0.00000000000E+00  0.11246011447E+01  0.11246011447E+01  0.00000000000E+00 0.  1.
         -2   -1    0    0    0  501 -0.00000000000E+00 -0.00000000000E+00 -0.25398177683E+04  0.25398177683E+04  0.00000000000E+00 0. -1.
          1    1    1    2  502    0 -0.51819131174E+01  0.52986069959E+02 -0.13806086633E+04  0.13816347770E+04  0.00000000000E+00 0. -1.
         -1    1    1    2    0  501  0.51819131174E+01 -0.52986069959E+02 -0.11580845038E+04  0.11593075924E+04  0.00000000000E+00 0.  1.
</event>
<event>
 4    1  0.1322546E+002  0.2126583E+02  0.7546771E-02  0.1515503E+00
          2   -1    0    0  502    0  0.00000000000E+00  0.00000000000E+00  0.50106314856E+02  0.50106314856E+02  0.00000000000E+00 0. -1.
         -2   -1    0    0    0  501 -0.00000000000E+00 -0.00000000000E+00 -0.10179800736E+02  0.10179800736E+02  0.00000000000E+00 0.  1.
          1    1    1    2  502    0 -0.20218947330E+02  0.65901281946E+01  0.30113422339E+02  0.36865347221E+02  0.00000000000E+00 0.  1.
         -1    1    1    2    0  501  0.20218947330E+02 -0.65901281946E+01  0.98130917813E+01  0.23420768371E+02  0.00000000000E+00 0. -1.
</event>
<event>
 4    1  0.1322546E+002  0.2696432E+02  0.7546771E-02  0.1447967E+00
          2   -1    0    0  502    0  0.00000000000E+00  0.00000000000E+00  0.73638409742E+03  0.73638409742E+03  0.00000000000E+00 0. -1.
         -2   -1    0    0    0  501 -0.00000000000E+00 -0.00000000000E+00 -0.12160541355E+01  0.12160541355E+01  0.00000000000E+00 0.  1.
          1    1    1    2  502    0  0.23296935852E+02 -0.13576718128E+02  0.20764874627E+03  0.20939215917E+03  0.00000000000E+00 0.  1.
         -1    1    1    2    0  501 -0.23296935852E+02  0.13576718128E+02  0.52751929702E+03  0.52820799239E+03  0.00000000000E+00 0. -1.
</event>
<event>
 4    1  0.1322546E+002  0.6267679E+02  0.7546771E-02  0.1250999E+00
          2   -1    0    0  502    0  0.00000000000E+00  0.00000000000E+00  0.81287863830E+02  0.81287863830E+02  0.00000000000E+00 0.  1.
         -2   -1    0    0    0  501 -0.00000000000E+00 -0.00000000000E+00 -0.76203684056E+02  0.76203684056E+02  0.00000000000E+00 0. -1.
          1    1    1    2  502    0 -0.49179490466E+02 -0.38855602905E+02  0.50170007643E+02  0.80283309763E+02  0.00000000000E+00 0.  1.
         -1    1    1    2    0  501  0.49179490466E+02  0.38855602905E+02 -0.45085827869E+02  0.77208238124E+02  0.00000000000E+00 0. -1.
</event>
<event>
 4    1  0.1322546E+002  0.2794120E+02  0.7546771E-02  0.1438376E+00
          2   -1    0    0  502    0  0.00000000000E+00  0.00000000000E+00  0.70336127079E+03  0.70336127079E+03  0.00000000000E+00 0.  1.
         -2   -1    0    0    0  501 -0.00000000000E+00 -0.00000000000E+00 -0.12366409721E+01  0.12366409721E+01  0.00000000000E+00 0. -1.
          1    1    1    2  502    0  0.53308736695E+01 -0.27427951513E+02  0.23830984278E+03  0.23994226786E+03  0.00000000000E+00 0. -1.
         -1    1    1    2    0  501 -0.53308736695E+01  0.27427951513E+02  0.46381478704E+03  0.46465564391E+03  0.00000000000E+00 0.  1.
</event>
<event>
 4    1  0.1322546E+002  0.3660400E+02  0.7546771E-02  0.1369624E+00
          2   -1    0    0  502    0  0.00000000000E+00  0.00000000000E+00  0.60383542597E+01  0.60383542597E+01  0.00000000000E+00 0.  1.
         -2   -1    0    0    0  501 -0.00000000000E+00 -0.00000000000E+00 -0.22189569691E+03  0.22189569691E+03  0.00000000000E+00 0. -1.
          1    1    1    2  502    0 -0.30388770675E+02 -0.20405274768E+02 -0.10848740893E+03  0.11449615940E+03  0.00000000000E+00 0.  1.
         -1    1    1    2    0  501  0.30388770675E+02  0.20405274768E+02 -0.10736993372E+03  0.11343789177E+03  0.00000000000E+00 0. -1.
</event>
<event>
 4    1  0.1322546E+002  0.4114882E+02  0.7546771E-02  0.1341882E+00
          2   -1    0    0  502    0  0.00000000000E+00  0.00000000000E+00  0.11609037365E+04  0.11609037365E+04  0.00000000000E+00 0.  1.
         -2   -1    0    0    0  501 -0.00000000000E+00 -0.00000000000E+00 -0.18764074451E+01  0.18764074451E+01  0.00000000000E+00 0. -1.
          1    1    1    2  502    0  0.33840047853E+02 -0.23411032550E+02  0.85387504015E+03  0.85486595994E+03  0.00000000000E+00 0.  1.
         -1    1    1    2    0  501 -0.33840047853E+02  0.23411032550E+02  0.30515228890E+03  0.30791418399E+03  0.00000000000E+00 0. -1.
</event>
<event>
 4    1  0.1322546E+002  0.2984907E+02  0.7546771E-02  0.1420913E+00
          2   -1    0    0  502    0  0.00000000000E+00  0.00000000000E+00  0.68856564713E+01  0.68856564713E+01  0.00000000000E+00 0.  1.
         -2   -1    0    0    0  501 -0.00000000000E+00 -0.00000000000E+00 -0.16091440158E+03  0.16091440158E+03  0.00000000000E+00 0. -1.
          1    1    1    2  502    0 -0.29166935523E+02 -0.63448393843E+01 -0.39881714241E+02  0.49814839610E+02  0.00000000000E+00 0. -1.
         -1    1    1    2    0  501  0.29166935523E+02  0.63448393843E+01 -0.11414703087E+03  0.11798521844E+03  0.00000000000E+00 0.  1.
</event>
<event>
 4    1  0.1322546E+002  0.2105667E+02  0.7546771E-02  0.1518457E+00
          2   -1    0    0  502    0  0.00000000000E+00  0.00000000000E+00  0.28792604925E+03  0.28792604925E+03  0.00000000000E+00 0. -1.
         -2   -1    0    0    0  501 -0.00000000000E+00 -0.00000000000E+00 -0.15430754395E+01  0.15430754395E+01  0.00000000000E+00 0.  1.
          1    1    1    2  502    0 -0.16664630878E+02 -0.12871418283E+02  0.13664740028E+03  0.13826024495E+03  0.00000000000E+00 0.  1.
         -1    1    1    2    0  501  0.16664630878E+02  0.12871418283E+02  0.14973557353E+03  0.15120887974E+03  0.00000000000E+00 0. -1.
</event>
<event>
 4    1  0.1322546E+002  0.2035371E+02  0.7546771E-02  0.1528696E+00
          2   -1    0    0  502    0  0.00000000000E+00  0.00000000000E+00  0.34923314001E+02  0.34923314001E+02  0.00000000000E+00 0.  1.
         -2   -1    0    0    0  501 -0.00000000000E+00 -0.00000000000E+00 -0.14020529606E+02  0.14020529606E+02  0.00000000000E+00 0. -1.
          1    1    1    2  502    0 -0.12703504146E+02 -0.15902651146E+02  0.85014884595E+00  0.20371452676E+02  0.00000000000E+00 0. -1.
         -1    1    1    2    0  501  0.12703504146E+02  0.15902651146E+02  0.20052635549E+02  0.28572390931E+02  0.00000000000E+00 0.  1.
</event>
<event>
 4    1  0.1322546E+002  0.2140095E+02  0.7546771E-02  0.1513617E+00
          2   -1    0    0  502    0  0.00000000000E+00  0.00000000000E+00  0.21143220481E+04  0.21143220481E+04  0.00000000000E+00 0.  1.
         -2   -1    0    0    0  501 -0.00000000000E+00 -0.00000000000E+00 -0.23863826632E+00  0.23863826632E+00  0.00000000000E+00 0. -1.
          1    1    1    2  502    0  0.15483621214E+02 -0.14773558579E+02  0.13782078708E+04  0.13783740188E+04  0.00000000000E+00 0.  1.
         -1    1    1    2    0  501 -0.15483621214E+02  0.14773558579E+02  0.73587553906E+03  0.73618666760E+03  0.00000000000E+00 0. -1.
</event>
<event>
 4    1  0.1322546E+002  0.2292440E+02  0.7546771E-02  0.1493450E+00
          2   -1    0    0  502    0  0.00000000000E+00  0.00000000000E+00  0.71173176277E+01  0.71173176277E+01  0.00000000000E+00 0. -1.
         -2   -1    0    0    0  501 -0.00000000000E+00 -0.00000000000E+00 -0.81934631608E+02  0.81934631608E+02  0.00000000000E+00 0.  1.
          1    1    1    2  502    0 -0.14678466615E+02 -0.17608827425E+02 -0.23411718537E+02  0.32766396663E+02  0.00000000000E+00 0.  1.
         -1    1    1    2    0  501  0.14678466615E+02  0.17608827425E+02 -0.51405595443E+02  0.56285552572E+02  0.00000000000E+00 0. -1.
</event>
<event>
 4    1  0.1322546E+002  0.5456483E+02  0.7546771E-02  0.1279508E+00
          2   -1    0    0  502    0  0.00000000000E+00  0.00000000000E+00  0.32855589946E+03  0.32855589946E+03  0.00000000000E+00 0. -1.
         -2   -1    0    0    0  501 -0.00000000000E+00 -0.00000000000E+00 -0.16967478713E+02  0.16967478713E+02  0.00000000000E+00 0.  1.
          1    1    1    2  502    0 -0.53718816942E+02  0.95712847455E+01  0.37868830511E+02  0.66418138408E+02  0.00000000000E+00 0.  1.
         -1    1    1    2    0  501  0.53718816942E+02 -0.95712847455E+01  0.27371959024E+03  0.27910523977E+03  0.00000000000E+00 0. -1.
</event>
<event>
 4    1  0.1322546E+002  0.2001952E+02  0.7546771E-02  0.1533737E+00
          2   -1    0    0  502    0  0.00000000000E+00  0.00000000000E+00  0.33412398868E+03  0.33412398868E+03  0.00000000000E+00 0. -1.
         -2   -1    0    0    0  501 -0.00000000000E+00 -0.00000000000E+00 -0.12456154173E+01  0.12456154173E+01  0.00000000000E+00 0.  1.
          1    1    1    2  502    0 -0.87353772811E+01  0.18013170007E+02  0.19870431861E+03  0.19971025849E+03  0.00000000000E+00 0. -1.
         -1    1    1    2    0  501  0.87353772811E+01 -0.18013170007E+02  0.13417405465E+03  0.13565934561E+03  0.00000000000E+00 0.  1.
</event>
<event>
 4    1  0.1322546E+002  0.2301611E+02  0.7546771E-02  0.1492296E+00
          2   -1    0    0  502    0  0.00000000000E+00  0.00000000000E+00  0.61643823392E+01  0.61643823392E+01  0.00000000000E+00 0. -1.
         -2   -1    0    0    0  501 -0.00000000000E+00 -0.00000000000E+00 -0.18272250812E+03  0.18272250812E+03  0.00000000000E+00 0.  1.
          1    1    1    2  502    0  0.15690122646E+01 -0.22962567915E+02 -0.19543168934E+02  0.30193985771E+02  0.00000000000E+00 0. -1.
         -1    1    1    2    0  501 -0.15690122646E+01  0.22962567915E+02 -0.15701495685E+03  0.15869290469E+03  0.00000000000E+00 0.  1.
</event>
<event>
 4    1  0.1322546E+002  0.2165855E+02  0.7546771E-02  0.1510067E+00
          2   -1    0    0  502    0  0.00000000000E+00  0.00000000000E+00  0.17067531137E+04  0.17067531137E+04  0.00000000000E+00 0.  1.
         -2   -1    0    0    0  501 -0.00000000000E+00 -0.00000000000E+00 -0.54339643001E+00  0.54339643001E+00  0.00000000000E+00 0. -1.
          1    1    1    2  502    0 -0.20679980793E+02  0.64367195395E+01  0.25299037361E+03  0.25391577758E+03  0.00000000000E+00 0. -1.
         -1    1    1    2    0  501  0.20679980793E+02 -0.64367195395E+01  0.14532193436E+04  0.14533807325E+04  0.00000000000E+00 0.  1.
</event>
<event>
 4    1  0.1322546E+002  0.2197950E+02  0.7546771E-02  0.1505726E+00
          2   -1    0    0  502    0  0.00000000000E+00  0.00000000000E+00  0.58953824136E+03  0.58953824136E+03  0.00000000000E+00 0. -1.
         -2   -1    0    0    0  501 -0.00000000000E+00 -0.00000000000E+00 -0.10283789978E+01  0.10283789978E+01  0.00000000000E+00 0.  1.
          1    1    1    2  502    0 -0.12055099660E+02 -0.18378605177E+02  0.42734912681E+03  0.42791398054E+03  0.00000000000E+00 0.  1.
         -1    1    1    2    0  501  0.12055099660E+02  0.18378605177E+02  0.16116073555E+03  0.16265263981E+03  0.00000000000E+00 0. -1.
</event>
<event>
 4    1  0.1322546E+002  0.2067255E+02  0.7546771E-02  0.1523992E+00
          2   -1    0    0  502    0  0.00000000000E+00  0.00000000000E+00  0.16321548735E+02  0.16321548735E+02  0.00000000000E+00 0.  1.
         -2   -1    0    0    0  501 -0.00000000000E+00 -0.00000000000E+00 -0.38795985441E+02  0.38795985441E+02  0.00000000000E+00 0. -1.
          1    1    1    2  502    0  0.48047473120E+00  0.20666969227E+02 -0.26950524483E+02  0.33965942397E+02  0.00000000000E+00 0. -1.
         -1    1    1    2    0  501 -0.48047473120E+00 -0.20666969227E+02  0.44760877773E+01  0.21151591779E+02  0.00000000000E+00 0.  1.
</event>
<event>
 4    1  0.1322546E+002  0.2230366E+02  0.7546771E-02  0.1501432E+00
          2   -1    0    0  502    0  0.00000000000E+00  0.00000000000E+00  0.18431093847E+03  0.18431093847E+03  0.00000000000E+00 0. -1.
         -2   -1    0    0    0  501 -0.00000000000E+00 -0.00000000000E+00 -0.27161617624E+01  0.27161617624E+01  0.00000000000E+00 0.  1.
          1    1    1    2  502    0 -0.27172743651E+01  0.22137521136E+02  0.83362040881E+02  0.86294167137E+02  0.00000000000E+00 0.  1.
         -1    1    1    2    0  501  0.27172743651E+01 -0.22137521136E+02  0.98232735826E+02  0.10073293309E+03  0.00000000000E+00 0. -1.
</event>
<event>
 4    1  0.1322546E+002  0.2744186E+02  0.7546771E-02  0.1443219E+00
          2   -1    0    0  502    0  0.00000000000E+00  0.00000000000E+00  0.10777230082E+02  0.10777230082E+02  0.00000000000E+00 0.  1.
         -2   -1    0    0    0  501 -0.00000000000E+00 -0.00000000000E+00 -0.69908234501E+02  0.69908234501E+02  0.00000000000E+00 0. -1.
          1    1    1    2  502    0 -0.86429190708E+01  0.26045257210E+02 -0.28681619575E+02  0.39694971654E+02  0.00000000000E+00 0. -1.
         -1    1    1    2    0  501  0.86429190708E+01 -0.26045257210E+02 -0.30449384844E+02  0.40990492929E+02  0.00000000000E+00 0.  1.
</event>
<event>
 4    1  0.1322546E+002  0.3312023E+02  0.7546771E-02  0.1394283E+00
          2   -1    0    0  502    0  0.00000000000E+00  0.00000000000E+00  0.69484736425E+01  0.69484736425E+01  0.00000000000E+00 0. -1.
         -2   -1    0    0    0  501 -0.00000000000E+00 -0.00000000000E+00 -0.17052906940E+03  0.17052906940E+03  0.00000000000E+00 0.  1.
          1    1    1    2  502    0 -0.11419099165E+02 -0.31089448927E+02 -0.10596881105E+03  0.11102404504E+03  0.00000000000E+00 0.  1.
         -1    1    1    2    0  501  0.11419099165E+02  0.31089448927E+02 -0.57611784705E+02  0.66453498006E+02  0.00000000000E+00 0. -1.
</event>
<event>
 4    1  0.1322546E+002  0.3236235E+02  0.7546771E-02  0.1400120E+00
          2   -1    0    0  502    0  0.00000000000E+00  0.00000000000E+00  0.31884168590E+02  0.31884168590E+02  0.00000000000E+00 0. -1.
         -2   -1    0    0    0  501 -0.00000000000E+00 -0.00000000000E+00 -0.49766285126E+02  0.49766285126E+02  0.00000000000E+00 0.  1.
          1    1    1    2  502    0  0.22273373471E+02  0.23478039377E+02  0.14862564442E+02  0.35612038983E+02  0.00000000000E+00 0. -1.
         -1    1    1    2    0  501 -0.22273373471E+02 -0.23478039377E+02 -0.32744680979E+02  0.46038414733E+02  0.00000000000E+00 0.  1.
</event>
<event>
 4    1  0.1322546E+002  0.3861550E+02  0.7546771E-02  0.1356796E+00
          2   -1    0    0  502    0  0.00000000000E+00  0.00000000000E+00  0.15861089504E+04  0.15861089504E+04  0.00000000000E+00 0. -1.
         -2   -1    0    0    0  501 -0.00000000000E+00 -0.00000000000E+00 -0.94452753062E+00  0.94452753062E+00  0.00000000000E+00 0.  1.
          1    1    1    2  502    0  0.22620523982E+02  0.31296461678E+02  0.84669614950E+03  0.84757626571E+03  0.00000000000E+00 0. -1.
         -1    1    1    2    0  501 -0.22620523982E+02 -0.31296461678E+02  0.73846827340E+03  0.73947721225E+03  0.00000000000E+00 0.  1.
</event>
<event>
 4    1  0.1322546E+002  0.3684447E+02  0.7546771E-02  0.1368040E+00
          2   -1    0    0  502    0  0.00000000000E+00  0.00000000000E+00  0.15692608726E+03  0.15692608726E+03  0.00000000000E+00 0.  1.
         -2   -1    0    0    0  501 -0.00000000000E+00 -0.00000000000E+00 -0.14445546266E+02  0.14445546266E+02  0.00000000000E+00 0. -1.
          1    1    1    2  502    0  0.14461074788E+02  0.33887933598E+02  0.12551082945E+03  0.13080704506E+03  0.00000000000E+00 0.  1.
         -1    1    1    2    0  501 -0.14461074788E+02 -0.33887933598E+02  0.16969711541E+02  0.40564588465E+02  0.00000000000E+00 0. -1.
</event>
<event>
 4    1  0.1322546E+002  0.3728329E+02  0.7546771E-02  0.1365186E+00
          2   -1    0    0  502    0  0.00000000000E+00  0.00000000000E+00  0.68641736967E+03  0.68641736967E+03  0.00000000000E+00 0.  1.
         -2   -1    0    0    0  501 -0.00000000000E+00 -0.00000000000E+00 -0.20251895250E+01  0.20251895250E+01  0.00000000000E+00 0. -1.
          1    1    1    2  502    0 -0.25611390421E+02 -0.27094286577E+02  0.33955909684E+03  0.34159980083E+03  0.00000000000E+00 0. -1.
         -1    1    1    2    0  501  0.25611390421E+02  0.27094286577E+02  0.34483308331E+03  0.34684275836E+03  0.00000000000E+00 0.  1.
</event>
<event>
 4    1  0.1322546E+002  0.4854175E+02  0.7546771E-02  0.1304622E+00
          2   -1    0    0  502    0  0.00000000000E+00  0.00000000000E+00  0.72843762986E+02  0.72843762986E+02  0.00000000000E+00 0. -1.
         -2   -1    0    0    0  501 -0.00000000000E+00 -0.00000000000E+00 -0.38252291070E+02  0.38252291070E+02  0.00000000000E+00 0.  1.
          1    1    1    2  502    0  0.33305948712E+02  0.35313107989E+02 -0.45289569254E+01  0.48752571894E+02  0.00000000000E+00 0.  1.
         -1    1    1    2    0  501 -0.33305948712E+02 -0.35313107989E+02  0.39120428841E+02  0.62343482163E+02  0.00000000000E+00 0. -1.
</event>
<event>
 4    1  0.1322546E+002  0.2221360E+02  0.7546771E-02  0.1502616E+00
          2   -1    0    0  502    0  0.00000000000E+00  0.00000000000E+00  0.16565660187E+02  0.16565660187E+02  0.00000000000E+00 0.  1.
         -2   -1    0    0    0  501 -0.00000000000E+00 -0.00000000000E+00 -0.30657590419E+02  0.30657590419E+02  0.00000000000E+00 0. -1.
          1    1    1    2  502    0  0.52349197381E+01  0.21587947458E+02 -0.30674082816E+01  0.22424380787E+02  0.00000000000E+00 0.  1.
         -1    1    1    2    0  501 -0.52349197381E+01 -0.21587947458E+02 -0.11024521950E+02  0.24798869820E+02  0.00000000000E+00 0. -1.
</event>
<event>
 4    1  0.1322546E+002  0.4164666E+02  0.7546771E-02  0.1339098E+00
          2   -1    0    0  502    0  0.00000000000E+00  0.00000000000E+00  0.20040413574E+02  0.20040413574E+02  0.00000000000E+00 0.  1.
         -2   -1    0    0    0  501 -0.00000000000E+00 -0.00000000000E+00 -0.98097114214E+02  0.98097114214E+02  0.00000000000E+00 0. -1.
          1    1    1    2  502    0 -0.32720886286E+02 -0.25764078261E+02 -0.18760072383E+02  0.45676957471E+02  0.00000000000E+00 0.  1.
         -1    1    1    2    0  501  0.32720886286E+02  0.25764078261E+02 -0.59296628256E+02  0.72460570316E+02  0.00000000000E+00 0. -1.
</event>
<event>
 4    1  0.1322546E+002  0.2117641E+02  0.7546771E-02  0.1516761E+00
          2   -1    0    0  502    0  0.00000000000E+00  0.00000000000E+00  0.31523978168E+02  0.31523978168E+02  0.00000000000E+00 0.  1.
         -2   -1    0    0    0  501 -0.00000000000E+00 -0.00000000000E+00 -0.14789741229E+02  0.14789741229E+02  0.00000000000E+00 0. -1.
          1    1    1    2  502    0 -0.88402978817E+01 -0.19242905735E+02  0.12890689238E+02  0.24791332292E+02  0.00000000000E+00 0.  1.
         -1    1    1    2    0  501  0.88402978817E+01  0.19242905735E+02  0.38435477005E+01  0.21522387105E+02  0.00000000000E+00 0. -1.
</event>
<event>
 4    1  0.1322546E+002  0.7677269E+02  0.7546771E-02  0.1211545E+00
          2   -1    0    0  502    0  0.00000000000E+00  0.00000000000E+00  0.16578827332E+03  0.16578827332E+03  0.00000000000E+00 0.  1.
         -2   -1    0    0    0  501 -0.00000000000E+00 -0.00000000000E+00 -0.35579915258E+02  0.35579915258E+02  0.00000000000E+00 0. -1.
          1    1    1    2  502    0  0.27076263598E+02 -0.71839560747E+02  0.62266319900E+02  0.98849082609E+02  0.00000000000E+00 0. -1.
         -1    1    1    2    0  501 -0.27076263598E+02  0.71839560747E+02  0.67942038161E+02  0.10251910597E+03  0.00000000000E+00 0.  1.
</event>
<event>
 4    1  0.1322546E+002  0.2027235E+02  0.7546771E-02  0.1529912E+00
          2   -1    0    0  502    0  0.00000000000E+00  0.00000000000E+00  0.55649004457E+03  0.55649004457E+03  0.00000000000E+00 0.  1.
         -2   -1    0    0    0  501 -0.00000000000E+00 -0.00000000000E+00 -0.32288579952E+01  0.32288579952E+01  0.00000000000E+00 0. -1.
          1    1    1    2  502    0 -0.17874865094E+02 -0.95633407709E+01  0.52241047772E+03  0.52280366823E+03  0.00000000000E+00 0.  1.
         -1    1    1    2    0  501  0.17874865094E+02  0.95633407709E+01  0.30850708861E+02  0.36915234335E+02  0.00000000000E+00 0. -1.
</event>
<event>
 4    1  0.1322546E+002  0.6340925E+02  0.7546771E-02  0.1248669E+00
          2   -1    0    0  502    0  0.00000000000E+00  0.00000000000E+00  0.13296319017E+03  0.13296319017E+03  0.00000000000E+00 0.  1.
         -2   -1    0    0    0  501 -0.00000000000E+00 -0.00000000000E+00 -0.31766845462E+02  0.31766845462E+02  0.00000000000E+00 0. -1.
          1    1    1    2  502    0 -0.20465383715E+02 -0.60015844856E+02  0.32537592559E+02  0.71270109400E+02  0.00000000000E+00 0. -1.
         -1    1    1    2    0  501  0.20465383715E+02  0.60015844856E+02  0.68658752147E+02  0.93459926229E+02  0.00000000000E+00 0.  1.
</event>
<event>
 4    1  0.1322546E+002  0.3146241E+02  0.7546771E-02  0.1407300E+00
          2   -1    0    0  502    0  0.00000000000E+00  0.00000000000E+00  0.30738590172E+04  0.30738590172E+04  0.00000000000E+00 0.  1.
         -2   -1    0    0    0  501 -0.00000000000E+00 -0.00000000000E+00 -0.42687639011E+00  0.42687639011E+00  0.00000000000E+00 0. -1.
          1    1    1    2  502    0  0.12955198886E+02  0.28671349190E+02  0.77492808329E+03  0.77556651405E+03  0.00000000000E+00 0. -1.
         -1    1    1    2    0  501 -0.12955198886E+02 -0.28671349190E+02  0.22985040576E+04  0.22987193796E+04  0.00000000000E+00 0.  1.
</event>
<event>
 4    1  0.1322546E+002  0.2631170E+02  0.7546771E-02  0.1454647E+00
          2   -1    0    0  502    0  0.00000000000E+00  0.00000000000E+00  0.84973644067E+01  0.84973644067E+01  0.00000000000E+00 0. -1.
         -2   -1    0    0    0  501 -0.00000000000E+00 -0.00000000000E+00 -0.10365995503E+03  0.10365995503E+03  0.00000000000E+00 0.  1.
          1    1    1    2  502    0 -0.17728332387E+02  0.19442532003E+02 -0.73525532837E+02  0.78091675605E+02  0.00000000000E+00 0.  1.
         -1    1    1    2    0  501  0.17728332387E+02 -0.19442532003E+02 -0.21637057783E+02  0.34065643828E+02  0.00000000000E+00 0. -1.
</event>
<event>
 4    1  0.1322546E+002  0.2882109E+02  0.7546771E-02  0.1430125E+00
          2   -1    0    0  502    0  0.00000000000E+00  0.00000000000E+00  0.17988214826E+03  0.17988214826E+03  0.00000000000E+00 0. -1.
         -2   -1    0    0    0  501 -0.00000000000E+00 -0.00000000000E+00 -0.10385981396E+02  0.10385981396E+02  0.00000000000E+00 0.  1.
          1    1    1    2  502    0 -0.25827849376E+01 -0.28705132622E+02  0.13850300900E+02  0.31976338938E+02  0.00000000000E+00 0.  1.
         -1    1    1    2    0  501  0.25827849376E+01  0.28705132622E+02  0.15564586596E+03  0.15829179071E+03  0.00000000000E+00 0. -1.
</event>
<event>
 4    1  0.1322546E+002  0.3621953E+02  0.7546771E-02  0.1372186E+00
          2   -1    0    0  502    0  0.00000000000E+00  0.00000000000E+00  0.31350682623E+03  0.31350682623E+03  0.00000000000E+00 0.  1.
         -2   -1    0    0    0  501 -0.00000000000E+00 -0.00000000000E+00 -0.41929503718E+01  0.41929503718E+01  0.00000000000E+00 0. -1.
          1    1    1    2  502    0 -0.30347067927E+02  0.19771442596E+02  0.16180812201E+03  0.16581231204E+03  0.00000000000E+00 0. -1.
         -1    1    1    2    0  501  0.30347067927E+02 -0.19771442596E+02  0.14750575385E+03  0.15188746457E+03  0.00000000000E+00 0.  1.
</event>
<event>
 4    1  0.1322546E+002  0.4602572E+02  0.7546771E-02  0.1316389E+00
          2   -1    0    0  502    0  0.00000000000E+00  0.00000000000E+00  0.98665717993E+03  0.98665717993E+03  0.00000000000E+00 0. -1.
         -2   -1    0    0    0  501 -0.00000000000E+00 -0.00000000000E+00 -0.23725395280E+01  0.23725395280E+01  0.00000000000E+00 0.  1.
          1    1    1    2  502    0 -0.13671285846E+02 -0.43948413016E+02  0.64460733285E+03  0.64624838926E+03  0.00000000000E+00 0. -1.
         -1    1    1    2    0  501  0.13671285846E+02  0.43948413016E+02  0.33967730756E+03  0.34278133020E+03  0.00000000000E+00 0.  1.
</event>
<event>
 4    1  0.1322546E+002  0.2860483E+02  0.7546771E-02  0.1432121E+00
          2   -1    0    0  502    0  0.00000000000E+00  0.00000000000E+00  0.16973410927E+03  0.16973410927E+03  0.00000000000E+00 0. -1.
         -2   -1    0    0    0  501 -0.00000000000E+00 -0.00000000000E+00 -0.16630266165E+02  0.16630266165E+02  0.00000000000E+00 0.  1.
          1    1    1    2  502    0  0.25217512194E+02  0.13502342591E+02 -0.19717119558E+01  0.28672701735E+02  0.00000000000E+00 0.  1.
         -1    1    1    2    0  501 -0.25217512194E+02 -0.13502342591E+02  0.15507555506E+03  0.15769167370E+03  0.00000000000E+00 0. -1.
</event>
<event>
 4    1  0.1322546E+002  0.2691438E+02  0.7546771E-02  0.1448470E+00
          2   -1    0    0  502    0  0.00000000000E+00  0.00000000000E+00  0.27493494304E+03  0.27493494304E+03  0.00000000000E+00 0. -1.
         -2   -1    0    0    0  501 -0.00000000000E+00 -0.00000000000E+00 -0.26474408546E+01  0.26474408546E+01  0.00000000000E+00 0.  1.
          1    1    1    2  502    0  0.14283364607E+02  0.22811604869E+02  0.14575450987E+03  0.14821862558E+03  0.00000000000E+00 0. -1.
         -1    1    1    2    0  501 -0.14283364607E+02 -0.22811604869E+02  0.12653299231E+03  0.12936375831E+03  0.00000000000E+00 0.  1.
</event>
<event>
 4    1  0.1322546E+002  0.2361786E+02  0.7546771E-02  0.1484882E+00
          2   -1    0    0  502    0  0.00000000000E+00  0.00000000000E+00  0.51089345598E+03  0.51089345598E+03  0.00000000000E+00 0.  1.
         -2   -1    0    0    0  501 -0.00000000000E+00 -0.00000000000E+00 -0.10970729740E+01  0.10970729740E+01  0.00000000000E+00 0. -1.
          1    1    1    2  502    0 -0.23507584182E+02 -0.22796036896E+01  0.23718225111E+03  0.23835524611E+03  0.00000000000E+00 0. -1.
         -1    1    1    2    0  501  0.23507584182E+02  0.22796036896E+01  0.27261413190E+03  0.27363528285E+03  0.00000000000E+00 0.  1.
</event>
<event>
 4    1  0.1322546E+002  0.2857461E+02  0.7546771E-02  0.1432401E+00
          2   -1    0    0  502    0  0.00000000000E+00  0.00000000000E+00  0.12412308483E+03  0.12412308483E+03  0.00000000000E+00 0.  1.
         -2   -1    0    0    0  501 -0.00000000000E+00 -0.00000000000E+00 -0.65786507107E+01  0.65786507107E+01  0.00000000000E+00 0. -1.
          1    1    1    2  502    0 -0.12107161291E+02 -0.25882905927E+02  0.58239566443E+02  0.64871837289E+02  0.00000000000E+00 0. -1.
         -1    1    1    2    0  501  0.12107161291E+02  0.25882905927E+02  0.59304867674E+02  0.65829898250E+02  0.00000000000E+00 0.  1.
</event>
<event>
 4    1  0.1322546E+002  0.2868800E+02  0.7546771E-02  0.1431351E+00
          2   -1    0    0  502    0  0.00000000000E+00  0.00000000000E+00  0.47971800797E+03  0.47971800797E+03  0.00000000000E+00 0. -1.
         -2   -1    0    0    0  501 -0.00000000000E+00 -0.00000000000E+00 -0.62432193709E+01  0.62432193709E+01  0.00000000000E+00 0.  1.
          1    1    1    2  502    0  0.52325057319E+01 -0.28206779747E+02  0.44365743208E+03  0.44458398372E+03  0.00000000000E+00 0. -1.
         -1    1    1    2    0  501 -0.52325057319E+01  0.28206779747E+02  0.29817356518E+02  0.41377243621E+02  0.00000000000E+00 0.  1.
</event>
<event>
 4    1  0.1322546E+002  0.2259482E+02  0.7546771E-02  0.1497650E+00
          2   -1    0    0  502    0  0.00000000000E+00  0.00000000000E+00  0.19621622876E+04  0.19621622876E+04  0.00000000000E+00 0.  1.
         -2   -1    0    0    0  501 -0.00000000000E+00 -0.00000000000E+00 -0.27479783854E+00  0.27479783854E+00  0.00000000000E+00 0. -1.
          1    1    1    2  502    0 -0.16219126002E+02 -0.15731049449E+02  0.12072103966E+04  0.12074218267E+04  0.00000000000E+00 0.  1.
         -1    1    1    2    0  501  0.16219126002E+02  0.15731049449E+02  0.75467709312E+03  0.75501525868E+03  0.00000000000E+00 0. -1.
</event>
<event>
 4    1  0.1322546E+002  0.2201737E+02  0.7546771E-02  0.1505220E+00
          2   -1    0    0  502    0  0.00000000000E+00  0.00000000000E+00  0.56007395898E+03  0.56007395898E+03  0.00000000000E+00 0. -1.
         -2   -1    0    0    0  501 -0.00000000000E+00 -0.00000000000E+00 -0.10039747812E+02  0.10039747812E+02  0.00000000000E+00 0.  1.
          1    1    1    2  502    0 -0.72106507333E+00  0.22005561926E+02  0.54750953725E+03  0.54795205818E+03  0.00000000000E+00 0. -1.
         -1    1    1    2    0  501  0.72106507333E+00 -0.22005561926E+02  0.25246739182E+01  0.22161648605E+02  0.00000000000E+00 0.  1.
</event>
<event>
 4    1  0.1322546E+002  0.4048495E+02  0.7546771E-02  0.1345667E+00
          2   -1    0    0  502    0  0.00000000000E+00  0.00000000000E+00  0.12820058716E+02  0.12820058716E+02  0.00000000000E+00 0.  1.
         -2   -1    0    0    0  501 -0.00000000000E+00 -0.00000000000E+00 -0.15258554500E+03  0.15258554500E+03  0.00000000000E+00 0. -1.
          1    1    1    2  502    0 -0.79080672204E+01 -0.39705079495E+02 -0.10318192857E+03  0.11084016081E+03  0.00000000000E+00 0. -1.
         -1    1    1    2    0  501  0.79080672204E+01  0.39705079495E+02 -0.36583557722E+02  0.54565442914E+02  0.00000000000E+00 0.  1.
</event>
<event>
 4    1  0.1322546E+002  0.3552482E+02  0.7546771E-02  0.1376911E+00
          2   -1    0    0  502    0  0.00000000000E+00  0.00000000000E+00  0.51653644434E+02  0.51653644434E+02  0.00000000000E+00 0. -1.
         -2   -1    0    0    0  501 -0.00000000000E+00 -0.00000000000E+00 -0.49689434533E+02  0.49689434533E+02  0.00000000000E+00 0.  1.
          1    1    1    2  502    0 -0.13781774216E+02 -0.32742565651E+02 -0.35144308513E+02  0.49971345057E+02  0.00000000000E+00 0.  1.
         -1    1    1    2    0  501  0.13781774216E+02  0.32742565651E+02  0.37108518414E+02  0.51371733909E+02  0.00000000000E+00 0. -1.
</event>
<event>
 4    1  0.1322546E+002  0.2052048E+02  0.7546771E-02  0.1526223E+00
          2   -1    0    0  502    0  0.00000000000E+00  0.00000000000E+00  0.40846426675E+01  0.40846426675E+01  0.00000000000E+00 0.  1.
         -2   -1    0    0    0  501 -0.00000000000E+00 -0.00000000000E+00 -0.10328942898E+03  0.10328942898E+03  0.00000000000E+00 0. -1.
          1    1    1    2  502    0  0.44772474342E+01 -0.20026089207E+02 -0.47249413109E+02  0.51513076327E+02  0.00000000000E+00 0. -1.
         -1    1    1    2    0  501 -0.44772474342E+01  0.20026089207E+02 -0.51955373202E+02  0.55860995319E+02  0.00000000000E+00 0.  1.
</event>
<event>
 4    1  0.1322546E+002  0.4422907E+02  0.7546771E-02  0.1325340E+00
          2   -1    0    0  502    0  0.00000000000E+00  0.00000000000E+00  0.11899026186E+04  0.11899026186E+04  0.00000000000E+00 0.  1.
         -2   -1    0    0    0  501 -0.00000000000E+00 -0.00000000000E+00 -0.16480250854E+01  0.16480250854E+01  0.00000000000E+00 0. -1.
          1    1    1    2  502    0  0.26998323148E+02 -0.35032855917E+02  0.62353828948E+03  0.62510495831E+03  0.00000000000E+00 0.  1.
         -1    1    1    2    0  501 -0.26998323148E+02  0.35032855917E+02  0.56471630400E+03  0.56644568535E+03  0.00000000000E+00 0. -1.
</event>
<event>
 4    1  0.1322546E+002  0.2044964E+02  0.7546771E-02  0.1527270E+00
          2   -1    0    0  502    0  0.00000000000E+00  0.00000000000E+00  0.11887338153E+03  0.11887338153E+03  0.00000000000E+00 0. -1.
         -2   -1    0    0    0  501 -0.00000000000E+00 -0.00000000000E+00 -0.49199457678E+01  0.49199457678E+01  0.00000000000E+00 0.  1.
          1    1    1    2  502    0 -0.19933675989E+02  0.45646670677E+01  0.23934869969E+02  0.31481194773E+02  0.00000000000E+00 0.  1.
         -1    1    1    2    0  501  0.19933675989E+02 -0.45646670677E+01  0.90018565793E+02  0.92312132525E+02  0.00000000000E+00 0. -1.
</event>
<event>
 4    1  0.1322546E+002  0.3200086E+02  0.7546771E-02  0.1402970E+00
          2   -1    0    0  502    0  0.00000000000E+00  0.00000000000E+00  0.11504361288E+03  0.11504361288E+03  0.00000000000E+00 0. -1.
         -2   -1    0    0    0  501 -0.00000000000E+00 -0.00000000000E+00 -0.90983633514E+01  0.90983633514E+01  0.00000000000E+00 0.  1.
          1    1    1    2  502    0  0.26791885980E+02  0.17499988009E+02  0.43841025634E+02  0.54277898479E+02  0.00000000000E+00 0.  1.
         -1    1    1    2    0  501 -0.26791885980E+02 -0.17499988009E+02  0.62104223899E+02  0.69864077757E+02  0.00000000000E+00 0. -1.
</event>
<event>
 4    1  0.1322546E+002  0.3388483E+02  0.7546771E-02  0.1388577E+00
          2   -1    0    0  502    0  0.00000000000E+00  0.00000000000E+00  0.62900822167E+02  0.62900822167E+02  0.00000000000E+00 0.  1.
         -2   -1    0    0    0  501 -0.00000000000E+00 -0.00000000000E+00 -0.18654455488E+02  0.18654455488E+02  0.00000000000E+00 0. -1.
          1    1    1    2  502    0  0.13023906018E+02  0.31281935551E+02  0.16147411622E+02  0.37535590069E+02  0.00000000000E+00 0. -1.
         -1    1    1    2    0  501 -0.13023906018E+02 -0.31281935551E+02  0.28098955058E+02  0.44019687585E+02  0.00000000000E+00 0.  1.
</event>
<event>
 4    1  0.1322546E+002  0.2952493E+02  0.7546771E-02  0.1423770E+00
          2   -1    0    0  502    0  0.00000000000E+00  0.00000000000E+00  0.26115217565E+01  0.26115217565E+01  0.00000000000E+00 0. -1.
         -2   -1    0    0    0  501 -0.00000000000E+00 -0.00000000000E+00 -0.54771158132E+03  0.54771158132E+03  0.00000000000E+00 0.  1.
          1    1    1    2  502    0 -0.18935046503E+02  0.22653594742E+02 -0.44451133510E+03  0.44549079493E+03  0.00000000000E+00 0. -1.
         -1    1    1    2    0  501  0.18935046503E+02 -0.22653594742E+02 -0.10058872446E+03  0.10483230814E+03  0.00000000000E+00 0.  1.
</event>
<event>
 4    1  0.1322546E+002  0.2954437E+02  0.7546771E-02  0.1423598E+00
          2   -1    0    0  502    0  0.00000000000E+00  0.00000000000E+00  0.57065738214E+01  0.57065738214E+01  0.00000000000E+00 0. -1.
         -2   -1    0    0    0  501 -0.00000000000E+00 -0.00000000000E+00 -0.15662102868E+03  0.15662102868E+03  0.00000000000E+00 0.  1.
          1    1    1    2  502    0  0.41632172004E+01 -0.29249576301E+02 -0.87868497602E+02  0.92702443128E+02  0.00000000000E+00 0.  1.
         -1    1    1    2    0  501 -0.41632172004E+01  0.29249576301E+02 -0.63045957254E+02  0.69625159370E+02  0.00000000000E+00 0. -1.
</event>
<event>
 4    1  0.1322546E+002  0.2495903E+02  0.7546771E-02  0.1469262E+00
          2   -1    0    0  502    0  0.00000000000E+00  0.00000000000E+00  0.27439404225E+03  0.27439404225E+03  0.00000000000E+00 0.  1.
         -2   -1    0    0    0  501 -0.00000000000E+00 -0.00000000000E+00 -0.36197344160E+01  0.36197344160E+01  0.00000000000E+00 0. -1.
          1    1    1    2  502    0  0.94821481700E+01  0.23087705331E+02  0.22026139916E+03  0.22167101126E+03  0.00000000000E+00 0.  1.
         -1    1    1    2    0  501 -0.94821481700E+01 -0.23087705331E+02  0.50512908677E+02  0.56342765413E+02  0.00000000000E+00 0. -1.
</event>
<event>
 4    1  0.1322546E+002  0.2942293E+02  0.7546771E-02  0.1424678E+00
          2   -1    0    0  502    0  0.00000000000E+00  0.00000000000E+00  0.26959629322E+03  0.26959629322E+03  0.00000000000E+00 0.  1.
         -2   -1    0    0    0  501 -0.00000000000E+00 -0.00000000000E+00 -0.32802937598E+01  0.32802937598E+01  0.00000000000E+00 0. -1.
          1    1    1    2  502    0  0.66546980153E+00 -0.29415401228E+02  0.11334638058E+03  0.11710299172E+03  0.00000000000E+00 0. -1.
         -1    1    1    2    0  501 -0.66546980153E+00  0.29415401228E+02  0.15296961889E+03  0.15577359527E+03  0.00000000000E+00 0.  1.
</event>
<event>
 4    1  0.1322546E+002  0.2076476E+02  0.7546771E-02  0.1522650E+00
          2   -1    0    0  502    0  0.00000000000E+00  0.00000000000E+00  0.20580452374E+02  0.20580452374E+02  0.00000000000E+00 0.  1.
         -2   -1    0    0    0  501 -0.00000000000E+00 -0.00000000000E+00 -0.54035242558E+02  0.54035242558E+02  0.00000000000E+00 0. -1.
          1    1    1    2  502    0 -0.36355655632E+00 -0.20761575724E+02 -0.45920084458E+02  0.50396719700E+02  0.00000000000E+00 0. -1.
         -1    1    1    2    0  501  0.36355655632E+00  0.20761575724E+02  0.12465294274E+02  0.24218975232E+02  0.00000000000E+00 0.  1.
</event>
<event>
 4    1  0.1322546E+002  0.3828044E+02  0.7546771E-02  0.1358868E+00
          2   -1    0    0  502    0  0.00000000000E+00  0.00000000000E+00  0.44174142608E+03  0.44174142608E+03  0.00000000000E+00 0. -1.
         -2   -1    0    0    0  501 -0.00000000000E+00 -0.00000000000E+00 -0.33811732398E+01  0.33811732398E+01  0.00000000000E+00 0.  1.
          1    1    1    2  502    0  0.35284355861E+02  0.14846083043E+02  0.18859210285E+03  0.19243797237E+03  0.00000000000E+00 0. -1.
         -1    1    1    2    0  501 -0.35284355861E+02 -0.14846083043E+02  0.24976814999E+03  0.25268462695E+03  0.00000000000E+00 0.  1.
</event>
<event>
 4    1  0.1322546E+002  0.2038520E+02  0.7546771E-02  0.1528226E+00
          2   -1    0    0  502    0  0.00000000000E+00  0.00000000000E+00  0.95927972229E+03  0.95927972229E+03  0.00000000000E+00 0. -1.
         -2   -1    0    0    0  501 -0.00000000000E+00 -0.00000000000E+00 -0.71995926646E+00  0.71995926646E+00  0.00000000000E+00 0.  1.
          1    1    1    2  502    0 -0.20016649751E+02 -0.38587565971E+01  0.17634534661E+03  0.17751968212E+03  0.00000000000E+00 0.  1.
         -1    1    1    2    0  501  0.20016649751E+02  0.38587565971E+01  0.78221441641E+03  0.78247999943E+03  0.00000000000E+00 0. -1.
</event>
<event>
 4    1  0.1322546E+002  0.2658176E+02  0.7546771E-02  0.1451855E+00
          2   -1    0    0  502    0  0.00000000000E+00  0.00000000000E+00  0.32104769582E+01  0.32104769582E+01  0.00000000000E+00 0. -1.
         -2   -1    0    0    0  501 -0.00000000000E+00 -0.00000000000E+00 -0.28800503189E+03  0.28800503189E+03  0.00000000000E+00 0.  1.
          1    1    1    2  502    0 -0.11181680009E+02  0.24115554826E+02 -0.21310572893E+03  0.21475716904E+03  0.00000000000E+00 0.  1.
         -1    1    1    2    0  501  0.11181680009E+02 -0.24115554826E+02 -0.71688826011E+02  0.76458339815E+02  0.00000000000E+00 0. -1.
</event>
<event>
 4    1  0.1322546E+002  0.2019338E+02  0.7546771E-02  0.1531100E+00
          2   -1    0    0  502    0  0.00000000000E+00  0.00000000000E+00  0.68963316051E+01  0.68963316051E+01  0.00000000000E+00 0.  1.
         -2   -1    0    0    0  501 -0.00000000000E+00 -0.00000000000E+00 -0.95677007886E+02  0.95677007886E+02  0.00000000000E+00 0. -1.
          1    1    1    2  502    0  0.41314018907E+01  0.19766235105E+02 -0.76088430771E+02  0.78722435360E+02  0.00000000000E+00 0. -1.
         -1    1    1    2    0  501 -0.41314018907E+01 -0.19766235105E+02 -0.12692245510E+02  0.23850904132E+02  0.00000000000E+00 0.  1.
</event>
<event>
 4    1  0.1322546E+002  0.2108297E+02  0.7546771E-02  0.1518083E+00
          2   -1    0    0  502    0  0.00000000000E+00  0.00000000000E+00  0.15990538652E+03  0.15990538652E+03  0.00000000000E+00 0. -1.
         -2   -1    0    0    0  501 -0.00000000000E+00 -0.00000000000E+00 -0.33569863815E+01  0.33569863815E+01  0.00000000000E+00 0.  1.
          1    1    1    2  502    0 -0.20682455032E+02  0.40899566160E+01  0.44423266449E+02  0.49172332599E+02  0.00000000000E+00 0. -1.
         -1    1    1    2    0  501  0.20682455032E+02 -0.40899566160E+01  0.11212513369E+03  0.11409004030E+03  0.00000000000E+00 0.  1.
</event>
<event>
 4    1  0.1322546E+002  0.3891700E+02  0.7546771E-02  0.1354952E+00
          2   -1    0    0  502    0  0.00000000000E+00  0.00000000000E+00  0.17889334725E+04  0.17889334725E+04  0.00000000000E+00 0. -1.
         -2   -1    0    0    0  501 -0.00000000000E+00 -0.00000000000E+00 -0.12308853342E+01  0.12308853342E+01  0.00000000000E+00 0.  1.
          1    1    1    2  502    0  0.49888911456E+01 -0.38595901566E+02  0.13939712702E+04  0.13945144082E+04  0.00000000000E+00 0. -1.
         -1    1    1    2    0  501 -0.49888911456E+01  0.38595901566E+02  0.39373131703E+03  0.39564994965E+03  0.00000000000E+00 0.  1.
</event>
<event>
 4    1  0.1322546E+002  0.2086450E+02  0.7546771E-02  0.1521208E+00
          2   -1    0    0  502    0  0.00000000000E+00  0.00000000000E+00  0.12975977233E+04  0.12975977233E+04  0.00000000000E+00 0.  1.
         -2   -1    0    0    0  501 -0.00000000000E+00 -0.00000000000E+00 -0.34313821920E+00  0.34313821920E+00  0.00000000000E+00 0. -1.
          1    1    1    2  502    0  0.20857037633E+02 -0.55796117459E+00  0.74553357228E+03  0.74582547204E+03  0.00000000000E+00 0.  1.
         -1    1    1    2    0  501 -0.20857037633E+02  0.55796117459E+00  0.55172101282E+03  0.55211538950E+03  0.00000000000E+00 0. -1.
</event>
<event>
 4    1  0.1322546E+002  0.2367850E+02  0.7546771E-02  0.1484150E+00
          2   -1    0    0  502    0  0.00000000000E+00  0.00000000000E+00  0.14990127348E+03  0.14990127348E+03  0.00000000000E+00 0.  1.
         -2   -1    0    0    0  501 -0.00000000000E+00 -0.00000000000E+00 -0.62608951979E+01  0.62608951979E+01  0.00000000000E+00 0. -1.
          1    1    1    2  502    0  0.11112002960E+02 -0.20909197445E+02  0.22277245565E+02  0.32510718502E+02  0.00000000000E+00 0. -1.
         -1    1    1    2    0  501 -0.11112002960E+02  0.20909197445E+02  0.12136313271E+03  0.12365145017E+03  0.00000000000E+00 0.  1.
</event>
<event>
 4    1  0.1322546E+002  0.2076778E+02  0.7546771E-02  0.1522606E+00
          2   -1    0    0  502    0  0.00000000000E+00  0.00000000000E+00  0.51642078772E+03  0.51642078772E+03  0.00000000000E+00 0. -1.
         -2   -1    0    0    0  501 -0.00000000000E+00 -0.00000000000E+00 -0.83969422512E+00  0.83969422512E+00  0.00000000000E+00 0.  1.
          1    1    1    2  502    0  0.13776121017E+01 -0.20722042332E+02  0.23881333621E+03  0.23971464370E+03  0.00000000000E+00 0.  1.
         -1    1    1    2    0  501 -0.13776121017E+01  0.20722042332E+02  0.27676775728E+03  0.27754583824E+03  0.00000000000E+00 0. -1.
</event>
<event>
 4    1  0.1322546E+002  0.2271517E+02  0.7546771E-02  0.1496106E+00
          2   -1    0    0  502    0  0.00000000000E+00  0.00000000000E+00  0.16023704470E+04  0.16023704470E+04  0.00000000000E+00 0.  1.
         -2   -1    0    0    0  501 -0.00000000000E+00 -0.00000000000E+00 -0.46017428262E+00  0.46017428262E+00  0.00000000000E+00 0. -1.
          1    1    1    2  502    0  0.88495112998E+01  0.20920444049E+02  0.12400868732E+04  0.12402948971E+04  0.00000000000E+00 0.  1.
         -1    1    1    2    0  501 -0.88495112998E+01 -0.20920444049E+02  0.36182339958E+03  0.36253572419E+03  0.00000000000E+00 0. -1.
</event>
<event>
 4    1  0.1322546E+002  0.2417525E+02  0.7546771E-02  0.1478245E+00
          2   -1    0    0  502    0  0.00000000000E+00  0.00000000000E+00  0.40143072276E+02  0.40143072276E+02  0.00000000000E+00 0. -1.
         -2   -1    0    0    0  501 -0.00000000000E+00 -0.00000000000E+00 -0.16080690671E+02  0.16080690671E+02  0.00000000000E+00 0.  1.
          1    1    1    2  502    0 -0.24029093414E+02 -0.26542740689E+01  0.33834534979E+01  0.24410863538E+02  0.00000000000E+00 0. -1.
         -1    1    1    2    0  501  0.24029093414E+02  0.26542740689E+01  0.20678928107E+02  0.31812899409E+02  0.00000000000E+00 0.  1.
</event>
<event>
 4    1  0.1322546E+002  0.2415786E+02  0.7546771E-02  0.1478449E+00
          2   -1    0    0  502    0  0.00000000000E+00  0.00000000000E+00  0.21265047443E+04  0.21265047443E+04  0.00000000000E+00 0. -1.
         -2   -1    0    0    0  501 -0.00000000000E+00 -0.00000000000E+00 -0.27656003860E+00  0.27656003860E+00  0.00000000000E+00 0.  1.
          1    1    1    2  502    0  0.22879560628E+02 -0.77542264145E+01  0.97005476416E+03  0.97035552649E+03  0.00000000000E+00 0. -1.
         -1    1    1    2    0  501 -0.22879560628E+02  0.77542264145E+01  0.11561734201E+04  0.11564257778E+04  0.00000000000E+00 0.  1.
</event>
<event>
 4    1  0.1322546E+002  0.2225363E+02  0.7546771E-02  0.1502089E+00
          2   -1    0    0  502    0  0.00000000000E+00  0.00000000000E+00  0.27912648468E+01  0.27912648468E+01  0.00000000000E+00 0. -1.
         -2   -1    0    0    0  501 -0.00000000000E+00 -0.00000000000E+00 -0.22483884643E+03  0.22483884643E+03  0.00000000000E+00 0.  1.
          1    1    1    2  502    0 -0.22230806538E+02 -0.10076990544E+01 -0.16329262356E+03  0.16480201796E+03  0.00000000000E+00 0.  1.
         -1    1    1    2    0  501  0.22230806538E+02  0.10076990544E+01 -0.58754958025E+02  0.62828093312E+02  0.00000000000E+00 0. -1.
</event>
<event>
 4    1  0.1322546E+002  0.2409964E+02  0.7546771E-02  0.1479133E+00
          2   -1    0    0  502    0  0.00000000000E+00  0.00000000000E+00  0.94660499104E+03  0.94660499104E+03  0.00000000000E+00 0. -1.
         -2   -1    0    0    0  501 -0.00000000000E+00 -0.00000000000E+00 -0.10277034810E+01  0.10277034810E+01  0.00000000000E+00 0.  1.
          1    1    1    2  502    0 -0.94721794018E+01 -0.22160112026E+02  0.17200447001E+03  0.17368457171E+03  0.00000000000E+00 0.  1.
         -1    1    1    2    0  501  0.94721794018E+01  0.22160112026E+02  0.77357281755E+03  0.77394812281E+03  0.00000000000E+00 0. -1.
</event>
<event>
 4    1  0.1322546E+002  0.2447495E+02  0.7546771E-02  0.1474764E+00
          2   -1    0    0  502    0  0.00000000000E+00  0.00000000000E+00  0.10600386484E+03  0.10600386484E+03  0.00000000000E+00 0. -1.
         -2   -1    0    0    0  501 -0.00000000000E+00 -0.00000000000E+00 -0.68705138347E+01  0.68705138347E+01  0.00000000000E+00 0.  1.
          1    1    1    2  502    0  0.11508643627E+02  0.21600327316E+02  0.25788844661E+02  0.35554008596E+02  0.00000000000E+00 0. -1.
         -1    1    1    2    0  501 -0.11508643627E+02 -0.21600327316E+02  0.73344506348E+02  0.77320370083E+02  0.00000000000E+00 0.  1.
</event>
<event>
 4    1  0.1322546E+002  0.3613010E+02  0.7546771E-02  0.1372788E+00
          2   -1    0    0  502    0  0.00000000000E+00  0.00000000000E+00  0.28580576434E+03  0.28580576434E+03  0.00000000000E+00 0. -1.
         -2   -1    0    0    0  501 -0.00000000000E+00 -0.00000000000E+00 -0.45712894557E+01  0.45712894557E+01  0.00000000000E+00 0.  1.
          1    1    1    2  502    0  0.35903600328E+02 -0.40392686971E+01  0.14486186538E+03  0.14929951189E+03  0.00000000000E+00 0. -1.
         -1    1    1    2    0  501 -0.35903600328E+02  0.40392686971E+01  0.13637260950E+03  0.14107754191E+03  0.00000000000E+00 0.  1.
</event>
<event>
 4    1  0.1322546E+002  0.2462317E+02  0.7546771E-02  0.1473063E+00
          2   -1    0    0  502    0  0.00000000000E+00  0.00000000000E+00  0.58326489887E+03  0.58326489887E+03  0.00000000000E+00 0. -1.
         -2   -1    0    0    0  501 -0.00000000000E+00 -0.00000000000E+00 -0.10958199253E+01  0.10958199253E+01  0.00000000000E+00 0.  1.
          1    1    1    2  502    0 -0.82882497481E+00  0.24609217457E+02  0.35732669467E+03  0.35817407396E+03  0.00000000000E+00 0. -1.
         -1    1    1    2    0  501  0.82882497481E+00 -0.24609217457E+02  0.22484238428E+03  0.22618664484E+03  0.00000000000E+00 0.  1.
</event>
<event>
 4    1  0.1322546E+002  0.2295466E+02  0.7546771E-02  0.1493068E+00
          2   -1    0    0  502    0  0.00000000000E+00  0.00000000000E+00  0.96822450322E+02  0.96822450322E+02  0.00000000000E+00 0.  1.
         -2   -1    0    0    0  501 -0.00000000000E+00 -0.00000000000E+00 -0.61444351775E+01  0.61444351775E+01  0.00000000000E+00 0. -1.
          1    1    1    2  502    0  0.19405288580E+02 -0.12261782752E+02  0.27932897231E+02  0.36154713232E+02  0.00000000000E+00 0. -1.
         -1    1    1    2    0  501 -0.19405288580E+02  0.12261782752E+02  0.62745117913E+02  0.66812172268E+02  0.00000000000E+00 0.  1.
</event>
<event>
 4    1  0.1322546E+002  0.2369089E+02  0.7546771E-02  0.1484000E+00
          2   -1    0    0  502    0  0.00000000000E+00  0.00000000000E+00  0.12255924619E+03  0.12255924619E+03  0.00000000000E+00 0.  1.
         -2   -1    0    0    0  501 -0.00000000000E+00 -0.00000000000E+00 -0.32264496302E+02  0.32264496302E+02  0.00000000000E+00 0. -1.
          1    1    1    2  502    0  0.59150702889E+01 -0.22940575776E+02  0.11685535407E+03  0.11923267945E+03  0.00000000000E+00 0.  1.
         -1    1    1    2    0  501 -0.59150702889E+01  0.22940575776E+02 -0.26560604188E+02  0.35591063039E+02  0.00000000000E+00 0. -1.
</event>
<event>
 4    1  0.1322546E+002  0.2161504E+02  0.7546771E-02  0.1510662E+00
          2   -1    0    0  502    0  0.00000000000E+00  0.00000000000E+00  0.83326544331E+02  0.83326544331E+02  0.00000000000E+00 0.  1.
         -2   -1    0    0    0  501 -0.00000000000E+00 -0.00000000000E+00 -0.12315413208E+02  0.12315413208E+02  0.00000000000E+00 0. -1.
          1    1    1    2  502    0 -0.47362472657E+01  0.21089759960E+02  0.21126208908E+00  0.21616073764E+02  0.00000000000E+00 0. -1.
         -1    1    1    2    0  501  0.47362472657E+01 -0.21089759960E+02  0.70799869035E+02  0.74025883775E+02  0.00000000000E+00 0.  1.
</event>
<event>
 4    1  0.1322546E+002  0.3169250E+02  0.7546771E-02  0.1405437E+00
          2   -1    0    0  502    0  0.00000000000E+00  0.00000000000E+00  0.43650559165E+03  0.43650559165E+03  0.00000000000E+00 0. -1.
         -2   -1    0    0    0  501 -0.00000000000E+00 -0.00000000000E+00 -0.23010605821E+01  0.23010605821E+01  0.00000000000E+00 0.  1.
          1    1    1    2  502    0 -0.21693240636E+02  0.23104501550E+02  0.21637192550E+03  0.21868064575E+03  0.00000000000E+00 0.  1.
         -1    1    1    2    0  501  0.21693240636E+02 -0.23104501550E+02  0.21783260557E+03  0.22012600648E+03  0.00000000000E+00 0. -1.
</event>
<event>
 4    1  0.1322546E+002  0.2478544E+02  0.7546771E-02  0.1471218E+00
          2   -1    0    0  502    0  0.00000000000E+00  0.00000000000E+00  0.38564525279E+02  0.38564525279E+02  0.00000000000E+00 0.  1.
         -2   -1    0    0    0  501 -0.00000000000E+00 -0.00000000000E+00 -0.16247726169E+02  0.16247726169E+02  0.00000000000E+00 0. -1.
          1    1    1    2  502    0  0.12961471181E+02 -0.21126243724E+02  0.73235958979E+01  0.25844786049E+02  0.00000000000E+00 0.  1.
         -1    1    1    2    0  501 -0.12961471181E+02  0.21126243724E+02  0.14993203212E+02  0.28967465398E+02  0.00000000000E+00 0. -1.
</event>
<event>
 4    1  0.1322546E+002  0.2543001E+02  0.7546771E-02  0.1464050E+00
          2   -1    0    0  502    0  0.00000000000E+00  0.00000000000E+00  0.13584859343E+04  0.13584859343E+04  0.00000000000E+00 0. -1.
         -2   -1    0    0    0  501 -0.00000000000E+00 -0.00000000000E+00 -0.55331676625E+00  0.55331676625E+00  0.00000000000E+00 0.  1.
          1    1    1    2  502    0 -0.95912557650E+01 -0.23551931263E+02  0.93292091094E+03  0.93326743848E+03  0.00000000000E+00 0.  1.
         -1    1    1    2    0  501  0.95912557650E+01  0.23551931263E+02  0.42501170662E+03  0.42577181262E+03  0.00000000000E+00 0. -1.
</event>
<event>
 4    1  0.1322546E+002  0.2058406E+02  0.7546771E-02  0.1525287E+00
          2   -1    0    0  502    0  0.00000000000E+00  0.00000000000E+00  0.75639137553E+03  0.75639137553E+03  0.00000000000E+00 0. -1.
         -2   -1    0    0    0  501 -0.00000000000E+00 -0.00000000000E+00 -0.57026532886E+00  0.57026532886E+00  0.00000000000E+00 0.  1.
          1    1    1    2  502    0  0.14743997247E+02 -0.14363779290E+02  0.32753921427E+03  0.32818537520E+03  0.00000000000E+00 0.  1.
         -1    1    1    2    0  501 -0.14743997247E+02  0.14363779290E+02  0.42828189594E+03  0.42877626567E+03  0.00000000000E+00 0. -1.
</event>
<event>
 4    1  0.1322546E+002  0.4148276E+02  0.7546771E-02  0.1340009E+00
          2   -1    0    0  502    0  0.00000000000E+00  0.00000000000E+00  0.22281045969E+02  0.22281045969E+02  0.00000000000E+00 0. -1.
         -2   -1    0    0    0  501 -0.00000000000E+00 -0.00000000000E+00 -0.89907558281E+02  0.89907558281E+02  0.00000000000E+00 0.  1.
          1    1    1    2  502    0  0.40683726723E+02  0.81027186315E+01 -0.12751403839E+02  0.43398363669E+02  0.00000000000E+00 0. -1.
         -1    1    1    2    0  501 -0.40683726723E+02 -0.81027186315E+01 -0.54875108473E+02  0.68790240581E+02  0.00000000000E+00 0.  1.
</event>
<event>
 4    1  0.1322546E+002  0.2072235E+02  0.7546771E-02  0.1523266E+00
          2   -1    0    0  502    0  0.00000000000E+00  0.00000000000E+00  0.64860831002E+02  0.64860831002E+02  0.00000000000E+00 0. -1.
         -2   -1    0    0    0  501 -0.00000000000E+00 -0.00000000000E+00 -0.67311678346E+01  0.67311678346E+01  0.00000000000E+00 0.  1.
          1    1    1    2  502    0  0.16424905604E+02  0.12634806991E+02  0.24476481527E+02  0.32070453999E+02  0.00000000000E+00 0.  1.
         -1    1    1    2    0  501 -0.16424905604E+02 -0.12634806991E+02  0.33653181641E+02  0.39521544838E+02  0.00000000000E+00 0. -1.
</event>
<event>
 4    1  0.1322546E+002  0.3598726E+02  0.7546771E-02  0.1373752E+00
          2   -1    0    0  502    0  0.00000000000E+00  0.00000000000E+00  0.39495519298E+01  0.39495519298E+01  0.00000000000E+00 0. -1.
         -2   -1    0    0    0  501 -0.00000000000E+00 -0.00000000000E+00 -0.59962412114E+03  0.59962412114E+03  0.00000000000E+00 0.  1.
          1    1    1    2  502    0 -0.32150058701E+02  0.16169617447E+02 -0.50098869352E+03  0.50227955746E+03  0.00000000000E+00 0.  1.
         -1    1    1    2    0  501  0.32150058701E+02 -0.16169617447E+02 -0.94685875688E+02  0.10129411561E+03  0.00000000000E+00 0. -1.
</event>
<event>
 4    1  0.1322546E+002  0.2700237E+02  0.7546771E-02  0.1447584E+00
          2   -1    0    0  502    0  0.00000000000E+00  0.00000000000E+00  0.60918763793E+01  0.60918763793E+01  0.00000000000E+00 0. -1.
         -2   -1    0    0    0  501 -0.00000000000E+00 -0.00000000000E+00 -0.50348861418E+03  0.50348861418E+03  0.00000000000E+00 0.  1.
          1    1    1    2  502    0 -0.17697936139E+02 -0.20393897948E+02 -0.47115250037E+03  0.47192563675E+03  0.00000000000E+00 0.  1.
         -1    1    1    2    0  501  0.17697936139E+02  0.20393897948E+02 -0.26244237433E+02  0.37654853811E+02  0.00000000000E+00 0. -1.
</event>
<event>
 4    1  0.1322546E+002  0.3781361E+02  0.7546771E-02  0.1361797E+00
          2   -1    0    0  502    0  0.00000000000E+00  0.00000000000E+00  0.14245412964E+01  0.14245412964E+01  0.00000000000E+00 0.  1.
         -2   -1    0    0    0  501 -0.00000000000E+00 -0.00000000000E+00 -0.11208404439E+04  0.11208404439E+04  0.00000000000E+00 0. -1.
          1    1    1    2  502    0 -0.35087057416E+02 -0.14098492996E+02 -0.37833489861E+03  0.38021988981E+03  0.00000000000E+00 0.  1.
         -1    1    1    2    0  501  0.35087057416E+02  0.14098492996E+02 -0.74108100404E+03  0.74204509543E+03  0.00000000000E+00 0. -1.
</event>
<event>
 4    1  0.1322546E+002  0.5124686E+02  0.7546771E-02  0.1292855E+00
          2   -1    0    0  502    0  0.00000000000E+00  0.00000000000E+00  0.95148240476E+03  0.95148240476E+03  0.00000000000E+00 0.  1.
         -2   -1    0    0    0  501 -0.00000000000E+00 -0.00000000000E+00 -0.28795759411E+01  0.28795759411E+01  0.00000000000E+00 0. -1.
          1    1    1    2  502    0 -0.30823179858E+02 -0.40941077721E+02  0.37712596878E+03  0.38059195549E+03  0.00000000000E+00 0. -1.
         -1    1    1    2    0  501  0.30823179858E+02  0.40941077721E+02  0.57147686004E+03  0.57377002520E+03  0.00000000000E+00 0.  1.
</event>
<event>
 4    1  0.1322546E+002  0.2123981E+02  0.7546771E-02  0.1515868E+00
          2   -1    0    0  502    0  0.00000000000E+00  0.00000000000E+00  0.16205907277E+03  0.16205907277E+03  0.00000000000E+00 0. -1.
         -2   -1    0    0    0  501 -0.00000000000E+00 -0.00000000000E+00 -0.31329400322E+01  0.31329400322E+01  0.00000000000E+00 0.  1.
          1    1    1    2  502    0 -0.12828625972E+02  0.16927960832E+02  0.51887572711E+02  0.56066475759E+02  0.00000000000E+00 0.  1.
         -1    1    1    2    0  501  0.12828625972E+02 -0.16927960832E+02  0.10703856003E+03  0.10912553704E+03  0.00000000000E+00 0. -1.
</event>
<event>
 4    1  0.1322546E+002  0.2363313E+02  0.7546771E-02  0.1484697E+00
          2   -1    0    0  502    0  0.00000000000E+00  0.00000000000E+00  0.66085587379E+02  0.66085587379E+02  0.00000000000E+00 0.  1.
         -2   -1    0    0    0  501 -0.00000000000E+00 -0.00000000000E+00 -0.85927226888E+01  0.85927226888E+01  0.00000000000E+00 0. -1.
          1    1    1    2  502    0 -0.21412845169E+02  0.10000743833E+02  0.33532664517E+02  0.41023949165E+02  0.00000000000E+00 0.  1.
         -1    1    1    2    0  501  0.21412845169E+02 -0.10000743833E+02  0.23960200174E+02  0.33654360904E+02  0.00000000000E+00 0. -1.
</event>
<event>
 4    1  0.1322546E+002  0.2091597E+02  0.7546771E-02  0.1520468E+00
          2   -1    0    0  502    0  0.00000000000E+00  0.00000000000E+00  0.37463537897E+02  0.37463537897E+02  0.00000000000E+00 0.  1.
         -2   -1    0    0    0  501 -0.00000000000E+00 -0.00000000000E+00 -0.16613417860E+02  0.16613417860E+02  0.00000000000E+00 0. -1.
          1    1    1    2  502    0  0.20535413514E+02  0.39717404724E+01  0.25163098355E+02  0.32720932893E+02  0.00000000000E+00 0.  1.
         -1    1    1    2    0  501 -0.20535413514E+02 -0.39717404724E+01 -0.43129783180E+01  0.21356022864E+02  0.00000000000E+00 0. -1.
</event>
<event>
 4    1  0.1322546E+002  0.2149166E+02  0.7546771E-02  0.1512360E+00
          2   -1    0    0  502    0  0.00000000000E+00  0.00000000000E+00  0.13308018883E+03  0.13308018883E+03  0.00000000000E+00 0. -1.
         -2   -1    0    0    0  501 -0.00000000000E+00 -0.00000000000E+00 -0.34984666567E+01  0.34984666567E+01  0.00000000000E+00 0.  1.
          1    1    1    2  502    0  0.59378537467E+01  0.20655102372E+02  0.58715245603E+02  0.62524966432E+02  0.00000000000E+00 0.  1.
         -1    1    1    2    0  501 -0.59378537467E+01 -0.20655102372E+02  0.70866476575E+02  0.74053689059E+02  0.00000000000E+00 0. -1.
</event>
<event>
 4    1  0.1322546E+002  0.3392855E+02  0.7546771E-02  0.1388256E+00
          2   -1    0    0  502    0  0.00000000000E+00  0.00000000000E+00  0.73837056235E+03  0.73837056235E+03  0.00000000000E+00 0. -1.
         -2   -1    0    0    0  501 -0.00000000000E+00 -0.00000000000E+00 -0.16617933007E+01  0.16617933007E+01  0.00000000000E+00 0.  1.
          1    1    1    2  502    0 -0.15409303286E+02  0.30227466156E+02  0.27634366824E+03  0.27841869426E+03  0.00000000000E+00 0.  1.
         -1    1    1    2    0  501  0.15409303286E+02 -0.30227466156E+02  0.46036510082E+03  0.46161366140E+03  0.00000000000E+00 0. -1.
</event>
<event>
 4    1  0.1322546E+002  0.2005542E+02  0.7546771E-02  0.1533190E+00
          2   -1    0    0  502    0  0.00000000000E+00  0.00000000000E+00  0.28211803758E+02  0.28211803758E+02  0.00000000000E+00 0. -1.
         -2   -1    0    0    0  501 -0.00000000000E+00 -0.00000000000E+00 -0.21171248670E+02  0.21171248670E+02  0.00000000000E+00 0.  1.
          1    1    1    2  502    0  0.10311710380E+02 -0.17201413404E+02  0.17630777451E+02  0.26703263987E+02  0.00000000000E+00 0. -1.
         -1    1    1    2    0  501 -0.10311710380E+02  0.17201413404E+02 -0.10590222363E+02  0.22679788441E+02  0.00000000000E+00 0.  1.
</event>
<event>
 4    1  0.1322546E+002  0.2010381E+02  0.7546771E-02  0.1532455E+00
          2   -1    0    0  502    0  0.00000000000E+00  0.00000000000E+00  0.94897955691E+03  0.94897955691E+03  0.00000000000E+00 0.  1.
         -2   -1    0    0    0  501 -0.00000000000E+00 -0.00000000000E+00 -0.96258395432E+00  0.96258395432E+00  0.00000000000E+00 0. -1.
          1    1    1    2  502    0 -0.20046198352E+02 -0.15209496421E+01  0.82866680873E+03  0.82891063646E+03  0.00000000000E+00 0.  1.
         -1    1    1    2    0  501  0.20046198352E+02  0.15209496421E+01  0.11935016423E+03  0.12103150440E+03  0.00000000000E+00 0. -1.
</event>
<event>
 4    1  0.1322546E+002  0.2326232E+02  0.7546771E-02  0.1489230E+00
          2   -1    0    0  502    0  0.00000000000E+00  0.00000000000E+00  0.18353072816E+04  0.18353072816E+04  0.00000000000E+00 0. -1.
         -2   -1    0    0    0  501 -0.00000000000E+00 -0.00000000000E+00 -0.36636455759E+00  0.36636455759E+00  0.00000000000E+00 0.  1.
          1    1    1    2  502    0  0.41492879674E+01 -0.22889275173E+02  0.13229920587E+04  0.13231965549E+04  0.00000000000E+00 0. -1.
         -1    1    1    2    0  501 -0.41492879674E+01  0.22889275173E+02  0.51194885835E+03  0.51247709127E+03  0.00000000000E+00 0.  1.
</event>
<event>
 4    1  0.1322546E+002  0.2403613E+02  0.7546771E-02  0.1479882E+00
          2   -1    0    0  502    0  0.00000000000E+00  0.00000000000E+00  0.54822503994E+01  0.54822503994E+01  0.00000000000E+00 0. -1.
         -2   -1    0    0    0  501 -0.00000000000E+00 -0.00000000000E+00 -0.13590008647E+03  0.13590008647E+03  0.00000000000E+00 0.  1.
          1    1    1    2  502    0  0.23049577130E+02  0.68155933443E+01 -0.31710237264E+02  0.39790381575E+02  0.00000000000E+00 0.  1.
         -1    1    1    2    0  501 -0.23049577130E+02 -0.68155933443E+01 -0.98707598808E+02  0.10159195530E+03  0.00000000000E+00 0. -1.
</event>
<event>
 4    1  0.1322546E+002  0.2021285E+02  0.7546771E-02  0.1530806E+00
          2   -1    0    0  502    0  0.00000000000E+00  0.00000000000E+00  0.30514783133E+03  0.30514783133E+03  0.00000000000E+00 0. -1.
         -2   -1    0    0    0  501 -0.00000000000E+00 -0.00000000000E+00 -0.13580649013E+01  0.13580649013E+01  0.00000000000E+00 0.  1.
          1    1    1    2  502    0 -0.14521303644E+02 -0.14060270111E+02  0.17010498414E+03  0.17130167858E+03  0.00000000000E+00 0.  1.
         -1    1    1    2    0  501  0.14521303644E+02  0.14060270111E+02  0.13368478229E+03  0.13520421765E+03  0.00000000000E+00 0. -1.
</event>
<event>
 4    1  0.1322546E+002  0.2065865E+02  0.7546771E-02  0.1524195E+00
          2   -1    0    0  502    0  0.00000000000E+00  0.00000000000E+00  0.26706740115E+03  0.26706740115E+03  0.00000000000E+00 0. -1.
         -2   -1    0    0    0  501 -0.00000000000E+00 -0.00000000000E+00 -0.16155746798E+01  0.16155746798E+01  0.00000000000E+00 0.  1.
          1    1    1    2  502    0  0.71540669098E+01 -0.19380384659E+02  0.11872359949E+03  0.12050756432E+03  0.00000000000E+00 0. -1.
         -1    1    1    2    0  501 -0.71540669098E+01  0.19380384659E+02  0.14672822698E+03  0.14817541150E+03  0.00000000000E+00 0.  1.
</event>
<event>
 4    1  0.1322546E+002  0.2142160E+02  0.7546771E-02  0.1513330E+00
          2   -1    0    0  502    0  0.00000000000E+00  0.00000000000E+00  0.13197217260E+03  0.13197217260E+03  0.00000000000E+00 0.  1.
         -2   -1    0    0    0  501 -0.00000000000E+00 -0.00000000000E+00 -0.10136674516E+02  0.10136674516E+02  0.00000000000E+00 0. -1.
          1    1    1    2  502    0 -0.20550004362E+02 -0.60483256960E+01  0.33253057033E+01  0.21678159079E+02  0.00000000000E+00 0. -1.
         -1    1    1    2    0  501  0.20550004362E+02  0.60483256960E+01  0.11851019238E+03  0.12043068804E+03  0.00000000000E+00 0.  1.
</event>
<event>
 4    1  0.1322546E+002  0.2222417E+02  0.7546771E-02  0.1502477E+00
          2   -1    0    0  502    0  0.00000000000E+00  0.00000000000E+00  0.16235561109E+02  0.16235561109E+02  0.00000000000E+00 0. -1.
         -2   -1    0    0    0  501 -0.00000000000E+00 -0.00000000000E+00 -0.46001306331E+02  0.46001306331E+02  0.00000000000E+00 0.  1.
          1    1    1    2  502    0 -0.21538949065E+02  0.54760639672E+01 -0.32992548848E+02  0.39779666701E+02  0.00000000000E+00 0.  1.
         -1    1    1    2    0  501  0.21538949065E+02 -0.54760639672E+01  0.32268036255E+01  0.22457200739E+02  0.00000000000E+00 0. -1.
</event>
<event>
 4    1  0.1322546E+002  0.2271280E+02  0.7546771E-02  0.1496136E+00
          2   -1    0    0  502    0  0.00000000000E+00  0.00000000000E+00  0.63627142769E+02  0.63627142769E+02  0.00000000000E+00 0.  1.
         -2   -1    0    0    0  501 -0.00000000000E+00 -0.00000000000E+00 -0.10670774314E+02  0.10670774314E+02  0.00000000000E+00 0. -1.
          1    1    1    2  502    0  0.11786710376E+02 -0.19415062046E+02  0.82716440633E+01  0.24172117641E+02  0.00000000000E+00 0. -1.
         -1    1    1    2    0  501 -0.11786710376E+02  0.19415062046E+02  0.44684724392E+02  0.50125799442E+02  0.00000000000E+00 0.  1.
</event>
<event>
 4    1  0.1322546E+002  0.4489525E+02  0.7546771E-02  0.1321964E+00
          2   -1    0    0  502    0  0.00000000000E+00  0.00000000000E+00  0.68583771887E+01  0.68583771887E+01  0.00000000000E+00 0. -1.
         -2   -1    0    0    0  501 -0.00000000000E+00 -0.00000000000E+00 -0.33891683949E+03  0.33891683949E+03  0.00000000000E+00 0.  1.
          1    1    1    2  502    0  0.44489703720E+02 -0.60207576350E+01 -0.10301034068E+03  0.11236865019E+03  0.00000000000E+00 0. -1.
         -1    1    1    2    0  501 -0.44489703720E+02  0.60207576350E+01 -0.22904812163E+03  0.23340656649E+03  0.00000000000E+00 0.  1.
</event>
<event>
 4    1  0.1322546E+002  0.2748311E+02  0.7546771E-02  0.1442815E+00
          2   -1    0    0  502    0  0.00000000000E+00  0.00000000000E+00  0.15485134746E+03  0.15485134746E+03  0.00000000000E+00 0. -1.
         -2   -1    0    0    0  501 -0.00000000000E+00 -0.00000000000E+00 -0.58548599985E+01  0.58548599985E+01  0.00000000000E+00 0.  1.
          1    1    1    2  502    0 -0.12529245120E+02 -0.24460975504E+02  0.10732463140E+03  0.11078762481E+03  0.00000000000E+00 0.  1.
         -1    1    1    2    0  501  0.12529245120E+02  0.24460975504E+02  0.41671856053E+02  0.49918582640E+02  0.00000000000E+00 0. -1.
</event>
<event>
 4    1  0.1322546E+002  0.3404191E+02  0.7546771E-02  0.1387427E+00
          2   -1    0    0  502    0  0.00000000000E+00  0.00000000000E+00  0.18723516293E+03  0.18723516293E+03  0.00000000000E+00 0. -1.
         -2   -1    0    0    0  501 -0.00000000000E+00 -0.00000000000E+00 -0.85282048910E+01  0.85282048910E+01  0.00000000000E+00 0.  1.
          1    1    1    2  502    0 -0.20777322254E+01  0.33978446675E+02  0.38093280844E+02  0.51087668328E+02  0.00000000000E+00 0.  1.
         -1    1    1    2    0  501  0.20777322254E+01 -0.33978446675E+02  0.14061367719E+03  0.14467569949E+03  0.00000000000E+00 0. -1.
</event>
<event>
 4    1  0.1322546E+002  0.2023803E+02  0.7546771E-02  0.1530428E+00
          2   -1    0    0  502    0  0.00000000000E+00  0.00000000000E+00  0.35987284110E+01  0.35987284110E+01  0.00000000000E+00 0.  1.
         -2   -1    0    0    0  501 -0.00000000000E+00 -0.00000000000E+00 -0.12740164151E+03  0.12740164151E+03  0.00000000000E+00 0. -1.
          1    1    1    2  502    0  0.18140143518E+02 -0.89728971156E+01 -0.40508908544E+02  0.45282991961E+02  0.00000000000E+00 0.  1.
         -1    1    1    2    0  501 -0.18140143518E+02  0.89728971156E+01 -0.83294004554E+02  0.85717377959E+02  0.00000000000E+00 0. -1.
</event>
<event>
 4    1  0.1322546E+002  0.2143855E+02  0.7546771E-02  0.1513095E+00
          2   -1    0    0  502    0  0.00000000000E+00  0.00000000000E+00  0.17014761093E+02  0.17014761093E+02  0.00000000000E+00 0.  1.
         -2   -1    0    0    0  501 -0.00000000000E+00 -0.00000000000E+00 -0.31805795983E+02  0.31805795983E+02  0.00000000000E+00 0. -1.
          1    1    1    2  502    0  0.39778764126E+01  0.21066277756E+02  0.20807183431E+01  0.21539288477E+02  0.00000000000E+00 0.  1.
         -1    1    1    2    0  501 -0.39778764126E+01 -0.21066277756E+02 -0.16871753232E+02  0.27281268600E+02  0.00000000000E+00 0. -1.
</event>
<event>
 4    1  0.1322546E+002  0.2195851E+02  0.7546771E-02  0.1506007E+00
          2   -1    0    0  502    0  0.00000000000E+00  0.00000000000E+00  0.25907329848E+02  0.25907329848E+02  0.00000000000E+00 0.  1.
         -2   -1    0    0    0  501 -0.00000000000E+00 -0.00000000000E+00 -0.19866375179E+02  0.19866375179E+02  0.00000000000E+00 0. -1.
          1    1    1    2  502    0  0.20654349218E+02  0.74547899991E+01  0.87724289269E+01  0.23645962548E+02  0.00000000000E+00 0.  1.
         -1    1    1    2    0  501 -0.20654349218E+02 -0.74547899991E+01 -0.27314742579E+01  0.22127742478E+02  0.00000000000E+00 0. -1.
</event>
<event>
 4    1  0.1322546E+002  0.4301683E+02  0.7546771E-02  0.1331660E+00
          2   -1    0    0  502    0  0.00000000000E+00  0.00000000000E+00  0.59137445692E+03  0.59137445692E+03  0.00000000000E+00 0. -1.
         -2   -1    0    0    0  501 -0.00000000000E+00 -0.00000000000E+00 -0.31543011265E+01  0.31543011265E+01  0.00000000000E+00 0.  1.
          1    1    1    2  502    0  0.27610837702E+02 -0.32986195378E+02  0.26751955030E+03  0.27095600609E+03  0.00000000000E+00 0. -1.
         -1    1    1    2    0  501 -0.27610837702E+02  0.32986195378E+02  0.32070060549E+03  0.32357275196E+03  0.00000000000E+00 0.  1.
</event>
<event>
 4    1  0.1322546E+002  0.2164330E+02  0.7546771E-02  0.1510275E+00
          2   -1    0    0  502    0  0.00000000000E+00  0.00000000000E+00  0.53253561035E+03  0.53253561035E+03  0.00000000000E+00 0.  1.
         -2   -1    0    0    0  501 -0.00000000000E+00 -0.00000000000E+00 -0.88427472177E+00  0.88427472177E+00  0.00000000000E+00 0. -1.
          1    1    1    2  502    0 -0.18060658803E+02  0.11926650740E+02  0.28516282375E+03  0.28598298629E+03  0.00000000000E+00 0.  1.
         -1    1    1    2    0  501  0.18060658803E+02 -0.11926650740E+02  0.24648851188E+03  0.24743689879E+03  0.00000000000E+00 0. -1.
</event>
<event>
 4    1  0.1322546E+002  0.2510271E+02  0.7546771E-02  0.1467658E+00
          2   -1    0    0  502    0  0.00000000000E+00  0.00000000000E+00  0.15606346855E+02  0.15606346855E+02  0.00000000000E+00 0. -1.
         -2   -1    0    0    0  501 -0.00000000000E+00 -0.00000000000E+00 -0.48969466925E+02  0.48969466925E+02  0.00000000000E+00 0.  1.
          1    1    1    2  502    0 -0.18779003376E+02 -0.16658184283E+02 -0.31570293159E+01  0.25300452673E+02  0.00000000000E+00 0. -1.
         -1    1    1    2    0  501  0.18779003376E+02  0.16658184283E+02 -0.30206090755E+02  0.39275361107E+02  0.00000000000E+00 0.  1.
</event>
<event>
 4    1  0.1322546E+002  0.2062547E+02  0.7546771E-02  0.1524680E+00
          2   -1    0    0  502    0  0.00000000000E+00  0.00000000000E+00  0.77533049984E+03  0.77533049984E+03  0.00000000000E+00 0.  1.
         -2   -1    0    0    0  501 -0.00000000000E+00 -0.00000000000E+00 -0.66933026755E+00  0.66933026755E+00  0.00000000000E+00 0. -1.
          1    1    1    2  502    0 -0.28492328771E+01 -0.20427722389E+02  0.55206022733E+03  0.55244538605E+03  0.00000000000E+00 0.  1.
         -1    1    1    2    0  501  0.28492328771E+01  0.20427722389E+02  0.22260094225E+03  0.22355444406E+03  0.00000000000E+00 0. -1.
</event>
<event>
 4    1  0.1322546E+002  0.2069377E+02  0.7546771E-02  0.1523682E+00
          2   -1    0    0  502    0  0.00000000000E+00  0.00000000000E+00  0.19059849762E+03  0.19059849762E+03  0.00000000000E+00 0.  1.
         -2   -1    0    0    0  501 -0.00000000000E+00 -0.00000000000E+00 -0.28235006811E+01  0.28235006811E+01  0.00000000000E+00 0. -1.
          1    1    1    2  502    0  0.20570783620E+02 -0.22527370918E+01  0.13759606064E+03  0.13914347943E+03  0.00000000000E+00 0.  1.
         -1    1    1    2    0  501 -0.20570783620E+02  0.22527370918E+01  0.50178936297E+02  0.54278518873E+02  0.00000000000E+00 0. -1.
</event>
<event>
 4    1  0.1322546E+002  0.8536009E+02  0.7546771E-02  0.1191922E+00
          2   -1    0    0  502    0  0.00000000000E+00  0.00000000000E+00  0.12049978170E+02  0.12049978170E+02  0.00000000000E+00 0.  1.
         -2   -1    0    0    0  501 -0.00000000000E+00 -0.00000000000E+00 -0.67006923433E+03  0.67006923433E+03  0.00000000000E+00 0. -1.
          1    1    1    2  502    0 -0.60215854205E+02  0.60501202129E+02 -0.22246450847E+03  0.23827883264E+03  0.00000000000E+00 0.  1.
         -1    1    1    2    0  501  0.60215854205E+02 -0.60501202129E+02 -0.43555474769E+03  0.44384037986E+03  0.00000000000E+00 0. -1.
</event>
<event>
 4    1  0.1322546E+002  0.2321414E+02  0.7546771E-02  0.1489827E+00
          2   -1    0    0  502    0  0.00000000000E+00  0.00000000000E+00  0.19610252958E+03  0.19610252958E+03  0.00000000000E+00 0.  1.
         -2   -1    0    0    0  501 -0.00000000000E+00 -0.00000000000E+00 -0.42671692612E+01  0.42671692612E+01  0.00000000000E+00 0. -1.
          1    1    1    2  502    0 -0.21686953727E+02 -0.82808275211E+01  0.15569419544E+03  0.15741530599E+03  0.00000000000E+00 0.  1.
         -1    1    1    2    0  501  0.21686953727E+02  0.82808275211E+01  0.36141164879E+02  0.42954392851E+02  0.00000000000E+00 0. -1.
</event>
<event>
 4    1  0.1322546E+002  0.3799761E+02  0.7546771E-02  0.1360637E+00
          2   -1    0    0  502    0  0.00000000000E+00  0.00000000000E+00  0.41935766503E+02  0.41935766503E+02  0.00000000000E+00 0. -1.
         -2   -1    0    0    0  501 -0.00000000000E+00 -0.00000000000E+00 -0.54085974479E+02  0.54085974479E+02  0.00000000000E+00 0.  1.
          1    1    1    2  502    0 -0.76785114405E+01  0.37213690575E+02 -0.35018699451E+02  0.51673277576E+02  0.00000000000E+00 0.  1.
         -1    1    1    2    0  501  0.76785114405E+01 -0.37213690575E+02  0.22868491475E+02  0.44348463407E+02  0.00000000000E+00 0. -1.
</event>
<event>
 4    1  0.1322546E+002  0.2457160E+02  0.7546771E-02  0.1473653E+00
          2   -1    0    0  502    0  0.00000000000E+00  0.00000000000E+00  0.14660942732E+02  0.14660942732E+02  0.00000000000E+00 0.  1.
         -2   -1    0    0    0  501 -0.00000000000E+00 -0.00000000000E+00 -0.57172710333E+02  0.57172710333E+02  0.00000000000E+00 0. -1.
          1    1    1    2  502    0 -0.49536382374E+01  0.24067095250E+02 -0.40250937979E+02  0.47158261353E+02  0.00000000000E+00 0. -1.
         -1    1    1    2    0  501  0.49536382374E+01 -0.24067095250E+02 -0.22608296214E+01  0.24675391712E+02  0.00000000000E+00 0.  1.
</event>
<event>
 4    1  0.1322546E+002  0.6205573E+02  0.7546771E-02  0.1253003E+00
          2   -1    0    0  502    0  0.00000000000E+00  0.00000000000E+00  0.23236577372E+03  0.23236577372E+03  0.00000000000E+00 0.  1.
         -2   -1    0    0    0  501 -0.00000000000E+00 -0.00000000000E+00 -0.19632656863E+02  0.19632656863E+02  0.00000000000E+00 0. -1.
          1    1    1    2  502    0  0.61984641675E+02  0.29695242901E+01  0.15611051735E+03  0.16799228407E+03  0.00000000000E+00 0.  1.
         -1    1    1    2    0  501 -0.61984641675E+02 -0.29695242901E+01  0.56622599506E+02  0.84006146518E+02  0.00000000000E+00 0. -1.
</event>
<event>
 4    1  0.1322546E+002  0.2286497E+02  0.7546771E-02  0.1494201E+00
          2   -1    0    0  502    0  0.00000000000E+00  0.00000000000E+00  0.25100709690E+01  0.25100709690E+01  0.00000000000E+00 0.  1.
         -2   -1    0    0    0  501 -0.00000000000E+00 -0.00000000000E+00 -0.23319204110E+03  0.23319204110E+03  0.00000000000E+00 0. -1.
          1    1    1    2  502    0 -0.45300012219E+01 -0.22411740033E+02 -0.76824330875E+02  0.80154755422E+02  0.00000000000E+00 0.  1.
         -1    1    1    2    0  501  0.45300012219E+01  0.22411740033E+02 -0.15385763925E+03  0.15554735665E+03  0.00000000000E+00 0. -1.
</event>
<event>
 4    1  0.1322546E+002  0.2060907E+02  0.7546771E-02  0.1524920E+00
          2   -1    0    0  502    0  0.00000000000E+00  0.00000000000E+00  0.19103510501E+03  0.19103510501E+03  0.00000000000E+00 0. -1.
         -2   -1    0    0    0  501 -0.00000000000E+00 -0.00000000000E+00 -0.24843473055E+01  0.24843473055E+01  0.00000000000E+00 0.  1.
          1    1    1    2  502    0  0.97211796038E+01  0.18172302092E+02  0.12563883595E+03  0.12731791310E+03  0.00000000000E+00 0. -1.
         -1    1    1    2    0  501 -0.97211796038E+01 -0.18172302092E+02  0.62911921755E+02  0.66201539220E+02  0.00000000000E+00 0.  1.
</event>
<event>
 4    1  0.1322546E+002  0.2705190E+02  0.7546771E-02  0.1447087E+00
          2   -1    0    0  502    0  0.00000000000E+00  0.00000000000E+00  0.15544471298E+04  0.15544471298E+04  0.00000000000E+00 0. -1.
         -2   -1    0    0    0  501 -0.00000000000E+00 -0.00000000000E+00 -0.55781396803E+00  0.55781396803E+00  0.00000000000E+00 0.  1.
          1    1    1    2  502    0  0.24313221215E+02 -0.11860543593E+02  0.10840570241E+04  0.10843945024E+04  0.00000000000E+00 0. -1.
         -1    1    1    2    0  501 -0.24313221215E+02  0.11860543593E+02  0.46983229168E+03  0.47061044137E+03  0.00000000000E+00 0.  1.
</event>
<event>
 4    1  0.1322546E+002  0.2354840E+02  0.7546771E-02  0.1485724E+00
          2   -1    0    0  502    0  0.00000000000E+00  0.00000000000E+00  0.36480692847E+02  0.36480692847E+02  0.00000000000E+00 0. -1.
         -2   -1    0    0    0  501 -0.00000000000E+00 -0.00000000000E+00 -0.29530168764E+02  0.29530168764E+02  0.00000000000E+00 0.  1.
          1    1    1    2  502    0 -0.23104386001E+02  0.45512938464E+01  0.26466884603E+02  0.35426302499E+02  0.00000000000E+00 0. -1.
         -1    1    1    2    0  501  0.23104386001E+02 -0.45512938464E+01 -0.19516360520E+02  0.30584559113E+02  0.00000000000E+00 0.  1.
</event>
<event>
 4    1  0.1322546E+002  0.2095502E+02  0.7546771E-02  0.1519908E+00
          2   -1    0    0  502    0  0.00000000000E+00  0.00000000000E+00  0.18191635341E+03  0.18191635341E+03  0.00000000000E+00 0. -1.
         -2   -1    0    0    0  501 -0.00000000000E+00 -0.00000000000E+00 -0.32924664574E+01  0.32924664574E+01  0.00000000000E+00 0.  1.
          1    1    1    2  502    0 -0.78148151870E+01  0.19443294675E+02  0.13715054348E+03  0.13874215157E+03  0.00000000000E+00 0. -1.
         -1    1    1    2    0  501  0.78148151870E+01 -0.19443294675E+02  0.41473343468E+02  0.46466668297E+02  0.00000000000E+00 0.  1.
</event>
<event>
 4    1  0.1322546E+002  0.3031065E+02  0.7546771E-02  0.1416916E+00
          2   -1    0    0  502    0  0.00000000000E+00  0.00000000000E+00  0.52724995420E+02  0.52724995420E+02  0.00000000000E+00 0.  1.
         -2   -1    0    0    0  501 -0.00000000000E+00 -0.00000000000E+00 -0.17425044130E+02  0.17425044130E+02  0.00000000000E+00 0. -1.
          1    1    1    2  502    0 -0.25421037357E+02  0.16507761034E+02  0.17658730130E+02  0.35079425088E+02  0.00000000000E+00 0.  1.
         -1    1    1    2    0  501  0.25421037357E+02 -0.16507761034E+02  0.17641221161E+02  0.35070614462E+02  0.00000000000E+00 0. -1.
</event>
<event>
 4    1  0.1322546E+002  0.2076578E+02  0.7546771E-02  0.1522635E+00
          2   -1    0    0  502    0  0.00000000000E+00  0.00000000000E+00  0.57897290327E+03  0.57897290327E+03  0.00000000000E+00 0. -1.
         -2   -1    0    0    0  501 -0.00000000000E+00 -0.00000000000E+00 -0.80515836875E+00  0.80515836875E+00  0.00000000000E+00 0.  1.
          1    1    1    2  502    0 -0.17490287021E+02  0.11194082116E+02  0.36845610511E+03  0.36904080941E+03  0.00000000000E+00 0. -1.
         -1    1    1    2    0  501  0.17490287021E+02 -0.11194082116E+02  0.20971163979E+03  0.21073725223E+03  0.00000000000E+00 0.  1.
</event>
<event>
 4    1  0.1322546E+002  0.4985716E+02  0.7546771E-02  0.1298793E+00
          2   -1    0    0  502    0  0.00000000000E+00  0.00000000000E+00  0.24151973997E+03  0.24151973997E+03  0.00000000000E+00 0. -1.
         -2   -1    0    0    0  501 -0.00000000000E+00 -0.00000000000E+00 -0.15215675943E+02  0.15215675943E+02  0.00000000000E+00 0.  1.
          1    1    1    2  502    0  0.15748063966E+02  0.47304705759E+02  0.18617375136E+03  0.19273401983E+03  0.00000000000E+00 0. -1.
         -1    1    1    2    0  501 -0.15748063966E+02 -0.47304705759E+02  0.40130312673E+02  0.64001396085E+02  0.00000000000E+00 0.  1.
</event>
<event>
 4    1  0.1322546E+002  0.2250110E+02  0.7546771E-02  0.1498860E+00
          2   -1    0    0  502    0  0.00000000000E+00  0.00000000000E+00  0.79937724527E+03  0.79937724527E+03  0.00000000000E+00 0.  1.
         -2   -1    0    0    0  501 -0.00000000000E+00 -0.00000000000E+00 -0.89162981877E+00  0.89162981877E+00  0.00000000000E+00 0. -1.
          1    1    1    2  502    0 -0.19531723141E+02 -0.11171901385E+02  0.61459244184E+03  0.61500420256E+03  0.00000000000E+00 0.  1.
         -1    1    1    2    0  501  0.19531723141E+02  0.11171901385E+02  0.18389317360E+03  0.18526467253E+03  0.00000000000E+00 0. -1.
</event>
<event>
 4    1  0.1322546E+002  0.2628150E+02  0.7546771E-02  0.1454962E+00
          2   -1    0    0  502    0  0.00000000000E+00  0.00000000000E+00  0.14862816619E+03  0.14862816619E+03  0.00000000000E+00 0.  1.
         -2   -1    0    0    0  501 -0.00000000000E+00 -0.00000000000E+00 -0.70885594108E+01  0.70885594108E+01  0.00000000000E+00 0. -1.
          1    1    1    2  502    0  0.25956309590E+02 -0.41215699669E+01  0.25078385511E+02  0.36326887650E+02  0.00000000000E+00 0. -1.
         -1    1    1    2    0  501 -0.25956309590E+02  0.41215699669E+01  0.11646122127E+03  0.11938983795E+03  0.00000000000E+00 0.  1.
</event>
<event>
 4    1  0.1322546E+002  0.2096945E+02  0.7546771E-02  0.1519701E+00
          2   -1    0    0  502    0  0.00000000000E+00  0.00000000000E+00  0.16695135729E+04  0.16695135729E+04  0.00000000000E+00 0. -1.
         -2   -1    0    0    0  501 -0.00000000000E+00 -0.00000000000E+00 -0.34124339153E+00  0.34124339153E+00  0.00000000000E+00 0.  1.
          1    1    1    2  502    0  0.16776712985E+02  0.12580136092E+02  0.12334097648E+04  0.12335880049E+04  0.00000000000E+00 0. -1.
         -1    1    1    2    0  501 -0.16776712985E+02 -0.12580136092E+02  0.43576256465E+03  0.43626681134E+03  0.00000000000E+00 0.  1.
</event>
<event>
 4    1  0.1322546E+002  0.2411643E+02  0.7546771E-02  0.1478936E+00
          2   -1    0    0  502    0  0.00000000000E+00  0.00000000000E+00  0.97402592362E+03  0.97402592362E+03  0.00000000000E+00 0.  1.
         -2   -1    0    0    0  501 -0.00000000000E+00 -0.00000000000E+00 -0.59817281631E+00  0.59817281631E+00  0.00000000000E+00 0. -1.
          1    1    1    2  502    0 -0.23242770501E+02  0.64324076272E+01  0.46618898194E+03  0.46681234894E+03  0.00000000000E+00 0.  1.
         -1    1    1    2    0  501  0.23242770501E+02 -0.64324076272E+01  0.50723876887E+03  0.50781174749E+03  0.00000000000E+00 0. -1.
</event>
<event>
 4    1  0.1322546E+002  0.2560578E+02  0.7546771E-02  0.1462139E+00
          2   -1    0    0  502    0  0.00000000000E+00  0.00000000000E+00  0.57150956561E+03  0.57150956561E+03  0.00000000000E+00 0.  1.
         -2   -1    0    0    0  501 -0.00000000000E+00 -0.00000000000E+00 -0.11487768225E+01  0.11487768225E+01  0.00000000000E+00 0. -1.
          1    1    1    2  502    0  0.19168201944E+02 -0.16977513126E+02  0.29566929937E+03  0.29677599382E+03  0.00000000000E+00 0. -1.
         -1    1    1    2    0  501 -0.19168201944E+02  0.16977513126E+02  0.27469148942E+03  0.27588234861E+03  0.00000000000E+00 0.  1.
</event>
<event>
 4    1  0.1322546E+002  0.2266014E+02  0.7546771E-02  0.1496810E+00
          2   -1    0    0  502    0  0.00000000000E+00  0.00000000000E+00  0.14800933356E+02  0.14800933356E+02  0.00000000000E+00 0. -1.
         -2   -1    0    0    0  501 -0.00000000000E+00 -0.00000000000E+00 -0.11587630485E+03  0.11587630485E+03  0.00000000000E+00 0.  1.
          1    1    1    2  502    0 -0.15554410947E+02  0.16478533838E+02 -0.10522760245E+03  0.10763981649E+03  0.00000000000E+00 0.  1.
         -1    1    1    2    0  501  0.15554410947E+02 -0.16478533838E+02  0.41522309547E+01  0.23037421715E+02  0.00000000000E+00 0. -1.
</event>
<event>
 4    1  0.1322546E+002  0.2934031E+02  0.7546771E-02  0.1425417E+00
          2   -1    0    0  502    0  0.00000000000E+00  0.00000000000E+00  0.33026791716E+03  0.33026791716E+03  0.00000000000E+00 0.  1.
         -2   -1    0    0    0  501 -0.00000000000E+00 -0.00000000000E+00 -0.34988632191E+01  0.34988632191E+01  0.00000000000E+00 0. -1.
          1    1    1    2  502    0  0.28380897966E+02  0.74416490212E+01  0.79106771878E+02  0.84372595470E+02  0.00000000000E+00 0. -1.
         -1    1    1    2    0  501 -0.28380897966E+02 -0.74416490212E+01  0.24766228206E+03  0.24939418491E+03  0.00000000000E+00 0.  1.
</event>
<event>
 4    1  0.1322546E+002  0.2263372E+02  0.7546771E-02  0.1497150E+00
          2   -1    0    0  502    0  0.00000000000E+00  0.00000000000E+00  0.62457273239E+02  0.62457273239E+02  0.00000000000E+00 0.  1.
         -2   -1    0    0    0  501 -0.00000000000E+00 -0.00000000000E+00 -0.12525980943E+02  0.12525980943E+02  0.00000000000E+00 0. -1.
          1    1    1    2  502    0 -0.10115521390E+02 -0.20247503164E+02  0.46992971978E+02  0.52159606715E+02  0.00000000000E+00 0.  1.
         -1    1    1    2    0  501  0.10115521390E+02  0.20247503164E+02  0.29383203181E+01  0.22823647466E+02  0.00000000000E+00 0. -1.
</event>
<event>
 4    1  0.1322546E+002  0.2214781E+02  0.7546771E-02  0.1503486E+00
          2   -1    0    0  502    0  0.00000000000E+00  0.00000000000E+00  0.63916217300E+02  0.63916217300E+02  0.00000000000E+00 0. -1.
         -2   -1    0    0    0  501 -0.00000000000E+00 -0.00000000000E+00 -0.12849894854E+02  0.12849894854E+02  0.00000000000E+00 0.  1.
          1    1    1    2  502    0 -0.59751953503E+01  0.21326568495E+02  0.11740635135E+01  0.22178906835E+02  0.00000000000E+00 0.  1.
         -1    1    1    2    0  501  0.59751953503E+01 -0.21326568495E+02  0.49892258932E+02  0.54587205320E+02  0.00000000000E+00 0. -1.
</event>
<event>
 4    1  0.1322546E+002  0.2444590E+02  0.7546771E-02  0.1475098E+00
          2   -1    0    0  502    0  0.00000000000E+00  0.00000000000E+00  0.15278104095E+04  0.15278104095E+04  0.00000000000E+00 0. -1.
         -2   -1    0    0    0  501 -0.00000000000E+00 -0.00000000000E+00 -0.10570450319E+01  0.10570450319E+01  0.00000000000E+00 0.  1.
          1    1    1    2  502    0 -0.60016180283E+00  0.24438530792E+02  0.15664564873E+03  0.15854167038E+03  0.00000000000E+00 0.  1.
         -1    1    1    2    0  501  0.60016180283E+00 -0.24438530792E+02  0.13701077157E+04  0.13703257841E+04  0.00000000000E+00 0. -1.
</event>
<event>
 4    1  0.1322546E+002  0.2167717E+02  0.7546771E-02  0.1509812E+00
          2   -1    0    0  502    0  0.00000000000E+00  0.00000000000E+00  0.43701758116E+03  0.43701758116E+03  0.00000000000E+00 0.  1.
         -2   -1    0    0    0  501 -0.00000000000E+00 -0.00000000000E+00 -0.19537581927E+01  0.19537581927E+01  0.00000000000E+00 0. -1.
          1    1    1    2  502    0  0.13716336399E+02  0.16785762485E+02  0.36471083500E+03  0.36535447565E+03  0.00000000000E+00 0.  1.
         -1    1    1    2    0  501 -0.13716336399E+02 -0.16785762485E+02  0.70352987961E+02  0.73616863702E+02  0.00000000000E+00 0. -1.
</event>
<event>
 4    1  0.1322546E+002  0.2013321E+02  0.7546771E-02  0.1532009E+00
          2   -1    0    0  502    0  0.00000000000E+00  0.00000000000E+00  0.17060550255E+01  0.17060550255E+01  0.00000000000E+00 0.  1.
         -2   -1    0    0    0  501 -0.00000000000E+00 -0.00000000000E+00 -0.34535017535E+03  0.34535017535E+03  0.00000000000E+00 0. -1.
          1    1    1    2  502    0 -0.14844495781E+02 -0.13600991210E+02 -0.74890779021E+02  0.77549821400E+02  0.00000000000E+00 0.  1.
         -1    1    1    2    0  501  0.14844495781E+02  0.13600991210E+02 -0.26875334131E+03  0.26950640898E+03  0.00000000000E+00 0. -1.
</event>
<event>
 4    1  0.1322546E+002  0.2934876E+02  0.7546771E-02  0.1425341E+00
          2   -1    0    0  502    0  0.00000000000E+00  0.00000000000E+00  0.39185890237E+02  0.39185890237E+02  0.00000000000E+00 0.  1.
         -2   -1    0    0    0  501 -0.00000000000E+00 -0.00000000000E+00 -0.81152812848E+02  0.81152812848E+02  0.00000000000E+00 0. -1.
          1    1    1    2  502    0  0.64957825716E+01  0.28620878012E+02 -0.72361855985E+02  0.78087054311E+02  0.00000000000E+00 0. -1.
         -1    1    1    2    0  501 -0.64957825716E+01 -0.28620878012E+02  0.30394933373E+02  0.42251648774E+02  0.00000000000E+00 0.  1.
</event>
<event>
 4    1  0.1322546E+002  0.2413001E+02  0.7546771E-02  0.1478776E+00
          2   -1    0    0  502    0  0.00000000000E+00  0.00000000000E+00  0.69293115435E+03  0.69293115435E+03  0.00000000000E+00 0.  1.
         -2   -1    0    0    0  501 -0.00000000000E+00 -0.00000000000E+00 -0.99892118919E+00  0.99892118919E+00  0.00000000000E+00 0. -1.
          1    1    1    2  502    0  0.21447604822E+02 -0.11057020211E+02  0.20769687038E+03  0.20909387225E+03  0.00000000000E+00 0. -1.
         -1    1    1    2    0  501 -0.21447604822E+02  0.11057020211E+02  0.48423536278E+03  0.48483620329E+03  0.00000000000E+00 0.  1.
</event>
<event>
 4    1  0.1322546E+002  0.2085323E+02  0.7546771E-02  0.1521371E+00
          2   -1    0    0  502    0  0.00000000000E+00  0.00000000000E+00  0.21899061002E+03  0.21899061002E+03  0.00000000000E+00 0.  1.
         -2   -1    0    0    0  501 -0.00000000000E+00 -0.00000000000E+00 -0.24056589133E+01  0.24056589133E+01  0.00000000000E+00 0. -1.
          1    1    1    2  502    0  0.19771540521E+02 -0.66289943938E+01  0.15454212370E+03  0.15594269902E+03  0.00000000000E+00 0.  1.
         -1    1    1    2    0  501 -0.19771540521E+02  0.66289943938E+01  0.62042827409E+02  0.65453569912E+02  0.00000000000E+00 0. -1.
</event>
<event>
 4    1  0.1322546E+002  0.2725576E+02  0.7546771E-02  0.1445056E+00
          2   -1    0    0  502    0  0.00000000000E+00  0.00000000000E+00  0.12758947501E+03  0.12758947501E+03  0.00000000000E+00 0. -1.
         -2   -1    0    0    0  501 -0.00000000000E+00 -0.00000000000E+00 -0.84419850081E+01  0.84419850081E+01  0.00000000000E+00 0.  1.
          1    1    1    2  502    0 -0.26932943964E+02  0.41824332627E+01  0.21685559693E+02  0.34830155293E+02  0.00000000000E+00 0.  1.
         -1    1    1    2    0  501  0.26932943964E+02 -0.41824332627E+01  0.97461930311E+02  0.10120130473E+03  0.00000000000E+00 0. -1.
</event>
<event>
 4    1  0.1322546E+002  0.6601991E+02  0.7546771E-02  0.1240645E+00
          2   -1    0    0  502    0  0.00000000000E+00  0.00000000000E+00  0.23241566425E+04  0.23241566425E+04  0.00000000000E+00 0. -1.
         -2   -1    0    0    0  501 -0.00000000000E+00 -0.00000000000E+00 -0.19779295533E+01  0.19779295533E+01  0.00000000000E+00 0.  1.
          1    1    1    2  502    0 -0.26093767015E+02 -0.60644400610E+02  0.14259459857E+04  0.14274734961E+04  0.00000000000E+00 0. -1.
         -1    1    1    2    0  501  0.26093767015E+02  0.60644400610E+02  0.89623272721E+03  0.89866107589E+03  0.00000000000E+00 0.  1.
</event>
<event>
 4    1  0.1322546E+002  0.2054640E+02  0.7546771E-02  0.1525841E+00
          2   -1    0    0  502    0  0.00000000000E+00  0.00000000000E+00  0.21987735449E+04  0.21987735449E+04  0.00000000000E+00 0.  1.
         -2   -1    0    0    0  501 -0.00000000000E+00 -0.00000000000E+00 -0.19395749785E+00  0.19395749785E+00  0.00000000000E+00 0. -1.
          1    1    1    2  502    0 -0.13174300140E+02  0.15766815398E+02  0.12098715522E+04  0.12100460022E+04  0.00000000000E+00 0. -1.
         -1    1    1    2    0  501  0.13174300140E+02 -0.15766815398E+02  0.98870803514E+03  0.98892150012E+03  0.00000000000E+00 0.  1.
</event>
<event>
 4    1  0.1322546E+002  0.2182879E+02  0.7546771E-02  0.1507753E+00
          2   -1    0    0  502    0  0.00000000000E+00  0.00000000000E+00  0.56244873026E+03  0.56244873026E+03  0.00000000000E+00 0.  1.
         -2   -1    0    0    0  501 -0.00000000000E+00 -0.00000000000E+00 -0.89609918421E+00  0.89609918421E+00  0.00000000000E+00 0. -1.
          1    1    1    2  502    0  0.10314155012E+02 -0.19238358676E+02  0.21496529952E+03  0.21607076673E+03  0.00000000000E+00 0. -1.
         -1    1    1    2    0  501 -0.10314155012E+02  0.19238358676E+02  0.34658733156E+03  0.34727406272E+03  0.00000000000E+00 0.  1.
</event>
<event>
 4    1  0.1322546E+002  0.2512693E+02  0.7546771E-02  0.1467388E+00
          2   -1    0    0  502    0  0.00000000000E+00  0.00000000000E+00  0.45681123986E+02  0.45681123986E+02  0.00000000000E+00 0. -1.
         -2   -1    0    0    0  501 -0.00000000000E+00 -0.00000000000E+00 -0.16247053634E+02  0.16247053634E+02  0.00000000000E+00 0.  1.
          1    1    1    2  502    0  0.23878101129E+02 -0.78229639605E+01  0.27519989753E+01  0.25277182932E+02  0.00000000000E+00 0.  1.
         -1    1    1    2    0  501 -0.23878101129E+02  0.78229639605E+01  0.26682071376E+02  0.36650994687E+02  0.00000000000E+00 0. -1.
</event>
<event>
 4    1  0.1322546E+002  0.2553243E+02  0.7546771E-02  0.1462934E+00
          2   -1    0    0  502    0  0.00000000000E+00  0.00000000000E+00  0.84970532713E+03  0.84970532713E+03  0.00000000000E+00 0. -1.
         -2   -1    0    0    0  501 -0.00000000000E+00 -0.00000000000E+00 -0.15383566773E+01  0.15383566773E+01  0.00000000000E+00 0.  1.
          1    1    1    2  502    0 -0.24374603153E+02 -0.76015737907E+01  0.72542777145E+03  0.72587695706E+03  0.00000000000E+00 0. -1.
         -1    1    1    2    0  501  0.24374603153E+02  0.76015737907E+01  0.12273919901E+03  0.12536672675E+03  0.00000000000E+00 0.  1.
</event>
<event>
 4    1  0.1322546E+002  0.2089969E+02  0.7546771E-02  0.1520702E+00
          2   -1    0    0  502    0  0.00000000000E+00  0.00000000000E+00  0.54105086493E+03  0.54105086493E+03  0.00000000000E+00 0.  1.
         -2   -1    0    0    0  501 -0.00000000000E+00 -0.00000000000E+00 -0.83060507428E+00  0.83060507428E+00  0.00000000000E+00 0. -1.
          1    1    1    2  502    0 -0.16800978843E+02 -0.12430782104E+02  0.31548171047E+03  0.31617322289E+03  0.00000000000E+00 0.  1.
         -1    1    1    2    0  501  0.16800978843E+02  0.12430782104E+02  0.22473854939E+03  0.22570824711E+03  0.00000000000E+00 0. -1.
</event>
<event>
 4    1  0.1322546E+002  0.2155225E+02  0.7546771E-02  0.1511524E+00
          2   -1    0    0  502    0  0.00000000000E+00  0.00000000000E+00  0.41958426897E+03  0.41958426897E+03  0.00000000000E+00 0.  1.
         -2   -1    0    0    0  501 -0.00000000000E+00 -0.00000000000E+00 -0.12519582275E+01  0.12519582275E+01  0.00000000000E+00 0. -1.
          1    1    1    2  502    0 -0.53679460385E+01 -0.20873060368E+02  0.13757831427E+03  0.13925621010E+03  0.00000000000E+00 0. -1.
         -1    1    1    2    0  501  0.53679460385E+01  0.20873060368E+02  0.28075399648E+03  0.28158001710E+03  0.00000000000E+00 0.  1.
</event>
<event>
 4    1  0.1322546E+002  0.4981729E+02  0.7546771E-02  0.1298967E+00
          2   -1    0    0  502    0  0.00000000000E+00  0.00000000000E+00  0.86424646864E+02  0.86424646864E+02  0.00000000000E+00 0. -1.
         -2   -1    0    0    0  501 -0.00000000000E+00 -0.00000000000E+00 -0.31861447587E+02  0.31861447587E+02  0.00000000000E+00 0.  1.
          1    1    1    2  502    0  0.27268578178E+02 -0.41691574360E+02  0.45864697209E+02  0.67715088264E+02  0.00000000000E+00 0. -1.
         -1    1    1    2    0  501 -0.27268578178E+02  0.41691574360E+02  0.86985020675E+01  0.50571006187E+02  0.00000000000E+00 0.  1.
</event>
<event>
 4    1  0.1322546E+002  0.3766582E+02  0.7546771E-02  0.1362735E+00
          2   -1    0    0  502    0  0.00000000000E+00  0.00000000000E+00  0.11577765755E+01  0.11577765755E+01  0.00000000000E+00 0. -1.
         -2   -1    0    0    0  501 -0.00000000000E+00 -0.00000000000E+00 -0.12287782389E+04  0.12287782389E+04  0.00000000000E+00 0.  1.
          1    1    1    2  502    0 -0.47026453579E+01  0.37371103947E+02 -0.58146190725E+03  0.58268058477E+03  0.00000000000E+00 0. -1.
         -1    1    1    2    0  501  0.47026453579E+01 -0.37371103947E+02 -0.64615855509E+03  0.64725543072E+03  0.00000000000E+00 0.  1.
</event>
<event>
 4    1  0.1322546E+002  0.2275193E+02  0.7546771E-02  0.1495637E+00
          2   -1    0    0  502    0  0.00000000000E+00  0.00000000000E+00  0.77467697467E+03  0.77467697467E+03  0.00000000000E+00 0. -1.
         -2   -1    0    0    0  501 -0.00000000000E+00 -0.00000000000E+00 -0.86233614893E+00  0.86233614893E+00  0.00000000000E+00 0.  1.
          1    1    1    2  502    0  0.20112249755E+02 -0.10637090637E+02  0.20292645495E+03  0.20419793438E+03  0.00000000000E+00 0.  1.
         -1    1    1    2    0  501 -0.20112249755E+02  0.10637090637E+02  0.57088818358E+03  0.57134137644E+03  0.00000000000E+00 0. -1.
</event>
<event>
 4    1  0.1322546E+002  0.2381561E+02  0.7546771E-02  0.1482503E+00
          2   -1    0    0  502    0  0.00000000000E+00  0.00000000000E+00  0.19336494241E+04  0.19336494241E+04  0.00000000000E+00 0. -1.
         -2   -1    0    0    0  501 -0.00000000000E+00 -0.00000000000E+00 -0.38855542348E+00  0.38855542348E+00  0.00000000000E+00 0.  1.
          1    1    1    2  502    0  0.94080181345E+01 -0.21878589587E+02  0.14453722478E+04  0.14455684412E+04  0.00000000000E+00 0. -1.
         -1    1    1    2    0  501 -0.94080181345E+01  0.21878589587E+02  0.48788862078E+03  0.48846953823E+03  0.00000000000E+00 0.  1.
</event>
<event>
 4    1  0.1322546E+002  0.2140691E+02  0.7546771E-02  0.1513534E+00
          2   -1    0    0  502    0  0.00000000000E+00  0.00000000000E+00  0.92982591261E+01  0.92982591261E+01  0.00000000000E+00 0.  1.
         -2   -1    0    0    0  501 -0.00000000000E+00 -0.00000000000E+00 -0.57352440090E+02  0.57352440090E+02  0.00000000000E+00 0. -1.
          1    1    1    2  502    0 -0.20605837803E+02 -0.58012990085E+01 -0.36526598506E+02  0.42337312387E+02  0.00000000000E+00 0. -1.
         -1    1    1    2    0  501  0.20605837803E+02  0.58012990085E+01 -0.11527582458E+02  0.24313386829E+02  0.00000000000E+00 0.  1.
</event>
<event>
 4    1  0.1322546E+002  0.2903203E+02  0.7546771E-02  0.1428199E+00
          2   -1    0    0  502    0  0.00000000000E+00  0.00000000000E+00  0.78906617108E+02  0.78906617108E+02  0.00000000000E+00 0. -1.
         -2   -1    0    0    0  501 -0.00000000000E+00 -0.00000000000E+00 -0.13286518177E+02  0.13286518177E+02  0.00000000000E+00 0.  1.
          1    1    1    2  502    0  0.26777792818E+02 -0.11216454260E+02  0.12399751031E+02  0.31569175789E+02  0.00000000000E+00 0.  1.
         -1    1    1    2    0  501 -0.26777792818E+02  0.11216454260E+02  0.53220347901E+02  0.60623959496E+02  0.00000000000E+00 0. -1.
</event>
<event>
 4    1  0.1322546E+002  0.2122348E+02  0.7546771E-02  0.1516098E+00
          2   -1    0    0  502    0  0.00000000000E+00  0.00000000000E+00  0.22882751971E+02  0.22882751971E+02  0.00000000000E+00 0.  1.
         -2   -1    0    0    0  501 -0.00000000000E+00 -0.00000000000E+00 -0.19684739435E+02  0.19684739435E+02  0.00000000000E+00 0. -1.
          1    1    1    2  502    0  0.18249361673E+02  0.10834979684E+02  0.16700865920E+01  0.21289085829E+02  0.00000000000E+00 0. -1.
         -1    1    1    2    0  501 -0.18249361673E+02 -0.10834979684E+02  0.15279259443E+01  0.21278405577E+02  0.00000000000E+00 0.  1.
</event>
<event>
 4    1  0.1322546E+002  0.3177776E+02  0.7546771E-02  0.1404752E+00
          2   -1    0    0  502    0  0.00000000000E+00  0.00000000000E+00  0.42897270813E+03  0.42897270813E+03  0.00000000000E+00 0.  1.
         -2   -1    0    0    0  501 -0.00000000000E+00 -0.00000000000E+00 -0.26649900016E+01  0.26649900016E+01  0.00000000000E+00 0. -1.
          1    1    1    2  502    0 -0.27456602822E+02  0.15998773671E+02  0.28687221746E+03  0.28862691307E+03  0.00000000000E+00 0.  1.
         -1    1    1    2    0  501  0.27456602822E+02 -0.15998773671E+02  0.13943550067E+03  0.14301078506E+03  0.00000000000E+00 0. -1.
</event>
<event>
 4    1  0.1322546E+002  0.2983843E+02  0.7546771E-02  0.1421006E+00
          2   -1    0    0  502    0  0.00000000000E+00  0.00000000000E+00  0.24206464732E+03  0.24206464732E+03  0.00000000000E+00 0. -1.
         -2   -1    0    0    0  501 -0.00000000000E+00 -0.00000000000E+00 -0.21844653653E+02  0.21844653653E+02  0.00000000000E+00 0.  1.
          1    1    1    2  502    0  0.19541466408E+02 -0.22549125477E+02  0.23044408978E+03  0.23236783444E+03  0.00000000000E+00 0. -1.
         -1    1    1    2    0  501 -0.19541466408E+02  0.22549125477E+02 -0.10224096117E+02  0.31541466525E+02  0.00000000000E+00 0.  1.
</event>
<event>
 4    1  0.1322546E+002  0.2969611E+02  0.7546771E-02  0.1422256E+00
          2   -1    0    0  502    0  0.00000000000E+00  0.00000000000E+00  0.26167903894E+02  0.26167903894E+02  0.00000000000E+00 0.  1.
         -2   -1    0    0    0  501 -0.00000000000E+00 -0.00000000000E+00 -0.24430470424E+03  0.24430470424E+03  0.00000000000E+00 0. -1.
          1    1    1    2  502    0  0.24000180405E+02  0.17488583224E+02  0.16494511823E+02  0.33969517555E+02  0.00000000000E+00 0.  1.
         -1    1    1    2    0  501 -0.24000180405E+02 -0.17488583224E+02 -0.23463131217E+03  0.23650309058E+03  0.00000000000E+00 0. -1.
</event>
<event>
 4    1  0.1322546E+002  0.3853405E+02  0.7546771E-02  0.1357297E+00
          2   -1    0    0  502    0  0.00000000000E+00  0.00000000000E+00  0.17076084955E+03  0.17076084955E+03  0.00000000000E+00 0.  1.
         -2   -1    0    0    0  501 -0.00000000000E+00 -0.00000000000E+00 -0.94490245470E+01  0.94490245470E+01  0.00000000000E+00 0. -1.
          1    1    1    2  502    0  0.24870388598E+02 -0.29433604174E+02  0.55213040280E+02  0.67330179717E+02  0.00000000000E+00 0. -1.
         -1    1    1    2    0  501 -0.24870388598E+02  0.29433604174E+02  0.10609878472E+03  0.11287969438E+03  0.00000000000E+00 0.  1.
</event>
<event>
 4    1  0.1322546E+002  0.2245168E+02  0.7546771E-02  0.1499501E+00
          2   -1    0    0  502    0  0.00000000000E+00  0.00000000000E+00  0.17927717988E+04  0.17927717988E+04  0.00000000000E+00 0.  1.
         -2   -1    0    0    0  501 -0.00000000000E+00 -0.00000000000E+00 -0.28292459261E+00  0.28292459261E+00  0.00000000000E+00 0. -1.
          1    1    1    2  502    0  0.69328434369E-01 -0.22451570367E+02  0.82568937577E+03  0.82599456601E+03  0.00000000000E+00 0. -1.
         -1    1    1    2    0  501 -0.69328434369E-01  0.22451570367E+02  0.96679949846E+03  0.96706015741E+03  0.00000000000E+00 0.  1.
</event>
<event>
 4    1  0.1322546E+002  0.2247543E+02  0.7546771E-02  0.1499192E+00
          2   -1    0    0  502    0  0.00000000000E+00  0.00000000000E+00  0.13161620491E+04  0.13161620491E+04  0.00000000000E+00 0. -1.
         -2   -1    0    0    0  501 -0.00000000000E+00 -0.00000000000E+00 -0.43085596323E+00  0.43085596323E+00  0.00000000000E+00 0.  1.
          1    1    1    2  502    0 -0.17979501026E+02  0.13486383571E+02  0.44031726035E+03  0.44089050201E+03  0.00000000000E+00 0. -1.
         -1    1    1    2    0  501  0.17979501026E+02 -0.13486383571E+02  0.87541393275E+03  0.87570240302E+03  0.00000000000E+00 0.  1.
</event>
<event>
 4    1  0.1322546E+002  0.4068792E+02  0.7546771E-02  0.1344501E+00
          2   -1    0    0  502    0  0.00000000000E+00  0.00000000000E+00  0.10200566906E+04  0.10200566906E+04  0.00000000000E+00 0.  1.
         -2   -1    0    0    0  501 -0.00000000000E+00 -0.00000000000E+00 -0.27704963949E+01  0.27704963949E+01  0.00000000000E+00 0. -1.
          1    1    1    2  502    0 -0.47982866911E+00 -0.40685094985E+02  0.17950553184E+03  0.18405907516E+03  0.00000000000E+00 0. -1.
         -1    1    1    2    0  501  0.47982866911E+00  0.40685094985E+02  0.83778066239E+03  0.83876811185E+03  0.00000000000E+00 0.  1.
</event>
<event>
 4    1  0.1322546E+002  0.2578602E+02  0.7546771E-02  0.1460199E+00
          2   -1    0    0  502    0  0.00000000000E+00  0.00000000000E+00  0.51389897367E+01  0.51389897367E+01  0.00000000000E+00 0. -1.
         -2   -1    0    0    0  501 -0.00000000000E+00 -0.00000000000E+00 -0.15171280196E+03  0.15171280196E+03  0.00000000000E+00 0.  1.
          1    1    1    2  502    0  0.21005906669E+02  0.14955618896E+02 -0.43201799515E+02  0.50312166847E+02  0.00000000000E+00 0. -1.
         -1    1    1    2    0  501 -0.21005906669E+02 -0.14955618896E+02 -0.10337201271E+03  0.10653962485E+03  0.00000000000E+00 0.  1.
</event>
<event>
 4    1  0.1322546E+002  0.2270036E+02  0.7546771E-02  0.1496295E+00
          2   -1    0    0  502    0  0.00000000000E+00  0.00000000000E+00  0.59772807135E+03  0.59772807135E+03  0.00000000000E+00 0.  1.
         -2   -1    0    0    0  501 -0.00000000000E+00 -0.00000000000E+00 -0.11690817626E+01  0.11690817626E+01  0.00000000000E+00 0. -1.
          1    1    1    2  502    0  0.19753141326E+02 -0.11185685108E+02  0.14483530479E+03  0.14660345036E+03  0.00000000000E+00 0.  1.
         -1    1    1    2    0  501 -0.19753141326E+02  0.11185685108E+02  0.45172368479E+03  0.45229370275E+03  0.00000000000E+00 0. -1.
</event>
<event>
 4    1  0.1322546E+002  0.3931205E+02  0.7546771E-02  0.1352565E+00
          2   -1    0    0  502    0  0.00000000000E+00  0.00000000000E+00  0.42837870659E+02  0.42837870659E+02  0.00000000000E+00 0.  1.
         -2   -1    0    0    0  501 -0.00000000000E+00 -0.00000000000E+00 -0.40351334557E+02  0.40351334557E+02  0.00000000000E+00 0. -1.
          1    1    1    2  502    0  0.34804161104E+02  0.18278612340E+02  0.14781794850E+02  0.41999270925E+02  0.00000000000E+00 0.  1.
         -1    1    1    2    0  501 -0.34804161104E+02 -0.18278612340E+02 -0.12295258747E+02  0.41189934291E+02  0.00000000000E+00 0. -1.
</event>
<event>
 4    1  0.1322546E+002  0.2085928E+02  0.7546771E-02  0.1521284E+00
          2   -1    0    0  502    0  0.00000000000E+00  0.00000000000E+00  0.94539643503E+03  0.94539643503E+03  0.00000000000E+00 0. -1.
         -2   -1    0    0    0  501 -0.00000000000E+00 -0.00000000000E+00 -0.12089510648E+01  0.12089510648E+01  0.00000000000E+00 0.  1.
          1    1    1    2  502    0 -0.41488094170E+01  0.20442522880E+02  0.84456409254E+03  0.84482164731E+03  0.00000000000E+00 0. -1.
         -1    1    1    2    0  501  0.41488094170E+01 -0.20442522880E+02  0.99623391425E+02  0.10178373878E+03  0.00000000000E+00 0.  1.
</event>
<event>
 4    1  0.1322546E+002  0.2285300E+02  0.7546771E-02  0.1494352E+00
          2   -1    0    0  502    0  0.00000000000E+00  0.00000000000E+00  0.14448482388E+01  0.14448482388E+01  0.00000000000E+00 0. -1.
         -2   -1    0    0    0  501 -0.00000000000E+00 -0.00000000000E+00 -0.38850179925E+03  0.38850179925E+03  0.00000000000E+00 0.  1.
          1    1    1    2  502    0  0.16950758854E+02 -0.15327470518E+02 -0.14209212355E+03  0.14391814046E+03  0.00000000000E+00 0.  1.
         -1    1    1    2    0  501 -0.16950758854E+02  0.15327470518E+02 -0.24496482746E+03  0.24602850703E+03  0.00000000000E+00 0. -1.
</event>
<event>
 4    1  0.1322546E+002  0.2228229E+02  0.7546771E-02  0.1501713E+00
          2   -1    0    0  502    0  0.00000000000E+00  0.00000000000E+00  0.14429908285E+03  0.14429908285E+03  0.00000000000E+00 0.  1.
         -2   -1    0    0    0  501 -0.00000000000E+00 -0.00000000000E+00 -0.15753371408E+02  0.15753371408E+02  0.00000000000E+00 0. -1.
          1    1    1    2  502    0  0.10209947252E+02  0.19805484577E+02 -0.64761696423E+01  0.23204331825E+02  0.00000000000E+00 0. -1.
         -1    1    1    2    0  501 -0.10209947252E+02 -0.19805484577E+02  0.13502188109E+03  0.13684812244E+03  0.00000000000E+00 0.  1.
</event>
<event>
 4    1  0.1322546E+002  0.2825299E+02  0.7546771E-02  0.1435412E+00
          2   -1    0    0  502    0  0.00000000000E+00  0.00000000000E+00  0.46771357425E+03  0.46771357425E+03  0.00000000000E+00 0.  1.
         -2   -1    0    0    0  501 -0.00000000000E+00 -0.00000000000E+00 -0.25650514359E+01  0.25650514359E+01  0.00000000000E+00 0. -1.
          1    1    1    2  502    0 -0.28243434160E+02  0.73493460440E+00  0.96549517294E+02  0.10059841446E+03  0.00000000000E+00 0. -1.
         -1    1    1    2    0  501  0.28243434160E+02 -0.73493460440E+00  0.36859900552E+03  0.36968021122E+03  0.00000000000E+00 0.  1.
</event>
<event>
 4    1  0.1322546E+002  0.2262042E+02  0.7546771E-02  0.1497320E+00
          2   -1    0    0  502    0  0.00000000000E+00  0.00000000000E+00  0.55884874759E+00  0.55884874759E+00  0.00000000000E+00 0.  1.
         -2   -1    0    0    0  501 -0.00000000000E+00 -0.00000000000E+00 -0.94865174813E+03  0.94865174813E+03  0.00000000000E+00 0. -1.
          1    1    1    2  502    0  0.22473616428E+02  0.25729499915E+01 -0.56263093314E+03  0.56308547347E+03  0.00000000000E+00 0.  1.
         -1    1    1    2    0  501 -0.22473616428E+02 -0.25729499915E+01 -0.38546196625E+03  0.38612512341E+03  0.00000000000E+00 0. -1.
</event>
<event>
 4    1  0.1322546E+002  0.3819926E+02  0.7546771E-02  0.1359374E+00
          2   -1    0    0  502    0  0.00000000000E+00  0.00000000000E+00  0.18556291175E+02  0.18556291175E+02  0.00000000000E+00 0. -1.
         -2   -1    0    0    0  501 -0.00000000000E+00 -0.00000000000E+00 -0.10015522866E+03  0.10015522866E+03  0.00000000000E+00 0.  1.
          1    1    1    2  502    0 -0.37505095767E+02 -0.72492243536E+01 -0.13286064576E+02  0.40443824920E+02  0.00000000000E+00 0. -1.
         -1    1    1    2    0  501  0.37505095767E+02  0.72492243536E+01 -0.68312872909E+02  0.78267694915E+02  0.00000000000E+00 0.  1.
</event>
<event>
 4    1  0.1322546E+002  0.2666780E+02  0.7546771E-02  0.1450974E+00
          2   -1    0    0  502    0  0.00000000000E+00  0.00000000000E+00  0.44021045211E+00  0.44021045211E+00  0.00000000000E+00 0. -1.
         -2   -1    0    0    0  501 -0.00000000000E+00 -0.00000000000E+00 -0.16308790060E+04  0.16308790060E+04  0.00000000000E+00 0.  1.
          1    1    1    2  502    0 -0.13856510668E+02 -0.22785272200E+02 -0.89435866464E+03  0.89475616373E+03  0.00000000000E+00 0.  1.
         -1    1    1    2    0  501  0.13856510668E+02  0.22785272200E+02 -0.73608013086E+03  0.73656305268E+03  0.00000000000E+00 0. -1.
</event>
<event>
 4    1  0.1322546E+002  0.2131521E+02  0.7546771E-02  0.1514812E+00
          2   -1    0    0  502    0  0.00000000000E+00  0.00000000000E+00  0.20594102027E+02  0.20594102027E+02  0.00000000000E+00 0. -1.
         -2   -1    0    0    0  501 -0.00000000000E+00 -0.00000000000E+00 -0.38258515115E+02  0.38258515115E+02  0.00000000000E+00 0.  1.
          1    1    1    2  502    0  0.19377689700E+02 -0.88793838432E+01 -0.27978654914E+02  0.35173050000E+02  0.00000000000E+00 0.  1.
         -1    1    1    2    0  501 -0.19377689700E+02  0.88793838432E+01  0.10314241826E+02  0.23679567141E+02  0.00000000000E+00 0. -1.
</event>
<event>
 4    1  0.1322546E+002  0.3235445E+02  0.7546771E-02  0.1400181E+00
          2   -1    0    0  502    0  0.00000000000E+00  0.00000000000E+00  0.11384532079E+04  0.11384532079E+04  0.00000000000E+00 0.  1.
         -2   -1    0    0    0  501 -0.00000000000E+00 -0.00000000000E+00 -0.11766558740E+01  0.11766558740E+01  0.00000000000E+00 0. -1.
          1    1    1    2  502    0 -0.26387952397E+02 -0.18721289361E+02  0.30225613545E+03  0.30398286486E+03  0.00000000000E+00 0. -1.
         -1    1    1    2    0  501  0.26387952397E+02  0.18721289361E+02  0.83502041661E+03  0.83564699896E+03  0.00000000000E+00 0.  1.
</event>
<event>
 4    1  0.1322546E+002  0.4920709E+02  0.7546771E-02  0.1301647E+00
          2   -1    0    0  502    0  0.00000000000E+00  0.00000000000E+00  0.49827311980E+03  0.49827311980E+03  0.00000000000E+00 0. -1.
         -2   -1    0    0    0  501 -0.00000000000E+00 -0.00000000000E+00 -0.90698672247E+01  0.90698672247E+01  0.00000000000E+00 0.  1.
          1    1    1    2  502    0  0.80866961467E+01  0.48538057090E+02  0.71765979192E+02  0.87015477992E+02  0.00000000000E+00 0.  1.
         -1    1    1    2    0  501 -0.80866961467E+01 -0.48538057090E+02  0.41743727338E+03  0.42032750903E+03  0.00000000000E+00 0. -1.
</event>
<event>
 4    1  0.1322546E+002  0.2137482E+02  0.7546771E-02  0.1513980E+00
          2   -1    0    0  502    0  0.00000000000E+00  0.00000000000E+00  0.74315236495E+03  0.74315236495E+03  0.00000000000E+00 0. -1.
         -2   -1    0    0    0  501 -0.00000000000E+00 -0.00000000000E+00 -0.68659309428E+00  0.68659309428E+00  0.00000000000E+00 0.  1.
          1    1    1    2  502    0  0.17017559867E+02 -0.12933887012E+02  0.25095930499E+03  0.25186793273E+03  0.00000000000E+00 0. -1.
         -1    1    1    2    0  501 -0.17017559867E+02  0.12933887012E+02  0.49150646687E+03  0.49197102531E+03  0.00000000000E+00 0.  1.
</event>
<event>
 4    1  0.1322546E+002  0.3356744E+02  0.7546771E-02  0.1390924E+00
          2   -1    0    0  502    0  0.00000000000E+00  0.00000000000E+00  0.22291641335E+03  0.22291641335E+03  0.00000000000E+00 0.  1.
         -2   -1    0    0    0  501 -0.00000000000E+00 -0.00000000000E+00 -0.50920777823E+01  0.50920777823E+01  0.00000000000E+00 0. -1.
          1    1    1    2  502    0 -0.19717410870E+02  0.27166089522E+02  0.11868128687E+03  0.12333702025E+03  0.00000000000E+00 0.  1.
         -1    1    1    2    0  501  0.19717410870E+02 -0.27166089522E+02  0.99143048698E+02  0.10467147088E+03  0.00000000000E+00 0. -1.
</event>
<event>
 4    1  0.1322546E+002  0.2441253E+02  0.7546771E-02  0.1475484E+00
          2   -1    0    0  502    0  0.00000000000E+00  0.00000000000E+00  0.61024449069E+03  0.61024449069E+03  0.00000000000E+00 0.  1.
         -2   -1    0    0    0  501 -0.00000000000E+00 -0.00000000000E+00 -0.24824959812E+01  0.24824959812E+01  0.00000000000E+00 0. -1.
          1    1    1    2  502    0  0.63934582388E+01 -0.23560464304E+02  0.54249095573E+03  0.54303996984E+03  0.00000000000E+00 0.  1.
         -1    1    1    2    0  501 -0.63934582388E+01  0.23560464304E+02  0.65271038972E+02  0.69687016832E+02  0.00000000000E+00 0. -1.
</event>
<event>
 4    1  0.1322546E+002  0.3682521E+02  0.7546771E-02  0.1368166E+00
          2   -1    0    0  502    0  0.00000000000E+00  0.00000000000E+00  0.44110253824E+02  0.44110253824E+02  0.00000000000E+00 0.  1.
         -2   -1    0    0    0  501 -0.00000000000E+00 -0.00000000000E+00 -0.30749083939E+02  0.30749083939E+02  0.00000000000E+00 0. -1.
          1    1    1    2  502    0  0.36025024884E+02  0.76350185805E+01  0.61684056978E+01  0.37338253246E+02  0.00000000000E+00 0. -1.
         -1    1    1    2    0  501 -0.36025024884E+02 -0.76350185805E+01  0.71927641868E+01  0.37521084516E+02  0.00000000000E+00 0.  1.
</event>
<event>
 4    1  0.1322546E+002  0.4852748E+02  0.7546771E-02  0.1304686E+00
          2   -1    0    0  502    0  0.00000000000E+00  0.00000000000E+00  0.31585439595E+01  0.31585439595E+01  0.00000000000E+00 0. -1.
         -2   -1    0    0    0  501 -0.00000000000E+00 -0.00000000000E+00 -0.95464710840E+03  0.95464710840E+03  0.00000000000E+00 0.  1.
          1    1    1    2  502    0  0.12658584758E+02 -0.46847374500E+02 -0.69986344914E+03  0.70154384304E+03  0.00000000000E+00 0.  1.
         -1    1    1    2    0  501 -0.12658584758E+02  0.46847374500E+02 -0.25162511531E+03  0.25626180933E+03  0.00000000000E+00 0. -1.
</event>
<event>
 4    1  0.1322546E+002  0.2200807E+02  0.7546771E-02  0.1505344E+00
          2   -1    0    0  502    0  0.00000000000E+00  0.00000000000E+00  0.24613573526E+03  0.24613573526E+03  0.00000000000E+00 0.  1.
         -2   -1    0    0    0  501 -0.00000000000E+00 -0.00000000000E+00 -0.25410811590E+01  0.25410811590E+01  0.00000000000E+00 0. -1.
          1    1    1    2  502    0  0.25935983394E+01  0.21854712318E+02  0.62741119705E+02  0.66489121702E+02  0.00000000000E+00 0. -1.
         -1    1    1    2    0  501 -0.25935983394E+01 -0.21854712318E+02  0.18085353440E+03  0.18218769472E+03  0.00000000000E+00 0.  1.
</event>
<event>
 4    1  0.1322546E+002  0.7830026E+02  0.7546771E-02  0.1207849E+00
          2   -1    0    0  502    0  0.00000000000E+00  0.00000000000E+00  0.17297821107E+04  0.17297821107E+04  0.00000000000E+00 0.  1.
         -2   -1    0    0    0  501 -0.00000000000E+00 -0.00000000000E+00 -0.83195304479E+01  0.83195304479E+01  0.00000000000E+00 0. -1.
          1    1    1    2  502    0 -0.49038387589E+02  0.61042346017E+02  0.15191334275E+04  0.15211499932E+04  0.00000000000E+00 0.  1.
         -1    1    1    2    0  501  0.49038387589E+02 -0.61042346017E+02  0.20232915273E+03  0.21695164786E+03  0.00000000000E+00 0. -1.
</event>
<event>
 4    1  0.1322546E+002  0.2494890E+02  0.7546771E-02  0.1469376E+00
          2   -1    0    0  502    0  0.00000000000E+00  0.00000000000E+00  0.50633348652E+03  0.50633348652E+03  0.00000000000E+00 0.  1.
         -2   -1    0    0    0  501 -0.00000000000E+00 -0.00000000000E+00 -0.22621524733E+01  0.22621524733E+01  0.00000000000E+00 0. -1.
          1    1    1    2  502    0 -0.94909020232E+01 -0.23073155066E+02  0.80206895980E+02  0.83997582517E+02  0.00000000000E+00 0. -1.
         -1    1    1    2    0  501  0.94909020232E+01  0.23073155066E+02  0.42386443807E+03  0.42459805648E+03  0.00000000000E+00 0.  1.
</event>
<event>
 4    1  0.1322546E+002  0.3782997E+02  0.7546771E-02  0.1361694E+00
          2   -1    0    0  502    0  0.00000000000E+00  0.00000000000E+00  0.68255733414E+02  0.68255733414E+02  0.00000000000E+00 0.  1.
         -2   -1    0    0    0  501 -0.00000000000E+00 -0.00000000000E+00 -0.21993301174E+02  0.21993301174E+02  0.00000000000E+00 0. -1.
          1    1    1    2  502    0 -0.58873952619E+01  0.37369040282E+02  0.32879765756E+02  0.50121707779E+02  0.00000000000E+00 0.  1.
         -1    1    1    2    0  501  0.58873952619E+01 -0.37369040282E+02  0.13382666484E+02  0.40127326808E+02  0.00000000000E+00 0. -1.
</event>
<event>
 4    1  0.1322546E+002  0.2173335E+02  0.7546771E-02  0.1509047E+00
          2   -1    0    0  502    0  0.00000000000E+00  0.00000000000E+00  0.31414712019E+02  0.31414712019E+02  0.00000000000E+00 0.  1.
         -2   -1    0    0    0  501 -0.00000000000E+00 -0.00000000000E+00 -0.15303439626E+02  0.15303439626E+02  0.00000000000E+00 0. -1.
          1    1    1    2  502    0  0.20110490203E+02  0.82405421232E+01  0.11146048592E+02  0.24424838789E+02  0.00000000000E+00 0.  1.
         -1    1    1    2    0  501 -0.20110490203E+02 -0.82405421232E+01  0.49652238017E+01  0.22293312856E+02  0.00000000000E+00 0. -1.
</event>
<event>
 4    1  0.1322546E+002  0.2248160E+02  0.7546771E-02  0.1499112E+00
          2   -1    0    0  502    0  0.00000000000E+00  0.00000000000E+00  0.62204592261E+03  0.62204592261E+03  0.00000000000E+00 0. -1.
         -2   -1    0    0    0  501 -0.00000000000E+00 -0.00000000000E+00 -0.81252659178E+00  0.81252659178E+00  0.00000000000E+00 0.  1.
          1    1    1    2  502    0 -0.33413922313E+01  0.22231897258E+02  0.30948318410E+03  0.31029866806E+03  0.00000000000E+00 0.  1.
         -1    1    1    2    0  501  0.33413922313E+01 -0.22231897258E+02  0.31175021192E+03  0.31255978115E+03  0.00000000000E+00 0. -1.
</event>
<event>
 4    1  0.1322546E+002  0.2234028E+02  0.7546771E-02  0.1500953E+00
          2   -1    0    0  502    0  0.00000000000E+00  0.00000000000E+00  0.12822854003E+04  0.12822854003E+04  0.00000000000E+00 0. -1.
         -2   -1    0    0    0  501 -0.00000000000E+00 -0.00000000000E+00 -0.49088144198E+00  0.49088144198E+00  0.00000000000E+00 0.  1.
          1    1    1    2  502    0  0.74347214557E+01  0.21066870963E+02  0.93278491552E+03  0.93305240301E+03  0.00000000000E+00 0. -1.
         -1    1    1    2    0  501 -0.74347214557E+01 -0.21066870963E+02  0.34900960331E+03  0.34972387870E+03  0.00000000000E+00 0.  1.
</event>
<event>
 4    1  0.1322546E+002  0.2000252E+02  0.7546771E-02  0.1533997E+00
          2   -1    0    0  502    0  0.00000000000E+00  0.00000000000E+00  0.62064780176E+01  0.62064780176E+01  0.00000000000E+00 0. -1.
         -2   -1    0    0    0  501 -0.00000000000E+00 -0.00000000000E+00 -0.65400264766E+02  0.65400264766E+02  0.00000000000E+00 0.  1.
          1    1    1    2  502    0 -0.19999293479E+02 -0.35917307772E+00 -0.25315390528E+02  0.32264062709E+02  0.00000000000E+00 0. -1.
         -1    1    1    2    0  501  0.19999293479E+02  0.35917307772E+00 -0.33878396221E+02  0.39342680074E+02  0.00000000000E+00 0.  1.
</event>
<event>
 4    1  0.1322546E+002  0.2046649E+02  0.7546771E-02  0.1527020E+00
          2   -1    0    0  502    0  0.00000000000E+00  0.00000000000E+00  0.22025697583E+01  0.22025697583E+01  0.00000000000E+00 0.  1.
         -2   -1    0    0    0  501 -0.00000000000E+00 -0.00000000000E+00 -0.19891657284E+03  0.19891657284E+03  0.00000000000E+00 0. -1.
          1    1    1    2  502    0  0.19303490345E+02  0.68009246952E+01 -0.77278391250E+02  0.79942648632E+02  0.00000000000E+00 0.  1.
         -1    1    1    2    0  501 -0.19303490345E+02 -0.68009246952E+01 -0.11943561183E+03  0.12117649397E+03  0.00000000000E+00 0. -1.
</event>
<event>
 4    1  0.1322546E+002  0.2156951E+02  0.7546771E-02  0.1511287E+00
          2   -1    0    0  502    0  0.00000000000E+00  0.00000000000E+00  0.74212352849E+01  0.74212352849E+01  0.00000000000E+00 0.  1.
         -2   -1    0    0    0  501 -0.00000000000E+00 -0.00000000000E+00 -0.64700166042E+02  0.64700166042E+02  0.00000000000E+00 0. -1.
          1    1    1    2  502    0  0.16040449773E+02  0.14420394507E+02 -0.22284666308E+02  0.31013709212E+02  0.00000000000E+00 0.  1.
         -1    1    1    2    0  501 -0.16040449773E+02 -0.14420394507E+02 -0.34994264450E+02  0.41107692115E+02  0.00000000000E+00 0. -1.
</event>
<event>
 4    1  0.1322546E+002  0.2295239E+02  0.7546771E-02  0.1493097E+00
          2   -1    0    0  502    0  0.00000000000E+00  0.00000000000E+00  0.80984776014E+03  0.80984776014E+03  0.00000000000E+00 0.  1.
         -2   -1    0    0    0  501 -0.00000000000E+00 -0.00000000000E+00 -0.84669286367E+00  0.84669286367E+00  0.00000000000E+00 0. -1.
          1    1    1    2  502    0 -0.20245326245E+02  0.10813824680E+02  0.59961863530E+03  0.60005776375E+03  0.00000000000E+00 0.  1.
         -1    1    1    2    0  501  0.20245326245E+02 -0.10813824680E+02  0.20938243198E+03  0.21063668926E+03  0.00000000000E+00 0. -1.
</event>
<event>
 4    1  0.1322546E+002  0.2619826E+02  0.7546771E-02  0.1455832E+00
          2   -1    0    0  502    0  0.00000000000E+00  0.00000000000E+00  0.32748540879E+01  0.32748540879E+01  0.00000000000E+00 0.  1.
         -2   -1    0    0    0  501 -0.00000000000E+00 -0.00000000000E+00 -0.22398937605E+03  0.22398937605E+03  0.00000000000E+00 0. -1.
          1    1    1    2  502    0 -0.18657090854E+02 -0.18391890428E+02 -0.81537651229E+02  0.85643080518E+02  0.00000000000E+00 0.  1.
         -1    1    1    2    0  501  0.18657090854E+02  0.18391890428E+02 -0.13917687073E+03  0.14162114962E+03  0.00000000000E+00 0. -1.
</event>
<event>
 4    1  0.1322546E+002  0.3574916E+02  0.7546771E-02  0.1375372E+00
          2   -1    0    0  502    0  0.00000000000E+00  0.00000000000E+00  0.82543492818E+03  0.82543492818E+03  0.00000000000E+00 0. -1.
         -2   -1    0    0    0  501 -0.00000000000E+00 -0.00000000000E+00 -0.17560213900E+01  0.17560213900E+01  0.00000000000E+00 0.  1.
          1    1    1    2  502    0  0.34933530756E+02  0.75928205729E+01  0.26958207725E+03  0.27194208735E+03  0.00000000000E+00 0.  1.
         -1    1    1    2    0  501 -0.34933530756E+02 -0.75928205729E+01  0.55409682954E+03  0.55524886222E+03  0.00000000000E+00 0. -1.
</event>
<event>
 4    1  0.1322546E+002  0.2054202E+02  0.7546771E-02  0.1525905E+00
          2   -1    0    0  502    0  0.00000000000E+00  0.00000000000E+00  0.48472482570E+00  0.48472482570E+00  0.00000000000E+00 0. -1.
         -2   -1    0    0    0  501 -0.00000000000E+00 -0.00000000000E+00 -0.87460508612E+03  0.87460508612E+03  0.00000000000E+00 0.  1.
          1    1    1    2  502    0  0.14162040589E+02  0.14879888846E+02 -0.40724647256E+03  0.40776422586E+03  0.00000000000E+00 0. -1.
         -1    1    1    2    0  501 -0.14162040589E+02 -0.14879888846E+02 -0.46687388874E+03  0.46732558508E+03  0.00000000000E+00 0.  1.
</event>
<event>
 4    1  0.1322546E+002  0.3044525E+02  0.7546771E-02  0.1415766E+00
          2   -1    0    0  502    0  0.00000000000E+00  0.00000000000E+00  0.18430142344E+04  0.18430142344E+04  0.00000000000E+00 0.  1.
         -2   -1    0    0    0  501 -0.00000000000E+00 -0.00000000000E+00 -0.50376819985E+00  0.50376819985E+00  0.00000000000E+00 0. -1.
          1    1    1    2  502    0 -0.30213445253E+02  0.37498238982E+01  0.95877739143E+03  0.95926065267E+03  0.00000000000E+00 0.  1.
         -1    1    1    2    0  501  0.30213445253E+02 -0.37498238982E+01  0.88373307480E+03  0.88425734996E+03  0.00000000000E+00 0. -1.
</event>
<event>
 4    1  0.1322546E+002  0.2989840E+02  0.7546771E-02  0.1420482E+00
          2   -1    0    0  502    0  0.00000000000E+00  0.00000000000E+00  0.20159191731E+02  0.20159191731E+02  0.00000000000E+00 0.  1.
         -2   -1    0    0    0  501 -0.00000000000E+00 -0.00000000000E+00 -0.46370666119E+02  0.46370666119E+02  0.00000000000E+00 0. -1.
          1    1    1    2  502    0  0.27565057593E+02 -0.11579367550E+02 -0.20062210279E+02  0.36005644477E+02  0.00000000000E+00 0. -1.
         -1    1    1    2    0  501 -0.27565057593E+02  0.11579367550E+02 -0.61492641099E+01  0.30524213373E+02  0.00000000000E+00 0.  1.
</event>
<event>
 4    1  0.1322546E+002  0.3254335E+02  0.7546771E-02  0.1398709E+00
          2   -1    0    0  502    0  0.00000000000E+00  0.00000000000E+00  0.64285612390E+02  0.64285612390E+02  0.00000000000E+00 0. -1.
         -2   -1    0    0    0  501 -0.00000000000E+00 -0.00000000000E+00 -0.18370790884E+02  0.18370790884E+02  0.00000000000E+00 0.  1.
          1    1    1    2  502    0 -0.26229154946E+02  0.19263975448E+02  0.36235701939E+02  0.48704162186E+02  0.00000000000E+00 0. -1.
         -1    1    1    2    0  501  0.26229154946E+02 -0.19263975448E+02  0.96791195667E+01  0.33952241087E+02  0.00000000000E+00 0.  1.
</event>
<event>
 4    1  0.1322546E+002  0.2103905E+02  0.7546771E-02  0.1518708E+00
          2   -1    0    0  502    0  0.00000000000E+00  0.00000000000E+00  0.28356153567E+02  0.28356153567E+02  0.00000000000E+00 0.  1.
         -2   -1    0    0    0  501 -0.00000000000E+00 -0.00000000000E+00 -0.19936806001E+02  0.19936806001E+02  0.00000000000E+00 0. -1.
          1    1    1    2  502    0 -0.47263005194E+01 -0.20501313007E+02  0.15458465152E+02  0.26107583122E+02  0.00000000000E+00 0.  1.
         -1    1    1    2    0  501  0.47263005194E+01  0.20501313007E+02 -0.70391175864E+01  0.22185376445E+02  0.00000000000E+00 0. -1.
</event>
<event>
 4    1  0.1322546E+002  0.2414345E+02  0.7546771E-02  0.1478618E+00
          2   -1    0    0  502    0  0.00000000000E+00  0.00000000000E+00  0.28992791755E+03  0.28992791755E+03  0.00000000000E+00 0. -1.
         -2   -1    0    0    0  501 -0.00000000000E+00 -0.00000000000E+00 -0.22142510908E+01  0.22142510908E+01  0.00000000000E+00 0.  1.
          1    1    1    2  502    0 -0.85711395327E+01  0.22570818184E+02  0.99549251990E+02  0.10243514943E+03  0.00000000000E+00 0.  1.
         -1    1    1    2    0  501  0.85711395327E+01 -0.22570818184E+02  0.18816441447E+03  0.18970701921E+03  0.00000000000E+00 0. -1.
</event>
<event>
 4    1  0.1322546E+002  0.2346038E+02  0.7546771E-02  0.1486797E+00
          2   -1    0    0  502    0  0.00000000000E+00  0.00000000000E+00  0.20148014395E+04  0.20148014395E+04  0.00000000000E+00 0. -1.
         -2   -1    0    0    0  501 -0.00000000000E+00 -0.00000000000E+00 -0.27334939161E+00  0.27334939161E+00  0.00000000000E+00 0.  1.
          1    1    1    2  502    0 -0.21416175456E+02 -0.95779244579E+01  0.98166463362E+03  0.98194492825E+03  0.00000000000E+00 0.  1.
         -1    1    1    2    0  501  0.21416175456E+02  0.95779244579E+01  0.10328634565E+04  0.10331298606E+04  0.00000000000E+00 0. -1.
</event>
<event>
 4    1  0.1322546E+002  0.3331393E+02  0.7546771E-02  0.1392821E+00
          2   -1    0    0  502    0  0.00000000000E+00  0.00000000000E+00  0.70682306574E+01  0.70682306574E+01  0.00000000000E+00 0.  1.
         -2   -1    0    0    0  501 -0.00000000000E+00 -0.00000000000E+00 -0.16396937790E+03  0.16396937790E+03  0.00000000000E+00 0. -1.
          1    1    1    2  502    0  0.36719833364E+01 -0.33110939282E+02 -0.96062687572E+02  0.10167525611E+03  0.00000000000E+00 0.  1.
         -1    1    1    2    0  501 -0.36719833364E+01  0.33110939282E+02 -0.60838459670E+02  0.69362352446E+02  0.00000000000E+00 0. -1.
</event>
<event>
 4    1  0.1322546E+002  0.3345087E+02  0.7546771E-02  0.1391794E+00
          2   -1    0    0  502    0  0.00000000000E+00  0.00000000000E+00  0.62383479652E+02  0.62383479652E+02  0.00000000000E+00 0.  1.
         -2   -1    0    0    0  501 -0.00000000000E+00 -0.00000000000E+00 -0.18763312749E+02  0.18763312749E+02  0.00000000000E+00 0. -1.
          1    1    1    2  502    0 -0.33374105284E+02 -0.22648406760E+01  0.30325573760E+02  0.45150867441E+02  0.00000000000E+00 0. -1.
         -1    1    1    2    0  501  0.33374105284E+02  0.22648406760E+01  0.13294593143E+02  0.35995924959E+02  0.00000000000E+00 0.  1.
</event>
<event>
 4    1  0.1322546E+002  0.2409989E+02  0.7546771E-02  0.1479130E+00
          2   -1    0    0  502    0  0.00000000000E+00  0.00000000000E+00  0.10676767030E+01  0.10676767030E+01  0.00000000000E+00 0. -1.
         -2   -1    0    0    0  501 -0.00000000000E+00 -0.00000000000E+00 -0.56432954218E+03  0.56432954218E+03  0.00000000000E+00 0.  1.
          1    1    1    2  502    0 -0.37169449510E+01 -0.23811530859E+02 -0.22796044451E+03  0.22923082022E+03  0.00000000000E+00 0. -1.
         -1    1    1    2    0  501  0.37169449510E+01  0.23811530859E+02 -0.33530142097E+03  0.33616639866E+03  0.00000000000E+00 0.  1.
</event>
<event>
 4    1  0.1322546E+002  0.2539243E+02  0.7546771E-02  0.1464461E+00
          2   -1    0    0  502    0  0.00000000000E+00  0.00000000000E+00  0.54876167489E+02  0.54876167489E+02  0.00000000000E+00 0. -1.
         -2   -1    0    0    0  501 -0.00000000000E+00 -0.00000000000E+00 -0.11755687636E+02  0.11755687636E+02  0.00000000000E+00 0.  1.
          1    1    1    2  502    0  0.21926710804E+02  0.12806042210E+02  0.20804762080E+02  0.32827023761E+02  0.00000000000E+00 0.  1.
         -1    1    1    2    0  501 -0.21926710804E+02 -0.12806042210E+02  0.22315717773E+02  0.33804831363E+02  0.00000000000E+00 0. -1.
</event>
<event>
 4    1  0.1322546E+002  0.2103343E+02  0.7546771E-02  0.1518788E+00
          2   -1    0    0  502    0  0.00000000000E+00  0.00000000000E+00  0.36913323971E+03  0.36913323971E+03  0.00000000000E+00 0.  1.
         -2   -1    0    0    0  501 -0.00000000000E+00 -0.00000000000E+00 -0.12720603467E+01  0.12720603467E+01  0.00000000000E+00 0. -1.
          1    1    1    2  502    0 -0.13650449671E+02  0.16002197640E+02  0.22846788892E+03  0.22943404580E+03  0.00000000000E+00 0.  1.
         -1    1    1    2    0  501  0.13650449671E+02 -0.16002197640E+02  0.13939329044E+03  0.14097125425E+03  0.00000000000E+00 0. -1.
</event>
<event>
 4    1  0.1322546E+002  0.2046178E+02  0.7546771E-02  0.1527090E+00
          2   -1    0    0  502    0  0.00000000000E+00  0.00000000000E+00  0.21866127339E+02  0.21866127339E+02  0.00000000000E+00 0.  1.
         -2   -1    0    0    0  501 -0.00000000000E+00 -0.00000000000E+00 -0.20617981606E+02  0.20617981606E+02  0.00000000000E+00 0. -1.
          1    1    1    2  502    0  0.19917192520E+02 -0.46893171053E+01 -0.50485749424E+01  0.21075397072E+02  0.00000000000E+00 0. -1.
         -1    1    1    2    0  501 -0.19917192520E+02  0.46893171053E+01  0.62967206750E+01  0.21408711873E+02  0.00000000000E+00 0.  1.
</event>
<event>
 4    1  0.1322546E+002  0.2025976E+02  0.7546771E-02  0.1530101E+00
          2   -1    0    0  502    0  0.00000000000E+00  0.00000000000E+00  0.19550620779E+03  0.19550620779E+03  0.00000000000E+00 0. -1.
         -2   -1    0    0    0  501 -0.00000000000E+00 -0.00000000000E+00 -0.21406346943E+01  0.21406346943E+01  0.00000000000E+00 0.  1.
          1    1    1    2  502    0  0.48132877817E+01  0.19679688592E+02  0.11038821085E+03  0.11223196949E+03  0.00000000000E+00 0. -1.
         -1    1    1    2    0  501 -0.48132877817E+01 -0.19679688592E+02  0.82977362250E+02  0.85414872992E+02  0.00000000000E+00 0.  1.
</event>
<event>
 4    1  0.1322546E+002  0.2114008E+02  0.7546771E-02  0.1517274E+00
          2   -1    0    0  502    0  0.00000000000E+00  0.00000000000E+00  0.50951323481E+02  0.50951323481E+02  0.00000000000E+00 0.  1.
         -2   -1    0    0    0  501 -0.00000000000E+00 -0.00000000000E+00 -0.35205006662E+02  0.35205006662E+02  0.00000000000E+00 0. -1.
          1    1    1    2  502    0  0.10220766139E+02  0.18505104587E+02 -0.29454869283E+02  0.36255927526E+02  0.00000000000E+00 0. -1.
         -1    1    1    2    0  501 -0.10220766139E+02 -0.18505104587E+02  0.45201186103E+02  0.49900402617E+02  0.00000000000E+00 0.  1.
</event>
<event>
 4    1  0.1322546E+002  0.3244315E+02  0.7546771E-02  0.1399488E+00
          2   -1    0    0  502    0  0.00000000000E+00  0.00000000000E+00  0.92242954042E+02  0.92242954042E+02  0.00000000000E+00 0.  1.
         -2   -1    0    0    0  501 -0.00000000000E+00 -0.00000000000E+00 -0.14915127476E+02  0.14915127476E+02  0.00000000000E+00 0. -1.
          1    1    1    2  502    0  0.91348409626E+01  0.31130575473E+02  0.12692889777E+02  0.34837730976E+02  0.00000000000E+00 0. -1.
         -1    1    1    2    0  501 -0.91348409626E+01 -0.31130575473E+02  0.64634936789E+02  0.72320350541E+02  0.00000000000E+00 0.  1.
</event>
<event>
 4    1  0.1322546E+002  0.3055296E+02  0.7546771E-02  0.1414851E+00
          2   -1    0    0  502    0  0.00000000000E+00  0.00000000000E+00  0.23784175459E+02  0.23784175459E+02  0.00000000000E+00 0.  1.
         -2   -1    0    0    0  501 -0.00000000000E+00 -0.00000000000E+00 -0.40249075340E+02  0.40249075340E+02  0.00000000000E+00 0. -1.
          1    1    1    2  502    0  0.28850764663E+02 -0.10055680011E+02 -0.31833646458E+01  0.30718351724E+02  0.00000000000E+00 0.  1.
         -1    1    1    2    0  501 -0.28850764663E+02  0.10055680011E+02 -0.13281535236E+02  0.33314899075E+02  0.00000000000E+00 0. -1.
</event>
<event>
 4    1  0.1322546E+002  0.2258541E+02  0.7546771E-02  0.1497771E+00
          2   -1    0    0  502    0  0.00000000000E+00  0.00000000000E+00  0.52544857563E+03  0.52544857563E+03  0.00000000000E+00 0.  1.
         -2   -1    0    0    0  501 -0.00000000000E+00 -0.00000000000E+00 -0.16037839129E+01  0.16037839129E+01  0.00000000000E+00 0. -1.
          1    1    1    2  502    0 -0.20006773903E+02  0.10479974182E+02  0.96364388712E+02  0.98975735778E+02  0.00000000000E+00 0. -1.
         -1    1    1    2    0  501  0.20006773903E+02 -0.10479974182E+02  0.42748040300E+03  0.42807662376E+03  0.00000000000E+00 0.  1.
</event>
<event>
 4    1  0.1322546E+002  0.2042883E+02  0.7546771E-02  0.1527578E+00
          2   -1    0    0  502    0  0.00000000000E+00  0.00000000000E+00  0.15398385111E+04  0.15398385111E+04  0.00000000000E+00 0. -1.
         -2   -1    0    0    0  501 -0.00000000000E+00 -0.00000000000E+00 -0.28106261962E+00  0.28106261962E+00  0.00000000000E+00 0.  1.
          1    1    1    2  502    0  0.17781902988E+02  0.10056888852E+02  0.91529285931E+03  0.91552081101E+03  0.00000000000E+00 0. -1.
         -1    1    1    2    0  501 -0.17781902988E+02 -0.10056888852E+02  0.62426458920E+03  0.62459876274E+03  0.00000000000E+00 0.  1.
</event>
<event>
 4    1  0.1322546E+002  0.2553507E+02  0.7546771E-02  0.1462906E+00
          2   -1    0    0  502    0  0.00000000000E+00  0.00000000000E+00  0.42251222758E+03  0.42251222758E+03  0.00000000000E+00 0.  1.
         -2   -1    0    0    0  501 -0.00000000000E+00 -0.00000000000E+00 -0.16566439851E+01  0.16566439851E+01  0.00000000000E+00 0. -1.
          1    1    1    2  502    0 -0.14493508801E+02 -0.21023272372E+02  0.26591581583E+03  0.26713902914E+03  0.00000000000E+00 0.  1.
         -1    1    1    2    0  501  0.14493508801E+02  0.21023272372E+02  0.15493976776E+03  0.15702984243E+03  0.00000000000E+00 0. -1.
</event>
<event>
 4    1  0.1322546E+002  0.8872459E+02  0.7546771E-02  0.1184925E+00
          2   -1    0    0  502    0  0.00000000000E+00  0.00000000000E+00  0.54612999135E+03  0.54612999135E+03  0.00000000000E+00 0.  1.
         -2   -1    0    0    0  501 -0.00000000000E+00 -0.00000000000E+00 -0.15228743187E+02  0.15228743187E+02  0.00000000000E+00 0. -1.
          1    1    1    2  502    0 -0.88365371694E+02 -0.79758521467E+01  0.20053896338E+03  0.21928960068E+03  0.00000000000E+00 0. -1.
         -1    1    1    2    0  501  0.88365371694E+02  0.79758521467E+01  0.33036228478E+03  0.34206913386E+03  0.00000000000E+00 0.  1.
</event>
<event>
 4    1  0.1322546E+002  0.2403865E+02  0.7546771E-02  0.1479852E+00
          2   -1    0    0  502    0  0.00000000000E+00  0.00000000000E+00  0.55924094104E+02  0.55924094104E+02  0.00000000000E+00 0. -1.
         -2   -1    0    0    0  501 -0.00000000000E+00 -0.00000000000E+00 -0.16579337612E+02  0.16579337612E+02  0.00000000000E+00 0.  1.
          1    1    1    2  502    0  0.16582145152E+02 -0.17403705171E+02 -0.25792689460E+01  0.24176623416E+02  0.00000000000E+00 0.  1.
         -1    1    1    2    0  501 -0.16582145152E+02  0.17403705171E+02  0.41924025438E+02  0.48326808300E+02  0.00000000000E+00 0. -1.
</event>
<event>
 4    1  0.1322546E+002  0.3395222E+02  0.7546771E-02  0.1388083E+00
          2   -1    0    0  502    0  0.00000000000E+00  0.00000000000E+00  0.49674348627E+01  0.49674348627E+01  0.00000000000E+00 0.  1.
         -2   -1    0    0    0  501 -0.00000000000E+00 -0.00000000000E+00 -0.29051955068E+03  0.29051955068E+03  0.00000000000E+00 0. -1.
          1    1    1    2  502    0 -0.33280552505E+02  0.67199549310E+01 -0.20904971135E+03  0.21178889202E+03  0.00000000000E+00 0. -1.
         -1    1    1    2    0  501  0.33280552505E+02 -0.67199549310E+01 -0.76502404467E+02  0.83698093519E+02  0.00000000000E+00 0.  1.
</event>
<event>
 4    1  0.1322546E+002  0.5451815E+02  0.7546771E-02  0.1279688E+00
          2   -1    0    0  502    0  0.00000000000E+00  0.00000000000E+00  0.16961053572E+03  0.16961053572E+03  0.00000000000E+00 0.  1.
         -2   -1    0    0    0  501 -0.00000000000E+00 -0.00000000000E+00 -0.77977275012E+02  0.77977275012E+02  0.00000000000E+00 0. -1.
          1    1    1    2  502    0 -0.13267056647E+02 -0.52879239079E+02 -0.63183172072E+02  0.83452632977E+02  0.00000000000E+00 0. -1.
         -1    1    1    2    0  501  0.13267056647E+02  0.52879239079E+02  0.15481643279E+03  0.16413517776E+03  0.00000000000E+00 0.  1.
</event>
<event>
 4    1  0.1322546E+002  0.2139782E+02  0.7546771E-02  0.1513660E+00
          2   -1    0    0  502    0  0.00000000000E+00  0.00000000000E+00  0.22335783948E+03  0.22335783948E+03  0.00000000000E+00 0.  1.
         -2   -1    0    0    0  501 -0.00000000000E+00 -0.00000000000E+00 -0.23881194293E+01  0.23881194293E+01  0.00000000000E+00 0. -1.
          1    1    1    2  502    0 -0.10480869406E+02  0.18655237027E+02  0.15296110658E+03  0.15445053130E+03  0.00000000000E+00 0.  1.
         -1    1    1    2    0  501  0.10480869406E+02 -0.18655237027E+02  0.68008613469E+02  0.71295427609E+02  0.00000000000E+00 0. -1.
</event>
<event>
 4    1  0.1322546E+002  0.4723436E+02  0.7546771E-02  0.1310630E+00
          2   -1    0    0  502    0  0.00000000000E+00  0.00000000000E+00  0.15504746818E+04  0.15504746818E+04  0.00000000000E+00 0.  1.
         -2   -1    0    0    0  501 -0.00000000000E+00 -0.00000000000E+00 -0.14578976391E+01  0.14578976391E+01  0.00000000000E+00 0. -1.
          1    1    1    2  502    0 -0.22635586626E+02 -0.41457386703E+02  0.86292651962E+03  0.86421829590E+03  0.00000000000E+00 0.  1.
         -1    1    1    2    0  501  0.22635586626E+02  0.41457386703E+02  0.68609026449E+03  0.68771428350E+03  0.00000000000E+00 0. -1.
</event>
<event>
 4    1  0.1322546E+002  0.2169001E+02  0.7546771E-02  0.1509637E+00
          2   -1    0    0  502    0  0.00000000000E+00  0.00000000000E+00  0.19885266817E+02  0.19885266817E+02  0.00000000000E+00 0. -1.
         -2   -1    0    0    0  501 -0.00000000000E+00 -0.00000000000E+00 -0.28790517148E+02  0.28790517148E+02  0.00000000000E+00 0.  1.
          1    1    1    2  502    0  0.19293356030E+02  0.99107516204E+01  0.58228082345E+01  0.22457998137E+02  0.00000000000E+00 0. -1.
         -1    1    1    2    0  501 -0.19293356030E+02 -0.99107516204E+01 -0.14728058566E+02  0.26217785827E+02  0.00000000000E+00 0.  1.
</event>
<event>
 4    1  0.1322546E+002  0.5162261E+02  0.7546771E-02  0.1291287E+00
          2   -1    0    0  502    0  0.00000000000E+00  0.00000000000E+00  0.26164692386E+04  0.26164692386E+04  0.00000000000E+00 0. -1.
         -2   -1    0    0    0  501 -0.00000000000E+00 -0.00000000000E+00 -0.21676435024E+01  0.21676435024E+01  0.00000000000E+00 0.  1.
          1    1    1    2  502    0 -0.27843232787E+02 -0.43470086106E+02  0.22604671406E+04  0.22610565202E+04  0.00000000000E+00 0. -1.
         -1    1    1    2    0  501  0.27843232787E+02  0.43470086106E+02  0.35383445446E+03  0.35758036182E+03  0.00000000000E+00 0.  1.
</event>
<event>
 4    1  0.1322546E+002  0.4889749E+02  0.7546771E-02  0.1303025E+00
          2   -1    0    0  502    0  0.00000000000E+00  0.00000000000E+00  0.92093840394E+03  0.92093840394E+03  0.00000000000E+00 0. -1.
         -2   -1    0    0    0  501 -0.00000000000E+00 -0.00000000000E+00 -0.29038143474E+01  0.29038143474E+01  0.00000000000E+00 0.  1.
          1    1    1    2  502    0  0.46928695708E+02  0.13735417077E+02  0.60935515885E+03  0.61131389137E+03  0.00000000000E+00 0. -1.
         -1    1    1    2    0  501 -0.46928695708E+02 -0.13735417077E+02  0.30867943075E+03  0.31252832692E+03  0.00000000000E+00 0.  1.
</event>
<event>
 4    1  0.1322546E+002  0.4902919E+02  0.7546771E-02  0.1302437E+00
          2   -1    0    0  502    0  0.00000000000E+00  0.00000000000E+00  0.70088614981E+01  0.70088614981E+01  0.00000000000E+00 0.  1.
         -2   -1    0    0    0  501 -0.00000000000E+00 -0.00000000000E+00 -0.36120072424E+03  0.36120072424E+03  0.00000000000E+00 0. -1.
          1    1    1    2  502    0 -0.46009322213E+02 -0.16941186009E+02 -0.21845186931E+03  0.22388631204E+03  0.00000000000E+00 0. -1.
         -1    1    1    2    0  501  0.46009322213E+02  0.16941186009E+02 -0.13573999342E+03  0.14432327369E+03  0.00000000000E+00 0.  1.
</event>
<event>
 4    1  0.1322546E+002  0.2037833E+02  0.7546771E-02  0.1528329E+00
          2   -1    0    0  502    0  0.00000000000E+00  0.00000000000E+00  0.39091701774E+03  0.39091701774E+03  0.00000000000E+00 0.  1.
         -2   -1    0    0    0  501 -0.00000000000E+00 -0.00000000000E+00 -0.12189306696E+01  0.12189306696E+01  0.00000000000E+00 0. -1.
          1    1    1    2  502    0  0.17001060862E+02  0.11235667777E+02  0.12456814804E+03  0.12622400646E+03  0.00000000000E+00 0. -1.
         -1    1    1    2    0  501 -0.17001060862E+02 -0.11235667777E+02  0.26512993903E+03  0.26591194195E+03  0.00000000000E+00 0.  1.
</event>
<event>
 4    1  0.1322546E+002  0.4276692E+02  0.7546771E-02  0.1332992E+00
          2   -1    0    0  502    0  0.00000000000E+00  0.00000000000E+00  0.76336400744E+03  0.76336400744E+03  0.00000000000E+00 0. -1.
         -2   -1    0    0    0  501 -0.00000000000E+00 -0.00000000000E+00 -0.27954054092E+01  0.27954054092E+01  0.00000000000E+00 0.  1.
          1    1    1    2  502    0 -0.38502378556E+02 -0.18616554496E+02  0.52508860941E+03  0.52682735027E+03  0.00000000000E+00 0.  1.
         -1    1    1    2    0  501  0.38502378556E+02  0.18616554496E+02  0.23547999261E+03  0.23933206258E+03  0.00000000000E+00 0. -1.
</event>
<event>
 4    1  0.1322546E+002  0.2196175E+02  0.7546771E-02  0.1505964E+00
          2   -1    0    0  502    0  0.00000000000E+00  0.00000000000E+00  0.26585840597E+02  0.26585840597E+02  0.00000000000E+00 0.  1.
         -2   -1    0    0    0  501 -0.00000000000E+00 -0.00000000000E+00 -0.20861226860E+02  0.20861226860E+02  0.00000000000E+00 0. -1.
          1    1    1    2  502    0 -0.95469234585E+01  0.19778138643E+02 -0.57028948872E+01  0.22690119563E+02  0.00000000000E+00 0. -1.
         -1    1    1    2    0  501  0.95469234585E+01 -0.19778138643E+02  0.11427508624E+02  0.24756947895E+02  0.00000000000E+00 0.  1.
</event>
<event>
 4    1  0.1322546E+002  0.4465368E+02  0.7546771E-02  0.1323180E+00
          2   -1    0    0  502    0  0.00000000000E+00  0.00000000000E+00  0.19597337782E+03  0.19597337782E+03  0.00000000000E+00 0. -1.
         -2   -1    0    0    0  501 -0.00000000000E+00 -0.00000000000E+00 -0.10564387760E+02  0.10564387760E+02  0.00000000000E+00 0.  1.
          1    1    1    2  502    0  0.17049491059E+02  0.41270640242E+02  0.11254080801E+03  0.12107594459E+03  0.00000000000E+00 0. -1.
         -1    1    1    2    0  501 -0.17049491059E+02 -0.41270640242E+02  0.72868182050E+02  0.85461820988E+02  0.00000000000E+00 0.  1.
</event>
<event>
 4    1  0.1322546E+002  0.2672114E+02  0.7546771E-02  0.1450430E+00
          2   -1    0    0  502    0  0.00000000000E+00  0.00000000000E+00  0.15548891948E+03  0.15548891948E+03  0.00000000000E+00 0. -1.
         -2   -1    0    0    0  501 -0.00000000000E+00 -0.00000000000E+00 -0.95374909078E+01  0.95374909078E+01  0.00000000000E+00 0.  1.
          1    1    1    2  502    0 -0.19597735980E+02 -0.18164473455E+02  0.13559213197E+02  0.29964505902E+02  0.00000000000E+00 0.  1.
         -1    1    1    2    0  501  0.19597735980E+02  0.18164473455E+02  0.13239221537E+03  0.13506190448E+03  0.00000000000E+00 0. -1.
</event>
<event>
 4    1  0.1322546E+002  0.2667436E+02  0.7546771E-02  0.1450907E+00
          2   -1    0    0  502    0  0.00000000000E+00  0.00000000000E+00  0.12656685000E+03  0.12656685000E+03  0.00000000000E+00 0.  1.
         -2   -1    0    0    0  501 -0.00000000000E+00 -0.00000000000E+00 -0.66530240752E+01  0.66530240752E+01  0.00000000000E+00 0. -1.
          1    1    1    2  502    0  0.26554951724E+02  0.25211033462E+01  0.33731271602E+02  0.43003722014E+02  0.00000000000E+00 0. -1.
         -1    1    1    2    0  501 -0.26554951724E+02 -0.25211033462E+01  0.86182554324E+02  0.90216152062E+02  0.00000000000E+00 0.  1.
</event>
<event>
 4    1  0.1322546E+002  0.3213341E+02  0.7546771E-02  0.1401920E+00
          2   -1    0    0  502    0  0.00000000000E+00  0.00000000000E+00  0.40257330441E+01  0.40257330441E+01  0.00000000000E+00 0.  1.
         -2   -1    0    0    0  501 -0.00000000000E+00 -0.00000000000E+00 -0.25672547011E+03  0.25672547011E+03  0.00000000000E+00 0. -1.
          1    1    1    2  502    0  0.13899291421E+02  0.28971808884E+02 -0.13030720149E+03  0.13421074015E+03  0.00000000000E+00 0. -1.
         -1    1    1    2    0  501 -0.13899291421E+02 -0.28971808884E+02 -0.12239253557E+03  0.12654046300E+03  0.00000000000E+00 0.  1.
</event>
<event>
 4    1  0.1322546E+002  0.3039551E+02  0.7546771E-02  0.1416190E+00
          2   -1    0    0  502    0  0.00000000000E+00  0.00000000000E+00  0.65575970119E+03  0.65575970119E+03  0.00000000000E+00 0.  1.
         -2   -1    0    0    0  501 -0.00000000000E+00 -0.00000000000E+00 -0.26035873911E+01  0.26035873911E+01  0.00000000000E+00 0. -1.
          1    1    1    2  502    0  0.27654869771E+02 -0.12613302751E+02  0.54956537639E+03  0.55040529626E+03  0.00000000000E+00 0.  1.
         -1    1    1    2    0  501 -0.27654869771E+02  0.12613302751E+02  0.10359073741E+03  0.10795799232E+03  0.00000000000E+00 0. -1.
</event>
<event>
 4    1  0.1322546E+002  0.2062063E+02  0.7546771E-02  0.1524751E+00
          2   -1    0    0  502    0  0.00000000000E+00  0.00000000000E+00  0.18661389552E+04  0.18661389552E+04  0.00000000000E+00 0.  1.
         -2   -1    0    0    0  501 -0.00000000000E+00 -0.00000000000E+00 -0.24653272543E+00  0.24653272543E+00  0.00000000000E+00 0. -1.
          1    1    1    2  502    0 -0.19690479752E+02 -0.61233525760E+01  0.11898009958E+04  0.11899796722E+04  0.00000000000E+00 0. -1.
         -1    1    1    2    0  501  0.19690479752E+02  0.61233525760E+01  0.67609142664E+03  0.67640581577E+03  0.00000000000E+00 0.  1.
</event>
<event>
 4    1  0.1322546E+002  0.2553667E+02  0.7546771E-02  0.1462888E+00
          2   -1    0    0  502    0  0.00000000000E+00  0.00000000000E+00  0.10101850250E+02  0.10101850250E+02  0.00000000000E+00 0.  1.
         -2   -1    0    0    0  501 -0.00000000000E+00 -0.00000000000E+00 -0.65909614535E+02  0.65909614535E+02  0.00000000000E+00 0. -1.
          1    1    1    2  502    0 -0.88775115930E+01  0.23943916388E+02 -0.22454595092E+02  0.34004855313E+02  0.00000000000E+00 0. -1.
         -1    1    1    2    0  501  0.88775115930E+01 -0.23943916388E+02 -0.33353169193E+02  0.42006609472E+02  0.00000000000E+00 0.  1.
</event>
<event>
 4    1  0.1322546E+002  0.3495873E+02  0.7546771E-02  0.1380854E+00
          2   -1    0    0  502    0  0.00000000000E+00  0.00000000000E+00  0.62683326859E+02  0.62683326859E+02  0.00000000000E+00 0. -1.
         -2   -1    0    0    0  501 -0.00000000000E+00 -0.00000000000E+00 -0.43593324304E+02  0.43593324304E+02  0.00000000000E+00 0.  1.
          1    1    1    2  502    0 -0.32598926937E+02 -0.12626271215E+02 -0.29962242319E+02  0.46041814984E+02  0.00000000000E+00 0.  1.
         -1    1    1    2    0  501  0.32598926937E+02  0.12626271215E+02  0.49052244874E+02  0.60234836178E+02  0.00000000000E+00 0. -1.
</event>
<event>
 4    1  0.1322546E+002  0.4212818E+02  0.7546771E-02  0.1336447E+00
          2   -1    0    0  502    0  0.00000000000E+00  0.00000000000E+00  0.12393391663E+03  0.12393391663E+03  0.00000000000E+00 0.  1.
         -2   -1    0    0    0  501 -0.00000000000E+00 -0.00000000000E+00 -0.14386366827E+02  0.14386366827E+02  0.00000000000E+00 0. -1.
          1    1    1    2  502    0  0.42013741644E+02 -0.31030896278E+01  0.59456866834E+02  0.72869078942E+02  0.00000000000E+00 0.  1.
         -1    1    1    2    0  501 -0.42013741644E+02  0.31030896278E+01  0.50090682968E+02  0.65451204515E+02  0.00000000000E+00 0. -1.
</event>
<event>
 4    1  0.1322546E+002  0.4340782E+02  0.7546771E-02  0.1329595E+00
          2   -1    0    0  502    0  0.00000000000E+00  0.00000000000E+00  0.11539196464E+04  0.11539196464E+04  0.00000000000E+00 0.  1.
         -2   -1    0    0    0  501 -0.00000000000E+00 -0.00000000000E+00 -0.16768114570E+01  0.16768114570E+01  0.00000000000E+00 0. -1.
          1    1    1    2  502    0  0.17389411511E+02 -0.39772447070E+02  0.66962037731E+03  0.67102584815E+03  0.00000000000E+00 0. -1.
         -1    1    1    2    0  501 -0.17389411511E+02  0.39772447070E+02  0.48262245764E+03  0.48457060972E+03  0.00000000000E+00 0.  1.
</event>
<event>
 4    1  0.1322546E+002  0.2413522E+02  0.7546771E-02  0.1478715E+00
          2   -1    0    0  502    0  0.00000000000E+00  0.00000000000E+00  0.35411503037E+03  0.35411503037E+03  0.00000000000E+00 0. -1.
         -2   -1    0    0    0  501 -0.00000000000E+00 -0.00000000000E+00 -0.17752566867E+01  0.17752566867E+01  0.00000000000E+00 0.  1.
          1    1    1    2  502    0 -0.23242782437E+02 -0.65024415371E+01  0.12796343076E+03  0.13021961562E+03  0.00000000000E+00 0. -1.
         -1    1    1    2    0  501  0.23242782437E+02  0.65024415371E+01  0.22437634293E+03  0.22567067144E+03  0.00000000000E+00 0.  1.
</event>
<event>
 4    1  0.1322546E+002  0.2159332E+02  0.7546771E-02  0.1510960E+00
          2   -1    0    0  502    0  0.00000000000E+00  0.00000000000E+00  0.12439335996E+04  0.12439335996E+04  0.00000000000E+00 0.  1.
         -2   -1    0    0    0  501 -0.00000000000E+00 -0.00000000000E+00 -0.12207696250E+01  0.12207696250E+01  0.00000000000E+00 0. -1.
          1    1    1    2  502    0 -0.91403329601E+01 -0.19563381684E+02  0.11396124711E+04  0.11398170274E+04  0.00000000000E+00 0.  1.
         -1    1    1    2    0  501  0.91403329601E+01  0.19563381684E+02  0.10310035888E+03  0.10533734186E+03  0.00000000000E+00 0. -1.
</event>
<event>
 4    1  0.1322546E+002  0.2394823E+02  0.7546771E-02  0.1480922E+00
          2   -1    0    0  502    0  0.00000000000E+00  0.00000000000E+00  0.53832444512E+03  0.53832444512E+03  0.00000000000E+00 0. -1.
         -2   -1    0    0    0  501 -0.00000000000E+00 -0.00000000000E+00 -0.10942802320E+01  0.10942802320E+01  0.00000000000E+00 0.  1.
          1    1    1    2  502    0  0.23923993074E+02  0.10771744811E+01  0.22478067110E+03  0.22605279881E+03  0.00000000000E+00 0. -1.
         -1    1    1    2    0  501 -0.23923993074E+02 -0.10771744811E+01  0.31244949379E+03  0.31336592654E+03  0.00000000000E+00 0.  1.
</event>
<event>
 4    1  0.1322546E+002  0.3146172E+02  0.7546771E-02  0.1407306E+00
          2   -1    0    0  502    0  0.00000000000E+00  0.00000000000E+00  0.12373346839E+04  0.12373346839E+04  0.00000000000E+00 0.  1.
         -2   -1    0    0    0  501 -0.00000000000E+00 -0.00000000000E+00 -0.29017849022E+01  0.29017849022E+01  0.00000000000E+00 0. -1.
          1    1    1    2  502    0  0.37672090949E+00 -0.31459465850E+02  0.89454164004E+02  0.94825562839E+02  0.00000000000E+00 0. -1.
         -1    1    1    2    0  501 -0.37672090949E+00  0.31459465850E+02  0.11449787350E+04  0.11454109060E+04  0.00000000000E+00 0.  1.
</event>
<event>
 4    1  0.1322546E+002  0.4357256E+02  0.7546771E-02  0.1328733E+00
          2   -1    0    0  502    0  0.00000000000E+00  0.00000000000E+00  0.76427170523E+02  0.76427170523E+02  0.00000000000E+00 0.  1.
         -2   -1    0    0    0  501 -0.00000000000E+00 -0.00000000000E+00 -0.25923755186E+02  0.25923755186E+02  0.00000000000E+00 0. -1.
          1    1    1    2  502    0  0.49837619841E+00 -0.43569713390E+02  0.14795590311E+02  0.46016060201E+02  0.00000000000E+00 0. -1.
         -1    1    1    2    0  501 -0.49837619841E+00  0.43569713390E+02  0.35707825026E+02  0.56334865508E+02  0.00000000000E+00 0.  1.
</event>
<event>
 4    1  0.1322546E+002  0.2978930E+02  0.7546771E-02  0.1421436E+00
          2   -1    0    0  502    0  0.00000000000E+00  0.00000000000E+00  0.21362234813E+04  0.21362234813E+04  0.00000000000E+00 0.  1.
         -2   -1    0    0    0  501 -0.00000000000E+00 -0.00000000000E+00 -0.71018890190E+00  0.71018890190E+00  0.00000000000E+00 0. -1.
          1    1    1    2  502    0  0.28398817856E+02 -0.89949756190E+01  0.37938269744E+03  0.38055043497E+03  0.00000000000E+00 0. -1.
         -1    1    1    2    0  501 -0.28398817856E+02  0.89949756190E+01  0.17561305950E+04  0.17563832353E+04  0.00000000000E+00 0.  1.
</event>
<event>
 4    1  0.1322546E+002  0.2229543E+02  0.7546771E-02  0.1501540E+00
          2   -1    0    0  502    0  0.00000000000E+00  0.00000000000E+00  0.99630516736E+03  0.99630516736E+03  0.00000000000E+00 0. -1.
         -2   -1    0    0    0  501 -0.00000000000E+00 -0.00000000000E+00 -0.50068179389E+00  0.50068179389E+00  0.00000000000E+00 0.  1.
          1    1    1    2  502    0 -0.22258973060E+02  0.12745373444E+01  0.46841953850E+03  0.46894983780E+03  0.00000000000E+00 0.  1.
         -1    1    1    2    0  501  0.22258973060E+02 -0.12745373444E+01  0.52738494707E+03  0.52785601135E+03  0.00000000000E+00 0. -1.
</event>
<event>
 4    1  0.1322546E+002  0.4415562E+02  0.7546771E-02  0.1325716E+00
          2   -1    0    0  502    0  0.00000000000E+00  0.00000000000E+00  0.70434230713E+03  0.70434230713E+03  0.00000000000E+00 0. -1.
         -2   -1    0    0    0  501 -0.00000000000E+00 -0.00000000000E+00 -0.37214164077E+01  0.37214164077E+01  0.00000000000E+00 0.  1.
          1    1    1    2  502    0  0.93816534583E+01  0.43147461907E+02  0.52949368576E+03  0.53133161223E+03  0.00000000000E+00 0. -1.
         -1    1    1    2    0  501 -0.93816534583E+01 -0.43147461907E+02  0.17112720496E+03  0.17673211131E+03  0.00000000000E+00 0.  1.
</event>
<event>
 4    1  0.1322546E+002  0.5661474E+02  0.7546771E-02  0.1271790E+00
          2   -1    0    0  502    0  0.00000000000E+00  0.00000000000E+00  0.12931796961E+04  0.12931796961E+04  0.00000000000E+00 0.  1.
         -2   -1    0    0    0  501 -0.00000000000E+00 -0.00000000000E+00 -0.12495414213E+02  0.12495414213E+02  0.00000000000E+00 0. -1.
          1    1    1    2  502    0  0.56577533461E+02 -0.20523194202E+01  0.55827519040E+02  0.79510635702E+02  0.00000000000E+00 0. -1.
         -1    1    1    2    0  501 -0.56577533461E+02  0.20523194202E+01  0.12248567629E+04  0.12261644746E+04  0.00000000000E+00 0.  1.
</event>
<event>
 4    1  0.1322546E+002  0.6498476E+02  0.7546771E-02  0.1243776E+00
          2   -1    0    0  502    0  0.00000000000E+00  0.00000000000E+00  0.13204314056E+04  0.13204314056E+04  0.00000000000E+00 0. -1.
         -2   -1    0    0    0  501 -0.00000000000E+00 -0.00000000000E+00 -0.41160447045E+01  0.41160447045E+01  0.00000000000E+00 0.  1.
          1    1    1    2  502    0  0.49039988951E+02  0.42639168905E+02  0.97089470965E+03  0.97306708734E+03  0.00000000000E+00 0. -1.
         -1    1    1    2    0  501 -0.49039988951E+02 -0.42639168905E+02  0.34542065122E+03  0.35148036294E+03  0.00000000000E+00 0.  1.
</event>
<event>
 4    1  0.1322546E+002  0.2089605E+02  0.7546771E-02  0.1520754E+00
          2   -1    0    0  502    0  0.00000000000E+00  0.00000000000E+00  0.14786055986E+04  0.14786055986E+04  0.00000000000E+00 0.  1.
         -2   -1    0    0    0  501 -0.00000000000E+00 -0.00000000000E+00 -0.29571066494E+00  0.29571066494E+00  0.00000000000E+00 0. -1.
          1    1    1    2  502    0  0.95790178351E+01 -0.18571146426E+02  0.76641850203E+03  0.76670330984E+03  0.00000000000E+00 0.  1.
         -1    1    1    2    0  501 -0.95790178351E+01  0.18571146426E+02  0.71189138592E+03  0.71219799944E+03  0.00000000000E+00 0. -1.
</event>
<event>
 4    1  0.1322546E+002  0.2026239E+02  0.7546771E-02  0.1530062E+00
          2   -1    0    0  502    0  0.00000000000E+00  0.00000000000E+00  0.12250395053E+03  0.12250395053E+03  0.00000000000E+00 0.  1.
         -2   -1    0    0    0  501 -0.00000000000E+00 -0.00000000000E+00 -0.37134369594E+01  0.37134369594E+01  0.00000000000E+00 0. -1.
          1    1    1    2  502    0 -0.12654635968E+02  0.15824811108E+02  0.79099262060E+02  0.81653277439E+02  0.00000000000E+00 0. -1.
         -1    1    1    2    0  501  0.12654635968E+02 -0.15824811108E+02  0.39691251507E+02  0.44564110047E+02  0.00000000000E+00 0.  1.
</event>
<event>
 4    1  0.1322546E+002  0.2020470E+02  0.7546771E-02  0.1530929E+00
          2   -1    0    0  502    0  0.00000000000E+00  0.00000000000E+00  0.33328326810E+03  0.33328326810E+03  0.00000000000E+00 0.  1.
         -2   -1    0    0    0  501 -0.00000000000E+00 -0.00000000000E+00 -0.16060196458E+01  0.16060196458E+01  0.00000000000E+00 0. -1.
          1    1    1    2  502    0  0.16773200959E+02 -0.11264533556E+02  0.24741066999E+03  0.24823430386E+03  0.00000000000E+00 0.  1.
         -1    1    1    2    0  501 -0.16773200959E+02  0.11264533556E+02  0.84266578464E+02  0.86654983888E+02  0.00000000000E+00 0. -1.
</event>
<event>
 4    1  0.1322546E+002  0.2287591E+02  0.7546771E-02  0.1494062E+00
          2   -1    0    0  502    0  0.00000000000E+00  0.00000000000E+00  0.10228738687E+04  0.10228738687E+04  0.00000000000E+00 0. -1.
         -2   -1    0    0    0  501 -0.00000000000E+00 -0.00000000000E+00 -0.53148124146E+00  0.53148124146E+00  0.00000000000E+00 0.  1.
          1    1    1    2  502    0 -0.21318289492E+02 -0.82968513288E+01  0.61012733160E+03  0.61055603180E+03  0.00000000000E+00 0. -1.
         -1    1    1    2    0  501  0.21318289492E+02  0.82968513288E+01  0.41221505588E+03  0.41284931815E+03  0.00000000000E+00 0.  1.
</event>
<event>
 4    1  0.1322546E+002  0.2053664E+02  0.7546771E-02  0.1525984E+00
          2   -1    0    0  502    0  0.00000000000E+00  0.00000000000E+00  0.35803411230E+00  0.35803411230E+00  0.00000000000E+00 0. -1.
         -2   -1    0    0    0  501 -0.00000000000E+00 -0.00000000000E+00 -0.12003660490E+04  0.12003660490E+04  0.00000000000E+00 0.  1.
          1    1    1    2  502    0 -0.20132810982E+02 -0.40525735735E+01 -0.68200940174E+03  0.68231853082E+03  0.00000000000E+00 0. -1.
         -1    1    1    2    0  501  0.20132810982E+02  0.40525735735E+01 -0.51799861314E+03  0.51840555229E+03  0.00000000000E+00 0.  1.
</event>
<event>
 4    1  0.1322546E+002  0.2761051E+02  0.7546771E-02  0.1441570E+00
          2   -1    0    0  502    0  0.00000000000E+00  0.00000000000E+00  0.81549478060E+03  0.81549478060E+03  0.00000000000E+00 0. -1.
         -2   -1    0    0    0  501 -0.00000000000E+00 -0.00000000000E+00 -0.10488359371E+01  0.10488359371E+01  0.00000000000E+00 0.  1.
          1    1    1    2  502    0 -0.20820342447E+02  0.18134325340E+02  0.27261234016E+03  0.27400698609E+03  0.00000000000E+00 0.  1.
         -1    1    1    2    0  501  0.20820342447E+02 -0.18134325340E+02  0.54183360450E+03  0.54253663045E+03  0.00000000000E+00 0. -1.
</event>
<event>
 4    1  0.1322546E+002  0.2447633E+02  0.7546771E-02  0.1474748E+00
          2   -1    0    0  502    0  0.00000000000E+00  0.00000000000E+00  0.14586359030E+02  0.14586359030E+02  0.00000000000E+00 0. -1.
         -2   -1    0    0    0  501 -0.00000000000E+00 -0.00000000000E+00 -0.60624333043E+02  0.60624333043E+02  0.00000000000E+00 0.  1.
          1    1    1    2  502    0 -0.17298298667E+02 -0.17316447583E+02 -0.44375273283E+02  0.50677957463E+02  0.00000000000E+00 0.  1.
         -1    1    1    2    0  501  0.17298298667E+02  0.17316447583E+02 -0.16627007294E+01  0.24532734609E+02  0.00000000000E+00 0. -1.
</event>
<event>
 4    1  0.1322546E+002  0.4819242E+02  0.7546771E-02  0.1306206E+00
          2   -1    0    0  502    0  0.00000000000E+00  0.00000000000E+00  0.13131094412E+03  0.13131094412E+03  0.00000000000E+00 0. -1.
         -2   -1    0    0    0  501 -0.00000000000E+00 -0.00000000000E+00 -0.19669710410E+02  0.19669710410E+02  0.00000000000E+00 0.  1.
          1    1    1    2  502    0  0.24924062939E+02 -0.41246819886E+02  0.79787503938E+02  0.93212417890E+02  0.00000000000E+00 0. -1.
         -1    1    1    2    0  501 -0.24924062939E+02  0.41246819886E+02  0.31853729769E+02  0.57768236638E+02  0.00000000000E+00 0.  1.
</event>
<event>
 4    1  0.1322546E+002  0.2001402E+02  0.7546771E-02  0.1533821E+00
          2   -1    0    0  502    0  0.00000000000E+00  0.00000000000E+00  0.22326161892E+02  0.22326161892E+02  0.00000000000E+00 0.  1.
         -2   -1    0    0    0  501 -0.00000000000E+00 -0.00000000000E+00 -0.19289988966E+02  0.19289988966E+02  0.00000000000E+00 0. -1.
          1    1    1    2  502    0 -0.95619890118E+01 -0.17582072847E+02 -0.39838788974E+01  0.20406670736E+02  0.00000000000E+00 0.  1.
         -1    1    1    2    0  501  0.95619890118E+01  0.17582072847E+02  0.70200518239E+01  0.21209480122E+02  0.00000000000E+00 0. -1.
</event>
<event>
 4    1  0.1322546E+002  0.5292208E+02  0.7546771E-02  0.1285977E+00
          2   -1    0    0  502    0  0.00000000000E+00  0.00000000000E+00  0.96742512505E+02  0.96742512505E+02  0.00000000000E+00 0. -1.
         -2   -1    0    0    0  501 -0.00000000000E+00 -0.00000000000E+00 -0.44320658490E+02  0.44320658490E+02  0.00000000000E+00 0.  1.
          1    1    1    2  502    0  0.51600136975E+02 -0.11754658713E+02 -0.15324570907E+02  0.55096176009E+02  0.00000000000E+00 0.  1.
         -1    1    1    2    0  501 -0.51600136975E+02  0.11754658713E+02  0.67746424922E+02  0.85966994986E+02  0.00000000000E+00 0. -1.
</event>
<event>
 4    1  0.1322546E+002  0.2284344E+02  0.7546771E-02  0.1494473E+00
          2   -1    0    0  502    0  0.00000000000E+00  0.00000000000E+00  0.58299020797E+03  0.58299020797E+03  0.00000000000E+00 0.  1.
         -2   -1    0    0    0  501 -0.00000000000E+00 -0.00000000000E+00 -0.92664462314E+00  0.92664462314E+00  0.00000000000E+00 0. -1.
          1    1    1    2  502    0  0.20093070611E+02  0.10866987767E+02  0.34491633757E+03  0.34567195841E+03  0.00000000000E+00 0.  1.
         -1    1    1    2    0  501 -0.20093070611E+02 -0.10866987767E+02  0.23714722578E+03  0.23824489418E+03  0.00000000000E+00 0. -1.
</event>
<event>
 4    1  0.1322546E+002  0.2086960E+02  0.7546771E-02  0.1521135E+00
          2   -1    0    0  502    0  0.00000000000E+00  0.00000000000E+00  0.12999650590E+02  0.12999650590E+02  0.00000000000E+00 0.  1.
         -2   -1    0    0    0  501 -0.00000000000E+00 -0.00000000000E+00 -0.33642750242E+02  0.33642750242E+02  0.00000000000E+00 0. -1.
          1    1    1    2  502    0 -0.13047188790E+02  0.16288374469E+02 -0.88238531619E+01  0.22658346426E+02  0.00000000000E+00 0.  1.
         -1    1    1    2    0  501  0.13047188790E+02 -0.16288374469E+02 -0.11819246490E+02  0.23984054406E+02  0.00000000000E+00 0. -1.
</event>
<event>
 4    1  0.1322546E+002  0.2447402E+02  0.7546771E-02  0.1474774E+00
          2   -1    0    0  502    0  0.00000000000E+00  0.00000000000E+00  0.20145637960E+04  0.20145637960E+04  0.00000000000E+00 0. -1.
         -2   -1    0    0    0  501 -0.00000000000E+00 -0.00000000000E+00 -0.29732394046E+00  0.29732394046E+00  0.00000000000E+00 0.  1.
          1    1    1    2  502    0  0.24136273899E+02 -0.40519354321E+01  0.10076334437E+04  0.10079306200E+04  0.00000000000E+00 0.  1.
         -1    1    1    2    0  501 -0.24136273899E+02  0.40519354321E+01  0.10066330284E+04  0.10069304999E+04  0.00000000000E+00 0. -1.
</event>
<event>
 4    1  0.1322546E+002  0.2132074E+02  0.7546771E-02  0.1514734E+00
          2   -1    0    0  502    0  0.00000000000E+00  0.00000000000E+00  0.10000919516E+04  0.10000919516E+04  0.00000000000E+00 0.  1.
         -2   -1    0    0    0  501 -0.00000000000E+00 -0.00000000000E+00 -0.62029116195E+00  0.62029116195E+00  0.00000000000E+00 0. -1.
          1    1    1    2  502    0 -0.55738342797E+01 -0.20579268978E+02  0.75839030814E+03  0.75868994551E+03  0.00000000000E+00 0.  1.
         -1    1    1    2    0  501  0.55738342797E+01  0.20579268978E+02  0.24108135227E+03  0.24202229723E+03  0.00000000000E+00 0. -1.
</event>
<event>
 4    1  0.1322546E+002  0.6585663E+02  0.7546771E-02  0.1241135E+00
          2   -1    0    0  502    0  0.00000000000E+00  0.00000000000E+00  0.17861436539E+02  0.17861436539E+02  0.00000000000E+00 0.  1.
         -2   -1    0    0    0  501 -0.00000000000E+00 -0.00000000000E+00 -0.93315179263E+03  0.93315179263E+03  0.00000000000E+00 0. -1.
          1    1    1    2  502    0  0.38587238970E+02  0.53367792228E+02 -0.86663233034E+03  0.86913099832E+03  0.00000000000E+00 0. -1.
         -1    1    1    2    0  501 -0.38587238970E+02 -0.53367792228E+02 -0.48658025758E+02  0.81882230852E+02  0.00000000000E+00 0.  1.
</event>
<event>
 4    1  0.1322546E+002  0.2396667E+02  0.7546771E-02  0.1480704E+00
          2   -1    0    0  502    0  0.00000000000E+00  0.00000000000E+00  0.28393419648E+01  0.28393419648E+01  0.00000000000E+00 0. -1.
         -2   -1    0    0    0  501 -0.00000000000E+00 -0.00000000000E+00 -0.27278273881E+03  0.27278273881E+03  0.00000000000E+00 0.  1.
          1    1    1    2  502    0  0.23882244562E+02 -0.20099001787E+01 -0.20502269588E+03  0.20641876642E+03  0.00000000000E+00 0.  1.
         -1    1    1    2    0  501 -0.23882244562E+02  0.20099001787E+01 -0.64920700968E+02  0.69203314359E+02  0.00000000000E+00 0. -1.
</event>
<event>
 4    1  0.1322546E+002  0.2996097E+02  0.7546771E-02  0.1419936E+00
          2   -1    0    0  502    0  0.00000000000E+00  0.00000000000E+00  0.86135607480E+03  0.86135607480E+03  0.00000000000E+00 0. -1.
         -2   -1    0    0    0  501 -0.00000000000E+00 -0.00000000000E+00 -0.10444678408E+01  0.10444678408E+01  0.00000000000E+00 0.  1.
          1    1    1    2  502    0  0.23189773628E+02 -0.18970870520E+02  0.40982908778E+03  0.41092279168E+03  0.00000000000E+00 0. -1.
         -1    1    1    2    0  501 -0.23189773628E+02  0.18970870520E+02  0.45048251918E+03  0.45147775097E+03  0.00000000000E+00 0.  1.
</event>
<event>
 4    1  0.1322546E+002  0.2568632E+02  0.7546771E-02  0.1461270E+00
          2   -1    0    0  502    0  0.00000000000E+00  0.00000000000E+00  0.58439101285E+03  0.58439101285E+03  0.00000000000E+00 0.  1.
         -2   -1    0    0    0  501 -0.00000000000E+00 -0.00000000000E+00 -0.11465765302E+01  0.11465765302E+01  0.00000000000E+00 0. -1.
          1    1    1    2  502    0  0.15428983500E+02 -0.20536148605E+02  0.25539046304E+03  0.25667893474E+03  0.00000000000E+00 0. -1.
         -1    1    1    2    0  501 -0.15428983500E+02  0.20536148605E+02  0.32785397328E+03  0.32885865463E+03  0.00000000000E+00 0.  1.
</event>
<event>
 4    1  0.1322546E+002  0.5473609E+02  0.7546771E-02  0.1278848E+00
          2   -1    0    0  502    0  0.00000000000E+00  0.00000000000E+00  0.37369815462E+03  0.37369815462E+03  0.00000000000E+00 0. -1.
         -2   -1    0    0    0  501 -0.00000000000E+00 -0.00000000000E+00 -0.92066242569E+01  0.92066242569E+01  0.00000000000E+00 0.  1.
          1    1    1    2  502    0 -0.54591692459E+02 -0.39731829654E+01  0.11343345066E+03  0.12594914369E+03  0.00000000000E+00 0. -1.
         -1    1    1    2    0  501  0.54591692459E+02  0.39731829654E+01  0.25105807971E+03  0.25695563519E+03  0.00000000000E+00 0.  1.
</event>
<event>
 4    1  0.1322546E+002  0.3726439E+02  0.7546771E-02  0.1365308E+00
          2   -1    0    0  502    0  0.00000000000E+00  0.00000000000E+00  0.38008838442E+03  0.38008838442E+03  0.00000000000E+00 0. -1.
         -2   -1    0    0    0  501 -0.00000000000E+00 -0.00000000000E+00 -0.48854839839E+01  0.48854839839E+01  0.00000000000E+00 0.  1.
          1    1    1    2  502    0  0.36001891399E+02  0.96176036786E+01  0.90938836363E+02  0.98277700644E+02  0.00000000000E+00 0.  1.
         -1    1    1    2    0  501 -0.36001891399E+02 -0.96176036786E+01  0.28426406407E+03  0.28669616776E+03  0.00000000000E+00 0. -1.
</event>
<event>
 4    1  0.1322546E+002  0.2030825E+02  0.7546771E-02  0.1529375E+00
          2   -1    0    0  502    0  0.00000000000E+00  0.00000000000E+00  0.76708951834E+00  0.76708951834E+00  0.00000000000E+00 0.  1.
         -2   -1    0    0    0  501 -0.00000000000E+00 -0.00000000000E+00 -0.60738785149E+03  0.60738785149E+03  0.00000000000E+00 0. -1.
          1    1    1    2  502    0  0.20242306521E+02 -0.16352608182E+01 -0.40634615201E+03  0.40685331546E+03  0.00000000000E+00 0. -1.
         -1    1    1    2    0  501 -0.20242306521E+02  0.16352608182E+01 -0.20027460997E+03  0.20130162555E+03  0.00000000000E+00 0.  1.
</event>
<event>
 4    1  0.1322546E+002  0.3942928E+02  0.7546771E-02  0.1351863E+00
          2   -1    0    0  502    0  0.00000000000E+00  0.00000000000E+00  0.13946454684E+04  0.13946454684E+04  0.00000000000E+00 0.  1.
         -2   -1    0    0    0  501 -0.00000000000E+00 -0.00000000000E+00 -0.16661501360E+01  0.16661501360E+01  0.00000000000E+00 0. -1.
          1    1    1    2  502    0 -0.34093399682E+02 -0.19806775327E+02  0.10981253826E+04  0.10988330284E+04  0.00000000000E+00 0.  1.
         -1    1    1    2    0  501  0.34093399682E+02  0.19806775327E+02  0.29485393559E+03  0.29747859012E+03  0.00000000000E+00 0. -1.
</event>
<event>
 4    1  0.1322546E+002  0.2068496E+02  0.7546771E-02  0.1523811E+00
          2   -1    0    0  502    0  0.00000000000E+00  0.00000000000E+00  0.79726591628E+02  0.79726591628E+02  0.00000000000E+00 0. -1.
         -2   -1    0    0    0  501 -0.00000000000E+00 -0.00000000000E+00 -0.56003898673E+01  0.56003898673E+01  0.00000000000E+00 0.  1.
          1    1    1    2  502    0  0.20426342195E+02 -0.32606887718E+01  0.28347835224E+02  0.35092268502E+02  0.00000000000E+00 0.  1.
         -1    1    1    2    0  501 -0.20426342195E+02  0.32606887718E+01  0.45778366537E+02  0.50234712993E+02  0.00000000000E+00 0. -1.
</event>
<event>
 4    1  0.1322546E+002  0.4010314E+02  0.7546771E-02  0.1347882E+00
          2   -1    0    0  502    0  0.00000000000E+00  0.00000000000E+00  0.42045752557E+03  0.42045752557E+03  0.00000000000E+00 0. -1.
         -2   -1    0    0    0  501 -0.00000000000E+00 -0.00000000000E+00 -0.41873958948E+01  0.41873958948E+01  0.00000000000E+00 0.  1.
          1    1    1    2  502    0  0.32525137786E+02 -0.23460126529E+02  0.14567558939E+03  0.15109480292E+03  0.00000000000E+00 0.  1.
         -1    1    1    2    0  501 -0.32525137786E+02  0.23460126529E+02  0.27059454028E+03  0.27355011854E+03  0.00000000000E+00 0. -1.
</event>
<event>
 4    1  0.1322546E+002  0.2008909E+02  0.7546771E-02  0.1532678E+00
          2   -1    0    0  502    0  0.00000000000E+00  0.00000000000E+00  0.40807755065E+02  0.40807755065E+02  0.00000000000E+00 0. -1.
         -2   -1    0    0    0  501 -0.00000000000E+00 -0.00000000000E+00 -0.17272230558E+02  0.17272230558E+02  0.00000000000E+00 0.  1.
          1    1    1    2  502    0 -0.17965125513E+02 -0.89903268096E+01 -0.72180130887E+01  0.21346461622E+02  0.00000000000E+00 0.  1.
         -1    1    1    2    0  501  0.17965125513E+02  0.89903268096E+01  0.30753537596E+02  0.36733524001E+02  0.00000000000E+00 0. -1.
</event>
<event>
 4    1  0.1322546E+002  0.2816986E+02  0.7546771E-02  0.1436198E+00
          2   -1    0    0  502    0  0.00000000000E+00  0.00000000000E+00  0.13992672830E+04  0.13992672830E+04  0.00000000000E+00 0. -1.
         -2   -1    0    0    0  501 -0.00000000000E+00 -0.00000000000E+00 -0.57071310230E+00  0.57071310230E+00  0.00000000000E+00 0.  1.
          1    1    1    2  502    0 -0.16120616571E+02 -0.23101224664E+02  0.75494820436E+03  0.75547358136E+03  0.00000000000E+00 0.  1.
         -1    1    1    2    0  501  0.16120616571E+02  0.23101224664E+02  0.64374836554E+03  0.64436441475E+03  0.00000000000E+00 0. -1.
</event>
<event>
 4    1  0.1322546E+002  0.2446785E+02  0.7546771E-02  0.1474845E+00
          2   -1    0    0  502    0  0.00000000000E+00  0.00000000000E+00  0.45729804999E+02  0.45729804999E+02  0.00000000000E+00 0. -1.
         -2   -1    0    0    0  501 -0.00000000000E+00 -0.00000000000E+00 -0.13121633936E+02  0.13121633936E+02  0.00000000000E+00 0.  1.
          1    1    1    2  502    0 -0.14007099896E+02 -0.20061824359E+02  0.17712223849E+02  0.30205935142E+02  0.00000000000E+00 0. -1.
         -1    1    1    2    0  501  0.14007099896E+02  0.20061824359E+02  0.14895947214E+02  0.28645503793E+02  0.00000000000E+00 0.  1.
</event>
<event>
 4    1  0.1322546E+002  0.2947419E+02  0.7546771E-02  0.1424221E+00
          2   -1    0    0  502    0  0.00000000000E+00  0.00000000000E+00  0.18746199596E+03  0.18746199596E+03  0.00000000000E+00 0. -1.
         -2   -1    0    0    0  501 -0.00000000000E+00 -0.00000000000E+00 -0.54550268532E+01  0.54550268532E+01  0.00000000000E+00 0.  1.
          1    1    1    2  502    0  0.24663406445E+02 -0.16138286646E+02  0.53585547750E+02  0.61156674541E+02  0.00000000000E+00 0.  1.
         -1    1    1    2    0  501 -0.24663406445E+02  0.16138286646E+02  0.12842142136E+03  0.13176034828E+03  0.00000000000E+00 0. -1.
</event>
<event>
 4    1  0.1322546E+002  0.2199489E+02  0.7546771E-02  0.1505520E+00
          2   -1    0    0  502    0  0.00000000000E+00  0.00000000000E+00  0.17394649153E+04  0.17394649153E+04  0.00000000000E+00 0.  1.
         -2   -1    0    0    0  501 -0.00000000000E+00 -0.00000000000E+00 -0.28570294858E+00  0.28570294858E+00  0.00000000000E+00 0. -1.
          1    1    1    2  502    0  0.21992313120E+02  0.33692570940E+00  0.10113303988E+04  0.10115695482E+04  0.00000000000E+00 0. -1.
         -1    1    1    2    0  501 -0.21992313120E+02 -0.33692570940E+00  0.72784881355E+03  0.72818107002E+03  0.00000000000E+00 0.  1.
</event>
<event>
 4    1  0.1322546E+002  0.2174961E+02  0.7546771E-02  0.1508826E+00
          2   -1    0    0  502    0  0.00000000000E+00  0.00000000000E+00  0.84834433377E+03  0.84834433377E+03  0.00000000000E+00 0. -1.
         -2   -1    0    0    0  501 -0.00000000000E+00 -0.00000000000E+00 -0.55769171318E+00  0.55769171318E+00  0.00000000000E+00 0.  1.
          1    1    1    2  502    0  0.51789973354E+01  0.21124007917E+02  0.42901478455E+03  0.42956574711E+03  0.00000000000E+00 0. -1.
         -1    1    1    2    0  501 -0.51789973354E+01 -0.21124007917E+02  0.41877185751E+03  0.41933627838E+03  0.00000000000E+00 0.  1.
</event>
<event>
 4    1  0.1322546E+002  0.4444454E+02  0.7546771E-02  0.1324240E+00
          2   -1    0    0  502    0  0.00000000000E+00  0.00000000000E+00  0.64682168077E+02  0.64682168077E+02  0.00000000000E+00 0. -1.
         -2   -1    0    0    0  501 -0.00000000000E+00 -0.00000000000E+00 -0.66587060230E+02  0.66587060230E+02  0.00000000000E+00 0.  1.
          1    1    1    2  502    0  0.35250331346E+02 -0.27069007717E+02  0.47340094636E+02  0.64933824768E+02  0.00000000000E+00 0. -1.
         -1    1    1    2    0  501 -0.35250331346E+02  0.27069007717E+02 -0.49244986790E+02  0.66335403539E+02  0.00000000000E+00 0.  1.
</event>
<event>
 4    1  0.1322546E+002  0.2507248E+02  0.7546771E-02  0.1467994E+00
          2   -1    0    0  502    0  0.00000000000E+00  0.00000000000E+00  0.23681811086E+02  0.23681811086E+02  0.00000000000E+00 0. -1.
         -2   -1    0    0    0  501 -0.00000000000E+00 -0.00000000000E+00 -0.27124619917E+02  0.27124619917E+02  0.00000000000E+00 0.  1.
          1    1    1    2  502    0  0.23183340284E+02 -0.95478881240E+01  0.19926271572E+01  0.25151540656E+02  0.00000000000E+00 0.  1.
         -1    1    1    2    0  501 -0.23183340284E+02  0.95478881240E+01 -0.54354359879E+01  0.25654890347E+02  0.00000000000E+00 0. -1.
</event>
<event>
 4    1  0.1322546E+002  0.2556839E+02  0.7546771E-02  0.1462544E+00
          2   -1    0    0  502    0  0.00000000000E+00  0.00000000000E+00  0.13827015222E+04  0.13827015222E+04  0.00000000000E+00 0.  1.
         -2   -1    0    0    0  501 -0.00000000000E+00 -0.00000000000E+00 -0.16497274577E+01  0.16497274577E+01  0.00000000000E+00 0. -1.
          1    1    1    2  502    0 -0.21928884372E+02  0.13147876849E+02  0.12751609717E+04  0.12754172832E+04  0.00000000000E+00 0.  1.
         -1    1    1    2    0  501  0.21928884372E+02 -0.13147876849E+02  0.10589082306E+03  0.10893396644E+03  0.00000000000E+00 0. -1.
</event>
<event>
 4    1  0.1322546E+002  0.3508999E+02  0.7546771E-02  0.1379932E+00
          2   -1    0    0  502    0  0.00000000000E+00  0.00000000000E+00  0.58792848660E+03  0.58792848660E+03  0.00000000000E+00 0.  1.
         -2   -1    0    0    0  501 -0.00000000000E+00 -0.00000000000E+00 -0.54016396780E+01  0.54016396780E+01  0.00000000000E+00 0. -1.
          1    1    1    2  502    0  0.18153664436E+02 -0.30029183651E+02  0.59127678340E+02  0.68756016094E+02  0.00000000000E+00 0. -1.
         -1    1    1    2    0  501 -0.18153664436E+02  0.30029183651E+02  0.52339916858E+03  0.52457411018E+03  0.00000000000E+00 0.  1.
</event>
<event>
 4    1  0.1322546E+002  0.2159872E+02  0.7546771E-02  0.1510886E+00
          2   -1    0    0  502    0  0.00000000000E+00  0.00000000000E+00  0.16026152099E+03  0.16026152099E+03  0.00000000000E+00 0.  1.
         -2   -1    0    0    0  501 -0.00000000000E+00 -0.00000000000E+00 -0.38376287441E+01  0.38376287441E+01  0.00000000000E+00 0. -1.
          1    1    1    2  502    0 -0.12991786854E+01 -0.21559614081E+02  0.11853206570E+03  0.12048383885E+03  0.00000000000E+00 0.  1.
         -1    1    1    2    0  501  0.12991786854E+01  0.21559614081E+02  0.37891826538E+02  0.43615310878E+02  0.00000000000E+00 0. -1.
</event>
<event>
 4    1  0.1322546E+002  0.2498095E+02  0.7546771E-02  0.1469017E+00
          2   -1    0    0  502    0  0.00000000000E+00  0.00000000000E+00  0.95218756355E+03  0.95218756355E+03  0.00000000000E+00 0.  1.
         -2   -1    0    0    0  501 -0.00000000000E+00 -0.00000000000E+00 -0.67563113183E+00  0.67563113183E+00  0.00000000000E+00 0. -1.
          1    1    1    2  502    0 -0.51345617324E+01 -0.24447577468E+02  0.55823349905E+03  0.55879216819E+03  0.00000000000E+00 0. -1.
         -1    1    1    2    0  501  0.51345617324E+01  0.24447577468E+02  0.39327843337E+03  0.39407102650E+03  0.00000000000E+00 0.  1.
</event>
<event>
 4    1  0.1322546E+002  0.6600548E+02  0.7546771E-02  0.1240688E+00
          2   -1    0    0  502    0  0.00000000000E+00  0.00000000000E+00  0.37172960774E+03  0.37172960774E+03  0.00000000000E+00 0.  1.
         -2   -1    0    0    0  501 -0.00000000000E+00 -0.00000000000E+00 -0.28734162623E+02  0.28734162623E+02  0.00000000000E+00 0. -1.
          1    1    1    2  502    0 -0.59575868758E+02 -0.28415474134E+02  0.32557459615E+03  0.33219804480E+03  0.00000000000E+00 0.  1.
         -1    1    1    2    0  501  0.59575868758E+02  0.28415474134E+02  0.17420848970E+02  0.68265725568E+02  0.00000000000E+00 0. -1.
</event>
<event>
 4    1  0.1322546E+002  0.2228237E+02  0.7546771E-02  0.1501712E+00
          2   -1    0    0  502    0  0.00000000000E+00  0.00000000000E+00  0.16995512692E+02  0.16995512692E+02  0.00000000000E+00 0. -1.
         -2   -1    0    0    0  501 -0.00000000000E+00 -0.00000000000E+00 -0.30507138072E+02  0.30507138072E+02  0.00000000000E+00 0.  1.
          1    1    1    2  502    0 -0.55031376575E+01  0.21592116959E+02 -0.18654855891E+01  0.22360323686E+02  0.00000000000E+00 0.  1.
         -1    1    1    2    0  501  0.55031376575E+01 -0.21592116959E+02 -0.11646139791E+02  0.25142327078E+02  0.00000000000E+00 0. -1.
</event>
<event>
 4    1  0.1322546E+002  0.2153659E+02  0.7546771E-02  0.1511740E+00
          2   -1    0    0  502    0  0.00000000000E+00  0.00000000000E+00  0.38708845538E+03  0.38708845538E+03  0.00000000000E+00 0.  1.
         -2   -1    0    0    0  501 -0.00000000000E+00 -0.00000000000E+00 -0.17512253448E+01  0.17512253448E+01  0.00000000000E+00 0. -1.
          1    1    1    2  502    0  0.45693191331E+01  0.21046280752E+02  0.30191992166E+03  0.30268707225E+03  0.00000000000E+00 0.  1.
         -1    1    1    2    0  501 -0.45693191331E+01 -0.21046280752E+02  0.83417308375E+02  0.86152608477E+02  0.00000000000E+00 0. -1.
</event>
<event>
 4    1  0.1322546E+002  0.2686569E+02  0.7546771E-02  0.1448962E+00
          2   -1    0    0  502    0  0.00000000000E+00  0.00000000000E+00  0.59184455154E+02  0.59184455154E+02  0.00000000000E+00 0.  1.
         -2   -1    0    0    0  501 -0.00000000000E+00 -0.00000000000E+00 -0.12233156550E+02  0.12233156550E+02  0.00000000000E+00 0. -1.
          1    1    1    2  502    0 -0.31190835057E+01  0.26684014985E+02  0.25465128001E+02  0.37016727053E+02  0.00000000000E+00 0. -1.
         -1    1    1    2    0  501  0.31190835057E+01 -0.26684014985E+02  0.21486170603E+02  0.34400884652E+02  0.00000000000E+00 0.  1.
</event>
<event>
 4    1  0.1322546E+002  0.2836925E+02  0.7546771E-02  0.1434318E+00
          2   -1    0    0  502    0  0.00000000000E+00  0.00000000000E+00  0.21563974931E+03  0.21563974931E+03  0.00000000000E+00 0. -1.
         -2   -1    0    0    0  501 -0.00000000000E+00 -0.00000000000E+00 -0.37587047096E+01  0.37587047096E+01  0.00000000000E+00 0.  1.
          1    1    1    2  502    0  0.87806796399E+01 -0.26976173101E+02  0.11514947024E+03  0.11859264204E+03  0.00000000000E+00 0. -1.
         -1    1    1    2    0  501 -0.87806796399E+01  0.26976173101E+02  0.96731574366E+02  0.10080581198E+03  0.00000000000E+00 0.  1.
</event>
<event>
 4    1  0.1322546E+002  0.3097987E+02  0.7546771E-02  0.1411268E+00
          2   -1    0    0  502    0  0.00000000000E+00  0.00000000000E+00  0.60057642771E+02  0.60057642771E+02  0.00000000000E+00 0. -1.
         -2   -1    0    0    0  501 -0.00000000000E+00 -0.00000000000E+00 -0.16221391875E+02  0.16221391875E+02  0.00000000000E+00 0.  1.
          1    1    1    2  502    0  0.96197642188E+01 -0.29448471882E+02  0.26565676891E+02  0.40810385302E+02  0.00000000000E+00 0.  1.
         -1    1    1    2    0  501 -0.96197642188E+01  0.29448471882E+02  0.17270574006E+02  0.35468649344E+02  0.00000000000E+00 0. -1.
</event>
<event>
 4    1  0.1322546E+002  0.2055716E+02  0.7546771E-02  0.1525682E+00
          2   -1    0    0  502    0  0.00000000000E+00  0.00000000000E+00  0.18877465679E+03  0.18877465679E+03  0.00000000000E+00 0. -1.
         -2   -1    0    0    0  501 -0.00000000000E+00 -0.00000000000E+00 -0.26657097472E+01  0.26657097472E+01  0.00000000000E+00 0.  1.
          1    1    1    2  502    0  0.84873502042E+01 -0.18723289194E+02  0.13136793702E+03  0.13296665578E+03  0.00000000000E+00 0.  1.
         -1    1    1    2    0  501 -0.84873502042E+01  0.18723289194E+02  0.54741010024E+02  0.58473710761E+02  0.00000000000E+00 0. -1.
</event>
<event>
 4    1  0.1322546E+002  0.2380096E+02  0.7546771E-02  0.1482678E+00
          2   -1    0    0  502    0  0.00000000000E+00  0.00000000000E+00  0.23496747199E+01  0.23496747199E+01  0.00000000000E+00 0.  1.
         -2   -1    0    0    0  501 -0.00000000000E+00 -0.00000000000E+00 -0.28261600017E+03  0.28261600017E+03  0.00000000000E+00 0. -1.
          1    1    1    2  502    0 -0.23794485687E+02  0.55502141702E+00 -0.85517321719E+02  0.88767662535E+02  0.00000000000E+00 0.  1.
         -1    1    1    2    0  501  0.23794485687E+02 -0.55502141702E+00 -0.19474900373E+03  0.19619801235E+03  0.00000000000E+00 0. -1.
</event>
<event>
 4    1  0.1322546E+002  0.2086417E+02  0.7546771E-02  0.1521213E+00
          2   -1    0    0  502    0  0.00000000000E+00  0.00000000000E+00  0.13031946629E+02  0.13031946629E+02  0.00000000000E+00 0. -1.
         -2   -1    0    0    0  501 -0.00000000000E+00 -0.00000000000E+00 -0.54538765771E+02  0.54538765771E+02  0.00000000000E+00 0.  1.
          1    1    1    2  502    0 -0.10840430555E+02 -0.17826905677E+02 -0.41785334309E+02  0.46704685674E+02  0.00000000000E+00 0. -1.
         -1    1    1    2    0  501  0.10840430555E+02  0.17826905677E+02  0.27851516715E+00  0.20866026726E+02  0.00000000000E+00 0.  1.
</event>
<event>
 4    1  0.1322546E+002  0.3230380E+02  0.7546771E-02  0.1400578E+00
          2   -1    0    0  502    0  0.00000000000E+00  0.00000000000E+00  0.72679931276E+03  0.72679931276E+03  0.00000000000E+00 0.  1.
         -2   -1    0    0    0  501 -0.00000000000E+00 -0.00000000000E+00 -0.14757117389E+01  0.14757117389E+01  0.00000000000E+00 0. -1.
          1    1    1    2  502    0  0.32302324201E+02 -0.30828217350E+00  0.30277385274E+03  0.30449226770E+03  0.00000000000E+00 0. -1.
         -1    1    1    2    0  501 -0.32302324201E+02  0.30828217350E+00  0.42254974829E+03  0.42378275680E+03  0.00000000000E+00 0.  1.
</event>
<event>
 4    1  0.1322546E+002  0.2807250E+02  0.7546771E-02  0.1437122E+00
          2   -1    0    0  502    0  0.00000000000E+00  0.00000000000E+00  0.35264567255E+03  0.35264567255E+03  0.00000000000E+00 0. -1.
         -2   -1    0    0    0  501 -0.00000000000E+00 -0.00000000000E+00 -0.22470540925E+01  0.22470540925E+01  0.00000000000E+00 0.  1.
          1    1    1    2  502    0 -0.14887069740E+02 -0.23800012632E+02  0.18834424741E+03  0.19042484339E+03  0.00000000000E+00 0. -1.
         -1    1    1    2    0  501  0.14887069740E+02  0.23800012632E+02  0.16205437104E+03  0.16446788325E+03  0.00000000000E+00 0.  1.
</event>
<event>
 4    1  0.1322546E+002  0.2838172E+02  0.7546771E-02  0.1434201E+00
          2   -1    0    0  502    0  0.00000000000E+00  0.00000000000E+00  0.36343571366E+01  0.36343571366E+01  0.00000000000E+00 0.  1.
         -2   -1    0    0    0  501 -0.00000000000E+00 -0.00000000000E+00 -0.28838468755E+03  0.28838468755E+03  0.00000000000E+00 0. -1.
          1    1    1    2  502    0  0.28270894475E+02 -0.25056957828E+01 -0.21261778257E+03  0.21450371430E+03  0.00000000000E+00 0. -1.
         -1    1    1    2    0  501 -0.28270894475E+02  0.25056957828E+01 -0.72132547848E+02  0.77515330386E+02  0.00000000000E+00 0.  1.
</event>
<event>
 4    1  0.1322546E+002  0.4121262E+02  0.7546771E-02  0.1341523E+00
          2   -1    0    0  502    0  0.00000000000E+00  0.00000000000E+00  0.23757062085E+04  0.23757062085E+04  0.00000000000E+00 0.  1.
         -2   -1    0    0    0  501 -0.00000000000E+00 -0.00000000000E+00 -0.76297990383E+00  0.76297990383E+00  0.00000000000E+00 0. -1.
          1    1    1    2  502    0  0.72016244331E-01  0.41212552350E+02  0.14856398886E+04  0.14862114110E+04  0.00000000000E+00 0. -1.
         -1    1    1    2    0  501 -0.72016244331E-01 -0.41212552350E+02  0.88930334002E+03  0.89025777740E+03  0.00000000000E+00 0.  1.
</event>
<event>
 4    1  0.1322546E+002  0.2302806E+02  0.7546771E-02  0.1492146E+00
          2   -1    0    0  502    0  0.00000000000E+00  0.00000000000E+00  0.16620016544E+02  0.16620016544E+02  0.00000000000E+00 0.  1.
         -2   -1    0    0    0  501 -0.00000000000E+00 -0.00000000000E+00 -0.97855398873E+02  0.97855398873E+02  0.00000000000E+00 0. -1.
          1    1    1    2  502    0 -0.18891921406E+02 -0.13167645314E+02 -0.87606303174E+02  0.90582315787E+02  0.00000000000E+00 0. -1.
         -1    1    1    2    0  501  0.18891921406E+02  0.13167645314E+02  0.63709208447E+01  0.23893099630E+02  0.00000000000E+00 0.  1.
</event>
<event>
 4    1  0.1322546E+002  0.2298071E+02  0.7546771E-02  0.1492741E+00
          2   -1    0    0  502    0  0.00000000000E+00  0.00000000000E+00  0.32791302317E+01  0.32791302317E+01  0.00000000000E+00 0. -1.
         -2   -1    0    0    0  501 -0.00000000000E+00 -0.00000000000E+00 -0.19040222896E+03  0.19040222896E+03  0.00000000000E+00 0.  1.
          1    1    1    2  502    0  0.21837986589E+02 -0.71564917413E+01 -0.13158239808E+03  0.13357410122E+03  0.00000000000E+00 0.  1.
         -1    1    1    2    0  501 -0.21837986589E+02  0.71564917413E+01 -0.55540700647E+02  0.60107257970E+02  0.00000000000E+00 0. -1.
</event>
<event>
 4    1  0.1322546E+002  0.2768710E+02  0.7546771E-02  0.1440825E+00
          2   -1    0    0  502    0  0.00000000000E+00  0.00000000000E+00  0.20165456281E+03  0.20165456281E+03  0.00000000000E+00 0.  1.
         -2   -1    0    0    0  501 -0.00000000000E+00 -0.00000000000E+00 -0.58937315594E+01  0.58937315594E+01  0.00000000000E+00 0. -1.
          1    1    1    2  502    0 -0.21044682566E+02 -0.17991584157E+02  0.36049439057E+02  0.45454788759E+02  0.00000000000E+00 0. -1.
         -1    1    1    2    0  501  0.21044682566E+02  0.17991584157E+02  0.15971139220E+03  0.16209350561E+03  0.00000000000E+00 0.  1.
</event>
<event>
 4    1  0.1322546E+002  0.2132976E+02  0.7546771E-02  0.1514608E+00
          2   -1    0    0  502    0  0.00000000000E+00  0.00000000000E+00  0.29274469726E+02  0.29274469726E+02  0.00000000000E+00 0.  1.
         -2   -1    0    0    0  501 -0.00000000000E+00 -0.00000000000E+00 -0.15546426680E+02  0.15546426680E+02  0.00000000000E+00 0. -1.
          1    1    1    2  502    0  0.17634194357E+02 -0.11999741591E+02  0.72773162006E+01  0.22537034853E+02  0.00000000000E+00 0.  1.
         -1    1    1    2    0  501 -0.17634194357E+02  0.11999741591E+02  0.64507268458E+01  0.22283861553E+02  0.00000000000E+00 0. -1.
</event>
<event>
 4    1  0.1322546E+002  0.2925542E+02  0.7546771E-02  0.1426179E+00
          2   -1    0    0  502    0  0.00000000000E+00  0.00000000000E+00  0.83108411504E+02  0.83108411504E+02  0.00000000000E+00 0. -1.
         -2   -1    0    0    0  501 -0.00000000000E+00 -0.00000000000E+00 -0.12549423544E+02  0.12549423544E+02  0.00000000000E+00 0.  1.
          1    1    1    2  502    0 -0.18048203923E+02  0.23024806027E+02  0.15022561431E+02  0.32887029501E+02  0.00000000000E+00 0.  1.
         -1    1    1    2    0  501  0.18048203923E+02 -0.23024806027E+02  0.55536426529E+02  0.62770805547E+02  0.00000000000E+00 0. -1.
</event>
<event>
 4    1  0.1322546E+002  0.3744384E+02  0.7546771E-02  0.1364153E+00
          2   -1    0    0  502    0  0.00000000000E+00  0.00000000000E+00  0.41006411801E+01  0.41006411801E+01  0.00000000000E+00 0. -1.
         -2   -1    0    0    0  501 -0.00000000000E+00 -0.00000000000E+00 -0.38721797472E+03  0.38721797472E+03  0.00000000000E+00 0.  1.
          1    1    1    2  502    0  0.35917583734E+02 -0.10581493338E+02 -0.12462862850E+03  0.13013199401E+03  0.00000000000E+00 0. -1.
         -1    1    1    2    0  501 -0.35917583734E+02  0.10581493338E+02 -0.25848870504E+03  0.26118662189E+03  0.00000000000E+00 0.  1.
</event>
<event>
 4    1  0.1322546E+002  0.4081700E+02  0.7546771E-02  0.1343764E+00
          2   -1    0    0  502    0  0.00000000000E+00  0.00000000000E+00  0.20510551255E+04  0.20510551255E+04  0.00000000000E+00 0. -1.
         -2   -1    0    0    0  501 -0.00000000000E+00 -0.00000000000E+00 -0.87880886931E+00  0.87880886931E+00  0.00000000000E+00 0.  1.
          1    1    1    2  502    0 -0.22898528094E+02 -0.33788828610E+02  0.74279727642E+03  0.74391788618E+03  0.00000000000E+00 0.  1.
         -1    1    1    2    0  501  0.22898528094E+02  0.33788828610E+02  0.13073790402E+04  0.13080160482E+04  0.00000000000E+00 0. -1.
</event>
<event>
 4    1  0.1322546E+002  0.2871052E+02  0.7546771E-02  0.1431143E+00
          2   -1    0    0  502    0  0.00000000000E+00  0.00000000000E+00  0.10264224975E+04  0.10264224975E+04  0.00000000000E+00 0.  1.
         -2   -1    0    0    0  501 -0.00000000000E+00 -0.00000000000E+00 -0.81501267866E+00  0.81501267866E+00  0.00000000000E+00 0. -1.
          1    1    1    2  502    0 -0.26920640987E+01  0.28584031860E+02  0.45064224308E+03  0.45155589393E+03  0.00000000000E+00 0. -1.
         -1    1    1    2    0  501  0.26920640987E+01 -0.28584031860E+02  0.57496524171E+03  0.57568161623E+03  0.00000000000E+00 0.  1.
</event>
<event>
 4    1  0.1322546E+002  0.2151861E+02  0.7546771E-02  0.1511988E+00
          2   -1    0    0  502    0  0.00000000000E+00  0.00000000000E+00  0.27037532837E+04  0.27037532837E+04  0.00000000000E+00 0. -1.
         -2   -1    0    0    0  501 -0.00000000000E+00 -0.00000000000E+00 -0.17129731224E+00  0.17129731224E+00  0.00000000000E+00 0.  1.
          1    1    1    2  502    0  0.21049084337E+02  0.44706339218E+01  0.13711691857E+04  0.13713380278E+04  0.00000000000E+00 0.  1.
         -1    1    1    2    0  501 -0.21049084337E+02 -0.44706339218E+01  0.13324128007E+04  0.13325865533E+04  0.00000000000E+00 0. -1.
</event>
<event>
 4    1  0.1322546E+002  0.2304394E+02  0.7546771E-02  0.1491947E+00
          2   -1    0    0  502    0  0.00000000000E+00  0.00000000000E+00  0.15772441025E+03  0.15772441025E+03  0.00000000000E+00 0.  1.
         -2   -1    0    0    0  501 -0.00000000000E+00 -0.00000000000E+00 -0.13374115969E+02  0.13374115969E+02  0.00000000000E+00 0. -1.
          1    1    1    2  502    0 -0.22465842144E+02  0.51292420768E+01  0.14617706900E+03  0.14798229181E+03  0.00000000000E+00 0.  1.
         -1    1    1    2    0  501  0.22465842144E+02 -0.51292420768E+01 -0.18267747175E+01  0.23116234412E+02  0.00000000000E+00 0. -1.
</event>
<event>
 4    1  0.1322546E+002  0.2349659E+02  0.7546771E-02  0.1486355E+00
          2   -1    0    0  502    0  0.00000000000E+00  0.00000000000E+00  0.70936891314E+03  0.70936891314E+03  0.00000000000E+00 0. -1.
         -2   -1    0    0    0  501 -0.00000000000E+00 -0.00000000000E+00 -0.20415706375E+01  0.20415706375E+01  0.00000000000E+00 0.  1.
          1    1    1    2  502    0  0.91573198833E+01 -0.21638693970E+02  0.73856251338E+02  0.77503776978E+02  0.00000000000E+00 0.  1.
         -1    1    1    2    0  501 -0.91573198833E+01  0.21638693970E+02  0.63347109116E+03  0.63390670680E+03  0.00000000000E+00 0. -1.
</event>
<event>
 4    1  0.1322546E+002  0.2274341E+02  0.7546771E-02  0.1495746E+00
          2   -1    0    0  502    0  0.00000000000E+00  0.00000000000E+00  0.39170263434E+03  0.39170263434E+03  0.00000000000E+00 0. -1.
         -2   -1    0    0    0  501 -0.00000000000E+00 -0.00000000000E+00 -0.18358830663E+01  0.18358830663E+01  0.00000000000E+00 0.  1.
          1    1    1    2  502    0 -0.18298659470E+01  0.22669675123E+02  0.90682645349E+02  0.93491201442E+02  0.00000000000E+00 0.  1.
         -1    1    1    2    0  501  0.18298659470E+01 -0.22669675123E+02  0.29918410593E+03  0.30004731597E+03  0.00000000000E+00 0. -1.
</event>
<event>
 4    1  0.1322546E+002  0.2115580E+02  0.7546771E-02  0.1517052E+00
          2   -1    0    0  502    0  0.00000000000E+00  0.00000000000E+00  0.79242480698E+02  0.79242480698E+02  0.00000000000E+00 0.  1.
         -2   -1    0    0    0  501 -0.00000000000E+00 -0.00000000000E+00 -0.14248473641E+02  0.14248473641E+02  0.00000000000E+00 0. -1.
          1    1    1    2  502    0 -0.46038728767E+01 -0.20648778663E+02  0.68814394620E+02  0.71992976134E+02  0.00000000000E+00 0.  1.
         -1    1    1    2    0  501  0.46038728767E+01  0.20648778663E+02 -0.38203875634E+01  0.21497978204E+02  0.00000000000E+00 0. -1.
</event>
<event>
 4    1  0.1322546E+002  0.2536726E+02  0.7546771E-02  0.1464736E+00
          2   -1    0    0  502    0  0.00000000000E+00  0.00000000000E+00  0.76576991975E+01  0.76576991975E+01  0.00000000000E+00 0.  1.
         -2   -1    0    0    0  501 -0.00000000000E+00 -0.00000000000E+00 -0.10783102452E+03  0.10783102452E+03  0.00000000000E+00 0. -1.
          1    1    1    2  502    0 -0.50452186015E+01 -0.24860487898E+02 -0.77214163146E+02  0.81274381447E+02  0.00000000000E+00 0. -1.
         -1    1    1    2    0  501  0.50452186015E+01  0.24860487898E+02 -0.22959162181E+02  0.34214342275E+02  0.00000000000E+00 0.  1.
</event>
<event>
 4    1  0.1322546E+002  0.2240158E+02  0.7546771E-02  0.1500152E+00
          2   -1    0    0  502    0  0.00000000000E+00  0.00000000000E+00  0.25116920204E+03  0.25116920204E+03  0.00000000000E+00 0. -1.
         -2   -1    0    0    0  501 -0.00000000000E+00 -0.00000000000E+00 -0.19998166610E+01  0.19998166610E+01  0.00000000000E+00 0.  1.
          1    1    1    2  502    0 -0.14728488826E+02  0.16879052491E+02  0.12842190512E+03  0.13036110045E+03  0.00000000000E+00 0.  1.
         -1    1    1    2    0  501  0.14728488826E+02 -0.16879052491E+02  0.12074748026E+03  0.12280791825E+03  0.00000000000E+00 0. -1.
</event>
<event>
 4    1  0.1322546E+002  0.2223255E+02  0.7546771E-02  0.1502367E+00
          2   -1    0    0  502    0  0.00000000000E+00  0.00000000000E+00  0.63714083147E+02  0.63714083147E+02  0.00000000000E+00 0. -1.
         -2   -1    0    0    0  501 -0.00000000000E+00 -0.00000000000E+00 -0.10436661427E+02  0.10436661427E+02  0.00000000000E+00 0.  1.
          1    1    1    2  502    0 -0.55824171919E+01  0.21520289213E+02  0.45422073346E+02  0.50571246540E+02  0.00000000000E+00 0. -1.
         -1    1    1    2    0  501  0.55824171919E+01 -0.21520289213E+02  0.78553483741E+01  0.23579498035E+02  0.00000000000E+00 0.  1.
</event>
<event>
 4    1  0.1322546E+002  0.4670216E+02  0.7546771E-02  0.1313141E+00
          2   -1    0    0  502    0  0.00000000000E+00  0.00000000000E+00  0.15239087356E+04  0.15239087356E+04  0.00000000000E+00 0. -1.
         -2   -1    0    0    0  501 -0.00000000000E+00 -0.00000000000E+00 -0.44536261189E+01  0.44536261189E+01  0.00000000000E+00 0.  1.
          1    1    1    2  502    0 -0.23859930863E+02  0.40147177650E+02  0.13892537685E+04  0.13900385338E+04  0.00000000000E+00 0. -1.
         -1    1    1    2    0  501  0.23859930863E+02 -0.40147177650E+02  0.13020134091E+03  0.13832382784E+03  0.00000000000E+00 0.  1.
</event>
<event>
 4    1  0.1322546E+002  0.2458698E+02  0.7546771E-02  0.1473477E+00
          2   -1    0    0  502    0  0.00000000000E+00  0.00000000000E+00  0.94754012481E+00  0.94754012481E+00  0.00000000000E+00 0. -1.
         -2   -1    0    0    0  501 -0.00000000000E+00 -0.00000000000E+00 -0.64053500146E+03  0.64053500146E+03  0.00000000000E+00 0.  1.
          1    1    1    2  502    0  0.15608504960E+02  0.18997210837E+02 -0.34001826072E+03  0.34090605315E+03  0.00000000000E+00 0.  1.
         -1    1    1    2    0  501 -0.15608504960E+02 -0.18997210837E+02 -0.29956920061E+03  0.30057648844E+03  0.00000000000E+00 0. -1.
</event>
<event>
 4    1  0.1322546E+002  0.2144189E+02  0.7546771E-02  0.1513048E+00
          2   -1    0    0  502    0  0.00000000000E+00  0.00000000000E+00  0.15744479825E+03  0.15744479825E+03  0.00000000000E+00 0. -1.
         -2   -1    0    0    0  501 -0.00000000000E+00 -0.00000000000E+00 -0.39612943959E+01  0.39612943959E+01  0.00000000000E+00 0.  1.
          1    1    1    2  502    0  0.20300500494E+02  0.69024914159E+01  0.35366840468E+02  0.41359014891E+02  0.00000000000E+00 0. -1.
         -1    1    1    2    0  501 -0.20300500494E+02 -0.69024914159E+01  0.11811666339E+03  0.12004707775E+03  0.00000000000E+00 0.  1.
</event>
<event>
 4    1  0.1322546E+002  0.2547714E+02  0.7546771E-02  0.1463536E+00
          2   -1    0    0  502    0  0.00000000000E+00  0.00000000000E+00  0.23828723286E+03  0.23828723286E+03  0.00000000000E+00 0. -1.
         -2   -1    0    0    0  501 -0.00000000000E+00 -0.00000000000E+00 -0.36027344813E+01  0.36027344813E+01  0.00000000000E+00 0.  1.
          1    1    1    2  502    0  0.85129186638E+01 -0.24012802444E+02  0.57609721678E+02  0.62991781188E+02  0.00000000000E+00 0.  1.
         -1    1    1    2    0  501 -0.85129186638E+01  0.24012802444E+02  0.17707477670E+03  0.17889818615E+03  0.00000000000E+00 0. -1.
</event>
<event>
 4    1  0.1322546E+002  0.9792091E+02  0.7546771E-02  0.1167460E+00
          2   -1    0    0  502    0  0.00000000000E+00  0.00000000000E+00  0.67496640568E+03  0.67496640568E+03  0.00000000000E+00 0. -1.
         -2   -1    0    0    0  501 -0.00000000000E+00 -0.00000000000E+00 -0.25584886271E+02  0.25584886271E+02  0.00000000000E+00 0.  1.
          1    1    1    2  502    0  0.97850599953E+02 -0.37101458950E+01  0.91092292502E+02  0.13373971305E+03  0.00000000000E+00 0.  1.
         -1    1    1    2    0  501 -0.97850599953E+02  0.37101458950E+01  0.55828922691E+03  0.56681157890E+03  0.00000000000E+00 0. -1.
</event>
<event>
 4    1  0.1322546E+002  0.2487571E+02  0.7546771E-02  0.1470199E+00
          2   -1    0    0  502    0  0.00000000000E+00  0.00000000000E+00  0.48362411346E+03  0.48362411346E+03  0.00000000000E+00 0. -1.
         -2   -1    0    0    0  501 -0.00000000000E+00 -0.00000000000E+00 -0.25538176006E+01  0.25538176006E+01  0.00000000000E+00 0.  1.
          1    1    1    2  502    0 -0.14914041263E+02  0.19909095983E+02  0.41224999720E+03  0.41299983162E+03  0.00000000000E+00 0. -1.
         -1    1    1    2    0  501  0.14914041263E+02 -0.19909095983E+02  0.68820298659E+02  0.73178099437E+02  0.00000000000E+00 0.  1.
</event>
<event>
 4    1  0.1322546E+002  0.2354130E+02  0.7546771E-02  0.1485811E+00
          2   -1    0    0  502    0  0.00000000000E+00  0.00000000000E+00  0.62920074454E+03  0.62920074454E+03  0.00000000000E+00 0. -1.
         -2   -1    0    0    0  501 -0.00000000000E+00 -0.00000000000E+00 -0.88540899282E+00  0.88540899282E+00  0.00000000000E+00 0.  1.
          1    1    1    2  502    0 -0.23114728125E+02  0.44611884396E+01  0.29139955444E+03  0.29234892370E+03  0.00000000000E+00 0.  1.
         -1    1    1    2    0  501  0.23114728125E+02 -0.44611884396E+01  0.33691578110E+03  0.33773722983E+03  0.00000000000E+00 0. -1.
</event>
<event>
 4    1  0.1322546E+002  0.2446882E+02  0.7546771E-02  0.1474834E+00
          2   -1    0    0  502    0  0.00000000000E+00  0.00000000000E+00  0.10681649625E+04  0.10681649625E+04  0.00000000000E+00 0. -1.
         -2   -1    0    0    0  501 -0.00000000000E+00 -0.00000000000E+00 -0.11859318984E+01  0.11859318984E+01  0.00000000000E+00 0.  1.
          1    1    1    2  502    0  0.17249602586E+02 -0.17354382332E+02  0.92176939108E+03  0.92209410241E+03  0.00000000000E+00 0. -1.
         -1    1    1    2    0  501 -0.17249602586E+02  0.17354382332E+02  0.14520963954E+03  0.14725679200E+03  0.00000000000E+00 0.  1.
</event>
<event>
 4    1  0.1322546E+002  0.2487350E+02  0.7546771E-02  0.1470224E+00
          2   -1    0    0  502    0  0.00000000000E+00  0.00000000000E+00  0.37784907231E+02  0.37784907231E+02  0.00000000000E+00 0.  1.
         -2   -1    0    0    0  501 -0.00000000000E+00 -0.00000000000E+00 -0.52386499262E+02  0.52386499262E+02  0.00000000000E+00 0. -1.
          1    1    1    2  502    0  0.24703702755E+02  0.29013598747E+01 -0.44682205378E+02  0.51138931319E+02  0.00000000000E+00 0. -1.
         -1    1    1    2    0  501 -0.24703702755E+02 -0.29013598747E+01  0.30080613347E+02  0.39032475175E+02  0.00000000000E+00 0.  1.
</event>
<event>
 4    1  0.1322546E+002  0.7442511E+02  0.7546771E-02  0.1217417E+00
          2   -1    0    0  502    0  0.00000000000E+00  0.00000000000E+00  0.27268205760E+03  0.27268205760E+03  0.00000000000E+00 0. -1.
         -2   -1    0    0    0  501 -0.00000000000E+00 -0.00000000000E+00 -0.77261350660E+02  0.77261350660E+02  0.00000000000E+00 0.  1.
          1    1    1    2  502    0 -0.65912033601E+02  0.34564454562E+02 -0.52508952733E+02  0.91083960222E+02  0.00000000000E+00 0.  1.
         -1    1    1    2    0  501  0.65912033601E+02 -0.34564454562E+02  0.24792965967E+03  0.25885944804E+03  0.00000000000E+00 0. -1.
</event>
<event>
 4    1  0.1322546E+002  0.2195989E+02  0.7546771E-02  0.1505989E+00
          2   -1    0    0  502    0  0.00000000000E+00  0.00000000000E+00  0.27158909721E+03  0.27158909721E+03  0.00000000000E+00 0.  1.
         -2   -1    0    0    0  501 -0.00000000000E+00 -0.00000000000E+00 -0.24037270129E+01  0.24037270129E+01  0.00000000000E+00 0. -1.
          1    1    1    2  502    0 -0.17075434644E+02 -0.13808196429E+02  0.64562328225E+02  0.68194801728E+02  0.00000000000E+00 0. -1.
         -1    1    1    2    0  501  0.17075434644E+02  0.13808196429E+02  0.20462304198E+03  0.20579802250E+03  0.00000000000E+00 0.  1.
</event>
<event>
 4    1  0.1322546E+002  0.2188941E+02  0.7546771E-02  0.1506935E+00
          2   -1    0    0  502    0  0.00000000000E+00  0.00000000000E+00  0.46859671701E+03  0.46859671701E+03  0.00000000000E+00 0.  1.
         -2   -1    0    0    0  501 -0.00000000000E+00 -0.00000000000E+00 -0.27396146985E+01  0.27396146985E+01  0.00000000000E+00 0. -1.
          1    1    1    2  502    0  0.21867049865E+02 -0.98903365576E+00  0.41950388820E+03  0.42007458656E+03  0.00000000000E+00 0.  1.
         -1    1    1    2    0  501 -0.21867049865E+02  0.98903365576E+00  0.46353214113E+02  0.51261745151E+02  0.00000000000E+00 0. -1.
</event>
<event>
 4    1  0.1322546E+002  0.2059366E+02  0.7546771E-02  0.1525146E+00
          2   -1    0    0  502    0  0.00000000000E+00  0.00000000000E+00  0.47092199505E+01  0.47092199505E+01  0.00000000000E+00 0. -1.
         -2   -1    0    0    0  501 -0.00000000000E+00 -0.00000000000E+00 -0.14301742616E+03  0.14301742616E+03  0.00000000000E+00 0.  1.
          1    1    1    2  502    0  0.60861350567E+01  0.19673783839E+02 -0.11410202172E+03  0.11594554830E+03  0.00000000000E+00 0.  1.
         -1    1    1    2    0  501 -0.60861350567E+01 -0.19673783839E+02 -0.24206184498E+02  0.31781097817E+02  0.00000000000E+00 0. -1.
</event>
<event>
 4    1  0.1322546E+002  0.2107902E+02  0.7546771E-02  0.1518140E+00
          2   -1    0    0  502    0  0.00000000000E+00  0.00000000000E+00  0.36280461548E+03  0.36280461548E+03  0.00000000000E+00 0. -1.
         -2   -1    0    0    0  501 -0.00000000000E+00 -0.00000000000E+00 -0.12289792432E+01  0.12289792432E+01  0.00000000000E+00 0.  1.
          1    1    1    2  502    0 -0.19204536775E+02 -0.86896882145E+01  0.19153483829E+03  0.19269125355E+03  0.00000000000E+00 0.  1.
         -1    1    1    2    0  501  0.19204536775E+02  0.86896882145E+01  0.17004079794E+03  0.17134234117E+03  0.00000000000E+00 0. -1.
</event>
<event>
 4    1  0.1322546E+002  0.3380600E+02  0.7546771E-02  0.1389157E+00
          2   -1    0    0  502    0  0.00000000000E+00  0.00000000000E+00  0.11033082968E+04  0.11033082968E+04  0.00000000000E+00 0.  1.
         -2   -1    0    0    0  501 -0.00000000000E+00 -0.00000000000E+00 -0.10445276398E+01  0.10445276398E+01  0.00000000000E+00 0. -1.
          1    1    1    2  502    0  0.33802117602E+02 -0.51216100651E+00  0.50075965746E+03  0.50189947201E+03  0.00000000000E+00 0.  1.
         -1    1    1    2    0  501 -0.33802117602E+02  0.51216100651E+00  0.60150411172E+03  0.60245335245E+03  0.00000000000E+00 0. -1.
</event>
<event>
 4    1  0.1322546E+002  0.3737807E+02  0.7546771E-02  0.1364575E+00
          2   -1    0    0  502    0  0.00000000000E+00  0.00000000000E+00  0.44931015115E+03  0.44931015115E+03  0.00000000000E+00 0.  1.
         -2   -1    0    0    0  501 -0.00000000000E+00 -0.00000000000E+00 -0.54711280539E+01  0.54711280539E+01  0.00000000000E+00 0. -1.
          1    1    1    2  502    0 -0.82625554700E+00 -0.37368937695E+02  0.72522510204E+02  0.81588201898E+02  0.00000000000E+00 0. -1.
         -1    1    1    2    0  501  0.82625554700E+00  0.37368937695E+02  0.37131651290E+03  0.37319307731E+03  0.00000000000E+00 0.  1.
</event>
<event>
 4    1  0.1322546E+002  0.3528036E+02  0.7546771E-02  0.1378603E+00
          2   -1    0    0  502    0  0.00000000000E+00  0.00000000000E+00  0.23390023948E+04  0.23390023948E+04  0.00000000000E+00 0. -1.
         -2   -1    0    0    0  501 -0.00000000000E+00 -0.00000000000E+00 -0.57605828115E+00  0.57605828115E+00  0.00000000000E+00 0.  1.
          1    1    1    2  502    0 -0.98443438407E+01  0.33879084709E+02  0.14921670545E+04  0.14925840754E+04  0.00000000000E+00 0. -1.
         -1    1    1    2    0  501  0.98443438407E+01 -0.33879084709E+02  0.84625928204E+03  0.84699437774E+03  0.00000000000E+00 0.  1.
</event>
<event>
 4    1  0.1322546E+002  0.2452603E+02  0.7546771E-02  0.1474176E+00
          2   -1    0    0  502    0  0.00000000000E+00  0.00000000000E+00  0.41217904360E+03  0.41217904360E+03  0.00000000000E+00 0. -1.
         -2   -1    0    0    0  501 -0.00000000000E+00 -0.00000000000E+00 -0.14602941483E+01  0.14602941483E+01  0.00000000000E+00 0.  1.
          1    1    1    2  502    0 -0.17829336958E+02  0.16841642593E+02  0.20018699564E+03  0.20168381047E+03  0.00000000000E+00 0. -1.
         -1    1    1    2    0  501  0.17829336958E+02 -0.16841642593E+02  0.21053175381E+03  0.21195552728E+03  0.00000000000E+00 0.  1.
</event>
<event>
 4    1  0.1322546E+002  0.2198805E+02  0.7546771E-02  0.1505612E+00
          2   -1    0    0  502    0  0.00000000000E+00  0.00000000000E+00  0.12671032717E+03  0.12671032717E+03  0.00000000000E+00 0.  1.
         -2   -1    0    0    0  501 -0.00000000000E+00 -0.00000000000E+00 -0.38286005142E+01  0.38286005142E+01  0.00000000000E+00 0. -1.
          1    1    1    2  502    0 -0.21814873995E+02 -0.27541851286E+01  0.57635561096E+02  0.61687374445E+02  0.00000000000E+00 0. -1.
         -1    1    1    2    0  501  0.21814873995E+02  0.27541851286E+01  0.65246165560E+02  0.68851553239E+02  0.00000000000E+00 0.  1.
</event>
<event>
 4    1  0.1322546E+002  0.4053325E+02  0.7546771E-02  0.1345389E+00
          2   -1    0    0  502    0  0.00000000000E+00  0.00000000000E+00  0.70535039624E+02  0.70535039624E+02  0.00000000000E+00 0. -1.
         -2   -1    0    0    0  501 -0.00000000000E+00 -0.00000000000E+00 -0.38791088646E+02  0.38791088646E+02  0.00000000000E+00 0.  1.
          1    1    1    2  502    0  0.11179708329E+02 -0.38960989154E+02 -0.18679981087E+02  0.44630552849E+02  0.00000000000E+00 0.  1.
         -1    1    1    2    0  501 -0.11179708329E+02  0.38960989154E+02  0.50423932065E+02  0.64695575421E+02  0.00000000000E+00 0. -1.
</event>
<event>
 4    1  0.1322546E+002  0.3443054E+02  0.7546771E-02  0.1384611E+00
          2   -1    0    0  502    0  0.00000000000E+00  0.00000000000E+00  0.98756666150E+02  0.98756666150E+02  0.00000000000E+00 0. -1.
         -2   -1    0    0    0  501 -0.00000000000E+00 -0.00000000000E+00 -0.12010995188E+02  0.12010995188E+02  0.00000000000E+00 0.  1.
          1    1    1    2  502    0 -0.30935847147E+02  0.15114082080E+02  0.44721836009E+02  0.56440275795E+02  0.00000000000E+00 0. -1.
         -1    1    1    2    0  501  0.30935847147E+02 -0.15114082080E+02  0.42023834953E+02  0.54327385543E+02  0.00000000000E+00 0.  1.
</event>
<event>
 4    1  0.1322546E+002  0.4596504E+02  0.7546771E-02  0.1316683E+00
          2   -1    0    0  502    0  0.00000000000E+00  0.00000000000E+00  0.15147482284E+03  0.15147482284E+03  0.00000000000E+00 0. -1.
         -2   -1    0    0    0  501 -0.00000000000E+00 -0.00000000000E+00 -0.28307237368E+02  0.28307237368E+02  0.00000000000E+00 0.  1.
          1    1    1    2  502    0  0.70218688905E+01 -0.45425520219E+02 -0.24386047578E+01  0.46029678719E+02  0.00000000000E+00 0.  1.
         -1    1    1    2    0  501 -0.70218688905E+01  0.45425520219E+02  0.12560619023E+03  0.13375238149E+03  0.00000000000E+00 0. -1.
</event>
<event>
 4    1  0.1322546E+002  0.3528686E+02  0.7546771E-02  0.1378558E+00
          2   -1    0    0  502    0  0.00000000000E+00  0.00000000000E+00  0.62144566399E+02  0.62144566399E+02  0.00000000000E+00 0.  1.
         -2   -1    0    0    0  501 -0.00000000000E+00 -0.00000000000E+00 -0.20267982542E+02  0.20267982542E+02  0.00000000000E+00 0. -1.
          1    1    1    2  502    0  0.91567484336E+01 -0.34078097369E+02  0.25341503401E+02  0.43443694097E+02  0.00000000000E+00 0. -1.
         -1    1    1    2    0  501 -0.91567484336E+01  0.34078097369E+02  0.16535080456E+02  0.38968854844E+02  0.00000000000E+00 0.  1.
</event>
<event>
 4    1  0.1322546E+002  0.4499511E+02  0.7546771E-02  0.1321464E+00
          2   -1    0    0  502    0  0.00000000000E+00  0.00000000000E+00  0.13524600092E+04  0.13524600092E+04  0.00000000000E+00 0. -1.
         -2   -1    0    0    0  501 -0.00000000000E+00 -0.00000000000E+00 -0.52063050960E+01  0.52063050960E+01  0.00000000000E+00 0.  1.
          1    1    1    2  502    0 -0.50604920196E+01 -0.44709632764E+02  0.12466176779E+04  0.12474294347E+04  0.00000000000E+00 0. -1.
         -1    1    1    2    0  501  0.50604920196E+01  0.44709632764E+02  0.10063602624E+03  0.11023687958E+03  0.00000000000E+00 0.  1.
</event>
<event>
 4    1  0.1322546E+002  0.2268610E+02  0.7546771E-02  0.1496478E+00
          2   -1    0    0  502    0  0.00000000000E+00  0.00000000000E+00  0.11928264976E+04  0.11928264976E+04  0.00000000000E+00 0.  1.
         -2   -1    0    0    0  501 -0.00000000000E+00 -0.00000000000E+00 -0.61115627687E+00  0.61115627687E+00  0.00000000000E+00 0. -1.
          1    1    1    2  502    0 -0.40427399641E+01 -0.22322979957E+02  0.27254318155E+03  0.27348573088E+03  0.00000000000E+00 0. -1.
         -1    1    1    2    0  501  0.40427399641E+01  0.22322979957E+02  0.91967215973E+03  0.91995192297E+03  0.00000000000E+00 0.  1.
</event>
<event>
 4    1  0.1322546E+002  0.2547808E+02  0.7546771E-02  0.1463526E+00
          2   -1    0    0  502    0  0.00000000000E+00  0.00000000000E+00  0.38989039782E+02  0.38989039782E+02  0.00000000000E+00 0. -1.
         -2   -1    0    0    0  501 -0.00000000000E+00 -0.00000000000E+00 -0.22060021843E+02  0.22060021843E+02  0.00000000000E+00 0.  1.
          1    1    1    2  502    0 -0.16337539624E+02 -0.19550383067E+02  0.23582058295E+02  0.34716655260E+02  0.00000000000E+00 0.  1.
         -1    1    1    2    0  501  0.16337539624E+02  0.19550383067E+02 -0.66530403552E+01  0.26332406365E+02  0.00000000000E+00 0. -1.
</event>
<event>
 4    1  0.1322546E+002  0.2305093E+02  0.7546771E-02  0.1491860E+00
          2   -1    0    0  502    0  0.00000000000E+00  0.00000000000E+00  0.11473943561E+03  0.11473943561E+03  0.00000000000E+00 0.  1.
         -2   -1    0    0    0  501 -0.00000000000E+00 -0.00000000000E+00 -0.50407619106E+01  0.50407619106E+01  0.00000000000E+00 0. -1.
          1    1    1    2  502    0 -0.23050912442E+02  0.25473054157E-01  0.71927190402E+02  0.75530562903E+02  0.00000000000E+00 0.  1.
         -1    1    1    2    0  501  0.23050912442E+02 -0.25473054157E-01  0.37771483295E+02  0.44249634615E+02  0.00000000000E+00 0. -1.
</event>
<event>
 4    1  0.1322546E+002  0.2790072E+02  0.7546771E-02  0.1438764E+00
          2   -1    0    0  502    0  0.00000000000E+00  0.00000000000E+00  0.33715921694E+03  0.33715921694E+03  0.00000000000E+00 0.  1.
         -2   -1    0    0    0  501 -0.00000000000E+00 -0.00000000000E+00 -0.26393866657E+01  0.26393866657E+01  0.00000000000E+00 0. -1.
          1    1    1    2  502    0  0.19966966402E+02 -0.19487701128E+02  0.22738414775E+03  0.22908950411E+03  0.00000000000E+00 0.  1.
         -1    1    1    2    0  501 -0.19966966402E+02  0.19487701128E+02  0.10713568252E+03  0.11070909950E+03  0.00000000000E+00 0. -1.
</event>
<event>
 4    1  0.1322546E+002  0.2084509E+02  0.7546771E-02  0.1521488E+00
          2   -1    0    0  502    0  0.00000000000E+00  0.00000000000E+00  0.84573006093E+03  0.84573006093E+03  0.00000000000E+00 0. -1.
         -2   -1    0    0    0  501 -0.00000000000E+00 -0.00000000000E+00 -0.66064573034E+00  0.66064573034E+00  0.00000000000E+00 0.  1.
          1    1    1    2  502    0 -0.19326947564E+02 -0.78094213974E+01  0.62206964643E+03  0.62241880031E+03  0.00000000000E+00 0. -1.
         -1    1    1    2    0  501  0.19326947564E+02  0.78094213974E+01  0.22299976876E+03  0.22397190635E+03  0.00000000000E+00 0.  1.
</event>
<event>
 4    1  0.1322546E+002  0.2477493E+02  0.7546771E-02  0.1471337E+00
          2   -1    0    0  502    0  0.00000000000E+00  0.00000000000E+00  0.18218078769E+04  0.18218078769E+04  0.00000000000E+00 0.  1.
         -2   -1    0    0    0  501 -0.00000000000E+00 -0.00000000000E+00 -0.35530039202E+00  0.35530039202E+00  0.00000000000E+00 0. -1.
          1    1    1    2  502    0 -0.13346588375E+02 -0.20872609223E+02  0.11179681506E+04  0.11182426315E+04  0.00000000000E+00 0.  1.
         -1    1    1    2    0  501  0.13346588375E+02  0.20872609223E+02  0.70348442587E+03  0.70392054572E+03  0.00000000000E+00 0. -1.
</event>
<event>
 4    1  0.1322546E+002  0.2472598E+02  0.7546771E-02  0.1471892E+00
          2   -1    0    0  502    0  0.00000000000E+00  0.00000000000E+00  0.20672298472E+02  0.20672298472E+02  0.00000000000E+00 0.  1.
         -2   -1    0    0    0  501 -0.00000000000E+00 -0.00000000000E+00 -0.31649470091E+02  0.31649470091E+02  0.00000000000E+00 0. -1.
          1    1    1    2  502    0  0.24691954200E+02 -0.12966562169E+01  0.12097962128E+01  0.24755555466E+02  0.00000000000E+00 0. -1.
         -1    1    1    2    0  501 -0.24691954200E+02  0.12966562169E+01 -0.12186967831E+02  0.27566213097E+02  0.00000000000E+00 0.  1.
</event>
<event>
 4    1  0.1322546E+002  0.2192066E+02  0.7546771E-02  0.1506515E+00
          2   -1    0    0  502    0  0.00000000000E+00  0.00000000000E+00  0.28123373214E+03  0.28123373214E+03  0.00000000000E+00 0. -1.
         -2   -1    0    0    0  501 -0.00000000000E+00 -0.00000000000E+00 -0.17100699113E+01  0.17100699113E+01  0.00000000000E+00 0.  1.
          1    1    1    2  502    0 -0.81882429303E+01 -0.20333910179E+02  0.14391320224E+03  0.14557309162E+03  0.00000000000E+00 0. -1.
         -1    1    1    2    0  501  0.81882429303E+01  0.20333910179E+02  0.13561046000E+03  0.13737071044E+03  0.00000000000E+00 0.  1.
</event>
<event>
 4    1  0.1322546E+002  0.2510289E+02  0.7546771E-02  0.1467656E+00
          2   -1    0    0  502    0  0.00000000000E+00  0.00000000000E+00  0.18112804567E+03  0.18112804567E+03  0.00000000000E+00 0.  1.
         -2   -1    0    0    0  501 -0.00000000000E+00 -0.00000000000E+00 -0.50092160186E+01  0.50092160186E+01  0.00000000000E+00 0. -1.
          1    1    1    2  502    0 -0.13897538957E+02 -0.20904865736E+02  0.13949771007E+03  0.14173837206E+03  0.00000000000E+00 0.  1.
         -1    1    1    2    0  501  0.13897538957E+02  0.20904865736E+02  0.36621119580E+02  0.44398889624E+02  0.00000000000E+00 0. -1.
</event>
<event>
 4    1  0.1322546E+002  0.4690472E+02  0.7546771E-02  0.1312181E+00
          2   -1    0    0  502    0  0.00000000000E+00  0.00000000000E+00  0.47074416781E+03  0.47074416781E+03  0.00000000000E+00 0. -1.
         -2   -1    0    0    0  501 -0.00000000000E+00 -0.00000000000E+00 -0.53923263552E+01  0.53923263552E+01  0.00000000000E+00 0.  1.
          1    1    1    2  502    0  0.37644743083E+02 -0.27980820869E+02  0.31959318272E+03  0.32301680368E+03  0.00000000000E+00 0. -1.
         -1    1    1    2    0  501 -0.37644743083E+02  0.27980820869E+02  0.14575865874E+03  0.15311969049E+03  0.00000000000E+00 0.  1.
</event>
<event>
 4    1  0.1322546E+002  0.2176193E+02  0.7546771E-02  0.1508659E+00
          2   -1    0    0  502    0  0.00000000000E+00  0.00000000000E+00  0.46895011283E+03  0.46895011283E+03  0.00000000000E+00 0. -1.
         -2   -1    0    0    0  501 -0.00000000000E+00 -0.00000000000E+00 -0.11664866107E+01  0.11664866107E+01  0.00000000000E+00 0.  1.
          1    1    1    2  502    0 -0.10001990037E+02 -0.19327227781E+02  0.14776347183E+03  0.14935737393E+03  0.00000000000E+00 0.  1.
         -1    1    1    2    0  501  0.10001990037E+02  0.19327227781E+02  0.32002015439E+03  0.32075922551E+03  0.00000000000E+00 0. -1.
</event>
<event>
 4    1  0.1322546E+002  0.3050245E+02  0.7546771E-02  0.1415279E+00
          2   -1    0    0  502    0  0.00000000000E+00  0.00000000000E+00  0.32844413675E+03  0.32844413675E+03  0.00000000000E+00 0. -1.
         -2   -1    0    0    0  501 -0.00000000000E+00 -0.00000000000E+00 -0.31188998619E+01  0.31188998619E+01  0.00000000000E+00 0.  1.
          1    1    1    2  502    0  0.71400232757E+01 -0.29655007591E+02  0.21287766075E+03  0.21505184922E+03  0.00000000000E+00 0. -1.
         -1    1    1    2    0  501 -0.71400232757E+01  0.29655007591E+02  0.11244757614E+03  0.11651118739E+03  0.00000000000E+00 0.  1.
</event>
<event>
 4    1  0.1322546E+002  0.2222387E+02  0.7546771E-02  0.1502481E+00
          2   -1    0    0  502    0  0.00000000000E+00  0.00000000000E+00  0.35390559124E+03  0.35390559124E+03  0.00000000000E+00 0.  1.
         -2   -1    0    0    0  501 -0.00000000000E+00 -0.00000000000E+00 -0.21982171419E+01  0.21982171419E+01  0.00000000000E+00 0. -1.
          1    1    1    2  502    0  0.14658916194E+02  0.16703785820E+02  0.28344407203E+03  0.28431398533E+03  0.00000000000E+00 0.  1.
         -1    1    1    2    0  501 -0.14658916194E+02 -0.16703785820E+02  0.68263302067E+02  0.71789823052E+02  0.00000000000E+00 0. -1.
</event>
<event>
 4    1  0.1322546E+002  0.6214887E+02  0.7546771E-02  0.1252701E+00
          2   -1    0    0  502    0  0.00000000000E+00  0.00000000000E+00  0.25382867652E+02  0.25382867652E+02  0.00000000000E+00 0. -1.
         -2   -1    0    0    0  501 -0.00000000000E+00 -0.00000000000E+00 -0.15506882507E+03  0.15506882507E+03  0.00000000000E+00 0.  1.
          1    1    1    2  502    0  0.61579240880E+02  0.83951857098E+01 -0.52504402384E+02  0.81358431156E+02  0.00000000000E+00 0.  1.
         -1    1    1    2    0  501 -0.61579240880E+02 -0.83951857098E+01 -0.77181555031E+02  0.99093261564E+02  0.00000000000E+00 0. -1.
</event>
<event>
 4    1  0.1322546E+002  0.2236573E+02  0.7546771E-02  0.1500620E+00
          2   -1    0    0  502    0  0.00000000000E+00  0.00000000000E+00  0.70966450595E+03  0.70966450595E+03  0.00000000000E+00 0.  1.
         -2   -1    0    0    0  501 -0.00000000000E+00 -0.00000000000E+00 -0.12884852341E+01  0.12884852341E+01  0.00000000000E+00 0. -1.
          1    1    1    2  502    0 -0.35696432819E+01 -0.22079025151E+02  0.59342709154E+03  0.59384841389E+03  0.00000000000E+00 0.  1.
         -1    1    1    2    0  501  0.35696432819E+01  0.22079025151E+02  0.11494892918E+03  0.11710457730E+03  0.00000000000E+00 0. -1.
</event>
<event>
 4    1  0.1322546E+002  0.2562325E+02  0.7546771E-02  0.1461950E+00
          2   -1    0    0  502    0  0.00000000000E+00  0.00000000000E+00  0.39295313729E+02  0.39295313729E+02  0.00000000000E+00 0.  1.
         -2   -1    0    0    0  501 -0.00000000000E+00 -0.00000000000E+00 -0.16743751155E+02  0.16743751155E+02  0.00000000000E+00 0. -1.
          1    1    1    2  502    0  0.26942975253E+01  0.25481200224E+02  0.99832189350E+01  0.27499372072E+02  0.00000000000E+00 0.  1.
         -1    1    1    2    0  501 -0.26942975253E+01 -0.25481200224E+02  0.12568343639E+02  0.28539692813E+02  0.00000000000E+00 0. -1.
</event>
<event>
 4    1  0.1322546E+002  0.2348782E+02  0.7546771E-02  0.1486462E+00
          2   -1    0    0  502    0  0.00000000000E+00  0.00000000000E+00  0.58560141884E+03  0.58560141884E+03  0.00000000000E+00 0.  1.
         -2   -1    0    0    0  501 -0.00000000000E+00 -0.00000000000E+00 -0.94382873266E+00  0.94382873266E+00  0.00000000000E+00 0. -1.
          1    1    1    2  502    0 -0.16835729855E+01  0.23427400158E+02  0.30498873640E+03  0.30589182210E+03  0.00000000000E+00 0.  1.
         -1    1    1    2    0  501  0.16835729855E+01 -0.23427400158E+02  0.27966885371E+03  0.28065342548E+03  0.00000000000E+00 0. -1.
</event>
<event>
 4    1  0.1322546E+002  0.2331189E+02  0.7546771E-02  0.1488618E+00
          2   -1    0    0  502    0  0.00000000000E+00  0.00000000000E+00  0.11182687402E+04  0.11182687402E+04  0.00000000000E+00 0. -1.
         -2   -1    0    0    0  501 -0.00000000000E+00 -0.00000000000E+00 -0.51829603717E+00  0.51829603717E+00  0.00000000000E+00 0.  1.
          1    1    1    2  502    0  0.15412019140E+02 -0.17490395113E+02  0.69857945089E+03  0.69896830648E+03  0.00000000000E+00 0.  1.
         -1    1    1    2    0  501 -0.15412019140E+02  0.17490395113E+02  0.41917099331E+03  0.41981872979E+03  0.00000000000E+00 0. -1.
</event>
<event>
 4    1  0.1322546E+002  0.2380297E+02  0.7546771E-02  0.1482654E+00
          2   -1    0    0  502    0  0.00000000000E+00  0.00000000000E+00  0.21954182756E+01  0.21954182756E+01  0.00000000000E+00 0.  1.
         -2   -1    0    0    0  501 -0.00000000000E+00 -0.00000000000E+00 -0.34766710382E+03  0.34766710382E+03  0.00000000000E+00 0. -1.
          1    1    1    2  502    0 -0.23320602237E+02 -0.47676877117E+01 -0.26153766133E+03  0.26261860107E+03  0.00000000000E+00 0. -1.
         -1    1    1    2    0  501  0.23320602237E+02  0.47676877117E+01 -0.83934024212E+02  0.87243921021E+02  0.00000000000E+00 0.  1.
</event>
<event>
 4    1  0.1322546E+002  0.2093344E+02  0.7546771E-02  0.1520217E+00
          2   -1    0    0  502    0  0.00000000000E+00  0.00000000000E+00  0.86721018003E+00  0.86721018003E+00  0.00000000000E+00 0. -1.
         -2   -1    0    0    0  501 -0.00000000000E+00 -0.00000000000E+00 -0.59591677677E+03  0.59591677677E+03  0.00000000000E+00 0.  1.
          1    1    1    2  502    0 -0.18852078988E+02 -0.90998858177E+01 -0.41387787808E+03  0.41440693378E+03  0.00000000000E+00 0. -1.
         -1    1    1    2    0  501  0.18852078988E+02  0.90998858177E+01 -0.18117168851E+03  0.18237705317E+03  0.00000000000E+00 0.  1.
</event>
<event>
 4    1  0.1322546E+002  0.2334557E+02  0.7546771E-02  0.1488204E+00
          2   -1    0    0  502    0  0.00000000000E+00  0.00000000000E+00  0.23054600056E+04  0.23054600056E+04  0.00000000000E+00 0. -1.
         -2   -1    0    0    0  501 -0.00000000000E+00 -0.00000000000E+00 -0.26129258249E+00  0.26129258249E+00  0.00000000000E+00 0.  1.
          1    1    1    2  502    0  0.22308216081E+02  0.68818089352E+01  0.79678036062E+03  0.79712229856E+03  0.00000000000E+00 0.  1.
         -1    1    1    2    0  501 -0.22308216081E+02 -0.68818089352E+01  0.15084183524E+04  0.15085989996E+04  0.00000000000E+00 0. -1.
</event>
<event>
 4    1  0.1322546E+002  0.2011136E+02  0.7546771E-02  0.1532340E+00
          2   -1    0    0  502    0  0.00000000000E+00  0.00000000000E+00  0.23451576424E+03  0.23451576424E+03  0.00000000000E+00 0.  1.
         -2   -1    0    0    0  501 -0.00000000000E+00 -0.00000000000E+00 -0.26233639307E+01  0.26233639307E+01  0.00000000000E+00 0. -1.
          1    1    1    2  502    0 -0.41009859593E+01 -0.19688793538E+02  0.46548456606E+02  0.50707252827E+02  0.00000000000E+00 0. -1.
         -1    1    1    2    0  501  0.41009859593E+01  0.19688793538E+02  0.18534394370E+03  0.18643187534E+03  0.00000000000E+00 0.  1.
</event>
<event>
 4    1  0.1322546E+002  0.3922522E+02  0.7546771E-02  0.1353087E+00
          2   -1    0    0  502    0  0.00000000000E+00  0.00000000000E+00  0.81647634882E+03  0.81647634882E+03  0.00000000000E+00 0. -1.
         -2   -1    0    0    0  501 -0.00000000000E+00 -0.00000000000E+00 -0.21982602403E+01  0.21982602403E+01  0.00000000000E+00 0.  1.
          1    1    1    2  502    0  0.38809194820E+02 -0.56977181430E+01  0.25248263525E+03  0.25551144534E+03  0.00000000000E+00 0.  1.
         -1    1    1    2    0  501 -0.38809194820E+02  0.56977181430E+01  0.56179545333E+03  0.56316316373E+03  0.00000000000E+00 0. -1.
</event>
<event>
 4    1  0.1322546E+002  0.2308350E+02  0.7546771E-02  0.1491452E+00
          2   -1    0    0  502    0  0.00000000000E+00  0.00000000000E+00  0.93912658563E+03  0.93912658563E+03  0.00000000000E+00 0.  1.
         -2   -1    0    0    0  501 -0.00000000000E+00 -0.00000000000E+00 -0.73042872870E+00  0.73042872870E+00  0.00000000000E+00 0. -1.
          1    1    1    2  502    0 -0.21543544997E+02 -0.82899857294E+01  0.69121817367E+03  0.69160350766E+03  0.00000000000E+00 0.  1.
         -1    1    1    2    0  501  0.21543544997E+02  0.82899857294E+01  0.24717798323E+03  0.24825350670E+03  0.00000000000E+00 0. -1.
</event>
<event>
 4    1  0.1322546E+002  0.2079460E+02  0.7546771E-02  0.1522218E+00
          2   -1    0    0  502    0  0.00000000000E+00  0.00000000000E+00  0.21660416320E+03  0.21660416320E+03  0.00000000000E+00 0. -1.
         -2   -1    0    0    0  501 -0.00000000000E+00 -0.00000000000E+00 -0.11775022296E+02  0.11775022296E+02  0.00000000000E+00 0.  1.
          1    1    1    2  502    0 -0.20083076110E+02  0.53930940212E+01  0.20647505364E+03  0.20751954893E+03  0.00000000000E+00 0. -1.
         -1    1    1    2    0  501  0.20083076110E+02 -0.53930940212E+01 -0.16459127388E+01  0.20859636572E+02  0.00000000000E+00 0.  1.
</event>
<event>
 4    1  0.1322546E+002  0.2150509E+02  0.7546771E-02  0.1512174E+00
          2   -1    0    0  502    0  0.00000000000E+00  0.00000000000E+00  0.80021700797E+03  0.80021700797E+03  0.00000000000E+00 0.  1.
         -2   -1    0    0    0  501 -0.00000000000E+00 -0.00000000000E+00 -0.60855281254E+00  0.60855281254E+00  0.00000000000E+00 0. -1.
          1    1    1    2  502    0 -0.16631684819E+02 -0.13632895663E+02  0.30998135786E+03  0.31072642470E+03  0.00000000000E+00 0.  1.
         -1    1    1    2    0  501  0.16631684819E+02  0.13632895663E+02  0.48962709730E+03  0.49009913609E+03  0.00000000000E+00 0. -1.
</event>
<event>
 4    1  0.1322546E+002  0.2202912E+02  0.7546771E-02  0.1505063E+00
          2   -1    0    0  502    0  0.00000000000E+00  0.00000000000E+00  0.77342629781E+03  0.77342629781E+03  0.00000000000E+00 0. -1.
         -2   -1    0    0    0  501 -0.00000000000E+00 -0.00000000000E+00 -0.24189930703E+01  0.24189930703E+01  0.00000000000E+00 0.  1.
          1    1    1    2  502    0 -0.13038728273E+02 -0.17755947037E+02  0.71934652748E+03  0.71968375602E+03  0.00000000000E+00 0. -1.
         -1    1    1    2    0  501  0.13038728273E+02  0.17755947037E+02  0.51660777265E+02  0.56161534860E+02  0.00000000000E+00 0.  1.
</event>
<event>
 4    1  0.1322546E+002  0.2168353E+02  0.7546771E-02  0.1509725E+00
          2   -1    0    0  502    0  0.00000000000E+00  0.00000000000E+00  0.17708306557E+03  0.17708306557E+03  0.00000000000E+00 0.  1.
         -2   -1    0    0    0  501 -0.00000000000E+00 -0.00000000000E+00 -0.29142597337E+01  0.29142597337E+01  0.00000000000E+00 0. -1.
          1    1    1    2  502    0  0.36458494790E+01 -0.21374827481E+02  0.11392209601E+03  0.11596732052E+03  0.00000000000E+00 0.  1.
         -1    1    1    2    0  501 -0.36458494790E+01  0.21374827481E+02  0.60246709829E+02  0.64030004790E+02  0.00000000000E+00 0. -1.
</event>
<event>
 4    1  0.1322546E+002  0.2637706E+02  0.7546771E-02  0.1453968E+00
          2   -1    0    0  502    0  0.00000000000E+00  0.00000000000E+00  0.16767474269E+02  0.16767474269E+02  0.00000000000E+00 0.  1.
         -2   -1    0    0    0  501 -0.00000000000E+00 -0.00000000000E+00 -0.42982593311E+02  0.42982593311E+02  0.00000000000E+00 0. -1.
          1    1    1    2  502    0 -0.22447847310E+01  0.26281361690E+02 -0.75478143735E+01  0.27435716367E+02  0.00000000000E+00 0.  1.
         -1    1    1    2    0  501  0.22447847310E+01 -0.26281361690E+02 -0.18667304668E+02  0.32314351213E+02  0.00000000000E+00 0. -1.
</event>
<event>
 4    1  0.1322546E+002  0.3655674E+02  0.7546771E-02  0.1369937E+00
          2   -1    0    0  502    0  0.00000000000E+00  0.00000000000E+00  0.14220446376E+02  0.14220446376E+02  0.00000000000E+00 0.  1.
         -2   -1    0    0    0  501 -0.00000000000E+00 -0.00000000000E+00 -0.10542769700E+03  0.10542769700E+03  0.00000000000E+00 0. -1.
          1    1    1    2  502    0 -0.14196080649E+02  0.33687775266E+02 -0.65319431684E+02  0.74853343704E+02  0.00000000000E+00 0.  1.
         -1    1    1    2    0  501  0.14196080649E+02 -0.33687775266E+02 -0.25887818942E+02  0.44794799673E+02  0.00000000000E+00 0. -1.
</event>
<event>
 4    1  0.1322546E+002  0.2296490E+02  0.7546771E-02  0.1492939E+00
          2   -1    0    0  502    0  0.00000000000E+00  0.00000000000E+00  0.15397984632E+04  0.15397984632E+04  0.00000000000E+00 0.  1.
         -2   -1    0    0    0  501 -0.00000000000E+00 -0.00000000000E+00 -0.34465588316E+00  0.34465588316E+00  0.00000000000E+00 0. -1.
          1    1    1    2  502    0  0.43668487802E+01 -0.22545890658E+02  0.83058039801E+03  0.83089781810E+03  0.00000000000E+00 0. -1.
         -1    1    1    2    0  501 -0.43668487802E+01  0.22545890658E+02  0.70887340931E+03  0.70924530099E+03  0.00000000000E+00 0.  1.
</event>
<event>
 4    1  0.1322546E+002  0.4078146E+02  0.7546771E-02  0.1343966E+00
          2   -1    0    0  502    0  0.00000000000E+00  0.00000000000E+00  0.14936360999E+02  0.14936360999E+02  0.00000000000E+00 0.  1.
         -2   -1    0    0    0  501 -0.00000000000E+00 -0.00000000000E+00 -0.11138783006E+03  0.11138783006E+03  0.00000000000E+00 0. -1.
          1    1    1    2  502    0 -0.94032310813E+01 -0.39682578006E+02 -0.49426296402E+02  0.64078752547E+02  0.00000000000E+00 0. -1.
         -1    1    1    2    0  501  0.94032310813E+01  0.39682578006E+02 -0.47025172663E+02  0.62245438515E+02  0.00000000000E+00 0.  1.
</event>
<event>
 4    1  0.1322546E+002  0.4880456E+02  0.7546771E-02  0.1303440E+00
          2   -1    0    0  502    0  0.00000000000E+00  0.00000000000E+00  0.13874485812E+04  0.13874485812E+04  0.00000000000E+00 0.  1.
         -2   -1    0    0    0  501 -0.00000000000E+00 -0.00000000000E+00 -0.28370270615E+01  0.28370270615E+01  0.00000000000E+00 0. -1.
          1    1    1    2  502    0 -0.14320041608E+02  0.46656423379E+02  0.25548088578E+03  0.26010068903E+03  0.00000000000E+00 0. -1.
         -1    1    1    2    0  501  0.14320041608E+02 -0.46656423379E+02  0.11291306684E+04  0.11301849192E+04  0.00000000000E+00 0.  1.
</event>
<event>
 4    1  0.1322546E+002  0.4129163E+02  0.7546771E-02  0.1341079E+00
          2   -1    0    0  502    0  0.00000000000E+00  0.00000000000E+00  0.18843389086E+04  0.18843389086E+04  0.00000000000E+00 0.  1.
         -2   -1    0    0    0  501 -0.00000000000E+00 -0.00000000000E+00 -0.97390901794E+00  0.97390901794E+00  0.00000000000E+00 0. -1.
          1    1    1    2  502    0  0.40909856561E+02  0.56019652109E+01  0.11927443053E+04  0.11934588288E+04  0.00000000000E+00 0.  1.
         -1    1    1    2    0  501 -0.40909856561E+02 -0.56019652109E+01  0.69062069427E+03  0.69185398873E+03  0.00000000000E+00 0. -1.
</event>
<event>
 4    1  0.1322546E+002  0.2063538E+02  0.7546771E-02  0.1524535E+00
          2   -1    0    0  502    0  0.00000000000E+00  0.00000000000E+00  0.22353483457E+03  0.22353483457E+03  0.00000000000E+00 0.  1.
         -2   -1    0    0    0  501 -0.00000000000E+00 -0.00000000000E+00 -0.38271910825E+01  0.38271910825E+01  0.00000000000E+00 0. -1.
          1    1    1    2  502    0  0.15791996130E+01  0.20574861225E+02  0.29287458863E+02  0.35827001445E+02  0.00000000000E+00 0. -1.
         -1    1    1    2    0  501 -0.15791996130E+01 -0.20574861225E+02  0.19042018462E+03  0.19153502420E+03  0.00000000000E+00 0.  1.
</event>
<event>
 4    1  0.1322546E+002  0.3947305E+02  0.7546771E-02  0.1351602E+00
          2   -1    0    0  502    0  0.00000000000E+00  0.00000000000E+00  0.17149180907E+04  0.17149180907E+04  0.00000000000E+00 0. -1.
         -2   -1    0    0    0  501 -0.00000000000E+00 -0.00000000000E+00 -0.10906043072E+01  0.10906043072E+01  0.00000000000E+00 0.  1.
          1    1    1    2  502    0  0.38940163332E+02  0.64641615112E+01  0.12074504467E+04  0.12080954859E+04  0.00000000000E+00 0. -1.
         -1    1    1    2    0  501 -0.38940163332E+02 -0.64641615112E+01  0.50637703963E+03  0.50791320909E+03  0.00000000000E+00 0.  1.
</event>
<event>
 4    1  0.1322546E+002  0.3051339E+02  0.7546771E-02  0.1415187E+00
          2   -1    0    0  502    0  0.00000000000E+00  0.00000000000E+00  0.36264716826E+03  0.36264716826E+03  0.00000000000E+00 0.  1.
         -2   -1    0    0    0  501 -0.00000000000E+00 -0.00000000000E+00 -0.28133290223E+01  0.28133290223E+01  0.00000000000E+00 0. -1.
          1    1    1    2  502    0  0.30467439622E+02 -0.16739528417E+01  0.12589265445E+03  0.12953774523E+03  0.00000000000E+00 0. -1.
         -1    1    1    2    0  501 -0.30467439622E+02  0.16739528417E+01  0.23394118478E+03  0.23592275205E+03  0.00000000000E+00 0.  1.
</event>
<event>
 4    1  0.1322546E+002  0.2883357E+02  0.7546771E-02  0.1430011E+00
          2   -1    0    0  502    0  0.00000000000E+00  0.00000000000E+00  0.12517104942E+04  0.12517104942E+04  0.00000000000E+00 0. -1.
         -2   -1    0    0    0  501 -0.00000000000E+00 -0.00000000000E+00 -0.66722751281E+00  0.66722751281E+00  0.00000000000E+00 0.  1.
          1    1    1    2  502    0 -0.15254385420E+02 -0.24467909648E+02  0.58327869862E+03  0.58399093755E+03  0.00000000000E+00 0. -1.
         -1    1    1    2    0  501  0.15254385420E+02  0.24467909648E+02  0.66776456807E+03  0.66838678416E+03  0.00000000000E+00 0.  1.
</event>
<event>
 4    1  0.1322546E+002  0.7972736E+02  0.7546771E-02  0.1204482E+00
          2   -1    0    0  502    0  0.00000000000E+00  0.00000000000E+00  0.13625930238E+02  0.13625930238E+02  0.00000000000E+00 0. -1.
         -2   -1    0    0    0  501 -0.00000000000E+00 -0.00000000000E+00 -0.50657401945E+03  0.50657401945E+03  0.00000000000E+00 0.  1.
          1    1    1    2  502    0 -0.42195834585E+02  0.67645872246E+02 -0.31963304964E+03  0.32942637859E+03  0.00000000000E+00 0.  1.
         -1    1    1    2    0  501  0.42195834585E+02 -0.67645872246E+02 -0.17331503957E+03  0.19077357110E+03  0.00000000000E+00 0. -1.
</event>
<event>
 4    1  0.1322546E+002  0.2453298E+02  0.7546771E-02  0.1474096E+00
          2   -1    0    0  502    0  0.00000000000E+00  0.00000000000E+00  0.31407119894E+02  0.31407119894E+02  0.00000000000E+00 0. -1.
         -2   -1    0    0    0  501 -0.00000000000E+00 -0.00000000000E+00 -0.31027042010E+02  0.31027042010E+02  0.00000000000E+00 0.  1.
          1    1    1    2  502    0  0.13346262906E+02  0.20585047510E+02  0.19493326820E+02  0.31334592785E+02  0.00000000000E+00 0. -1.
         -1    1    1    2    0  501 -0.13346262906E+02 -0.20585047510E+02 -0.19113248936E+02  0.31099569119E+02  0.00000000000E+00 0.  1.
</event>
<event>
 4    1  0.1322546E+002  0.6406099E+02  0.7546771E-02  0.1246626E+00
          2   -1    0    0  502    0  0.00000000000E+00  0.00000000000E+00  0.18275793111E+02  0.18275793111E+02  0.00000000000E+00 0. -1.
         -2   -1    0    0    0  501 -0.00000000000E+00 -0.00000000000E+00 -0.22986951764E+03  0.22986951764E+03  0.00000000000E+00 0.  1.
          1    1    1    2  502    0  0.23147592575E+02  0.59732733177E+02 -0.86920700242E+02  0.10797693543E+03  0.00000000000E+00 0. -1.
         -1    1    1    2    0  501 -0.23147592575E+02 -0.59732733177E+02 -0.12467302429E+03  0.14016837532E+03  0.00000000000E+00 0.  1.
</event>
<event>
 4    1  0.1322546E+002  0.2022039E+02  0.7546771E-02  0.1530693E+00
          2   -1    0    0  502    0  0.00000000000E+00  0.00000000000E+00  0.19166512943E+03  0.19166512943E+03  0.00000000000E+00 0.  1.
         -2   -1    0    0    0  501 -0.00000000000E+00 -0.00000000000E+00 -0.24611184478E+01  0.24611184478E+01  0.00000000000E+00 0. -1.
          1    1    1    2  502    0  0.48750690337E+01  0.19623906816E+02  0.13003087055E+03  0.13159365985E+03  0.00000000000E+00 0.  1.
         -1    1    1    2    0  501 -0.48750690337E+01 -0.19623906816E+02  0.59173140436E+02  0.62532588031E+02  0.00000000000E+00 0. -1.
</event>
<event>
 4    1  0.1322546E+002  0.6028747E+02  0.7546771E-02  0.1258859E+00
          2   -1    0    0  502    0  0.00000000000E+00  0.00000000000E+00  0.94257807588E+03  0.94257807588E+03  0.00000000000E+00 0. -1.
         -2   -1    0    0    0  501 -0.00000000000E+00 -0.00000000000E+00 -0.42060240924E+01  0.42060240924E+01  0.00000000000E+00 0.  1.
          1    1    1    2  502    0 -0.27391411267E+02  0.53705583861E+02  0.60574973674E+03  0.60874241081E+03  0.00000000000E+00 0.  1.
         -1    1    1    2    0  501  0.27391411267E+02 -0.53705583861E+02  0.33262231504E+03  0.33804168916E+03  0.00000000000E+00 0. -1.
</event>
<event>
 4    1  0.1322546E+002  0.2269511E+02  0.7546771E-02  0.1496363E+00
          2   -1    0    0  502    0  0.00000000000E+00  0.00000000000E+00  0.23689846966E+04  0.23689846966E+04  0.00000000000E+00 0.  1.
         -2   -1    0    0    0  501 -0.00000000000E+00 -0.00000000000E+00 -0.22494482639E+00  0.22494482639E+00  0.00000000000E+00 0. -1.
          1    1    1    2  502    0 -0.19982615283E+02 -0.10759327044E+02  0.14010218305E+04  0.14012056371E+04  0.00000000000E+00 0.  1.
         -1    1    1    2    0  501  0.19982615283E+02  0.10759327044E+02  0.96773792127E+03  0.96800400428E+03  0.00000000000E+00 0. -1.
</event>
<event>
 4    1  0.1322546E+002  0.3762125E+02  0.7546771E-02  0.1363019E+00
          2   -1    0    0  502    0  0.00000000000E+00  0.00000000000E+00  0.94378312494E+02  0.94378312494E+02  0.00000000000E+00 0. -1.
         -2   -1    0    0    0  501 -0.00000000000E+00 -0.00000000000E+00 -0.18155680317E+02  0.18155680317E+02  0.00000000000E+00 0.  1.
          1    1    1    2  502    0  0.15764269533E+02  0.34159127806E+02  0.14640694339E+02  0.40369643757E+02  0.00000000000E+00 0.  1.
         -1    1    1    2    0  501 -0.15764269533E+02 -0.34159127806E+02  0.61581937838E+02  0.72164349053E+02  0.00000000000E+00 0. -1.
</event>
<event>
 4    1  0.1322546E+002  0.2394882E+02  0.7546771E-02  0.1480915E+00
          2   -1    0    0  502    0  0.00000000000E+00  0.00000000000E+00  0.63681702268E+02  0.63681702268E+02  0.00000000000E+00 0.  1.
         -2   -1    0    0    0  501 -0.00000000000E+00 -0.00000000000E+00 -0.12169194123E+02  0.12169194123E+02  0.00000000000E+00 0. -1.
          1    1    1    2  502    0  0.20816691209E+02 -0.11841092945E+02  0.45090702620E+02  0.51056023913E+02  0.00000000000E+00 0. -1.
         -1    1    1    2    0  501 -0.20816691209E+02  0.11841092945E+02  0.64218055253E+01  0.24794872479E+02  0.00000000000E+00 0.  1.
</event>
<event>
 4    1  0.1322546E+002  0.2054225E+02  0.7546771E-02  0.1525902E+00
          2   -1    0    0  502    0  0.00000000000E+00  0.00000000000E+00  0.64422559313E+02  0.64422559313E+02  0.00000000000E+00 0.  1.
         -2   -1    0    0    0  501 -0.00000000000E+00 -0.00000000000E+00 -0.68799482339E+01  0.68799482339E+01  0.00000000000E+00 0. -1.
          1    1    1    2  502    0 -0.41083112275E+01 -0.20127242282E+02  0.36575680767E+02  0.41949547394E+02  0.00000000000E+00 0.  1.
         -1    1    1    2    0  501  0.41083112275E+01  0.20127242282E+02  0.20966930312E+02  0.29352960153E+02  0.00000000000E+00 0. -1.
</event>
<event>
 4    1  0.1322546E+002  0.2977718E+02  0.7546771E-02  0.1421543E+00
          2   -1    0    0  502    0  0.00000000000E+00  0.00000000000E+00  0.14505186029E+03  0.14505186029E+03  0.00000000000E+00 0.  1.
         -2   -1    0    0    0  501 -0.00000000000E+00 -0.00000000000E+00 -0.91218612132E+01  0.91218612132E+01  0.00000000000E+00 0. -1.
          1    1    1    2  502    0 -0.29157807796E+02 -0.60417284928E+01  0.11223918151E+03  0.11612197942E+03  0.00000000000E+00 0.  1.
         -1    1    1    2    0  501  0.29157807796E+02  0.60417284928E+01  0.23690817573E+02  0.38051742088E+02  0.00000000000E+00 0. -1.
</event>
<event>
 4    1  0.1322546E+002  0.2222377E+02  0.7546771E-02  0.1502482E+00
          2   -1    0    0  502    0  0.00000000000E+00  0.00000000000E+00  0.12911418808E+03  0.12911418808E+03  0.00000000000E+00 0.  1.
         -2   -1    0    0    0  501 -0.00000000000E+00 -0.00000000000E+00 -0.38889336131E+01  0.38889336131E+01  0.00000000000E+00 0. -1.
          1    1    1    2  502    0 -0.40742727700E+01  0.21847106154E+02  0.71121765392E+02  0.74513094543E+02  0.00000000000E+00 0.  1.
         -1    1    1    2    0  501  0.40742727700E+01 -0.21847106154E+02  0.54103489072E+02  0.58490027147E+02  0.00000000000E+00 0. -1.
</event>
<event>
 4    1  0.1322546E+002  0.4155427E+02  0.7546771E-02  0.1339611E+00
          2   -1    0    0  502    0  0.00000000000E+00  0.00000000000E+00  0.10072730040E+04  0.10072730040E+04  0.00000000000E+00 0.  1.
         -2   -1    0    0    0  501 -0.00000000000E+00 -0.00000000000E+00 -0.19283420932E+01  0.19283420932E+01  0.00000000000E+00 0. -1.
          1    1    1    2  502    0 -0.20913437033E+01  0.41501608580E+02  0.33455351028E+03  0.33712432198E+03  0.00000000000E+00 0. -1.
         -1    1    1    2    0  501  0.20913437033E+01 -0.41501608580E+02  0.67079115167E+03  0.67207702415E+03  0.00000000000E+00 0.  1.
</event>
<event>
 4    1  0.1322546E+002  0.3199941E+02  0.7546771E-02  0.1402982E+00
          2   -1    0    0  502    0  0.00000000000E+00  0.00000000000E+00  0.36509749499E+03  0.36509749499E+03  0.00000000000E+00 0. -1.
         -2   -1    0    0    0  501 -0.00000000000E+00 -0.00000000000E+00 -0.31540310101E+01  0.31540310101E+01  0.00000000000E+00 0.  1.
          1    1    1    2  502    0 -0.17720176435E+02 -0.26645024937E+02  0.11968788659E+03  0.12389169546E+03  0.00000000000E+00 0.  1.
         -1    1    1    2    0  501  0.17720176435E+02  0.26645024937E+02  0.24225557739E+03  0.24435983054E+03  0.00000000000E+00 0. -1.
</event>
<event>
 4    1  0.1322546E+002  0.2170764E+02  0.7546771E-02  0.1509397E+00
          2   -1    0    0  502    0  0.00000000000E+00  0.00000000000E+00  0.11407580352E+04  0.11407580352E+04  0.00000000000E+00 0. -1.
         -2   -1    0    0    0  501 -0.00000000000E+00 -0.00000000000E+00 -0.42568348664E+00  0.42568348664E+00  0.00000000000E+00 0.  1.
          1    1    1    2  502    0 -0.18764408477E+02 -0.10914149778E+02  0.47197615197E+03  0.47247508899E+03  0.00000000000E+00 0. -1.
         -1    1    1    2    0  501  0.18764408477E+02  0.10914149778E+02  0.66835619978E+03  0.66870862973E+03  0.00000000000E+00 0.  1.
</event>
<event>
 4    1  0.1322546E+002  0.2554839E+02  0.7546771E-02  0.1462761E+00
          2   -1    0    0  502    0  0.00000000000E+00  0.00000000000E+00  0.65857395204E+03  0.65857395204E+03  0.00000000000E+00 0. -1.
         -2   -1    0    0    0  501 -0.00000000000E+00 -0.00000000000E+00 -0.99178005395E+00  0.99178005395E+00  0.00000000000E+00 0.  1.
          1    1    1    2  502    0  0.20942941095E+02 -0.14632614533E+02  0.33735361968E+03  0.33831964901E+03  0.00000000000E+00 0.  1.
         -1    1    1    2    0  501 -0.20942941095E+02  0.14632614533E+02  0.32022855230E+03  0.32124608309E+03  0.00000000000E+00 0. -1.
</event>
<event>
 4    1  0.1322546E+002  0.3115851E+02  0.7546771E-02  0.1409789E+00
          2   -1    0    0  502    0  0.00000000000E+00  0.00000000000E+00  0.37509698445E+03  0.37509698445E+03  0.00000000000E+00 0. -1.
         -2   -1    0    0    0  501 -0.00000000000E+00 -0.00000000000E+00 -0.32958191735E+01  0.32958191735E+01  0.00000000000E+00 0.  1.
          1    1    1    2  502    0 -0.75782434347E+01  0.30222891715E+02  0.27356209078E+03  0.27533083821E+03  0.00000000000E+00 0. -1.
         -1    1    1    2    0  501  0.75782434347E+01 -0.30222891715E+02  0.98239074501E+02  0.10306196542E+03  0.00000000000E+00 0.  1.
</event>
<event>
 4    1  0.1322546E+002  0.3603800E+02  0.7546771E-02  0.1373409E+00
          2   -1    0    0  502    0  0.00000000000E+00  0.00000000000E+00  0.24397269322E+04  0.24397269322E+04  0.00000000000E+00 0. -1.
         -2   -1    0    0    0  501 -0.00000000000E+00 -0.00000000000E+00 -0.63434023318E+00  0.63434023318E+00  0.00000000000E+00 0.  1.
          1    1    1    2  502    0 -0.16301709626E+02 -0.32140189022E+02  0.73023310799E+03  0.73112182945E+03  0.00000000000E+00 0. -1.
         -1    1    1    2    0  501  0.16301709626E+02  0.32140189022E+02  0.17088594840E+04  0.17092394430E+04  0.00000000000E+00 0.  1.
</event>
<event>
 4    1  0.1322546E+002  0.3459433E+02  0.7546771E-02  0.1383438E+00
          2   -1    0    0  502    0  0.00000000000E+00  0.00000000000E+00  0.17486708116E+04  0.17486708116E+04  0.00000000000E+00 0.  1.
         -2   -1    0    0    0  501 -0.00000000000E+00 -0.00000000000E+00 -0.74022458095E+00  0.74022458095E+00  0.00000000000E+00 0. -1.
          1    1    1    2  502    0  0.11153455668E+02  0.32747027272E+02  0.63372609947E+03  0.63466962785E+03  0.00000000000E+00 0. -1.
         -1    1    1    2    0  501 -0.11153455668E+02 -0.32747027272E+02  0.11142044875E+04  0.11147414083E+04  0.00000000000E+00 0.  1.
</event>
<event>
 4    1  0.1322546E+002  0.2610694E+02  0.7546771E-02  0.1456791E+00
          2   -1    0    0  502    0  0.00000000000E+00  0.00000000000E+00  0.41165971147E+02  0.41165971147E+02  0.00000000000E+00 0. -1.
         -2   -1    0    0    0  501 -0.00000000000E+00 -0.00000000000E+00 -0.21349050988E+02  0.21349050988E+02  0.00000000000E+00 0.  1.
          1    1    1    2  502    0  0.22358367910E+02  0.13478706774E+02  0.24717944751E+02  0.35952036724E+02  0.00000000000E+00 0. -1.
         -1    1    1    2    0  501 -0.22358367910E+02 -0.13478706774E+02 -0.49010245921E+01  0.26562985411E+02  0.00000000000E+00 0.  1.
</event>
<event>
 4    1  0.1322546E+002  0.2564910E+02  0.7546771E-02  0.1461671E+00
          2   -1    0    0  502    0  0.00000000000E+00  0.00000000000E+00  0.45384919463E+02  0.45384919463E+02  0.00000000000E+00 0.  1.
         -2   -1    0    0    0  501 -0.00000000000E+00 -0.00000000000E+00 -0.14674025418E+02  0.14674025418E+02  0.00000000000E+00 0. -1.
          1    1    1    2  502    0  0.17276391631E+02 -0.18957919150E+02  0.18667838753E+02  0.31723250306E+02  0.00000000000E+00 0. -1.
         -1    1    1    2    0  501 -0.17276391631E+02  0.18957919150E+02  0.12043055292E+02  0.28335694575E+02  0.00000000000E+00 0.  1.
</event>
<event>
 4    1  0.1322546E+002  0.5649975E+02  0.7546771E-02  0.1272212E+00
          2   -1    0    0  502    0  0.00000000000E+00  0.00000000000E+00  0.46195306417E+03  0.46195306417E+03  0.00000000000E+00 0.  1.
         -2   -1    0    0    0  501 -0.00000000000E+00 -0.00000000000E+00 -0.69712220388E+01  0.69712220388E+01  0.00000000000E+00 0. -1.
          1    1    1    2  502    0  0.53950382591E+02 -0.16780290403E+02  0.24941395291E+03  0.25573334127E+03  0.00000000000E+00 0.  1.
         -1    1    1    2    0  501 -0.53950382591E+02  0.16780290403E+02  0.20556788922E+03  0.21319094494E+03  0.00000000000E+00 0. -1.
</event>
<event>
 4    1  0.1322546E+002  0.2770215E+02  0.7546771E-02  0.1440680E+00
          2   -1    0    0  502    0  0.00000000000E+00  0.00000000000E+00  0.94759434499E+03  0.94759434499E+03  0.00000000000E+00 0.  1.
         -2   -1    0    0    0  501 -0.00000000000E+00 -0.00000000000E+00 -0.16513852660E+01  0.16513852660E+01  0.00000000000E+00 0. -1.
          1    1    1    2  502    0  0.18616641888E+02 -0.20514131808E+02  0.13415798353E+03  0.13698822396E+03  0.00000000000E+00 0. -1.
         -1    1    1    2    0  501 -0.18616641888E+02  0.20514131808E+02  0.81178497619E+03  0.81225750629E+03  0.00000000000E+00 0.  1.
</event>
<event>
 4    1  0.1322546E+002  0.4574720E+02  0.7546771E-02  0.1317745E+00
          2   -1    0    0  502    0  0.00000000000E+00  0.00000000000E+00  0.75649743513E+03  0.75649743513E+03  0.00000000000E+00 0.  1.
         -2   -1    0    0    0  501 -0.00000000000E+00 -0.00000000000E+00 -0.94008655981E+01  0.94008655981E+01  0.00000000000E+00 0. -1.
          1    1    1    2  502    0  0.34515263188E+02 -0.30025035465E+02  0.69525401203E+03  0.69675745234E+03  0.00000000000E+00 0.  1.
         -1    1    1    2    0  501 -0.34515263188E+02  0.30025035465E+02  0.51842557507E+02  0.69140848393E+02  0.00000000000E+00 0. -1.
</event>
<event>
 4    1  0.1322546E+002  0.2678553E+02  0.7546771E-02  0.1449774E+00
          2   -1    0    0  502    0  0.00000000000E+00  0.00000000000E+00  0.49402282687E+03  0.49402282687E+03  0.00000000000E+00 0.  1.
         -2   -1    0    0    0  501 -0.00000000000E+00 -0.00000000000E+00 -0.14696799105E+01  0.14696799105E+01  0.00000000000E+00 0. -1.
          1    1    1    2  502    0  0.19011599928E+02  0.18868586505E+02  0.27322556000E+03  0.27453537317E+03  0.00000000000E+00 0. -1.
         -1    1    1    2    0  501 -0.19011599928E+02 -0.18868586505E+02  0.21932758696E+03  0.22095713360E+03  0.00000000000E+00 0.  1.
</event>
<event>
 4    1  0.1322546E+002  0.3143401E+02  0.7546771E-02  0.1407531E+00
          2   -1    0    0  502    0  0.00000000000E+00  0.00000000000E+00  0.46236083984E+02  0.46236083984E+02  0.00000000000E+00 0.  1.
         -2   -1    0    0    0  501 -0.00000000000E+00 -0.00000000000E+00 -0.21376320943E+02  0.21376320943E+02  0.00000000000E+00 0. -1.
          1    1    1    2  502    0  0.14772358500E+02 -0.27746615263E+02  0.12978334959E+02  0.34007858100E+02  0.00000000000E+00 0. -1.
         -1    1    1    2    0  501 -0.14772358500E+02  0.27746615263E+02  0.11881428081E+02  0.33604546827E+02  0.00000000000E+00 0.  1.
</event>
<event>
 4    1  0.1322546E+002  0.2060210E+02  0.7546771E-02  0.1525022E+00
          2   -1    0    0  502    0  0.00000000000E+00  0.00000000000E+00  0.56430876963E+02  0.56430876963E+02  0.00000000000E+00 0. -1.
         -2   -1    0    0    0  501 -0.00000000000E+00 -0.00000000000E+00 -0.75304594129E+01  0.75304594129E+01  0.00000000000E+00 0.  1.
          1    1    1    2  502    0 -0.18232009493E+02  0.95937747705E+01  0.23349117323E+02  0.31138849758E+02  0.00000000000E+00 0. -1.
         -1    1    1    2    0  501  0.18232009493E+02 -0.95937747705E+01  0.25551300227E+02  0.32822486617E+02  0.00000000000E+00 0.  1.
</event>
<event>
 4    1  0.1322546E+002  0.2001387E+02  0.7546771E-02  0.1533824E+00
          2   -1    0    0  502    0  0.00000000000E+00  0.00000000000E+00  0.59217845617E+00  0.59217845617E+00  0.00000000000E+00 0.  1.
         -2   -1    0    0    0  501 -0.00000000000E+00 -0.00000000000E+00 -0.13323404665E+04  0.13323404665E+04  0.00000000000E+00 0. -1.
          1    1    1    2  502    0 -0.17814081311E+02  0.91221333410E+01 -0.19824685437E+03  0.19925453591E+03  0.00000000000E+00 0.  1.
         -1    1    1    2    0  501  0.17814081311E+02 -0.91221333410E+01 -0.11335014337E+04  0.11336781091E+04  0.00000000000E+00 0. -1.
</event>
<event>
 4    1  0.1322546E+002  0.2794353E+02  0.7546771E-02  0.1438354E+00
          2   -1    0    0  502    0  0.00000000000E+00  0.00000000000E+00  0.95766503256E+03  0.95766503256E+03  0.00000000000E+00 0. -1.
         -2   -1    0    0    0  501 -0.00000000000E+00 -0.00000000000E+00 -0.82446015560E+00  0.82446015560E+00  0.00000000000E+00 0.  1.
          1    1    1    2  502    0  0.10052518871E+02 -0.26072740809E+02  0.52877233720E+03  0.52951017510E+03  0.00000000000E+00 0. -1.
         -1    1    1    2    0  501 -0.10052518871E+02  0.26072740809E+02  0.42806823521E+03  0.42897931762E+03  0.00000000000E+00 0.  1.
</event>
<event>
 4    1  0.1322546E+002  0.2821907E+02  0.7546771E-02  0.1435732E+00
          2   -1    0    0  502    0  0.00000000000E+00  0.00000000000E+00  0.22093649757E+02  0.22093649757E+02  0.00000000000E+00 0. -1.
         -2   -1    0    0    0  501 -0.00000000000E+00 -0.00000000000E+00 -0.36435703458E+02  0.36435703458E+02  0.00000000000E+00 0.  1.
          1    1    1    2  502    0 -0.28096583372E+02 -0.26263620732E+01 -0.41318658707E+01  0.28519959511E+02  0.00000000000E+00 0. -1.
         -1    1    1    2    0  501  0.28096583372E+02  0.26263620732E+01 -0.10210187830E+02  0.30009393704E+02  0.00000000000E+00 0.  1.
</event>
<event>
 4    1  0.1322546E+002  0.2213589E+02  0.7546771E-02  0.1503644E+00
          2   -1    0    0  502    0  0.00000000000E+00  0.00000000000E+00  0.42438109718E+03  0.42438109718E+03  0.00000000000E+00 0. -1.
         -2   -1    0    0    0  501 -0.00000000000E+00 -0.00000000000E+00 -0.22224226407E+01  0.22224226407E+01  0.00000000000E+00 0.  1.
          1    1    1    2  502    0  0.19476357967E+02  0.10519932320E+02  0.63227310677E+02  0.66990225489E+02  0.00000000000E+00 0.  1.
         -1    1    1    2    0  501 -0.19476357967E+02 -0.10519932320E+02  0.35893136386E+03  0.35961329433E+03  0.00000000000E+00 0. -1.
</event>
<event>
 4    1  0.1322546E+002  0.2240694E+02  0.7546771E-02  0.1500083E+00
          2   -1    0    0  502    0  0.00000000000E+00  0.00000000000E+00  0.27450137634E+03  0.27450137634E+03  0.00000000000E+00 0.  1.
         -2   -1    0    0    0  501 -0.00000000000E+00 -0.00000000000E+00 -0.19166373592E+01  0.19166373592E+01  0.00000000000E+00 0. -1.
          1    1    1    2  502    0 -0.18738835701E+02  0.12285237943E+02  0.16584108666E+03  0.16734795206E+03  0.00000000000E+00 0.  1.
         -1    1    1    2    0  501  0.18738835701E+02 -0.12285237943E+02  0.10674365232E+03  0.10907006164E+03  0.00000000000E+00 0. -1.
</event>
<event>
 4    1  0.1322546E+002  0.2028330E+02  0.7546771E-02  0.1529748E+00
          2   -1    0    0  502    0  0.00000000000E+00  0.00000000000E+00  0.26605702075E+04  0.26605702075E+04  0.00000000000E+00 0. -1.
         -2   -1    0    0    0  501 -0.00000000000E+00 -0.00000000000E+00 -0.15512480363E+00  0.15512480363E+00  0.00000000000E+00 0.  1.
          1    1    1    2  502    0  0.17583832108E+02 -0.10110439412E+02  0.12553053059E+04  0.12554691646E+04  0.00000000000E+00 0.  1.
         -1    1    1    2    0  501 -0.17583832108E+02  0.10110439412E+02  0.14051097767E+04  0.14052561677E+04  0.00000000000E+00 0. -1.
</event>
<event>
 4    1  0.1322546E+002  0.2420946E+02  0.7546771E-02  0.1477845E+00
          2   -1    0    0  502    0  0.00000000000E+00  0.00000000000E+00  0.19258730722E+03  0.19258730722E+03  0.00000000000E+00 0. -1.
         -2   -1    0    0    0  501 -0.00000000000E+00 -0.00000000000E+00 -0.30498983882E+01  0.30498983882E+01  0.00000000000E+00 0.  1.
          1    1    1    2  502    0  0.12367548825E+02  0.20812054137E+02  0.90213318251E+02  0.93405249591E+02  0.00000000000E+00 0. -1.
         -1    1    1    2    0  501 -0.12367548825E+02 -0.20812054137E+02  0.99324090576E+02  0.10223195601E+03  0.00000000000E+00 0.  1.
</event>
<event>
 4    1  0.1322546E+002  0.4162745E+02  0.7546771E-02  0.1339204E+00
          2   -1    0    0  502    0  0.00000000000E+00  0.00000000000E+00  0.31838932397E+03  0.31838932397E+03  0.00000000000E+00 0. -1.
         -2   -1    0    0    0  501 -0.00000000000E+00 -0.00000000000E+00 -0.66038789783E+01  0.66038789783E+01  0.00000000000E+00 0.  1.
          1    1    1    2  502    0 -0.27428198679E+02 -0.31313549248E+02  0.22403639134E+03  0.22787090444E+03  0.00000000000E+00 0. -1.
         -1    1    1    2    0  501  0.27428198679E+02  0.31313549248E+02  0.87749053654E+02  0.97122298503E+02  0.00000000000E+00 0.  1.
</event>
<event>
 4    1  0.1322546E+002  0.3057502E+02  0.7546771E-02  0.1414664E+00
          2   -1    0    0  502    0  0.00000000000E+00  0.00000000000E+00  0.98175113614E+03  0.98175113614E+03  0.00000000000E+00 0.  1.
         -2   -1    0    0    0  501 -0.00000000000E+00 -0.00000000000E+00 -0.13969947195E+01  0.13969947195E+01  0.00000000000E+00 0. -1.
          1    1    1    2  502    0 -0.11711880517E+02  0.28242935581E+02  0.76755209396E+03  0.76816082203E+03  0.00000000000E+00 0.  1.
         -1    1    1    2    0  501  0.11711880517E+02 -0.28242935581E+02  0.21280204746E+03  0.21498730883E+03  0.00000000000E+00 0. -1.
</event>
<event>
 4    1  0.1322546E+002  0.3646093E+02  0.7546771E-02  0.1370573E+00
          2   -1    0    0  502    0  0.00000000000E+00  0.00000000000E+00  0.12507017770E+04  0.12507017770E+04  0.00000000000E+00 0. -1.
         -2   -1    0    0    0  501 -0.00000000000E+00 -0.00000000000E+00 -0.11976497110E+01  0.11976497110E+01  0.00000000000E+00 0.  1.
          1    1    1    2  502    0 -0.20493086186E+02 -0.30156800004E+02  0.83469538228E+03  0.83549134069E+03  0.00000000000E+00 0. -1.
         -1    1    1    2    0  501  0.20493086186E+02  0.30156800004E+02  0.41480874501E+03  0.41640808602E+03  0.00000000000E+00 0.  1.
</event>
<event>
 4    1  0.1322546E+002  0.2167528E+02  0.7546771E-02  0.1509838E+00
          2   -1    0    0  502    0  0.00000000000E+00  0.00000000000E+00  0.15943637030E+04  0.15943637030E+04  0.00000000000E+00 0.  1.
         -2   -1    0    0    0  501 -0.00000000000E+00 -0.00000000000E+00 -0.56729611828E+00  0.56729611828E+00  0.00000000000E+00 0. -1.
          1    1    1    2  502    0  0.20767353849E+02 -0.62076349648E+01  0.24407349244E+03  0.24503405362E+03  0.00000000000E+00 0. -1.
         -1    1    1    2    0  501 -0.20767353849E+02  0.62076349648E+01  0.13497229144E+04  0.13498969455E+04  0.00000000000E+00 0.  1.
</event>
<event>
 4    1  0.1322546E+002  0.5009642E+02  0.7546771E-02  0.1297755E+00
          2   -1    0    0  502    0  0.00000000000E+00  0.00000000000E+00  0.17368540262E+04  0.17368540262E+04  0.00000000000E+00 0. -1.
         -2   -1    0    0    0  501 -0.00000000000E+00 -0.00000000000E+00 -0.35502405048E+01  0.35502405048E+01  0.00000000000E+00 0.  1.
          1    1    1    2  502    0  0.38038507342E+01  0.49951799474E+02  0.19653864622E+03  0.20282280692E+03  0.00000000000E+00 0.  1.
         -1    1    1    2    0  501 -0.38038507342E+01 -0.49951799474E+02  0.15367651395E+04  0.15375814598E+04  0.00000000000E+00 0. -1.
</event>
<event>
 4    1  0.1322546E+002  0.3307448E+02  0.7546771E-02  0.1394630E+00
          2   -1    0    0  502    0  0.00000000000E+00  0.00000000000E+00  0.19434143380E+03  0.19434143380E+03  0.00000000000E+00 0.  1.
         -2   -1    0    0    0  501 -0.00000000000E+00 -0.00000000000E+00 -0.56577888499E+01  0.56577888499E+01  0.00000000000E+00 0. -1.
          1    1    1    2  502    0 -0.21594497242E+02 -0.25051923356E+02  0.10149210291E+03  0.10674534242E+03  0.00000000000E+00 0.  1.
         -1    1    1    2    0  501  0.21594497242E+02  0.25051923356E+02  0.87191542044E+02  0.93253880235E+02  0.00000000000E+00 0. -1.
</event>
<event>
 4    1  0.1322546E+002  0.2440341E+02  0.7546771E-02  0.1475589E+00
          2   -1    0    0  502    0  0.00000000000E+00  0.00000000000E+00  0.84975415201E+02  0.84975415201E+02  0.00000000000E+00 0.  1.
         -2   -1    0    0    0  501 -0.00000000000E+00 -0.00000000000E+00 -0.71096179522E+01  0.71096179522E+01  0.00000000000E+00 0. -1.
          1    1    1    2  502    0  0.21651713627E+02  0.11257424241E+02  0.33434286908E+02  0.41392968541E+02  0.00000000000E+00 0. -1.
         -1    1    1    2    0  501 -0.21651713627E+02 -0.11257424241E+02  0.44431510340E+02  0.50692064612E+02  0.00000000000E+00 0.  1.
</event>
<event>
 4    1  0.1322546E+002  0.2649923E+02  0.7546771E-02  0.1452704E+00
          2   -1    0    0  502    0  0.00000000000E+00  0.00000000000E+00  0.15731284623E+03  0.15731284623E+03  0.00000000000E+00 0.  1.
         -2   -1    0    0    0  501 -0.00000000000E+00 -0.00000000000E+00 -0.44992770285E+01  0.44992770285E+01  0.00000000000E+00 0. -1.
          1    1    1    2  502    0 -0.63860062450E+01 -0.25718242517E+02  0.69219923668E+02  0.74118870111E+02  0.00000000000E+00 0. -1.
         -1    1    1    2    0  501  0.63860062450E+01  0.25718242517E+02  0.83593645530E+02  0.87693253144E+02  0.00000000000E+00 0.  1.
</event>
<event>
 4    1  0.1322546E+002  0.2482651E+02  0.7546771E-02  0.1470754E+00
          2   -1    0    0  502    0  0.00000000000E+00  0.00000000000E+00  0.92746318038E+03  0.92746318038E+03  0.00000000000E+00 0.  1.
         -2   -1    0    0    0  501 -0.00000000000E+00 -0.00000000000E+00 -0.66553635665E+00  0.66553635665E+00  0.00000000000E+00 0. -1.
          1    1    1    2  502    0 -0.22874865392E+02  0.96486270516E+01  0.44562965180E+03  0.44632067176E+03  0.00000000000E+00 0. -1.
         -1    1    1    2    0  501  0.22874865392E+02 -0.96486270516E+01  0.48116799222E+03  0.48180804498E+03  0.00000000000E+00 0.  1.
</event>
<event>
 4    1  0.1322546E+002  0.2845671E+02  0.7546771E-02  0.1433499E+00
          2   -1    0    0  502    0  0.00000000000E+00  0.00000000000E+00  0.37895135797E+02  0.37895135797E+02  0.00000000000E+00 0.  1.
         -2   -1    0    0    0  501 -0.00000000000E+00 -0.00000000000E+00 -0.24464202703E+02  0.24464202703E+02  0.00000000000E+00 0. -1.
          1    1    1    2  502    0 -0.21417262950E+02 -0.18737270526E+02 -0.43748618212E+01  0.28791038102E+02  0.00000000000E+00 0.  1.
         -1    1    1    2    0  501  0.21417262950E+02  0.18737270526E+02  0.17805794915E+02  0.33568300398E+02  0.00000000000E+00 0. -1.
</event>
<event>
 4    1  0.1322546E+002  0.2209838E+02  0.7546771E-02  0.1504141E+00
          2   -1    0    0  502    0  0.00000000000E+00  0.00000000000E+00  0.10040320541E+04  0.10040320541E+04  0.00000000000E+00 0. -1.
         -2   -1    0    0    0  501 -0.00000000000E+00 -0.00000000000E+00 -0.49749586238E+00  0.49749586238E+00  0.00000000000E+00 0.  1.
          1    1    1    2  502    0 -0.99712592093E+01  0.19720859715E+02  0.42668042874E+03  0.42725229851E+03  0.00000000000E+00 0. -1.
         -1    1    1    2    0  501  0.99712592093E+01 -0.19720859715E+02  0.57685412953E+03  0.57727725147E+03  0.00000000000E+00 0.  1.
</event>
<event>
 4    1  0.1322546E+002  0.3945596E+02  0.7546771E-02  0.1351704E+00
          2   -1    0    0  502    0  0.00000000000E+00  0.00000000000E+00  0.20642456208E+01  0.20642456208E+01  0.00000000000E+00 0.  1.
         -2   -1    0    0    0  501 -0.00000000000E+00 -0.00000000000E+00 -0.88087986397E+03  0.88087986397E+03  0.00000000000E+00 0. -1.
          1    1    1    2  502    0 -0.36785078483E+02 -0.14269936022E+02 -0.27196523152E+03  0.27481240916E+03  0.00000000000E+00 0.  1.
         -1    1    1    2    0  501  0.36785078483E+02  0.14269936022E+02 -0.60685038683E+03  0.60813170043E+03  0.00000000000E+00 0. -1.
</event>
<event>
 4    1  0.1322546E+002  0.2160447E+02  0.7546771E-02  0.1510807E+00
          2   -1    0    0  502    0  0.00000000000E+00  0.00000000000E+00  0.90396573586E+01  0.90396573586E+01  0.00000000000E+00 0. -1.
         -2   -1    0    0    0  501 -0.00000000000E+00 -0.00000000000E+00 -0.53326362817E+02  0.53326362817E+02  0.00000000000E+00 0.  1.
          1    1    1    2  502    0 -0.13501688699E+02 -0.16865874030E+02 -0.27698543158E+02  0.35127803769E+02  0.00000000000E+00 0. -1.
         -1    1    1    2    0  501  0.13501688699E+02  0.16865874030E+02 -0.16588162300E+02  0.27238216406E+02  0.00000000000E+00 0.  1.
</event>
<event>
 4    1  0.1322546E+002  0.2278960E+02  0.7546771E-02  0.1495157E+00
          2   -1    0    0  502    0  0.00000000000E+00  0.00000000000E+00  0.20643433476E+03  0.20643433476E+03  0.00000000000E+00 0.  1.
         -2   -1    0    0    0  501 -0.00000000000E+00 -0.00000000000E+00 -0.25937553512E+01  0.25937553512E+01  0.00000000000E+00 0. -1.
          1    1    1    2  502    0 -0.55368134407E+01 -0.22106780636E+02  0.83811783894E+02  0.86854943283E+02  0.00000000000E+00 0. -1.
         -1    1    1    2    0  501  0.55368134407E+01  0.22106780636E+02  0.12002879552E+03  0.12217314683E+03  0.00000000000E+00 0.  1.
</event>
<event>
 4    1  0.1322546E+002  0.5062937E+02  0.7546771E-02  0.1295467E+00
          2   -1    0    0  502    0  0.00000000000E+00  0.00000000000E+00  0.13305407137E+04  0.13305407137E+04  0.00000000000E+00 0.  1.
         -2   -1    0    0    0  501 -0.00000000000E+00 -0.00000000000E+00 -0.64221431131E+01  0.64221431131E+01  0.00000000000E+00 0. -1.
          1    1    1    2  502    0  0.46263009327E+02  0.20568592609E+02  0.12213576992E+04  0.12224066273E+04  0.00000000000E+00 0.  1.
         -1    1    1    2    0  501 -0.46263009327E+02 -0.20568592609E+02  0.10276087131E+03  0.11455622946E+03  0.00000000000E+00 0. -1.
</event>
<event>
 4    1  0.1322546E+002  0.3385221E+02  0.7546771E-02  0.1388817E+00
          2   -1    0    0  502    0  0.00000000000E+00  0.00000000000E+00  0.23595483586E+03  0.23595483586E+03  0.00000000000E+00 0. -1.
         -2   -1    0    0    0  501 -0.00000000000E+00 -0.00000000000E+00 -0.59051337080E+01  0.59051337080E+01  0.00000000000E+00 0.  1.
          1    1    1    2  502    0  0.22951001896E+02 -0.24884208855E+02  0.16597910097E+03  0.16939608702E+03  0.00000000000E+00 0.  1.
         -1    1    1    2    0  501 -0.22951001896E+02  0.24884208855E+02  0.64070601183E+02  0.72463882550E+02  0.00000000000E+00 0. -1.
</event>
<event>
 4    1  0.1322546E+002  0.2763345E+02  0.7546771E-02  0.1441347E+00
          2   -1    0    0  502    0  0.00000000000E+00  0.00000000000E+00  0.25296240043E+04  0.25296240043E+04  0.00000000000E+00 0.  1.
         -2   -1    0    0    0  501 -0.00000000000E+00 -0.00000000000E+00 -0.45559646669E+00  0.45559646669E+00  0.00000000000E+00 0. -1.
          1    1    1    2  502    0 -0.26310146679E+02  0.84488781080E+01  0.19994263480E+04  0.19996172955E+04  0.00000000000E+00 0.  1.
         -1    1    1    2    0  501  0.26310146679E+02 -0.84488781080E+01  0.52974205991E+03  0.53046230535E+03  0.00000000000E+00 0. -1.
</event>
<event>
 4    1  0.1322546E+002  0.2474362E+02  0.7546771E-02  0.1471692E+00
          2   -1    0    0  502    0  0.00000000000E+00  0.00000000000E+00  0.14227804632E+03  0.14227804632E+03  0.00000000000E+00 0. -1.
         -2   -1    0    0    0  501 -0.00000000000E+00 -0.00000000000E+00 -0.49008642955E+01  0.49008642955E+01  0.00000000000E+00 0.  1.
          1    1    1    2  502    0  0.15235882057E+02  0.19496523921E+02  0.94387754845E+02  0.97577122379E+02  0.00000000000E+00 0. -1.
         -1    1    1    2    0  501 -0.15235882057E+02 -0.19496523921E+02  0.42989427179E+02  0.49601788236E+02  0.00000000000E+00 0.  1.
</event>
<event>
 4    1  0.1322546E+002  0.2958941E+02  0.7546771E-02  0.1423198E+00
          2   -1    0    0  502    0  0.00000000000E+00  0.00000000000E+00  0.12756558532E+04  0.12756558532E+04  0.00000000000E+00 0.  1.
         -2   -1    0    0    0  501 -0.00000000000E+00 -0.00000000000E+00 -0.70335407972E+00  0.70335407972E+00  0.00000000000E+00 0. -1.
          1    1    1    2  502    0 -0.28072808947E+02  0.93514960772E+01  0.73673429541E+03  0.73732825465E+03  0.00000000000E+00 0.  1.
         -1    1    1    2    0  501  0.28072808947E+02 -0.93514960772E+01  0.53821820368E+03  0.53903095260E+03  0.00000000000E+00 0. -1.
</event>
<event>
 4    1  0.1322546E+002  0.3545532E+02  0.7546771E-02  0.1377390E+00
          2   -1    0    0  502    0  0.00000000000E+00  0.00000000000E+00  0.28323188508E+03  0.28323188508E+03  0.00000000000E+00 0. -1.
         -2   -1    0    0    0  501 -0.00000000000E+00 -0.00000000000E+00 -0.48463709759E+01  0.48463709759E+01  0.00000000000E+00 0.  1.
          1    1    1    2  502    0 -0.33809232873E+02 -0.10677804348E+02  0.18098715813E+03  0.18442730584E+03  0.00000000000E+00 0.  1.
         -1    1    1    2    0  501  0.33809232873E+02  0.10677804348E+02  0.97398355971E+02  0.10365095021E+03  0.00000000000E+00 0. -1.
</event>
<event>
 4    1  0.1322546E+002  0.2010944E+02  0.7546771E-02  0.1532369E+00
          2   -1    0    0  502    0  0.00000000000E+00  0.00000000000E+00  0.13616687322E+04  0.13616687322E+04  0.00000000000E+00 0. -1.
         -2   -1    0    0    0  501 -0.00000000000E+00 -0.00000000000E+00 -0.70993898160E+00  0.70993898160E+00  0.00000000000E+00 0.  1.
          1    1    1    2  502    0  0.58805585788E+01  0.19230407214E+02  0.16094974164E+03  0.16220113706E+03  0.00000000000E+00 0.  1.
         -1    1    1    2    0  501 -0.58805585788E+01 -0.19230407214E+02  0.12000090515E+04  0.12001775341E+04  0.00000000000E+00 0. -1.
</event>
<event>
 4    1  0.1322546E+002  0.2773533E+02  0.7546771E-02  0.1440358E+00
          2   -1    0    0  502    0  0.00000000000E+00  0.00000000000E+00  0.32841950775E+02  0.32841950775E+02  0.00000000000E+00 0.  1.
         -2   -1    0    0    0  501 -0.00000000000E+00 -0.00000000000E+00 -0.30391899104E+02  0.30391899104E+02  0.00000000000E+00 0. -1.
          1    1    1    2  502    0 -0.11382730643E+02  0.25291933215E+02  0.16365201997E+02  0.32203544511E+02  0.00000000000E+00 0.  1.
         -1    1    1    2    0  501  0.11382730643E+02 -0.25291933215E+02 -0.13915150326E+02  0.31030305369E+02  0.00000000000E+00 0. -1.
</event>
<event>
 4    1  0.1322546E+002  0.2480344E+02  0.7546771E-02  0.1471014E+00
          2   -1    0    0  502    0  0.00000000000E+00  0.00000000000E+00  0.61235612825E+03  0.61235612825E+03  0.00000000000E+00 0. -1.
         -2   -1    0    0    0  501 -0.00000000000E+00 -0.00000000000E+00 -0.10099935975E+01  0.10099935975E+01  0.00000000000E+00 0.  1.
          1    1    1    2  502    0 -0.18995518759E+02  0.15949317894E+02  0.32795688703E+03  0.32889349374E+03  0.00000000000E+00 0.  1.
         -1    1    1    2    0  501  0.18995518759E+02 -0.15949317894E+02  0.28338924762E+03  0.28447262811E+03  0.00000000000E+00 0. -1.
</event>
<event>
 4    1  0.1322546E+002  0.2188784E+02  0.7546771E-02  0.1506957E+00
          2   -1    0    0  502    0  0.00000000000E+00  0.00000000000E+00  0.38785403246E+02  0.38785403246E+02  0.00000000000E+00 0. -1.
         -2   -1    0    0    0  501 -0.00000000000E+00 -0.00000000000E+00 -0.15754884593E+02  0.15754884593E+02  0.00000000000E+00 0.  1.
          1    1    1    2  502    0 -0.11003867043E+01  0.21860161263E+02 -0.11584311773E+01  0.21918473125E+02  0.00000000000E+00 0.  1.
         -1    1    1    2    0  501  0.11003867043E+01 -0.21860161263E+02  0.24188949830E+02  0.32621814714E+02  0.00000000000E+00 0. -1.
</event>
<event>
 4    1  0.1322546E+002  0.2142552E+02  0.7546771E-02  0.1513276E+00
          2   -1    0    0  502    0  0.00000000000E+00  0.00000000000E+00  0.13488820359E+04  0.13488820359E+04  0.00000000000E+00 0.  1.
         -2   -1    0    0    0  501 -0.00000000000E+00 -0.00000000000E+00 -0.74288142487E+00  0.74288142487E+00  0.00000000000E+00 0. -1.
          1    1    1    2  502    0  0.21220104356E+02 -0.29597087049E+01  0.17731834526E+03  0.17860808568E+03  0.00000000000E+00 0. -1.
         -1    1    1    2    0  501 -0.21220104356E+02  0.29597087049E+01  0.11708208092E+04  0.11710168317E+04  0.00000000000E+00 0.  1.
</event>
<event>
 4    1  0.1322546E+002  0.4655979E+02  0.7546771E-02  0.1313819E+00
          2   -1    0    0  502    0  0.00000000000E+00  0.00000000000E+00  0.10130345295E+04  0.10130345295E+04  0.00000000000E+00 0. -1.
         -2   -1    0    0    0  501 -0.00000000000E+00 -0.00000000000E+00 -0.23125395602E+01  0.23125395602E+01  0.00000000000E+00 0.  1.
          1    1    1    2  502    0 -0.40782387623E+02 -0.22463551457E+02  0.64406313459E+03  0.64574386224E+03  0.00000000000E+00 0. -1.
         -1    1    1    2    0  501  0.40782387623E+02  0.22463551457E+02  0.36665885531E+03  0.36960320678E+03  0.00000000000E+00 0.  1.
</event>
<event>
 4    1  0.1322546E+002  0.2189471E+02  0.7546771E-02  0.1506864E+00
          2   -1    0    0  502    0  0.00000000000E+00  0.00000000000E+00  0.46744273968E+02  0.46744273968E+02  0.00000000000E+00 0. -1.
         -2   -1    0    0    0  501 -0.00000000000E+00 -0.00000000000E+00 -0.11726798193E+02  0.11726798193E+02  0.00000000000E+00 0.  1.
          1    1    1    2  502    0 -0.17114441589E+02 -0.13655553900E+02  0.71526481976E+01  0.23033424397E+02  0.00000000000E+00 0.  1.
         -1    1    1    2    0  501  0.17114441589E+02  0.13655553900E+02  0.27864827577E+02  0.35437647765E+02  0.00000000000E+00 0. -1.
</event>
<event>
 4    1  0.1322546E+002  0.2453414E+02  0.7546771E-02  0.1474083E+00
          2   -1    0    0  502    0  0.00000000000E+00  0.00000000000E+00  0.37472505892E+01  0.37472505892E+01  0.00000000000E+00 0.  1.
         -2   -1    0    0    0  501 -0.00000000000E+00 -0.00000000000E+00 -0.17318699997E+03  0.17318699997E+03  0.00000000000E+00 0. -1.
          1    1    1    2  502    0  0.23736905875E+02  0.62035057306E+01 -0.60899319061E+02  0.65655550001E+02  0.00000000000E+00 0.  1.
         -1    1    1    2    0  501 -0.23736905875E+02 -0.62035057306E+01 -0.10854043032E+03  0.11127870056E+03  0.00000000000E+00 0. -1.
</event>
<event>
 4    1  0.1322546E+002  0.2752741E+02  0.7546771E-02  0.1442381E+00
          2   -1    0    0  502    0  0.00000000000E+00  0.00000000000E+00  0.14313345719E+04  0.14313345719E+04  0.00000000000E+00 0. -1.
         -2   -1    0    0    0  501 -0.00000000000E+00 -0.00000000000E+00 -0.89182067181E+00  0.89182067181E+00  0.00000000000E+00 0.  1.
          1    1    1    2  502    0 -0.20444860232E+02 -0.18432735997E+02  0.11717262245E+04  0.11720495310E+04  0.00000000000E+00 0. -1.
         -1    1    1    2    0  501  0.20444860232E+02  0.18432735997E+02  0.25871652674E+03  0.26017686153E+03  0.00000000000E+00 0.  1.
</event>
<event>
 4    1  0.1322546E+002  0.4477848E+02  0.7546771E-02  0.1322551E+00
          2   -1    0    0  502    0  0.00000000000E+00  0.00000000000E+00  0.50206089537E+03  0.50206089537E+03  0.00000000000E+00 0. -1.
         -2   -1    0    0    0  501 -0.00000000000E+00 -0.00000000000E+00 -0.69523543138E+01  0.69523543138E+01  0.00000000000E+00 0.  1.
          1    1    1    2  502    0 -0.44765001919E+02  0.10985739098E+01  0.81528453146E+02  0.93016132654E+02  0.00000000000E+00 0.  1.
         -1    1    1    2    0  501  0.44765001919E+02 -0.10985739098E+01  0.41358008791E+03  0.41599711703E+03  0.00000000000E+00 0. -1.
</event>
<event>
 4    1  0.1322546E+002  0.3276892E+02  0.7546771E-02  0.1396965E+00
          2   -1    0    0  502    0  0.00000000000E+00  0.00000000000E+00  0.34082624268E+03  0.34082624268E+03  0.00000000000E+00 0. -1.
         -2   -1    0    0    0  501 -0.00000000000E+00 -0.00000000000E+00 -0.42297119770E+01  0.42297119770E+01  0.00000000000E+00 0.  1.
          1    1    1    2  502    0  0.17440686825E+02 -0.27742102377E+02  0.81153650735E+02  0.87519808208E+02  0.00000000000E+00 0.  1.
         -1    1    1    2    0  501 -0.17440686825E+02  0.27742102377E+02  0.25544287996E+03  0.25753614644E+03  0.00000000000E+00 0. -1.
</event>
<event>
 4    1  0.1322546E+002  0.2574354E+02  0.7546771E-02  0.1460655E+00
          2   -1    0    0  502    0  0.00000000000E+00  0.00000000000E+00  0.15996992711E+03  0.15996992711E+03  0.00000000000E+00 0. -1.
         -2   -1    0    0    0  501 -0.00000000000E+00 -0.00000000000E+00 -0.52568525936E+01  0.52568525936E+01  0.00000000000E+00 0.  1.
          1    1    1    2  502    0 -0.40031288746E+01 -0.25430390825E+02  0.11538708555E+03  0.11822397951E+03  0.00000000000E+00 0. -1.
         -1    1    1    2    0  501  0.40031288746E+01  0.25430390825E+02  0.39325988965E+02  0.47002800197E+02  0.00000000000E+00 0.  1.
</event>
<event>
 4    1  0.1322546E+002  0.2034438E+02  0.7546771E-02  0.1528835E+00
          2   -1    0    0  502    0  0.00000000000E+00  0.00000000000E+00  0.17075577983E+04  0.17075577983E+04  0.00000000000E+00 0.  1.
         -2   -1    0    0    0  501 -0.00000000000E+00 -0.00000000000E+00 -0.42432828200E+00  0.42432828200E+00  0.00000000000E+00 0. -1.
          1    1    1    2  502    0 -0.19776837939E+02  0.47718232404E+01  0.29436912958E+03  0.29507131014E+03  0.00000000000E+00 0. -1.
         -1    1    1    2    0  501  0.19776837939E+02 -0.47718232404E+01  0.14127643405E+04  0.14129108165E+04  0.00000000000E+00 0.  1.
</event>
<event>
 4    1  0.1322546E+002  0.2714125E+02  0.7546771E-02  0.1446194E+00
          2   -1    0    0  502    0  0.00000000000E+00  0.00000000000E+00  0.32521621032E+03  0.32521621032E+03  0.00000000000E+00 0. -1.
         -2   -1    0    0    0  501 -0.00000000000E+00 -0.00000000000E+00 -0.22675829737E+01  0.22675829737E+01  0.00000000000E+00 0.  1.
          1    1    1    2  502    0 -0.20985735259E+02  0.17211808466E+02  0.16689196808E+03  0.16908452456E+03  0.00000000000E+00 0.  1.
         -1    1    1    2    0  501  0.20985735259E+02 -0.17211808466E+02  0.15605665927E+03  0.15839926874E+03  0.00000000000E+00 0. -1.
</event>
<event>
 4    1  0.1322546E+002  0.2523494E+02  0.7546771E-02  0.1466192E+00
          2   -1    0    0  502    0  0.00000000000E+00  0.00000000000E+00  0.36869373992E+03  0.36869373992E+03  0.00000000000E+00 0. -1.
         -2   -1    0    0    0  501 -0.00000000000E+00 -0.00000000000E+00 -0.47757186376E+01  0.47757186376E+01  0.00000000000E+00 0.  1.
          1    1    1    2  502    0 -0.14470363052E+02  0.20673913745E+02  0.33115297730E+03  0.33211307787E+03  0.00000000000E+00 0. -1.
         -1    1    1    2    0  501  0.14470363052E+02 -0.20673913745E+02  0.32765043974E+02  0.41356380681E+02  0.00000000000E+00 0.  1.
</event>
<event>
 4    1  0.1322546E+002  0.2081980E+02  0.7546771E-02  0.1521853E+00
          2   -1    0    0  502    0  0.00000000000E+00  0.00000000000E+00  0.20041690574E+02  0.20041690574E+02  0.00000000000E+00 0. -1.
         -2   -1    0    0    0  501 -0.00000000000E+00 -0.00000000000E+00 -0.27416516605E+02  0.27416516605E+02  0.00000000000E+00 0.  1.
          1    1    1    2  502    0  0.11667728761E+02 -0.17243205314E+02 -0.14590625007E+02  0.25423421525E+02  0.00000000000E+00 0. -1.
         -1    1    1    2    0  501 -0.11667728761E+02  0.17243205314E+02  0.72157989758E+01  0.22034785654E+02  0.00000000000E+00 0.  1.
</event>
<event>
 4    1  0.1322546E+002  0.2042760E+02  0.7546771E-02  0.1527596E+00
          2   -1    0    0  502    0  0.00000000000E+00  0.00000000000E+00  0.70666247324E+01  0.70666247324E+01  0.00000000000E+00 0. -1.
         -2   -1    0    0    0  501 -0.00000000000E+00 -0.00000000000E+00 -0.59811316249E+02  0.59811316249E+02  0.00000000000E+00 0.  1.
          1    1    1    2  502    0 -0.47401161346E+01  0.19870030280E+02 -0.22600636214E+02  0.30464332614E+02  0.00000000000E+00 0.  1.
         -1    1    1    2    0  501  0.47401161346E+01 -0.19870030280E+02 -0.30144055302E+02  0.36413608368E+02  0.00000000000E+00 0. -1.
</event>
<event>
 4    1  0.1322546E+002  0.2142620E+02  0.7546771E-02  0.1513266E+00
          2   -1    0    0  502    0  0.00000000000E+00  0.00000000000E+00  0.13066357244E+04  0.13066357244E+04  0.00000000000E+00 0. -1.
         -2   -1    0    0    0  501 -0.00000000000E+00 -0.00000000000E+00 -0.62669319617E+00  0.62669319617E+00  0.00000000000E+00 0.  1.
          1    1    1    2  502    0  0.15645333236E+02  0.14639182146E+02  0.10862610226E+04  0.10864723150E+04  0.00000000000E+00 0. -1.
         -1    1    1    2    0  501 -0.15645333236E+02 -0.14639182146E+02  0.21974800862E+03  0.22079010258E+03  0.00000000000E+00 0.  1.
</event>
<event>
 4    1  0.1322546E+002  0.2627225E+02  0.7546771E-02  0.1455059E+00
          2   -1    0    0  502    0  0.00000000000E+00  0.00000000000E+00  0.13391259578E+02  0.13391259578E+02  0.00000000000E+00 0. -1.
         -2   -1    0    0    0  501 -0.00000000000E+00 -0.00000000000E+00 -0.56122179136E+02  0.56122179136E+02  0.00000000000E+00 0.  1.
          1    1    1    2  502    0 -0.19002878740E+02 -0.18141719079E+02 -0.31293081474E+02  0.40859372483E+02  0.00000000000E+00 0.  1.
         -1    1    1    2    0  501  0.19002878740E+02  0.18141719079E+02 -0.11437838084E+02  0.28654066231E+02  0.00000000000E+00 0. -1.
</event>
<event>
 4    1  0.1322546E+002  0.2627554E+02  0.7546771E-02  0.1455024E+00
          2   -1    0    0  502    0  0.00000000000E+00  0.00000000000E+00  0.28483432516E+03  0.28483432516E+03  0.00000000000E+00 0.  1.
         -2   -1    0    0    0  501 -0.00000000000E+00 -0.00000000000E+00 -0.31582895706E+01  0.31582895706E+01  0.00000000000E+00 0. -1.
          1    1    1    2  502    0 -0.23546931494E+02  0.11659579167E+02  0.71400367183E+02  0.76081641695E+02  0.00000000000E+00 0.  1.
         -1    1    1    2    0  501  0.23546931494E+02 -0.11659579167E+02  0.21027566841E+03  0.21191097304E+03  0.00000000000E+00 0. -1.
</event>
<event>
 4    1  0.1322546E+002  0.2260337E+02  0.7546771E-02  0.1497540E+00
          2   -1    0    0  502    0  0.00000000000E+00  0.00000000000E+00  0.41713822135E+03  0.41713822135E+03  0.00000000000E+00 0. -1.
         -2   -1    0    0    0  501 -0.00000000000E+00 -0.00000000000E+00 -0.18379934005E+01  0.18379934005E+01  0.00000000000E+00 0.  1.
          1    1    1    2  502    0 -0.15669527854E+02 -0.16290429710E+02  0.32865001732E+03  0.32942638948E+03  0.00000000000E+00 0. -1.
         -1    1    1    2    0  501  0.15669527854E+02  0.16290429710E+02  0.86650210629E+02  0.89549825267E+02  0.00000000000E+00 0.  1.
</event>
<event>
 4    1  0.1322546E+002  0.2084196E+02  0.7546771E-02  0.1521533E+00
          2   -1    0    0  502    0  0.00000000000E+00  0.00000000000E+00  0.89967777025E+03  0.89967777025E+03  0.00000000000E+00 0. -1.
         -2   -1    0    0    0  501 -0.00000000000E+00 -0.00000000000E+00 -0.10335581642E+01  0.10335581642E+01  0.00000000000E+00 0.  1.
          1    1    1    2  502    0  0.17972647466E+02  0.10553248704E+02  0.77806675879E+03  0.77834585388E+03  0.00000000000E+00 0. -1.
         -1    1    1    2    0  501 -0.17972647466E+02 -0.10553248704E+02  0.12057745329E+03  0.12236547453E+03  0.00000000000E+00 0.  1.
</event>
<event>
 4    1  0.1322546E+002  0.3872975E+02  0.7546771E-02  0.1356095E+00
          2   -1    0    0  502    0  0.00000000000E+00  0.00000000000E+00  0.90591897845E+03  0.90591897845E+03  0.00000000000E+00 0. -1.
         -2   -1    0    0    0  501 -0.00000000000E+00 -0.00000000000E+00 -0.16562915092E+01  0.16562915092E+01  0.00000000000E+00 0.  1.
          1    1    1    2  502    0 -0.27230618306E+02 -0.27540637305E+02  0.46018517982E+03  0.46181207541E+03  0.00000000000E+00 0.  1.
         -1    1    1    2    0  501  0.27230618306E+02  0.27540637305E+02  0.44407750712E+03  0.44576319454E+03  0.00000000000E+00 0. -1.
</event>
<event>
 4    1  0.1322546E+002  0.2073425E+02  0.7546771E-02  0.1523093E+00
          2   -1    0    0  502    0  0.00000000000E+00  0.00000000000E+00  0.25172568462E+01  0.25172568462E+01  0.00000000000E+00 0. -1.
         -2   -1    0    0    0  501 -0.00000000000E+00 -0.00000000000E+00 -0.17458086265E+03  0.17458086265E+03  0.00000000000E+00 0.  1.
          1    1    1    2  502    0 -0.16107583860E+02 -0.13055828802E+02 -0.72974341082E+02  0.75862793120E+02  0.00000000000E+00 0. -1.
         -1    1    1    2    0  501  0.16107583860E+02  0.13055828802E+02 -0.99089264723E+02  0.10123532638E+03  0.00000000000E+00 0.  1.
</event>
<event>
 4    1  0.1322546E+002  0.2061365E+02  0.7546771E-02  0.1524853E+00
          2   -1    0    0  502    0  0.00000000000E+00  0.00000000000E+00  0.13900169629E+04  0.13900169629E+04  0.00000000000E+00 0.  1.
         -2   -1    0    0    0  501 -0.00000000000E+00 -0.00000000000E+00 -0.77667077229E+00  0.77667077229E+00  0.00000000000E+00 0. -1.
          1    1    1    2  502    0  0.18885815499E+02  0.82612632517E+01  0.15310191529E+03  0.15448339381E+03  0.00000000000E+00 0. -1.
         -1    1    1    2    0  501 -0.18885815499E+02 -0.82612632517E+01  0.12361383769E+04  0.12363102399E+04  0.00000000000E+00 0.  1.
</event>
<event>
 4    1  0.1322546E+002  0.6575855E+02  0.7546771E-02  0.1241430E+00
          2   -1    0    0  502    0  0.00000000000E+00  0.00000000000E+00  0.20653046612E+04  0.20653046612E+04  0.00000000000E+00 0.  1.
         -2   -1    0    0    0  501 -0.00000000000E+00 -0.00000000000E+00 -0.36824551801E+01  0.36824551801E+01  0.00000000000E+00 0. -1.
          1    1    1    2  502    0 -0.19319643946E+02  0.62856484967E+02  0.35132010287E+03  0.35742132145E+03  0.00000000000E+00 0. -1.
         -1    1    1    2    0  501  0.19319643946E+02 -0.62856484967E+02  0.17103021031E+04  0.17115657949E+04  0.00000000000E+00 0.  1.
</event>
<event>
 4    1  0.1322546E+002  0.4008737E+02  0.7546771E-02  0.1347975E+00
          2   -1    0    0  502    0  0.00000000000E+00  0.00000000000E+00  0.18920626791E+04  0.18920626791E+04  0.00000000000E+00 0. -1.
         -2   -1    0    0    0  501 -0.00000000000E+00 -0.00000000000E+00 -0.11569768486E+01  0.11569768486E+01  0.00000000000E+00 0.  1.
          1    1    1    2  502    0  0.32508247464E+02  0.23456580474E+02  0.45732843030E+03  0.45908200845E+03  0.00000000000E+00 0.  1.
         -1    1    1    2    0  501 -0.32508247464E+02 -0.23456580474E+02  0.14335772719E+04  0.14341376475E+04  0.00000000000E+00 0. -1.
</event>
<event>
 4    1  0.1322546E+002  0.2437920E+02  0.7546771E-02  0.1475870E+00
          2   -1    0    0  502    0  0.00000000000E+00  0.00000000000E+00  0.28729385438E+02  0.28729385438E+02  0.00000000000E+00 0. -1.
         -2   -1    0    0    0  501 -0.00000000000E+00 -0.00000000000E+00 -0.22612047406E+02  0.22612047406E+02  0.00000000000E+00 0.  1.
          1    1    1    2  502    0 -0.22509523495E+02  0.93630392546E+01  0.10547410226E+02  0.26563000858E+02  0.00000000000E+00 0. -1.
         -1    1    1    2    0  501  0.22509523495E+02 -0.93630392546E+01 -0.44300721943E+01  0.24778431987E+02  0.00000000000E+00 0.  1.
</event>
<event>
 4    1  0.1322546E+002  0.2117169E+02  0.7546771E-02  0.1516828E+00
          2   -1    0    0  502    0  0.00000000000E+00  0.00000000000E+00  0.33319404848E+00  0.33319404848E+00  0.00000000000E+00 0. -1.
         -2   -1    0    0    0  501 -0.00000000000E+00 -0.00000000000E+00 -0.13525006810E+04  0.13525006810E+04  0.00000000000E+00 0.  1.
          1    1    1    2  502    0 -0.21020910944E+02  0.25222510317E+01 -0.62667198627E+03  0.62702951990E+03  0.00000000000E+00 0. -1.
         -1    1    1    2    0  501  0.21020910944E+02 -0.25222510317E+01 -0.72549550073E+03  0.72580435520E+03  0.00000000000E+00 0.  1.
</event>
<event>
 4    1  0.1322546E+002  0.2161959E+02  0.7546771E-02  0.1510600E+00
          2   -1    0    0  502    0  0.00000000000E+00  0.00000000000E+00  0.22897647890E+03  0.22897647890E+03  0.00000000000E+00 0. -1.
         -2   -1    0    0    0  501 -0.00000000000E+00 -0.00000000000E+00 -0.30329213150E+01  0.30329213150E+01  0.00000000000E+00 0.  1.
          1    1    1    2  502    0 -0.14167055400E+02 -0.16330985178E+02  0.17930345223E+03  0.18060214427E+03  0.00000000000E+00 0. -1.
         -1    1    1    2    0  501  0.14167055400E+02  0.16330985178E+02  0.46640105355E+02  0.51407255939E+02  0.00000000000E+00 0.  1.
</event>
<event>
 4    1  0.1322546E+002  0.2592605E+02  0.7546771E-02  0.1458705E+00
          2   -1    0    0  502    0  0.00000000000E+00  0.00000000000E+00  0.27869753017E+04  0.27869753017E+04  0.00000000000E+00 0.  1.
         -2   -1    0    0    0  501 -0.00000000000E+00 -0.00000000000E+00 -0.27524166344E+00  0.27524166344E+00  0.00000000000E+00 0. -1.
          1    1    1    2  502    0  0.20233804699E+02 -0.16209664619E+02  0.90308845710E+03  0.90346052567E+03  0.00000000000E+00 0. -1.
         -1    1    1    2    0  501 -0.20233804699E+02  0.16209664619E+02  0.18836116029E+04  0.18837900177E+04  0.00000000000E+00 0.  1.
</event>
<event>
 4    1  0.1322546E+002  0.2595211E+02  0.7546771E-02  0.1458428E+00
          2   -1    0    0  502    0  0.00000000000E+00  0.00000000000E+00  0.78233318085E+02  0.78233318085E+02  0.00000000000E+00 0.  1.
         -2   -1    0    0    0  501 -0.00000000000E+00 -0.00000000000E+00 -0.93159498474E+01  0.93159498474E+01  0.00000000000E+00 0. -1.
          1    1    1    2  502    0  0.15610160711E+02  0.20732459665E+02  0.46517311974E+02  0.53266990852E+02  0.00000000000E+00 0.  1.
         -1    1    1    2    0  501 -0.15610160711E+02 -0.20732459665E+02  0.22400056263E+02  0.34282277080E+02  0.00000000000E+00 0. -1.
</event>
<event>
 4    1  0.1322546E+002  0.2500458E+02  0.7546771E-02  0.1468752E+00
          2   -1    0    0  502    0  0.00000000000E+00  0.00000000000E+00  0.31582207489E+03  0.31582207489E+03  0.00000000000E+00 0.  1.
         -2   -1    0    0    0  501 -0.00000000000E+00 -0.00000000000E+00 -0.24075042046E+01  0.24075042046E+01  0.00000000000E+00 0. -1.
          1    1    1    2  502    0  0.11097073257E+02  0.22407226864E+02  0.89632984715E+02  0.93055364163E+02  0.00000000000E+00 0.  1.
         -1    1    1    2    0  501 -0.11097073257E+02 -0.22407226864E+02  0.22378158597E+03  0.22517421493E+03  0.00000000000E+00 0. -1.
</event>
<event>
 4    1  0.1322546E+002  0.6570763E+02  0.7546771E-02  0.1241583E+00
          2   -1    0    0  502    0  0.00000000000E+00  0.00000000000E+00  0.85936219563E+01  0.85936219563E+01  0.00000000000E+00 0.  1.
         -2   -1    0    0    0  501 -0.00000000000E+00 -0.00000000000E+00 -0.64792081884E+03  0.64792081884E+03  0.00000000000E+00 0. -1.
          1    1    1    2  502    0 -0.48251438636E+02 -0.44601469204E+02 -0.47522650069E+03  0.47974755793E+03  0.00000000000E+00 0. -1.
         -1    1    1    2    0  501  0.48251438636E+02  0.44601469204E+02 -0.16410069619E+03  0.17676688286E+03  0.00000000000E+00 0.  1.
</event>
<event>
 4    1  0.1322546E+002  0.7018948E+02  0.7546771E-02  0.1228660E+00
          2   -1    0    0  502    0  0.00000000000E+00  0.00000000000E+00  0.11946040196E+04  0.11946040196E+04  0.00000000000E+00 0.  1.
         -2   -1    0    0    0  501 -0.00000000000E+00 -0.00000000000E+00 -0.80616221253E+01  0.80616221253E+01  0.00000000000E+00 0. -1.
          1    1    1    2  502    0  0.70011274555E+02  0.49985030684E+01  0.10135330223E+04  0.10159605066E+04  0.00000000000E+00 0.  1.
         -1    1    1    2    0  501 -0.70011274555E+02 -0.49985030684E+01  0.17300937514E+03  0.18670513513E+03  0.00000000000E+00 0. -1.
</event>
<event>
 4    1  0.1322546E+002  0.5336368E+02  0.7546771E-02  0.1284212E+00
          2   -1    0    0  502    0  0.00000000000E+00  0.00000000000E+00  0.12141846524E+04  0.12141846524E+04  0.00000000000E+00 0. -1.
         -2   -1    0    0    0  501 -0.00000000000E+00 -0.00000000000E+00 -0.27630038428E+01  0.27630038428E+01  0.00000000000E+00 0.  1.
          1    1    1    2  502    0  0.12355027130E+02  0.51913736929E+02  0.84228188916E+03  0.84397065327E+03  0.00000000000E+00 0. -1.
         -1    1    1    2    0  501 -0.12355027130E+02 -0.51913736929E+02  0.36913975939E+03  0.37297700296E+03  0.00000000000E+00 0.  1.
</event>
<event>
 4    1  0.1322546E+002  0.2353117E+02  0.7546771E-02  0.1485934E+00
          2   -1    0    0  502    0  0.00000000000E+00  0.00000000000E+00  0.15454382357E+01  0.15454382357E+01  0.00000000000E+00 0. -1.
         -2   -1    0    0    0  501 -0.00000000000E+00 -0.00000000000E+00 -0.37372303060E+03  0.37372303060E+03  0.00000000000E+00 0.  1.
          1    1    1    2  502    0 -0.23402573320E+02 -0.24567286831E+01 -0.22421773065E+03  0.22544912218E+03  0.00000000000E+00 0.  1.
         -1    1    1    2    0  501  0.23402573320E+02  0.24567286831E+01 -0.14795986172E+03  0.14981934666E+03  0.00000000000E+00 0. -1.
</event>
<event>
 4    1  0.1322546E+002  0.2795130E+02  0.7546771E-02  0.1438279E+00
          2   -1    0    0  502    0  0.00000000000E+00  0.00000000000E+00  0.16584970028E+04  0.16584970028E+04  0.00000000000E+00 0.  1.
         -2   -1    0    0    0  501 -0.00000000000E+00 -0.00000000000E+00 -0.52263433916E+00  0.52263433916E+00  0.00000000000E+00 0. -1.
          1    1    1    2  502    0 -0.84011238505E+01 -0.26658891891E+02  0.56844445040E+03  0.56913124021E+03  0.00000000000E+00 0.  1.
         -1    1    1    2    0  501  0.84011238505E+01  0.26658891891E+02  0.10895299180E+04  0.10898883969E+04  0.00000000000E+00 0. -1.
</event>
<event>
 4    1  0.1322546E+002  0.2235918E+02  0.7546771E-02  0.1500706E+00
          2   -1    0    0  502    0  0.00000000000E+00  0.00000000000E+00  0.81033455641E+01  0.81033455641E+01  0.00000000000E+00 0. -1.
         -2   -1    0    0    0  501 -0.00000000000E+00 -0.00000000000E+00 -0.16093616107E+03  0.16093616107E+03  0.00000000000E+00 0.  1.
          1    1    1    2  502    0  0.11993269394E+02 -0.18870464961E+02 -0.14278737026E+03  0.14452738863E+03  0.00000000000E+00 0.  1.
         -1    1    1    2    0  501 -0.11993269394E+02  0.18870464961E+02 -0.10045445238E+02  0.24512117996E+02  0.00000000000E+00 0. -1.
</event>
<event>
 4    1  0.1322546E+002  0.2309242E+02  0.7546771E-02  0.1491341E+00
          2   -1    0    0  502    0  0.00000000000E+00  0.00000000000E+00  0.10857805404E+04  0.10857805404E+04  0.00000000000E+00 0. -1.
         -2   -1    0    0    0  501 -0.00000000000E+00 -0.00000000000E+00 -0.49803125108E+00  0.49803125108E+00  0.00000000000E+00 0.  1.
          1    1    1    2  502    0  0.14681902783E+02 -0.17824186438E+02  0.60657534600E+03  0.60701475292E+03  0.00000000000E+00 0. -1.
         -1    1    1    2    0  501 -0.14681902783E+02  0.17824186438E+02  0.47870716320E+03  0.47926381878E+03  0.00000000000E+00 0.  1.
</event>
<event>
 4    1  0.1322546E+002  0.3916903E+02  0.7546771E-02  0.1353425E+00
          2   -1    0    0  502    0  0.00000000000E+00  0.00000000000E+00  0.27957616563E+02  0.27957616563E+02  0.00000000000E+00 0. -1.
         -2   -1    0    0    0  501 -0.00000000000E+00 -0.00000000000E+00 -0.59703239795E+02  0.59703239795E+02  0.00000000000E+00 0.  1.
          1    1    1    2  502    0 -0.23003650324E+01 -0.39101418789E+02 -0.34101913278E+01  0.39317197707E+02  0.00000000000E+00 0. -1.
         -1    1    1    2    0  501  0.23003650324E+01  0.39101418789E+02 -0.28335431904E+02  0.48343658651E+02  0.00000000000E+00 0.  1.
</event>
<event>
 4    1  0.1322546E+002  0.2347406E+02  0.7546771E-02  0.1486630E+00
          2   -1    0    0  502    0  0.00000000000E+00  0.00000000000E+00  0.13749165279E+03  0.13749165279E+03  0.00000000000E+00 0. -1.
         -2   -1    0    0    0  501 -0.00000000000E+00 -0.00000000000E+00 -0.52297497108E+01  0.52297497108E+01  0.00000000000E+00 0.  1.
          1    1    1    2  502    0 -0.22803699961E+02  0.55697976391E+01  0.31636024209E+02  0.39393773689E+02  0.00000000000E+00 0.  1.
         -1    1    1    2    0  501  0.22803699961E+02 -0.55697976391E+01  0.10062587887E+03  0.10332762881E+03  0.00000000000E+00 0. -1.
</event>
<event>
 4    1  0.1322546E+002  0.2453487E+02  0.7546771E-02  0.1474075E+00
          2   -1    0    0  502    0  0.00000000000E+00  0.00000000000E+00  0.93503974391E+00  0.93503974391E+00  0.00000000000E+00 0.  1.
         -2   -1    0    0    0  501 -0.00000000000E+00 -0.00000000000E+00 -0.64530092288E+03  0.64530092288E+03  0.00000000000E+00 0. -1.
          1    1    1    2  502    0  0.72812353246E+01  0.23429540775E+02 -0.30649552145E+03  0.30747595749E+03  0.00000000000E+00 0.  1.
         -1    1    1    2    0  501 -0.72812353246E+01 -0.23429540775E+02 -0.33787036169E+03  0.33876000513E+03  0.00000000000E+00 0. -1.
</event>
<event>
 4    1  0.1322546E+002  0.2964020E+02  0.7546771E-02  0.1422749E+00
          2   -1    0    0  502    0  0.00000000000E+00  0.00000000000E+00  0.14110919411E+04  0.14110919411E+04  0.00000000000E+00 0.  1.
         -2   -1    0    0    0  501 -0.00000000000E+00 -0.00000000000E+00 -0.87086294506E+00  0.87086294506E+00  0.00000000000E+00 0. -1.
          1    1    1    2  502    0  0.28870324390E+02 -0.67116249219E+01  0.10820546592E+04  0.10824605430E+04  0.00000000000E+00 0.  1.
         -1    1    1    2    0  501 -0.28870324390E+02  0.67116249219E+01  0.32816641898E+03  0.32950226112E+03  0.00000000000E+00 0. -1.
</event>
<event>
 4    1  0.1322546E+002  0.2171004E+02  0.7546771E-02  0.1509364E+00
          2   -1    0    0  502    0  0.00000000000E+00  0.00000000000E+00  0.25062160814E+04  0.25062160814E+04  0.00000000000E+00 0.  1.
         -2   -1    0    0    0  501 -0.00000000000E+00 -0.00000000000E+00 -0.18868513109E+00  0.18868513109E+00  0.00000000000E+00 0. -1.
          1    1    1    2  502    0  0.17313887670E+02 -0.13097903905E+02  0.13249907154E+04  0.13251685635E+04  0.00000000000E+00 0. -1.
         -1    1    1    2    0  501 -0.17313887670E+02  0.13097903905E+02  0.11810366808E+04  0.11812362030E+04  0.00000000000E+00 0.  1.
</event>
<event>
 4    1  0.1322546E+002  0.2222179E+02  0.7546771E-02  0.1502508E+00
          2   -1    0    0  502    0  0.00000000000E+00  0.00000000000E+00  0.24581638826E+04  0.24581638826E+04  0.00000000000E+00 0.  1.
         -2   -1    0    0    0  501 -0.00000000000E+00 -0.00000000000E+00 -0.22687214323E+00  0.22687214323E+00  0.00000000000E+00 0. -1.
          1    1    1    2  502    0  0.13896272039E+02 -0.17340750243E+02  0.16449849245E+04  0.16451350127E+04  0.00000000000E+00 0.  1.
         -1    1    1    2    0  501 -0.13896272039E+02  0.17340750243E+02  0.81295208600E+03  0.81325574214E+03  0.00000000000E+00 0. -1.
</event>
<event>
 4    1  0.1322546E+002  0.5410249E+02  0.7546771E-02  0.1281302E+00
          2   -1    0    0  502    0  0.00000000000E+00  0.00000000000E+00  0.78797351571E+03  0.78797351571E+03  0.00000000000E+00 0. -1.
         -2   -1    0    0    0  501 -0.00000000000E+00 -0.00000000000E+00 -0.39367740189E+01  0.39367740189E+01  0.00000000000E+00 0.  1.
          1    1    1    2  502    0 -0.48455674187E+02 -0.24065067210E+02  0.48606242048E+03  0.48906416392E+03  0.00000000000E+00 0. -1.
         -1    1    1    2    0  501  0.48455674187E+02  0.24065067210E+02  0.29797432121E+03  0.30284612581E+03  0.00000000000E+00 0.  1.
</event>
<event>
 4    1  0.1322546E+002  0.2320742E+02  0.7546771E-02  0.1489910E+00
          2   -1    0    0  502    0  0.00000000000E+00  0.00000000000E+00  0.14217878616E+02  0.14217878616E+02  0.00000000000E+00 0. -1.
         -2   -1    0    0    0  501 -0.00000000000E+00 -0.00000000000E+00 -0.38175283164E+02  0.38175283164E+02  0.00000000000E+00 0.  1.
          1    1    1    2  502    0  0.19716222514E+02  0.12241517920E+02 -0.14279644726E+02  0.27248714552E+02  0.00000000000E+00 0. -1.
         -1    1    1    2    0  501 -0.19716222514E+02 -0.12241517920E+02 -0.96777598218E+01  0.25144447228E+02  0.00000000000E+00 0.  1.
</event>
<event>
 4    1  0.1322546E+002  0.2388917E+02  0.7546771E-02  0.1481625E+00
          2   -1    0    0  502    0  0.00000000000E+00  0.00000000000E+00  0.23047145984E+04  0.23047145984E+04  0.00000000000E+00 0. -1.
         -2   -1    0    0    0  501 -0.00000000000E+00 -0.00000000000E+00 -0.27284693692E+00  0.27284693692E+00  0.00000000000E+00 0.  1.
          1    1    1    2  502    0  0.52390526439E+01  0.23307616541E+02  0.80178048650E+03  0.80213629839E+03  0.00000000000E+00 0.  1.
         -1    1    1    2    0  501 -0.52390526439E+01 -0.23307616541E+02  0.15026612650E+04  0.15028511470E+04  0.00000000000E+00 0. -1.
</event>
<event>
 4    1  0.1322546E+002  0.2634069E+02  0.7546771E-02  0.1454346E+00
          2   -1    0    0  502    0  0.00000000000E+00  0.00000000000E+00  0.17862470566E+02  0.17862470566E+02  0.00000000000E+00 0. -1.
         -2   -1    0    0    0  501 -0.00000000000E+00 -0.00000000000E+00 -0.41856847690E+02  0.41856847690E+02  0.00000000000E+00 0.  1.
          1    1    1    2  502    0 -0.20872736256E+02  0.16067391843E+02 -0.39848146641E+01  0.26640400660E+02  0.00000000000E+00 0. -1.
         -1    1    1    2    0  501  0.20872736256E+02 -0.16067391843E+02 -0.20009562461E+02  0.33078917596E+02  0.00000000000E+00 0.  1.
</event>
<event>
 4    1  0.1322546E+002  0.2845768E+02  0.7546771E-02  0.1433490E+00
          2   -1    0    0  502    0  0.00000000000E+00  0.00000000000E+00  0.27990267042E+03  0.27990267042E+03  0.00000000000E+00 0.  1.
         -2   -1    0    0    0  501 -0.00000000000E+00 -0.00000000000E+00 -0.42543720262E+01  0.42543720262E+01  0.00000000000E+00 0. -1.
          1    1    1    2  502    0  0.28141051113E+02  0.42333031720E+01  0.21818653772E+03  0.22003455377E+03  0.00000000000E+00 0.  1.
         -1    1    1    2    0  501 -0.28141051113E+02 -0.42333031720E+01  0.57461760679E+02  0.64122488674E+02  0.00000000000E+00 0. -1.
</event>
<event>
 4    1  0.1322546E+002  0.2724479E+02  0.7546771E-02  0.1445164E+00
          2   -1    0    0  502    0  0.00000000000E+00  0.00000000000E+00  0.48370686718E+03  0.48370686718E+03  0.00000000000E+00 0.  1.
         -2   -1    0    0    0  501 -0.00000000000E+00 -0.00000000000E+00 -0.35405759173E+01  0.35405759173E+01  0.00000000000E+00 0. -1.
          1    1    1    2  502    0 -0.11779362926E+02  0.24566755221E+02  0.42346207688E+03  0.42433761253E+03  0.00000000000E+00 0.  1.
         -1    1    1    2    0  501  0.11779362926E+02 -0.24566755221E+02  0.56704214378E+02  0.62909830561E+02  0.00000000000E+00 0. -1.
</event>
<event>
 4    1  0.1322546E+002  0.2692688E+02  0.7546771E-02  0.1448344E+00
          2   -1    0    0  502    0  0.00000000000E+00  0.00000000000E+00  0.13472047839E+04  0.13472047839E+04  0.00000000000E+00 0. -1.
         -2   -1    0    0    0  501 -0.00000000000E+00 -0.00000000000E+00 -0.14842045835E+01  0.14842045835E+01  0.00000000000E+00 0.  1.
          1    1    1    2  502    0  0.18179189965E+02  0.19863879074E+02  0.13448752535E+03  0.13715666631E+03  0.00000000000E+00 0.  1.
         -1    1    1    2    0  501 -0.18179189965E+02 -0.19863879074E+02  0.12112330540E+04  0.12115323222E+04  0.00000000000E+00 0. -1.
</event>
<event>
 4    1  0.1322546E+002  0.2888880E+02  0.7546771E-02  0.1429505E+00
          2   -1    0    0  502    0  0.00000000000E+00  0.00000000000E+00  0.52955553660E+03  0.52955553660E+03  0.00000000000E+00 0.  1.
         -2   -1    0    0    0  501 -0.00000000000E+00 -0.00000000000E+00 -0.18013565295E+01  0.18013565295E+01  0.00000000000E+00 0. -1.
          1    1    1    2  502    0  0.16525625728E+02 -0.23695286685E+02  0.35785413316E+03  0.35901830529E+03  0.00000000000E+00 0.  1.
         -1    1    1    2    0  501 -0.16525625728E+02  0.23695286685E+02  0.16990004691E+03  0.17233858784E+03  0.00000000000E+00 0. -1.
</event>
<event>
 4    1  0.1322546E+002  0.2028990E+02  0.7546771E-02  0.1529649E+00
          2   -1    0    0  502    0  0.00000000000E+00  0.00000000000E+00  0.47374416945E+02  0.47374416945E+02  0.00000000000E+00 0. -1.
         -2   -1    0    0    0  501 -0.00000000000E+00 -0.00000000000E+00 -0.23957245424E+02  0.23957245424E+02  0.00000000000E+00 0.  1.
          1    1    1    2  502    0  0.95991402475E+01  0.17875589057E+02 -0.16763239175E+02  0.26318935488E+02  0.00000000000E+00 0.  1.
         -1    1    1    2    0  501 -0.95991402475E+01 -0.17875589057E+02  0.40180410695E+02  0.45012726881E+02  0.00000000000E+00 0. -1.
</event>
<event>
 4    1  0.1322546E+002  0.2192105E+02  0.7546771E-02  0.1506510E+00
          2   -1    0    0  502    0  0.00000000000E+00  0.00000000000E+00  0.99477986982E+01  0.99477986982E+01  0.00000000000E+00 0. -1.
         -2   -1    0    0    0  501 -0.00000000000E+00 -0.00000000000E+00 -0.55197805850E+02  0.55197805850E+02  0.00000000000E+00 0.  1.
          1    1    1    2  502    0 -0.40742994525E+01  0.21539093810E+02 -0.11114896225E+02  0.24577904636E+02  0.00000000000E+00 0. -1.
         -1    1    1    2    0  501  0.40742994525E+01 -0.21539093810E+02 -0.34135110927E+02  0.40567699913E+02  0.00000000000E+00 0.  1.
</event>
<event>
 4    1  0.1322546E+002  0.3205499E+02  0.7546771E-02  0.1402541E+00
          2   -1    0    0  502    0  0.00000000000E+00  0.00000000000E+00  0.51821025817E+03  0.51821025817E+03  0.00000000000E+00 0.  1.
         -2   -1    0    0    0  501 -0.00000000000E+00 -0.00000000000E+00 -0.27007979784E+01  0.27007979784E+01  0.00000000000E+00 0. -1.
          1    1    1    2  502    0 -0.10528225435E+02 -0.30276709998E+02  0.39204364142E+03  0.39335192827E+03  0.00000000000E+00 0.  1.
         -1    1    1    2    0  501  0.10528225435E+02  0.30276709998E+02  0.12346581877E+03  0.12755912788E+03  0.00000000000E+00 0. -1.
</event>
<event>
 4    1  0.1322546E+002  0.2670853E+02  0.7546771E-02  0.1450558E+00
          2   -1    0    0  502    0  0.00000000000E+00  0.00000000000E+00  0.25323363671E+02  0.25323363671E+02  0.00000000000E+00 0.  1.
         -2   -1    0    0    0  501 -0.00000000000E+00 -0.00000000000E+00 -0.38480992616E+02  0.38480992616E+02  0.00000000000E+00 0. -1.
          1    1    1    2  502    0 -0.25093512973E+02  0.91466546364E+01 -0.23093056406E+02  0.35307717833E+02  0.00000000000E+00 0. -1.
         -1    1    1    2    0  501  0.25093512973E+02 -0.91466546364E+01  0.99354274618E+01  0.28496638455E+02  0.00000000000E+00 0.  1.
</event>
<event>
 4    1  0.1322546E+002  0.2782783E+02  0.7546771E-02  0.1439465E+00
          2   -1    0    0  502    0  0.00000000000E+00  0.00000000000E+00  0.45154043102E+00  0.45154043102E+00  0.00000000000E+00 0. -1.
         -2   -1    0    0    0  501 -0.00000000000E+00 -0.00000000000E+00 -0.17597664756E+04  0.17597664756E+04  0.00000000000E+00 0.  1.
          1    1    1    2  502    0 -0.78415356990E+01 -0.26700156033E+02 -0.73927060007E+03  0.73979416606E+03  0.00000000000E+00 0.  1.
         -1    1    1    2    0  501  0.78415356990E+01  0.26700156033E+02 -0.10200443351E+04  0.10204238500E+04  0.00000000000E+00 0. -1.
</event>
<event>
 4    1  0.1322546E+002  0.2437716E+02  0.7546771E-02  0.1475893E+00
          2   -1    0    0  502    0  0.00000000000E+00  0.00000000000E+00  0.11748662498E+04  0.11748662498E+04  0.00000000000E+00 0. -1.
         -2   -1    0    0    0  501 -0.00000000000E+00 -0.00000000000E+00 -0.60028424783E+00  0.60028424783E+00  0.00000000000E+00 0.  1.
          1    1    1    2  502    0 -0.20177297282E+02  0.13679271111E+02  0.35395659664E+03  0.35479503673E+03  0.00000000000E+00 0.  1.
         -1    1    1    2    0  501  0.20177297282E+02 -0.13679271111E+02  0.82030936894E+03  0.82067149734E+03  0.00000000000E+00 0. -1.
</event>
<event>
 4    1  0.1322546E+002  0.2381666E+02  0.7546771E-02  0.1482490E+00
          2   -1    0    0  502    0  0.00000000000E+00  0.00000000000E+00  0.54748619991E+03  0.54748619991E+03  0.00000000000E+00 0. -1.
         -2   -1    0    0    0  501 -0.00000000000E+00 -0.00000000000E+00 -0.12812734199E+01  0.12812734199E+01  0.00000000000E+00 0.  1.
          1    1    1    2  502    0 -0.23537994307E+02 -0.36326493462E+01  0.39313579683E+03  0.39385655773E+03  0.00000000000E+00 0. -1.
         -1    1    1    2    0  501  0.23537994307E+02  0.36326493462E+01  0.15306912966E+03  0.15491091560E+03  0.00000000000E+00 0.  1.
</event>
<event>
 4    1  0.1322546E+002  0.2765448E+02  0.7546771E-02  0.1441142E+00
          2   -1    0    0  502    0  0.00000000000E+00  0.00000000000E+00  0.77156135430E+03  0.77156135430E+03  0.00000000000E+00 0.  1.
         -2   -1    0    0    0  501 -0.00000000000E+00 -0.00000000000E+00 -0.10473489269E+01  0.10473489269E+01  0.00000000000E+00 0. -1.
          1    1    1    2  502    0  0.27466976942E+02  0.32149157198E+01  0.47470285219E+03  0.47550769540E+03  0.00000000000E+00 0.  1.
         -1    1    1    2    0  501 -0.27466976942E+02 -0.32149157198E+01  0.29581115319E+03  0.29710100783E+03  0.00000000000E+00 0. -1.
</event>
<event>
 4    1  0.1322546E+002  0.2228272E+02  0.7546771E-02  0.1501707E+00
          2   -1    0    0  502    0  0.00000000000E+00  0.00000000000E+00  0.82656854088E+03  0.82656854088E+03  0.00000000000E+00 0. -1.
         -2   -1    0    0    0  501 -0.00000000000E+00 -0.00000000000E+00 -0.67194424959E+00  0.67194424959E+00  0.00000000000E+00 0.  1.
          1    1    1    2  502    0 -0.15102435138E+01 -0.22231477567E+02  0.27826580431E+03  0.27915654619E+03  0.00000000000E+00 0. -1.
         -1    1    1    2    0  501  0.15102435138E+01  0.22231477567E+02  0.54763079232E+03  0.54808393894E+03  0.00000000000E+00 0.  1.
</event>
<event>
 4    1  0.1322546E+002  0.3101411E+02  0.7546771E-02  0.1410984E+00
          2   -1    0    0  502    0  0.00000000000E+00  0.00000000000E+00  0.60367416275E+01  0.60367416275E+01  0.00000000000E+00 0.  1.
         -2   -1    0    0    0  501 -0.00000000000E+00 -0.00000000000E+00 -0.16999714715E+03  0.16999714715E+03  0.00000000000E+00 0. -1.
          1    1    1    2  502    0 -0.30959904932E+02 -0.18328839353E+01 -0.59939224688E+02  0.67487671712E+02  0.00000000000E+00 0. -1.
         -1    1    1    2    0  501  0.30959904932E+02  0.18328839353E+01 -0.10402118083E+03  0.10854621706E+03  0.00000000000E+00 0.  1.
</event>
<event>
 4    1  0.1322546E+002  0.2243331E+02  0.7546771E-02  0.1499739E+00
          2   -1    0    0  502    0  0.00000000000E+00  0.00000000000E+00  0.40957684571E+02  0.40957684571E+02  0.00000000000E+00 0.  1.
         -2   -1    0    0    0  501 -0.00000000000E+00 -0.00000000000E+00 -0.21993937241E+02  0.21993937241E+02  0.00000000000E+00 0. -1.
          1    1    1    2  502    0  0.22038485789E+02  0.41902719981E+01  0.30392314104E+02  0.37774938675E+02  0.00000000000E+00 0.  1.
         -1    1    1    2    0  501 -0.22038485789E+02 -0.41902719981E+01 -0.11428566774E+02  0.25176683137E+02  0.00000000000E+00 0. -1.
</event>
<event>
 4    1  0.1322546E+002  0.2095213E+02  0.7546771E-02  0.1519949E+00
          2   -1    0    0  502    0  0.00000000000E+00  0.00000000000E+00  0.13484892523E+01  0.13484892523E+01  0.00000000000E+00 0. -1.
         -2   -1    0    0    0  501 -0.00000000000E+00 -0.00000000000E+00 -0.76723302411E+03  0.76723302411E+03  0.00000000000E+00 0.  1.
          1    1    1    2  502    0 -0.19347549630E+02  0.80413871742E+01 -0.67452040865E+03  0.67484574035E+03  0.00000000000E+00 0.  1.
         -1    1    1    2    0  501  0.19347549630E+02 -0.80413871742E+01 -0.91364126208E+02  0.93735773012E+02  0.00000000000E+00 0. -1.
</event>
<event>
 4    1  0.1322546E+002  0.2420500E+02  0.7546771E-02  0.1477897E+00
          2   -1    0    0  502    0  0.00000000000E+00  0.00000000000E+00  0.26302585884E+03  0.26302585884E+03  0.00000000000E+00 0.  1.
         -2   -1    0    0    0  501 -0.00000000000E+00 -0.00000000000E+00 -0.40776212083E+01  0.40776212083E+01  0.00000000000E+00 0. -1.
          1    1    1    2  502    0  0.23631162929E+02 -0.52392798908E+01  0.39514034387E+02  0.46338330016E+02  0.00000000000E+00 0. -1.
         -1    1    1    2    0  501 -0.23631162929E+02  0.52392798908E+01  0.21943420324E+03  0.22076515003E+03  0.00000000000E+00 0.  1.
</event>
<event>
 4    1  0.1322546E+002  0.3207204E+02  0.7546771E-02  0.1402406E+00
          2   -1    0    0  502    0  0.00000000000E+00  0.00000000000E+00  0.65663009484E+03  0.65663009484E+03  0.00000000000E+00 0.  1.
         -2   -1    0    0    0  501 -0.00000000000E+00 -0.00000000000E+00 -0.18600522036E+01  0.18600522036E+01  0.00000000000E+00 0. -1.
          1    1    1    2  502    0 -0.34824140062E+01 -0.31882417221E+02  0.19658912876E+03  0.19918810527E+03  0.00000000000E+00 0. -1.
         -1    1    1    2    0  501  0.34824140062E+01  0.31882417221E+02  0.45818091388E+03  0.45930204177E+03  0.00000000000E+00 0.  1.
</event>
<event>
 4    1  0.1322546E+002  0.3989936E+02  0.7546771E-02  0.1349077E+00
          2   -1    0    0  502    0  0.00000000000E+00  0.00000000000E+00  0.38549616849E+01  0.38549616849E+01  0.00000000000E+00 0.  1.
         -2   -1    0    0    0  501 -0.00000000000E+00 -0.00000000000E+00 -0.46644645705E+03  0.46644645705E+03  0.00000000000E+00 0. -1.
          1    1    1    2  502    0  0.38552472736E+02 -0.10279384303E+02 -0.15167015998E+03  0.15683047001E+03  0.00000000000E+00 0.  1.
         -1    1    1    2    0  501 -0.38552472736E+02  0.10279384303E+02 -0.31092133538E+03  0.31347094872E+03  0.00000000000E+00 0. -1.
</event>
<event>
 4    1  0.1322546E+002  0.2331332E+02  0.7546771E-02  0.1488601E+00
          2   -1    0    0  502    0  0.00000000000E+00  0.00000000000E+00  0.10549456006E+01  0.10549456006E+01  0.00000000000E+00 0.  1.
         -2   -1    0    0    0  501 -0.00000000000E+00 -0.00000000000E+00 -0.68769186964E+03  0.68769186964E+03  0.00000000000E+00 0. -1.
          1    1    1    2  502    0  0.23240466232E+02 -0.18416243871E+01 -0.51578845428E+03  0.51631505926E+03  0.00000000000E+00 0. -1.
         -1    1    1    2    0  501 -0.23240466232E+02  0.18416243871E+01 -0.17084846976E+03  0.17243175598E+03  0.00000000000E+00 0.  1.
</event>
<event>
 4    1  0.1322546E+002  0.2593840E+02  0.7546771E-02  0.1458574E+00
          2   -1    0    0  502    0  0.00000000000E+00  0.00000000000E+00  0.43251463087E+03  0.43251463087E+03  0.00000000000E+00 0.  1.
         -2   -1    0    0    0  501 -0.00000000000E+00 -0.00000000000E+00 -0.22425619625E+01  0.22425619625E+01  0.00000000000E+00 0. -1.
          1    1    1    2  502    0  0.14641719910E+02  0.21410757016E+02  0.94819589478E+02  0.98303382580E+02  0.00000000000E+00 0. -1.
         -1    1    1    2    0  501 -0.14641719910E+02 -0.21410757016E+02  0.33545247943E+03  0.33645381025E+03  0.00000000000E+00 0.  1.
</event>
<event>
 4    1  0.1322546E+002  0.2209976E+02  0.7546771E-02  0.1504123E+00
          2   -1    0    0  502    0  0.00000000000E+00  0.00000000000E+00  0.63307945905E+02  0.63307945905E+02  0.00000000000E+00 0. -1.
         -2   -1    0    0    0  501 -0.00000000000E+00 -0.00000000000E+00 -0.97097690489E+01  0.97097690489E+01  0.00000000000E+00 0.  1.
          1    1    1    2  502    0  0.18461072204E+02 -0.12148587153E+02  0.10249889519E+02  0.24361026084E+02  0.00000000000E+00 0.  1.
         -1    1    1    2    0  501 -0.18461072204E+02  0.12148587153E+02  0.43348287337E+02  0.48656688870E+02  0.00000000000E+00 0. -1.
</event>
<event>
 4    1  0.1322546E+002  0.2363984E+02  0.7546771E-02  0.1484616E+00
          2   -1    0    0  502    0  0.00000000000E+00  0.00000000000E+00  0.31931324215E+03  0.31931324215E+03  0.00000000000E+00 0.  1.
         -2   -1    0    0    0  501 -0.00000000000E+00 -0.00000000000E+00 -0.29037105977E+01  0.29037105977E+01  0.00000000000E+00 0. -1.
          1    1    1    2  502    0 -0.16996768665E+02  0.16430216114E+02  0.25975109895E+03  0.26082460688E+03  0.00000000000E+00 0.  1.
         -1    1    1    2    0  501  0.16996768665E+02 -0.16430216114E+02  0.56658432604E+02  0.61392345873E+02  0.00000000000E+00 0. -1.
</event>
<event>
 4    1  0.1322546E+002  0.2620793E+02  0.7546771E-02  0.1455731E+00
          2   -1    0    0  502    0  0.00000000000E+00  0.00000000000E+00  0.19751648940E+03  0.19751648940E+03  0.00000000000E+00 0.  1.
         -2   -1    0    0    0  501 -0.00000000000E+00 -0.00000000000E+00 -0.36794802052E+01  0.36794802052E+01  0.00000000000E+00 0. -1.
          1    1    1    2  502    0 -0.25549158457E+02  0.58391754184E+01  0.73346600389E+02  0.77888248511E+02  0.00000000000E+00 0.  1.
         -1    1    1    2    0  501  0.25549158457E+02 -0.58391754184E+01  0.12049040881E+03  0.12330772110E+03  0.00000000000E+00 0. -1.
</event>
<event>
 4    1  0.1322546E+002  0.2100011E+02  0.7546771E-02  0.1519263E+00
          2   -1    0    0  502    0  0.00000000000E+00  0.00000000000E+00  0.19557154983E+03  0.19557154983E+03  0.00000000000E+00 0.  1.
         -2   -1    0    0    0  501 -0.00000000000E+00 -0.00000000000E+00 -0.30273097195E+01  0.30273097195E+01  0.00000000000E+00 0. -1.
          1    1    1    2  502    0  0.10211464693E+02 -0.18350221061E+02  0.46115607359E+02  0.50672022520E+02  0.00000000000E+00 0. -1.
         -1    1    1    2    0  501 -0.10211464693E+02  0.18350221061E+02  0.14642863275E+03  0.14792683703E+03  0.00000000000E+00 0.  1.
</event>
<event>
 4    1  0.1322546E+002  0.2449501E+02  0.7546771E-02  0.1474533E+00
          2   -1    0    0  502    0  0.00000000000E+00  0.00000000000E+00  0.10989409184E+02  0.10989409184E+02  0.00000000000E+00 0. -1.
         -2   -1    0    0    0  501 -0.00000000000E+00 -0.00000000000E+00 -0.56691576990E+02  0.56691576990E+02  0.00000000000E+00 0.  1.
          1    1    1    2  502    0 -0.14422568982E+02  0.19798869615E+02 -0.16348806184E+02  0.29449774154E+02  0.00000000000E+00 0.  1.
         -1    1    1    2    0  501  0.14422568982E+02 -0.19798869615E+02 -0.29353361622E+02  0.38231212021E+02  0.00000000000E+00 0. -1.
</event>
<event>
 4    1  0.1322546E+002  0.2422545E+02  0.7546771E-02  0.1477658E+00
          2   -1    0    0  502    0  0.00000000000E+00  0.00000000000E+00  0.51171018265E+02  0.51171018265E+02  0.00000000000E+00 0. -1.
         -2   -1    0    0    0  501 -0.00000000000E+00 -0.00000000000E+00 -0.12901631661E+02  0.12901631661E+02  0.00000000000E+00 0.  1.
          1    1    1    2  502    0 -0.20154959551E+02  0.13440609523E+02  0.29810763639E+02  0.38412940627E+02  0.00000000000E+00 0.  1.
         -1    1    1    2    0  501  0.20154959551E+02 -0.13440609523E+02  0.84586229655E+01  0.25659709299E+02  0.00000000000E+00 0. -1.
</event>
<event>
 4    1  0.1322546E+002  0.2418660E+02  0.7546771E-02  0.1478112E+00
          2   -1    0    0  502    0  0.00000000000E+00  0.00000000000E+00  0.99808986404E+03  0.99808986404E+03  0.00000000000E+00 0.  1.
         -2   -1    0    0    0  501 -0.00000000000E+00 -0.00000000000E+00 -0.63771005254E+00  0.63771005254E+00  0.00000000000E+00 0. -1.
          1    1    1    2  502    0  0.19107909859E+02  0.14828332538E+02  0.35668126931E+03  0.35750037698E+03  0.00000000000E+00 0. -1.
         -1    1    1    2    0  501 -0.19107909859E+02 -0.14828332538E+02  0.64077088468E+03  0.64122719712E+03  0.00000000000E+00 0.  1.
</event>
<event>
 4    1  0.1322546E+002  0.2039858E+02  0.7546771E-02  0.1528027E+00
          2   -1    0    0  502    0  0.00000000000E+00  0.00000000000E+00  0.52427718810E+02  0.52427718810E+02  0.00000000000E+00 0.  1.
         -2   -1    0    0    0  501 -0.00000000000E+00 -0.00000000000E+00 -0.13212804391E+02  0.13212804391E+02  0.00000000000E+00 0. -1.
          1    1    1    2  502    0 -0.20282174799E+02 -0.21761360176E+01 -0.11322168479E+01  0.20429980360E+02  0.00000000000E+00 0. -1.
         -1    1    1    2    0  501  0.20282174799E+02  0.21761360176E+01  0.40347131267E+02  0.45210542841E+02  0.00000000000E+00 0.  1.
</event>
<event>
 4    1  0.1322546E+002  0.2692465E+02  0.7546771E-02  0.1448366E+00
          2   -1    0    0  502    0  0.00000000000E+00  0.00000000000E+00  0.66994353618E+03  0.66994353618E+03  0.00000000000E+00 0. -1.
         -2   -1    0    0    0  501 -0.00000000000E+00 -0.00000000000E+00 -0.10875633484E+01  0.10875633484E+01  0.00000000000E+00 0.  1.
          1    1    1    2  502    0  0.32736675137E+01 -0.26724892690E+02  0.35823773207E+03  0.35924811686E+03  0.00000000000E+00 0. -1.
         -1    1    1    2    0  501 -0.32736675137E+01  0.26724892690E+02  0.31061824075E+03  0.31178298266E+03  0.00000000000E+00 0.  1.
</event>
<event>
 4    1  0.1322546E+002  0.2537928E+02  0.7546771E-02  0.1464605E+00
          2   -1    0    0  502    0  0.00000000000E+00  0.00000000000E+00  0.15037195096E+04  0.15037195096E+04  0.00000000000E+00 0. -1.
         -2   -1    0    0    0  501 -0.00000000000E+00 -0.00000000000E+00 -0.42834361993E+00  0.42834361993E+00  0.00000000000E+00 0.  1.
          1    1    1    2  502    0 -0.23198109783E+02  0.10293478851E+02  0.75088791596E+03  0.75131669111E+03  0.00000000000E+00 0.  1.
         -1    1    1    2    0  501  0.23198109783E+02 -0.10293478851E+02  0.75240325000E+03  0.75283116209E+03  0.00000000000E+00 0. -1.
</event>
<event>
 4    1  0.1322546E+002  0.2635693E+02  0.7546771E-02  0.1454177E+00
          2   -1    0    0  502    0  0.00000000000E+00  0.00000000000E+00  0.16991957039E+03  0.16991957039E+03  0.00000000000E+00 0. -1.
         -2   -1    0    0    0  501 -0.00000000000E+00 -0.00000000000E+00 -0.42768326069E+01  0.42768326069E+01  0.00000000000E+00 0.  1.
          1    1    1    2  502    0  0.15041726038E+02  0.21643343699E+02  0.10110670160E+03  0.10448565910E+03  0.00000000000E+00 0. -1.
         -1    1    1    2    0  501 -0.15041726038E+02 -0.21643343699E+02  0.64536036179E+02  0.69710743895E+02  0.00000000000E+00 0.  1.
</event>
<event>
 4    1  0.1322546E+002  0.3919333E+02  0.7546771E-02  0.1353279E+00
          2   -1    0    0  502    0  0.00000000000E+00  0.00000000000E+00  0.11136823726E+04  0.11136823726E+04  0.00000000000E+00 0. -1.
         -2   -1    0    0    0  501 -0.00000000000E+00 -0.00000000000E+00 -0.15188206968E+01  0.15188206968E+01  0.00000000000E+00 0.  1.
          1    1    1    2  502    0  0.27774517914E+02  0.27653089364E+02  0.72507457179E+03  0.72613308136E+03  0.00000000000E+00 0. -1.
         -1    1    1    2    0  501 -0.27774517914E+02 -0.27653089364E+02  0.38708898010E+03  0.38906811192E+03  0.00000000000E+00 0.  1.
</event>
<event>
 4    1  0.1322546E+002  0.2074708E+02  0.7546771E-02  0.1522907E+00
          2   -1    0    0  502    0  0.00000000000E+00  0.00000000000E+00  0.58694510032E+01  0.58694510032E+01  0.00000000000E+00 0. -1.
         -2   -1    0    0    0  501 -0.00000000000E+00 -0.00000000000E+00 -0.76693257717E+02  0.76693257717E+02  0.00000000000E+00 0.  1.
          1    1    1    2  502    0 -0.21498099220E+01 -0.20635399737E+02 -0.44049141398E+02  0.48690535661E+02  0.00000000000E+00 0.  1.
         -1    1    1    2    0  501  0.21498099220E+01  0.20635399737E+02 -0.26774665315E+02  0.33872173059E+02  0.00000000000E+00 0. -1.
</event>
<event>
 4    1  0.1322546E+002  0.2894720E+02  0.7546771E-02  0.1428971E+00
          2   -1    0    0  502    0  0.00000000000E+00  0.00000000000E+00  0.18007535293E+03  0.18007535293E+03  0.00000000000E+00 0.  1.
         -2   -1    0    0    0  501 -0.00000000000E+00 -0.00000000000E+00 -0.46863923793E+01  0.46863923793E+01  0.00000000000E+00 0. -1.
          1    1    1    2  502    0 -0.13871344956E+02 -0.25407210896E+02  0.95460075515E+02  0.99752526753E+02  0.00000000000E+00 0. -1.
         -1    1    1    2    0  501  0.13871344956E+02  0.25407210896E+02  0.79928885036E+02  0.85009218556E+02  0.00000000000E+00 0.  1.
</event>
<event>
 4    1  0.1322546E+002  0.2102954E+02  0.7546771E-02  0.1518843E+00
          2   -1    0    0  502    0  0.00000000000E+00  0.00000000000E+00  0.22429221883E+03  0.22429221883E+03  0.00000000000E+00 0. -1.
         -2   -1    0    0    0  501 -0.00000000000E+00 -0.00000000000E+00 -0.20015961514E+01  0.20015961514E+01  0.00000000000E+00 0.  1.
          1    1    1    2  502    0  0.20973627318E+02  0.15324167597E+01  0.12496888533E+03  0.12672593911E+03  0.00000000000E+00 0.  1.
         -1    1    1    2    0  501 -0.20973627318E+02 -0.15324167597E+01  0.97321737349E+02  0.99567875867E+02  0.00000000000E+00 0. -1.
</event>
<event>
 4    1  0.1322546E+002  0.3966887E+02  0.7546771E-02  0.1350437E+00
          2   -1    0    0  502    0  0.00000000000E+00  0.00000000000E+00  0.12860552711E+02  0.12860552711E+02  0.00000000000E+00 0.  1.
         -2   -1    0    0    0  501 -0.00000000000E+00 -0.00000000000E+00 -0.13913706377E+03  0.13913706377E+03  0.00000000000E+00 0. -1.
          1    1    1    2  502    0 -0.10429409357E+02 -0.38273312815E+02 -0.89528384176E+02  0.97923187379E+02  0.00000000000E+00 0. -1.
         -1    1    1    2    0  501  0.10429409357E+02  0.38273312815E+02 -0.36748126886E+02  0.54074429105E+02  0.00000000000E+00 0.  1.
</event>
<event>
 4    1  0.1322546E+002  0.3540369E+02  0.7546771E-02  0.1377747E+00
          2   -1    0    0  502    0  0.00000000000E+00  0.00000000000E+00  0.12339887315E+04  0.12339887315E+04  0.00000000000E+00 0.  1.
         -2   -1    0    0    0  501 -0.00000000000E+00 -0.00000000000E+00 -0.10186286307E+01  0.10186286307E+01  0.00000000000E+00 0. -1.
          1    1    1    2  502    0  0.33078877991E+02 -0.12617795906E+02  0.58364417811E+03  0.58471698075E+03  0.00000000000E+00 0. -1.
         -1    1    1    2    0  501 -0.33078877991E+02  0.12617795906E+02  0.64932592476E+03  0.65029037937E+03  0.00000000000E+00 0.  1.
</event>
<event>
 4    1  0.1322546E+002  0.2353568E+02  0.7546771E-02  0.1485879E+00
          2   -1    0    0  502    0  0.00000000000E+00  0.00000000000E+00  0.99827523528E+03  0.99827523528E+03  0.00000000000E+00 0. -1.
         -2   -1    0    0    0  501 -0.00000000000E+00 -0.00000000000E+00 -0.56438489619E+00  0.56438489619E+00  0.00000000000E+00 0.  1.
          1    1    1    2  502    0  0.23458660712E+02 -0.19025490513E+01  0.56364811704E+03  0.56413928094E+03  0.00000000000E+00 0. -1.
         -1    1    1    2    0  501 -0.23458660712E+02  0.19025490513E+01  0.43406273335E+03  0.43470033924E+03  0.00000000000E+00 0.  1.
</event>
<event>
 4    1  0.1322546E+002  0.2279313E+02  0.7546771E-02  0.1495112E+00
          2   -1    0    0  502    0  0.00000000000E+00  0.00000000000E+00  0.57491497056E+02  0.57491497056E+02  0.00000000000E+00 0. -1.
         -2   -1    0    0    0  501 -0.00000000000E+00 -0.00000000000E+00 -0.10647523871E+02  0.10647523871E+02  0.00000000000E+00 0.  1.
          1    1    1    2  502    0 -0.36340896724E+01 -0.22501563302E+02  0.36673965628E+02  0.43179934155E+02  0.00000000000E+00 0. -1.
         -1    1    1    2    0  501  0.36340896724E+01  0.22501563302E+02  0.10170007557E+02  0.24959086772E+02  0.00000000000E+00 0.  1.
</event>
<event>
 4    1  0.1322546E+002  0.3243767E+02  0.7546771E-02  0.1399531E+00
          2   -1    0    0  502    0  0.00000000000E+00  0.00000000000E+00  0.17521127591E+03  0.17521127591E+03  0.00000000000E+00 0.  1.
         -2   -1    0    0    0  501 -0.00000000000E+00 -0.00000000000E+00 -0.60122223907E+01  0.60122223907E+01  0.00000000000E+00 0. -1.
          1    1    1    2  502    0 -0.31194971979E+02  0.88924679811E+01  0.87666572631E+02  0.93475292032E+02  0.00000000000E+00 0. -1.
         -1    1    1    2    0  501  0.31194971979E+02 -0.88924679811E+01  0.81532480888E+02  0.87748206268E+02  0.00000000000E+00 0.  1.
</event>
<event>
 4    1  0.1322546E+002  0.4163898E+02  0.7546771E-02  0.1339140E+00
          2   -1    0    0  502    0  0.00000000000E+00  0.00000000000E+00  0.34141896270E+03  0.34141896270E+03  0.00000000000E+00 0. -1.
         -2   -1    0    0    0  501 -0.00000000000E+00 -0.00000000000E+00 -0.60391601787E+01  0.60391601787E+01  0.00000000000E+00 0.  1.
          1    1    1    2  502    0 -0.26523134605E+02  0.32098717602E+02  0.98390432980E+02  0.10683857750E+03  0.00000000000E+00 0.  1.
         -1    1    1    2    0  501  0.26523134605E+02 -0.32098717602E+02  0.23698936955E+03  0.24061954538E+03  0.00000000000E+00 0. -1.
</event>
<event>
 4    1  0.1322546E+002  0.3056169E+02  0.7546771E-02  0.1414777E+00
          2   -1    0    0  502    0  0.00000000000E+00  0.00000000000E+00  0.10654395591E+03  0.10654395591E+03  0.00000000000E+00 0. -1.
         -2   -1    0    0    0  501 -0.00000000000E+00 -0.00000000000E+00 -0.88978875148E+01  0.88978875148E+01  0.00000000000E+00 0.  1.
          1    1    1    2  502    0  0.18414451413E+02 -0.24391086836E+02  0.41808903454E+02  0.51788044430E+02  0.00000000000E+00 0. -1.
         -1    1    1    2    0  501 -0.18414451413E+02  0.24391086836E+02  0.55837164942E+02  0.63653798996E+02  0.00000000000E+00 0.  1.
</event>
<event>
 4    1  0.1322546E+002  0.2125265E+02  0.7546771E-02  0.1515688E+00
          2   -1    0    0  502    0  0.00000000000E+00  0.00000000000E+00  0.43601609939E+02  0.43601609939E+02  0.00000000000E+00 0.  1.
         -2   -1    0    0    0  501 -0.00000000000E+00 -0.00000000000E+00 -0.13929068489E+02  0.13929068489E+02  0.00000000000E+00 0. -1.
          1    1    1    2  502    0 -0.89850872477E+01 -0.19259886615E+02  0.29398854583E+02  0.36276268773E+02  0.00000000000E+00 0.  1.
         -1    1    1    2    0  501  0.89850872477E+01  0.19259886615E+02  0.27368686624E+00  0.21254409655E+02  0.00000000000E+00 0. -1.
</event>
<event>
 4    1  0.1322546E+002  0.2441492E+02  0.7546771E-02  0.1475456E+00
          2   -1    0    0  502    0  0.00000000000E+00  0.00000000000E+00  0.10006253872E+01  0.10006253872E+01  0.00000000000E+00 0. -1.
         -2   -1    0    0    0  501 -0.00000000000E+00 -0.00000000000E+00 -0.84078272642E+03  0.84078272642E+03  0.00000000000E+00 0.  1.
          1    1    1    2  502    0  0.52436795126E+01 -0.23845172835E+02 -0.19265840786E+03  0.19419925479E+03  0.00000000000E+00 0.  1.
         -1    1    1    2    0  501 -0.52436795126E+01  0.23845172835E+02 -0.64712369317E+03  0.64758409702E+03  0.00000000000E+00 0. -1.
</event>
<event>
 4    1  0.1322546E+002  0.4974618E+02  0.7546771E-02  0.1299277E+00
          2   -1    0    0  502    0  0.00000000000E+00  0.00000000000E+00  0.14071095850E+04  0.14071095850E+04  0.00000000000E+00 0. -1.
         -2   -1    0    0    0  501 -0.00000000000E+00 -0.00000000000E+00 -0.37574180233E+01  0.37574180233E+01  0.00000000000E+00 0.  1.
          1    1    1    2  502    0  0.44426146177E+02 -0.22383026600E+02  0.12161782254E+04  0.12171952014E+04  0.00000000000E+00 0. -1.
         -1    1    1    2    0  501 -0.44426146177E+02  0.22383026600E+02  0.18717394161E+03  0.19367180167E+03  0.00000000000E+00 0.  1.
</event>
<event>
 4    1  0.1322546E+002  0.2004204E+02  0.7546771E-02  0.1533394E+00
          2   -1    0    0  502    0  0.00000000000E+00  0.00000000000E+00  0.47539072886E+03  0.47539072886E+03  0.00000000000E+00 0.  1.
         -2   -1    0    0    0  501 -0.00000000000E+00 -0.00000000000E+00 -0.91595860773E+00  0.91595860773E+00  0.00000000000E+00 0. -1.
          1    1    1    2  502    0 -0.13234410365E+02  0.15051040899E+02  0.17093013032E+03  0.17210111243E+03  0.00000000000E+00 0. -1.
         -1    1    1    2    0  501  0.13234410365E+02 -0.15051040899E+02  0.30354463994E+03  0.30420557504E+03  0.00000000000E+00 0.  1.
</event>
<event>
 4    1  0.1322546E+002  0.2927176E+02  0.7546771E-02  0.1426032E+00
          2   -1    0    0  502    0  0.00000000000E+00  0.00000000000E+00  0.47422583587E+01  0.47422583587E+01  0.00000000000E+00 0.  1.
         -2   -1    0    0    0  501 -0.00000000000E+00 -0.00000000000E+00 -0.19081356526E+03  0.19081356526E+03  0.00000000000E+00 0. -1.
          1    1    1    2  502    0  0.99266995590E+00  0.29254922633E+02 -0.70503834695E+02  0.76338893093E+02  0.00000000000E+00 0.  1.
         -1    1    1    2    0  501 -0.99266995590E+00 -0.29254922633E+02 -0.11556747221E+03  0.11921693053E+03  0.00000000000E+00 0. -1.
</event>
<event>
 4    1  0.1322546E+002  0.2057703E+02  0.7546771E-02  0.1525390E+00
          2   -1    0    0  502    0  0.00000000000E+00  0.00000000000E+00  0.22638783809E+04  0.22638783809E+04  0.00000000000E+00 0.  1.
         -2   -1    0    0    0  501 -0.00000000000E+00 -0.00000000000E+00 -0.18703370235E+00  0.18703370235E+00  0.00000000000E+00 0. -1.
          1    1    1    2  502    0  0.37061189510E+01 -0.20240525004E+02  0.11271179548E+04  0.11273057696E+04  0.00000000000E+00 0.  1.
         -1    1    1    2    0  501 -0.37061189510E+01  0.20240525004E+02  0.11365733924E+04  0.11367596450E+04  0.00000000000E+00 0. -1.
</event>
<event>
 4    1  0.1322546E+002  0.2328007E+02  0.7546771E-02  0.1489011E+00
          2   -1    0    0  502    0  0.00000000000E+00  0.00000000000E+00  0.57222147521E+01  0.57222147521E+01  0.00000000000E+00 0. -1.
         -2   -1    0    0    0  501 -0.00000000000E+00 -0.00000000000E+00 -0.96964900503E+02  0.96964900503E+02  0.00000000000E+00 0.  1.
          1    1    1    2  502    0  0.15127954447E+02 -0.17694814633E+02 -0.53447803424E+02  0.58297762920E+02  0.00000000000E+00 0.  1.
         -1    1    1    2    0  501 -0.15127954447E+02  0.17694814633E+02 -0.37794882326E+02  0.44389352335E+02  0.00000000000E+00 0. -1.
</event>
<event>
 4    1  0.1322546E+002  0.2606370E+02  0.7546771E-02  0.1457247E+00
          2   -1    0    0  502    0  0.00000000000E+00  0.00000000000E+00  0.23899162908E+03  0.23899162908E+03  0.00000000000E+00 0. -1.
         -2   -1    0    0    0  501 -0.00000000000E+00 -0.00000000000E+00 -0.28984308691E+01  0.28984308691E+01  0.00000000000E+00 0.  1.
          1    1    1    2  502    0 -0.64750928357E+01 -0.25246578919E+02  0.10123494456E+03  0.10453626440E+03  0.00000000000E+00 0. -1.
         -1    1    1    2    0  501  0.64750928357E+01  0.25246578919E+02  0.13485825365E+03  0.13735379555E+03  0.00000000000E+00 0.  1.
</event>
<event>
 4    1  0.1322546E+002  0.2004235E+02  0.7546771E-02  0.1533389E+00
          2   -1    0    0  502    0  0.00000000000E+00  0.00000000000E+00  0.13102829537E+03  0.13102829537E+03  0.00000000000E+00 0.  1.
         -2   -1    0    0    0  501 -0.00000000000E+00 -0.00000000000E+00 -0.32495493082E+01  0.32495493082E+01  0.00000000000E+00 0. -1.
          1    1    1    2  502    0  0.19120934329E+02  0.60071376078E+01  0.79858173151E+02  0.82334826476E+02  0.00000000000E+00 0.  1.
         -1    1    1    2    0  501 -0.19120934329E+02 -0.60071376078E+01  0.47920572915E+02  0.51943018206E+02  0.00000000000E+00 0. -1.
</event>
<event>
 4    1  0.1322546E+002  0.2087081E+02  0.7546771E-02  0.1521117E+00
          2   -1    0    0  502    0  0.00000000000E+00  0.00000000000E+00  0.24614245671E+03  0.24614245671E+03  0.00000000000E+00 0. -1.
         -2   -1    0    0    0  501 -0.00000000000E+00 -0.00000000000E+00 -0.21666721468E+01  0.21666721468E+01  0.00000000000E+00 0.  1.
          1    1    1    2  502    0 -0.75833241889E+01 -0.19444379319E+02  0.68842817097E+02  0.71936945714E+02  0.00000000000E+00 0.  1.
         -1    1    1    2    0  501  0.75833241889E+01  0.19444379319E+02  0.17513296746E+03  0.17637218314E+03  0.00000000000E+00 0. -1.
</event>
<event>
 4    1  0.1322546E+002  0.2333683E+02  0.7546771E-02  0.1488311E+00
          2   -1    0    0  502    0  0.00000000000E+00  0.00000000000E+00  0.74775966280E+02  0.74775966280E+02  0.00000000000E+00 0. -1.
         -2   -1    0    0    0  501 -0.00000000000E+00 -0.00000000000E+00 -0.10671279994E+02  0.10671279994E+02  0.00000000000E+00 0.  1.
          1    1    1    2  502    0  0.12904490319E+02  0.19444329744E+02  0.56125722744E+02  0.60784081659E+02  0.00000000000E+00 0. -1.
         -1    1    1    2    0  501 -0.12904490319E+02 -0.19444329744E+02  0.79789635421E+01  0.24663164614E+02  0.00000000000E+00 0.  1.
</event>
<event>
 4    1  0.1322546E+002  0.2237915E+02  0.7546771E-02  0.1500445E+00
          2   -1    0    0  502    0  0.00000000000E+00  0.00000000000E+00  0.79950623331E+03  0.79950623331E+03  0.00000000000E+00 0. -1.
         -2   -1    0    0    0  501 -0.00000000000E+00 -0.00000000000E+00 -0.63160489682E+00  0.63160489682E+00  0.00000000000E+00 0.  1.
          1    1    1    2  502    0 -0.29462603288E+01 -0.22184358412E+02  0.43568728118E+03  0.43626165680E+03  0.00000000000E+00 0. -1.
         -1    1    1    2    0  501  0.29462603288E+01  0.22184358412E+02  0.36318734723E+03  0.36387618141E+03  0.00000000000E+00 0.  1.
</event>
<event>
 4    1  0.1322546E+002  0.2346382E+02  0.7546771E-02  0.1486755E+00
          2   -1    0    0  502    0  0.00000000000E+00  0.00000000000E+00  0.19365732512E+02  0.19365732512E+02  0.00000000000E+00 0. -1.
         -2   -1    0    0    0  501 -0.00000000000E+00 -0.00000000000E+00 -0.28459790449E+02  0.28459790449E+02  0.00000000000E+00 0.  1.
          1    1    1    2  502    0 -0.22431265645E+02  0.68839872985E+01 -0.53318873029E+01  0.24062002863E+02  0.00000000000E+00 0. -1.
         -1    1    1    2    0  501  0.22431265645E+02 -0.68839872985E+01 -0.37621706337E+01  0.23763520098E+02  0.00000000000E+00 0.  1.
</event>
<event>
 4    1  0.1322546E+002  0.2661290E+02  0.7546771E-02  0.1451536E+00
          2   -1    0    0  502    0  0.00000000000E+00  0.00000000000E+00  0.33858192908E+03  0.33858192908E+03  0.00000000000E+00 0.  1.
         -2   -1    0    0    0  501 -0.00000000000E+00 -0.00000000000E+00 -0.29085827671E+01  0.29085827671E+01  0.00000000000E+00 0. -1.
          1    1    1    2  502    0 -0.23591209165E+02 -0.12316705355E+02  0.77354991238E+02  0.81804896248E+02  0.00000000000E+00 0. -1.
         -1    1    1    2    0  501  0.23591209165E+02  0.12316705355E+02  0.25831835508E+03  0.25968561560E+03  0.00000000000E+00 0.  1.
</event>
<event>
 4    1  0.1322546E+002  0.3132341E+02  0.7546771E-02  0.1408434E+00
          2   -1    0    0  502    0  0.00000000000E+00  0.00000000000E+00  0.52245250892E+02  0.52245250892E+02  0.00000000000E+00 0. -1.
         -2   -1    0    0    0  501 -0.00000000000E+00 -0.00000000000E+00 -0.24175042153E+02  0.24175042153E+02  0.00000000000E+00 0.  1.
          1    1    1    2  502    0  0.30368135625E+02 -0.76767226545E+01 -0.40158541995E+01  0.31579784942E+02  0.00000000000E+00 0. -1.
         -1    1    1    2    0  501 -0.30368135625E+02  0.76767226545E+01  0.32086062939E+02  0.44840508103E+02  0.00000000000E+00 0.  1.
</event>
<event>
 4    1  0.1322546E+002  0.3309145E+02  0.7546771E-02  0.1394501E+00
          2   -1    0    0  502    0  0.00000000000E+00  0.00000000000E+00  0.13547593284E+01  0.13547593284E+01  0.00000000000E+00 0. -1.
         -2   -1    0    0    0  501 -0.00000000000E+00 -0.00000000000E+00 -0.85605425579E+03  0.85605425579E+03  0.00000000000E+00 0.  1.
          1    1    1    2  502    0 -0.16076413480E+02 -0.28923911836E+02 -0.32608902390E+03  0.32776377966E+03  0.00000000000E+00 0. -1.
         -1    1    1    2    0  501  0.16076413480E+02  0.28923911836E+02 -0.52861047256E+03  0.52964523546E+03  0.00000000000E+00 0.  1.
</event>
<event>
 4    1  0.1322546E+002  0.2315270E+02  0.7546771E-02  0.1490590E+00
          2   -1    0    0  502    0  0.00000000000E+00  0.00000000000E+00  0.13766036868E+04  0.13766036868E+04  0.00000000000E+00 0. -1.
         -2   -1    0    0    0  501 -0.00000000000E+00 -0.00000000000E+00 -0.42705337941E+00  0.42705337941E+00  0.00000000000E+00 0.  1.
          1    1    1    2  502    0 -0.16170671636E+02 -0.16569751976E+02  0.48363994992E+03  0.48419381291E+03  0.00000000000E+00 0. -1.
         -1    1    1    2    0  501  0.16170671636E+02  0.16569751976E+02  0.89253668353E+03  0.89283692730E+03  0.00000000000E+00 0.  1.
</event>
<event>
 4    1  0.1322546E+002  0.4461367E+02  0.7546771E-02  0.1323383E+00
          2   -1    0    0  502    0  0.00000000000E+00  0.00000000000E+00  0.16871793899E+03  0.16871793899E+03  0.00000000000E+00 0.  1.
         -2   -1    0    0    0  501 -0.00000000000E+00 -0.00000000000E+00 -0.14057973438E+02  0.14057973438E+02  0.00000000000E+00 0. -1.
          1    1    1    2  502    0 -0.43899712926E+02 -0.79495260511E+01  0.40680552011E+02  0.60376212794E+02  0.00000000000E+00 0. -1.
         -1    1    1    2    0  501  0.43899712926E+02  0.79495260511E+01  0.11397941354E+03  0.12239969963E+03  0.00000000000E+00 0.  1.
</event>
<event>
 4    1  0.1322546E+002  0.3370262E+02  0.7546771E-02  0.1389921E+00
          2   -1    0    0  502    0  0.00000000000E+00  0.00000000000E+00  0.19645434388E+04  0.19645434388E+04  0.00000000000E+00 0. -1.
         -2   -1    0    0    0  501 -0.00000000000E+00 -0.00000000000E+00 -0.84409575806E+00  0.84409575806E+00  0.00000000000E+00 0.  1.
          1    1    1    2  502    0 -0.33441956911E+02  0.41835234459E+01  0.43029111549E+03  0.43160897861E+03  0.00000000000E+00 0.  1.
         -1    1    1    2    0  501  0.33441956911E+02 -0.41835234459E+01  0.15334082275E+04  0.15337785559E+04  0.00000000000E+00 0. -1.
</event>
<event>
 4    1  0.1322546E+002  0.3529034E+02  0.7546771E-02  0.1378533E+00
          2   -1    0    0  502    0  0.00000000000E+00  0.00000000000E+00  0.16686798017E+02  0.16686798017E+02  0.00000000000E+00 0. -1.
         -2   -1    0    0    0  501 -0.00000000000E+00 -0.00000000000E+00 -0.10047887982E+03  0.10047887982E+03  0.00000000000E+00 0.  1.
          1    1    1    2  502    0  0.14958147597E+02  0.31963451557E+02 -0.71607042532E+02  0.79830927310E+02  0.00000000000E+00 0.  1.
         -1    1    1    2    0  501 -0.14958147597E+02 -0.31963451557E+02 -0.12185039275E+02  0.37334750530E+02  0.00000000000E+00 0. -1.
</event>
<event>
 4    1  0.1322546E+002  0.2428727E+02  0.7546771E-02  0.1476937E+00
          2   -1    0    0  502    0  0.00000000000E+00  0.00000000000E+00  0.22629643354E+02  0.22629643354E+02  0.00000000000E+00 0.  1.
         -2   -1    0    0    0  501 -0.00000000000E+00 -0.00000000000E+00 -0.26072025914E+02  0.26072025914E+02  0.00000000000E+00 0. -1.
          1    1    1    2  502    0 -0.74498376145E+01  0.23116477388E+02 -0.13610682811E+01  0.24325380042E+02  0.00000000000E+00 0.  1.
         -1    1    1    2    0  501  0.74498376145E+01 -0.23116477388E+02 -0.20813142788E+01  0.24376289226E+02  0.00000000000E+00 0. -1.
</event>
<event>
 4    1  0.1322546E+002  0.2462245E+02  0.7546771E-02  0.1473072E+00
          2   -1    0    0  502    0  0.00000000000E+00  0.00000000000E+00  0.16053431393E+01  0.16053431393E+01  0.00000000000E+00 0.  1.
         -2   -1    0    0    0  501 -0.00000000000E+00 -0.00000000000E+00 -0.57128997986E+03  0.57128997986E+03  0.00000000000E+00 0. -1.
          1    1    1    2  502    0 -0.24158035280E+02  0.47596442614E+01 -0.45160910878E+03  0.45227983817E+03  0.00000000000E+00 0. -1.
         -1    1    1    2    0  501  0.24158035280E+02 -0.47596442614E+01 -0.11807552794E+03  0.12061548483E+03  0.00000000000E+00 0.  1.
</event>
<event>
 4    1  0.1322546E+002  0.3519588E+02  0.7546771E-02  0.1379191E+00
          2   -1    0    0  502    0  0.00000000000E+00  0.00000000000E+00  0.11145657516E+04  0.11145657516E+04  0.00000000000E+00 0. -1.
         -2   -1    0    0    0  501 -0.00000000000E+00 -0.00000000000E+00 -0.13304442250E+01  0.13304442250E+01  0.00000000000E+00 0.  1.
          1    1    1    2  502    0  0.24982547951E+02  0.24791578413E+02  0.78299975120E+03  0.78379038042E+03  0.00000000000E+00 0.  1.
         -1    1    1    2    0  501 -0.24982547951E+02 -0.24791578413E+02  0.33023555615E+03  0.33210581538E+03  0.00000000000E+00 0. -1.
</event>
<event>
 4    1  0.1322546E+002  0.2695207E+02  0.7546771E-02  0.1448090E+00
          2   -1    0    0  502    0  0.00000000000E+00  0.00000000000E+00  0.51831010477E+02  0.51831010477E+02  0.00000000000E+00 0.  1.
         -2   -1    0    0    0  501 -0.00000000000E+00 -0.00000000000E+00 -0.22386076826E+02  0.22386076826E+02  0.00000000000E+00 0. -1.
          1    1    1    2  502    0  0.23822379563E+02  0.12605883800E+02  0.37414548966E+02  0.46111414517E+02  0.00000000000E+00 0.  1.
         -1    1    1    2    0  501 -0.23822379563E+02 -0.12605883800E+02 -0.79696153152E+01  0.28105672785E+02  0.00000000000E+00 0. -1.
</event>
<event>
 4    1  0.1322546E+002  0.2210100E+02  0.7546771E-02  0.1504106E+00
          2   -1    0    0  502    0  0.00000000000E+00  0.00000000000E+00  0.98133410896E+02  0.98133410896E+02  0.00000000000E+00 0.  1.
         -2   -1    0    0    0  501 -0.00000000000E+00 -0.00000000000E+00 -0.50687751591E+01  0.50687751591E+01  0.00000000000E+00 0. -1.
          1    1    1    2  502    0 -0.21594542350E+02  0.47042634298E+01  0.53458558488E+02  0.57846969059E+02  0.00000000000E+00 0. -1.
         -1    1    1    2    0  501  0.21594542350E+02 -0.47042634298E+01  0.39606077249E+02  0.45355216996E+02  0.00000000000E+00 0.  1.
</event>
<event>
 4    1  0.1322546E+002  0.2292439E+02  0.7546771E-02  0.1493450E+00
          2   -1    0    0  502    0  0.00000000000E+00  0.00000000000E+00  0.46531804287E+03  0.46531804287E+03  0.00000000000E+00 0. -1.
         -2   -1    0    0    0  501 -0.00000000000E+00 -0.00000000000E+00 -0.22130286867E+01  0.22130286867E+01  0.00000000000E+00 0.  1.
          1    1    1    2  502    0  0.15492499915E+02  0.16897049872E+02  0.67973254309E+02  0.71734867041E+02  0.00000000000E+00 0.  1.
         -1    1    1    2    0  501 -0.15492499915E+02 -0.16897049872E+02  0.39513175988E+03  0.39579620452E+03  0.00000000000E+00 0. -1.
</event>
<event>
 4    1  0.1322546E+002  0.2192207E+02  0.7546771E-02  0.1506496E+00
          2   -1    0    0  502    0  0.00000000000E+00  0.00000000000E+00  0.35265551497E+03  0.35265551497E+03  0.00000000000E+00 0. -1.
         -2   -1    0    0    0  501 -0.00000000000E+00 -0.00000000000E+00 -0.15551939868E+01  0.15551939868E+01  0.00000000000E+00 0.  1.
          1    1    1    2  502    0 -0.38144433608E+01 -0.21587658526E+02  0.11324766886E+03  0.11534995224E+03  0.00000000000E+00 0.  1.
         -1    1    1    2    0  501  0.38144433608E+01  0.21587658526E+02  0.23785265212E+03  0.23886075672E+03  0.00000000000E+00 0. -1.
</event>
<event>
 4    1  0.1322546E+002  0.2401892E+02  0.7546771E-02  0.1480085E+00
          2   -1    0    0  502    0  0.00000000000E+00  0.00000000000E+00  0.78548614443E+01  0.78548614443E+01  0.00000000000E+00 0.  1.
         -2   -1    0    0    0  501 -0.00000000000E+00 -0.00000000000E+00 -0.80214126776E+02  0.80214126776E+02  0.00000000000E+00 0. -1.
          1    1    1    2  502    0 -0.10590286325E+02  0.21558162491E+02 -0.23388757262E+02  0.33525251687E+02  0.00000000000E+00 0.  1.
         -1    1    1    2    0  501  0.10590286325E+02 -0.21558162491E+02 -0.48970508070E+02  0.54543736533E+02  0.00000000000E+00 0. -1.
</event>
<event>
 4    1  0.1322546E+002  0.2677557E+02  0.7546771E-02  0.1449876E+00
          2   -1    0    0  502    0  0.00000000000E+00  0.00000000000E+00  0.22550544761E+02  0.22550544761E+02  0.00000000000E+00 0. -1.
         -2   -1    0    0    0  501 -0.00000000000E+00 -0.00000000000E+00 -0.11775919715E+03  0.11775919715E+03  0.00000000000E+00 0.  1.
          1    1    1    2  502    0  0.24932070199E+02 -0.97633600014E+01 -0.10754564618E+03  0.11082868463E+03  0.00000000000E+00 0.  1.
         -1    1    1    2    0  501 -0.24932070199E+02  0.97633600014E+01  0.12336993792E+02  0.29481057287E+02  0.00000000000E+00 0. -1.
</event>
<event>
 4    1  0.1322546E+002  0.3185754E+02  0.7546771E-02  0.1404113E+00
          2   -1    0    0  502    0  0.00000000000E+00  0.00000000000E+00  0.13007860366E+02  0.13007860366E+02  0.00000000000E+00 0.  1.
         -2   -1    0    0    0  501 -0.00000000000E+00 -0.00000000000E+00 -0.81890686519E+02  0.81890686519E+02  0.00000000000E+00 0. -1.
          1    1    1    2  502    0  0.27782586320E+02  0.15589439235E+02 -0.44754276126E+02  0.54934942886E+02  0.00000000000E+00 0. -1.
         -1    1    1    2    0  501 -0.27782586320E+02 -0.15589439235E+02 -0.24128550026E+02  0.39963604000E+02  0.00000000000E+00 0.  1.
</event>
<event>
 4    1  0.1322546E+002  0.5490057E+02  0.7546771E-02  0.1278217E+00
          2   -1    0    0  502    0  0.00000000000E+00  0.00000000000E+00  0.26369825303E+03  0.26369825303E+03  0.00000000000E+00 0. -1.
         -2   -1    0    0    0  501 -0.00000000000E+00 -0.00000000000E+00 -0.14765425344E+02  0.14765425344E+02  0.00000000000E+00 0.  1.
          1    1    1    2  502    0  0.32685598172E+02  0.44110369126E+02  0.19064091974E+03  0.19838859158E+03  0.00000000000E+00 0. -1.
         -1    1    1    2    0  501 -0.32685598172E+02 -0.44110369126E+02  0.58291907953E+02  0.80075086794E+02  0.00000000000E+00 0.  1.
</event>
<event>
 4    1  0.1322546E+002  0.2195262E+02  0.7546771E-02  0.1506086E+00
          2   -1    0    0  502    0  0.00000000000E+00  0.00000000000E+00  0.31356761576E+01  0.31356761576E+01  0.00000000000E+00 0.  1.
         -2   -1    0    0    0  501 -0.00000000000E+00 -0.00000000000E+00 -0.15427891543E+03  0.15427891543E+03  0.00000000000E+00 0. -1.
          1    1    1    2  502    0  0.26950534496E+01  0.21786565170E+02 -0.70703097312E+02  0.74032734007E+02  0.00000000000E+00 0. -1.
         -1    1    1    2    0  501 -0.26950534496E+01 -0.21786565170E+02 -0.80440141956E+02  0.83381857576E+02  0.00000000000E+00 0.  1.
</event>
<event>
 4    1  0.1322546E+002  0.4143963E+02  0.7546771E-02  0.1340250E+00
          2   -1    0    0  502    0  0.00000000000E+00  0.00000000000E+00  0.11189873882E+04  0.11189873882E+04  0.00000000000E+00 0. -1.
         -2   -1    0    0    0  501 -0.00000000000E+00 -0.00000000000E+00 -0.20736361338E+01  0.20736361338E+01  0.00000000000E+00 0.  1.
          1    1    1    2  502    0 -0.33765125619E+02  0.24024143724E+02  0.27268093152E+03  0.27581177206E+03  0.00000000000E+00 0.  1.
         -1    1    1    2    0  501  0.33765125619E+02 -0.24024143724E+02  0.84423282050E+03  0.84524925223E+03  0.00000000000E+00 0. -1.
</event>
<event>
 4    1  0.1322546E+002  0.2749222E+02  0.7546771E-02  0.1442725E+00
          2   -1    0    0  502    0  0.00000000000E+00  0.00000000000E+00  0.25735719878E+03  0.25735719878E+03  0.00000000000E+00 0. -1.
         -2   -1    0    0    0  501 -0.00000000000E+00 -0.00000000000E+00 -0.34886663238E+01  0.34886663238E+01  0.00000000000E+00 0.  1.
          1    1    1    2  502    0 -0.27286590092E+02 -0.33562492295E+01  0.75064169985E+02  0.79940302872E+02  0.00000000000E+00 0.  1.
         -1    1    1    2    0  501  0.27286590092E+02  0.33562492295E+01  0.17880436247E+03  0.18090556223E+03  0.00000000000E+00 0. -1.
</event>
<event>
 4    1  0.1322546E+002  0.2001420E+02  0.7546771E-02  0.1533819E+00
          2   -1    0    0  502    0  0.00000000000E+00  0.00000000000E+00  0.80966915426E+02  0.80966915426E+02  0.00000000000E+00 0.  1.
         -2   -1    0    0    0  501 -0.00000000000E+00 -0.00000000000E+00 -0.58739356207E+01  0.58739356207E+01  0.00000000000E+00 0. -1.
          1    1    1    2  502    0  0.19982670928E+02 -0.11230491036E+01  0.54792228198E+02  0.58333152217E+02  0.00000000000E+00 0. -1.
         -1    1    1    2    0  501 -0.19982670928E+02  0.11230491036E+01  0.20300751607E+02  0.28507698829E+02  0.00000000000E+00 0.  1.
</event>
<event>
 4    1  0.1322546E+002  0.3870051E+02  0.7546771E-02  0.1356274E+00
          2   -1    0    0  502    0  0.00000000000E+00  0.00000000000E+00  0.15480194433E+04  0.15480194433E+04  0.00000000000E+00 0. -1.
         -2   -1    0    0    0  501 -0.00000000000E+00 -0.00000000000E+00 -0.10016531104E+01  0.10016531104E+01  0.00000000000E+00 0.  1.
          1    1    1    2  502    0 -0.14778216536E+02 -0.35767778846E+02  0.91649638282E+03  0.91731311416E+03  0.00000000000E+00 0. -1.
         -1    1    1    2    0  501  0.14778216536E+02  0.35767778846E+02  0.63052140734E+03  0.63170798222E+03  0.00000000000E+00 0.  1.
</event>
<event>
 4    1  0.1322546E+002  0.2133472E+02  0.7546771E-02  0.1514539E+00
          2   -1    0    0  502    0  0.00000000000E+00  0.00000000000E+00  0.78295580928E+02  0.78295580928E+02  0.00000000000E+00 0.  1.
         -2   -1    0    0    0  501 -0.00000000000E+00 -0.00000000000E+00 -0.66208402730E+01  0.66208402730E+01  0.00000000000E+00 0. -1.
          1    1    1    2  502    0  0.28367067216E+01  0.21145287012E+02  0.50663844251E+02  0.54972676687E+02  0.00000000000E+00 0.  1.
         -1    1    1    2    0  501 -0.28367067216E+01 -0.21145287012E+02  0.21010896404E+02  0.29943744514E+02  0.00000000000E+00 0. -1.
</event>
<event>
 4    1  0.1322546E+002  0.2068946E+02  0.7546771E-02  0.1523745E+00
          2   -1    0    0  502    0  0.00000000000E+00  0.00000000000E+00  0.11749586084E+03  0.11749586084E+03  0.00000000000E+00 0. -1.
         -2   -1    0    0    0  501 -0.00000000000E+00 -0.00000000000E+00 -0.39847607649E+01  0.39847607649E+01  0.00000000000E+00 0.  1.
          1    1    1    2  502    0  0.17309236021E+02  0.11333321448E+02  0.38970780126E+02  0.44122279297E+02  0.00000000000E+00 0.  1.
         -1    1    1    2    0  501 -0.17309236021E+02 -0.11333321448E+02  0.74540319953E+02  0.77358342313E+02  0.00000000000E+00 0. -1.
</event>
<event>
 4    1  0.1322546E+002  0.2082197E+02  0.7546771E-02  0.1521822E+00
          2   -1    0    0  502    0  0.00000000000E+00  0.00000000000E+00  0.58615701279E+03  0.58615701279E+03  0.00000000000E+00 0.  1.
         -2   -1    0    0    0  501 -0.00000000000E+00 -0.00000000000E+00 -0.14022148734E+01  0.14022148734E+01  0.00000000000E+00 0. -1.
          1    1    1    2  502    0 -0.15621040754E+02 -0.13767269869E+02  0.49431935666E+03  0.49475769929E+03  0.00000000000E+00 0.  1.
         -1    1    1    2    0  501  0.15621040754E+02  0.13767269869E+02  0.90435441250E+02  0.92801528371E+02  0.00000000000E+00 0. -1.
</event>
<event>
 4    1  0.1322546E+002  0.3471247E+02  0.7546771E-02  0.1382596E+00
          2   -1    0    0  502    0  0.00000000000E+00  0.00000000000E+00  0.60697106093E+01  0.60697106093E+01  0.00000000000E+00 0.  1.
         -2   -1    0    0    0  501 -0.00000000000E+00 -0.00000000000E+00 -0.21757425717E+03  0.21757425717E+03  0.00000000000E+00 0. -1.
          1    1    1    2  502    0 -0.19571514701E+02  0.28669001644E+02 -0.13884444608E+03  0.14311790961E+03  0.00000000000E+00 0. -1.
         -1    1    1    2    0  501  0.19571514701E+02 -0.28669001644E+02 -0.72660100484E+02  0.80526058176E+02  0.00000000000E+00 0.  1.
</event>
<event>
 4    1  0.1322546E+002  0.2169147E+02  0.7546771E-02  0.1509617E+00
          2   -1    0    0  502    0  0.00000000000E+00  0.00000000000E+00  0.53223199317E+02  0.53223199317E+02  0.00000000000E+00 0. -1.
         -2   -1    0    0    0  501 -0.00000000000E+00 -0.00000000000E+00 -0.12637039804E+02  0.12637039804E+02  0.00000000000E+00 0.  1.
          1    1    1    2  502    0 -0.15711330998E+02 -0.14955729475E+02  0.38342552996E+02  0.44053049113E+02  0.00000000000E+00 0. -1.
         -1    1    1    2    0  501  0.15711330998E+02  0.14955729475E+02  0.22436065176E+01  0.21807190008E+02  0.00000000000E+00 0.  1.
</event>
<event>
 4    1  0.1322546E+002  0.2535145E+02  0.7546771E-02  0.1464910E+00
          2   -1    0    0  502    0  0.00000000000E+00  0.00000000000E+00  0.31110940189E+03  0.31110940189E+03  0.00000000000E+00 0.  1.
         -2   -1    0    0    0  501 -0.00000000000E+00 -0.00000000000E+00 -0.23831136323E+01  0.23831136323E+01  0.00000000000E+00 0. -1.
          1    1    1    2  502    0  0.25149120510E+02  0.31965224270E+01  0.97168482084E+02  0.10042116275E+03  0.00000000000E+00 0. -1.
         -1    1    1    2    0  501 -0.25149120510E+02 -0.31965224270E+01  0.21155780617E+03  0.21307135277E+03  0.00000000000E+00 0.  1.
</event>
<event>
 4    1  0.1322546E+002  0.5394871E+02  0.7546771E-02  0.1281904E+00
          2   -1    0    0  502    0  0.00000000000E+00  0.00000000000E+00  0.48293249247E+03  0.48293249247E+03  0.00000000000E+00 0.  1.
         -2   -1    0    0    0  501 -0.00000000000E+00 -0.00000000000E+00 -0.66981878696E+01  0.66981878696E+01  0.00000000000E+00 0. -1.
          1    1    1    2  502    0 -0.47798471659E+02 -0.25015392093E+02  0.31563400610E+03  0.32021132013E+03  0.00000000000E+00 0. -1.
         -1    1    1    2    0  501  0.47798471659E+02  0.25015392093E+02  0.16060029851E+03  0.16941936021E+03  0.00000000000E+00 0.  1.
</event>
<event>
 4    1  0.1322546E+002  0.2349483E+02  0.7546771E-02  0.1486376E+00
          2   -1    0    0  502    0  0.00000000000E+00  0.00000000000E+00  0.32863493458E+03  0.32863493458E+03  0.00000000000E+00 0.  1.
         -2   -1    0    0    0  501 -0.00000000000E+00 -0.00000000000E+00 -0.20021186229E+01  0.20021186229E+01  0.00000000000E+00 0. -1.
          1    1    1    2  502    0  0.23100181849E+02  0.42882198979E+01  0.96974422931E+02  0.99779987643E+02  0.00000000000E+00 0. -1.
         -1    1    1    2    0  501 -0.23100181849E+02 -0.42882198979E+01  0.22965839302E+03  0.23085706556E+03  0.00000000000E+00 0.  1.
</event>
<event>
 4    1  0.1322546E+002  0.3815613E+02  0.7546771E-02  0.1359643E+00
          2   -1    0    0  502    0  0.00000000000E+00  0.00000000000E+00  0.25264261939E+02  0.25264261939E+02  0.00000000000E+00 0.  1.
         -2   -1    0    0    0  501 -0.00000000000E+00 -0.00000000000E+00 -0.60854883922E+02  0.60854883922E+02  0.00000000000E+00 0. -1.
          1    1    1    2  502    0  0.35745867597E+02 -0.13346269036E+02 -0.78774649099E+01  0.38960805957E+02  0.00000000000E+00 0. -1.
         -1    1    1    2    0  501 -0.35745867597E+02  0.13346269036E+02 -0.27713157073E+02  0.47158339903E+02  0.00000000000E+00 0.  1.
</event>
<event>
 4    1  0.1322546E+002  0.2620290E+02  0.7546771E-02  0.1455784E+00
          2   -1    0    0  502    0  0.00000000000E+00  0.00000000000E+00  0.21899064791E+04  0.21899064791E+04  0.00000000000E+00 0.  1.
         -2   -1    0    0    0  501 -0.00000000000E+00 -0.00000000000E+00 -0.46205119705E+00  0.46205119705E+00  0.00000000000E+00 0. -1.
          1    1    1    2  502    0 -0.16279848514E+02 -0.20531885312E+02  0.17156523995E+04  0.17158524842E+04  0.00000000000E+00 0.  1.
         -1    1    1    2    0  501  0.16279848514E+02  0.20531885312E+02  0.47379202848E+03  0.47451604613E+03  0.00000000000E+00 0. -1.
</event>
<event>
 4    1  0.1322546E+002  0.2300153E+02  0.7546771E-02  0.1492479E+00
          2   -1    0    0  502    0  0.00000000000E+00  0.00000000000E+00  0.94613831811E+02  0.94613831811E+02  0.00000000000E+00 0. -1.
         -2   -1    0    0    0  501 -0.00000000000E+00 -0.00000000000E+00 -0.56925303911E+01  0.56925303911E+01  0.00000000000E+00 0.  1.
          1    1    1    2  502    0  0.21953180764E+02 -0.68650022786E+01  0.37792183973E+02  0.44241604530E+02  0.00000000000E+00 0. -1.
         -1    1    1    2    0  501 -0.21953180764E+02  0.68650022786E+01  0.51129117447E+02  0.56064757672E+02  0.00000000000E+00 0.  1.
</event>
<event>
 4    1  0.1322546E+002  0.2751004E+02  0.7546771E-02  0.1442551E+00
          2   -1    0    0  502    0  0.00000000000E+00  0.00000000000E+00  0.46848054054E+02  0.46848054054E+02  0.00000000000E+00 0. -1.
         -2   -1    0    0    0  501 -0.00000000000E+00 -0.00000000000E+00 -0.20560982955E+02  0.20560982955E+02  0.00000000000E+00 0.  1.
          1    1    1    2  502    0 -0.98430458870E+01  0.25688846819E+02  0.28746853445E+02  0.39789244605E+02  0.00000000000E+00 0. -1.
         -1    1    1    2    0  501  0.98430458870E+01 -0.25688846819E+02 -0.24597823455E+01  0.27619792404E+02  0.00000000000E+00 0.  1.
</event>
<event>
 4    1  0.1322546E+002  0.3758199E+02  0.7546771E-02  0.1363269E+00
          2   -1    0    0  502    0  0.00000000000E+00  0.00000000000E+00  0.71203065886E+03  0.71203065886E+03  0.00000000000E+00 0.  1.
         -2   -1    0    0    0  501 -0.00000000000E+00 -0.00000000000E+00 -0.41738394052E+01  0.41738394052E+01  0.00000000000E+00 0. -1.
          1    1    1    2  502    0  0.18151701319E+01 -0.37538132553E+02  0.94521296378E+02  0.10171863992E+03  0.00000000000E+00 0. -1.
         -1    1    1    2    0  501 -0.18151701319E+01  0.37538132553E+02  0.61333552308E+03  0.61448585835E+03  0.00000000000E+00 0.  1.
</event>
<event>
 4    1  0.1322546E+002  0.2224273E+02  0.7546771E-02  0.1502233E+00
          2   -1    0    0  502    0  0.00000000000E+00  0.00000000000E+00  0.11044617343E+01  0.11044617343E+01  0.00000000000E+00 0.  1.
         -2   -1    0    0    0  501 -0.00000000000E+00 -0.00000000000E+00 -0.44995102464E+03  0.44995102464E+03  0.00000000000E+00 0. -1.
          1    1    1    2  502    0 -0.20692027539E+02  0.81595905884E+01 -0.20936740594E+03  0.21054559979E+03  0.00000000000E+00 0. -1.
         -1    1    1    2    0  501  0.20692027539E+02 -0.81595905884E+01 -0.23947915697E+03  0.24050988658E+03  0.00000000000E+00 0.  1.
</event>
<event>
 4    1  0.1322546E+002  0.4555719E+02  0.7546771E-02  0.1318676E+00
          2   -1    0    0  502    0  0.00000000000E+00  0.00000000000E+00  0.28334827503E+04  0.28334827503E+04  0.00000000000E+00 0. -1.
         -2   -1    0    0    0  501 -0.00000000000E+00 -0.00000000000E+00 -0.78486127211E+00  0.78486127211E+00  0.00000000000E+00 0.  1.
          1    1    1    2  502    0  0.16110103623E+02  0.42613639533E+02  0.10502321995E+04  0.10512198298E+04  0.00000000000E+00 0.  1.
         -1    1    1    2    0  501 -0.16110103623E+02 -0.42613639533E+02  0.17824656896E+04  0.17830477818E+04  0.00000000000E+00 0. -1.
</event>
<event>
 4    1  0.1322546E+002  0.4391851E+02  0.7546771E-02  0.1326936E+00
          2   -1    0    0  502    0  0.00000000000E+00  0.00000000000E+00  0.23142903999E+02  0.23142903999E+02  0.00000000000E+00 0.  1.
         -2   -1    0    0    0  501 -0.00000000000E+00 -0.00000000000E+00 -0.92599084895E+02  0.92599084895E+02  0.00000000000E+00 0. -1.
          1    1    1    2  502    0 -0.19312820204E+02 -0.39444274652E+02 -0.16433024623E+02  0.46892218175E+02  0.00000000000E+00 0.  1.
         -1    1    1    2    0  501  0.19312820204E+02  0.39444274652E+02 -0.53023156273E+02  0.68849770720E+02  0.00000000000E+00 0. -1.
</event>
<event>
 4    1  0.1322546E+002  0.4382216E+02  0.7546771E-02  0.1327435E+00
          2   -1    0    0  502    0  0.00000000000E+00  0.00000000000E+00  0.35128216919E+03  0.35128216919E+03  0.00000000000E+00 0. -1.
         -2   -1    0    0    0  501 -0.00000000000E+00 -0.00000000000E+00 -0.74108433212E+01  0.74108433212E+01  0.00000000000E+00 0.  1.
          1    1    1    2  502    0 -0.43817907768E+02  0.61056291949E+00  0.80078194961E+02  0.91284714692E+02  0.00000000000E+00 0.  1.
         -1    1    1    2    0  501  0.43817907768E+02 -0.61056291949E+00  0.26379313091E+03  0.26740829782E+03  0.00000000000E+00 0. -1.
</event>
<event>
 4    1  0.1322546E+002  0.2193490E+02  0.7546771E-02  0.1506324E+00
          2   -1    0    0  502    0  0.00000000000E+00  0.00000000000E+00  0.10289171351E+03  0.10289171351E+03  0.00000000000E+00 0.  1.
         -2   -1    0    0    0  501 -0.00000000000E+00 -0.00000000000E+00 -0.48055497089E+01  0.48055497089E+01  0.00000000000E+00 0. -1.
          1    1    1    2  502    0  0.21143200158E+02 -0.58399258950E+01  0.40207645450E+02  0.45801685558E+02  0.00000000000E+00 0. -1.
         -1    1    1    2    0  501 -0.21143200158E+02  0.58399258950E+01  0.57878518349E+02  0.61895577658E+02  0.00000000000E+00 0.  1.
</event>
<event>
 4    1  0.1322546E+002  0.2627358E+02  0.7546771E-02  0.1455045E+00
          2   -1    0    0  502    0  0.00000000000E+00  0.00000000000E+00  0.38331544037E+02  0.38331544037E+02  0.00000000000E+00 0. -1.
         -2   -1    0    0    0  501 -0.00000000000E+00 -0.00000000000E+00 -0.26025343727E+02  0.26025343727E+02  0.00000000000E+00 0.  1.
          1    1    1    2  502    0 -0.64363890433E+01 -0.25473002353E+02  0.24012354482E+02  0.35593456148E+02  0.00000000000E+00 0. -1.
         -1    1    1    2    0  501  0.64363890433E+01  0.25473002353E+02 -0.11706154172E+02  0.28763431616E+02  0.00000000000E+00 0.  1.
</event>
<event>
 4    1  0.1322546E+002  0.2464650E+02  0.7546771E-02  0.1472797E+00
          2   -1    0    0  502    0  0.00000000000E+00  0.00000000000E+00  0.34396776809E+03  0.34396776809E+03  0.00000000000E+00 0. -1.
         -2   -1    0    0    0  501 -0.00000000000E+00 -0.00000000000E+00 -0.18613017553E+01  0.18613017553E+01  0.00000000000E+00 0.  1.
          1    1    1    2  502    0 -0.11128668372E+02  0.21990970151E+02  0.21017820325E+03  0.21161835258E+03  0.00000000000E+00 0. -1.
         -1    1    1    2    0  501  0.11128668372E+02 -0.21990970151E+02  0.13192826308E+03  0.13421071726E+03  0.00000000000E+00 0.  1.
</event>
<event>
 4    1  0.1322546E+002  0.2004367E+02  0.7546771E-02  0.1533369E+00
          2   -1    0    0  502    0  0.00000000000E+00  0.00000000000E+00  0.21345844457E+03  0.21345844457E+03  0.00000000000E+00 0. -1.
         -2   -1    0    0    0  501 -0.00000000000E+00 -0.00000000000E+00 -0.23958848459E+01  0.23958848459E+01  0.00000000000E+00 0.  1.
          1    1    1    2  502    0  0.11033080812E+02  0.16733792862E+02  0.15551070997E+03  0.15679709695E+03  0.00000000000E+00 0. -1.
         -1    1    1    2    0  501 -0.11033080812E+02 -0.16733792862E+02  0.55551849755E+02  0.59057232469E+02  0.00000000000E+00 0.  1.
</event>
<event>
 4    1  0.1322546E+002  0.3752087E+02  0.7546771E-02  0.1363659E+00
          2   -1    0    0  502    0  0.00000000000E+00  0.00000000000E+00  0.28344719804E+03  0.28344719804E+03  0.00000000000E+00 0. -1.
         -2   -1    0    0    0  501 -0.00000000000E+00 -0.00000000000E+00 -0.67195052021E+01  0.67195052021E+01  0.00000000000E+00 0.  1.
          1    1    1    2  502    0  0.34692514812E+02 -0.14291437545E+02  0.21246204360E+03  0.21574970624E+03  0.00000000000E+00 0. -1.
         -1    1    1    2    0  501 -0.34692514812E+02  0.14291437545E+02  0.64265649237E+02  0.74416997003E+02  0.00000000000E+00 0.  1.
</event>
<event>
 4    1  0.1322546E+002  0.1068357E+03  0.7546771E-02  0.1152462E+00
          2   -1    0    0  502    0  0.00000000000E+00  0.00000000000E+00  0.25116718103E+03  0.25116718103E+03  0.00000000000E+00 0. -1.
         -2   -1    0    0    0  501 -0.00000000000E+00 -0.00000000000E+00 -0.45454658715E+02  0.45454658715E+02  0.00000000000E+00 0.  1.
          1    1    1    2  502    0 -0.33217026578E+02  0.10154063812E+03  0.10051443696E+03  0.14668682314E+03  0.00000000000E+00 0.  1.
         -1    1    1    2    0  501  0.33217026578E+02 -0.10154063812E+03  0.10519808535E+03  0.14993501661E+03  0.00000000000E+00 0. -1.
</event>
<event>
 4    1  0.1322546E+002  0.5090454E+02  0.7546771E-02  0.1294298E+00
          2   -1    0    0  502    0  0.00000000000E+00  0.00000000000E+00  0.11539579961E+04  0.11539579961E+04  0.00000000000E+00 0. -1.
         -2   -1    0    0    0  501 -0.00000000000E+00 -0.00000000000E+00 -0.25125841457E+01  0.25125841457E+01  0.00000000000E+00 0.  1.
          1    1    1    2  502    0  0.37906239187E+02 -0.33976310738E+02  0.76422909600E+03  0.76592257039E+03  0.00000000000E+00 0. -1.
         -1    1    1    2    0  501 -0.37906239187E+02  0.33976310738E+02  0.38721631595E+03  0.39054800985E+03  0.00000000000E+00 0.  1.
</event>
<event>
 4    1  0.1322546E+002  0.2022140E+02  0.7546771E-02  0.1530678E+00
          2   -1    0    0  502    0  0.00000000000E+00  0.00000000000E+00  0.21685178083E+03  0.21685178083E+03  0.00000000000E+00 0. -1.
         -2   -1    0    0    0  501 -0.00000000000E+00 -0.00000000000E+00 -0.18941731565E+01  0.18941731565E+01  0.00000000000E+00 0.  1.
          1    1    1    2  502    0 -0.15042738276E+02 -0.13513729748E+02  0.11481885953E+03  0.11658591412E+03  0.00000000000E+00 0. -1.
         -1    1    1    2    0  501  0.15042738276E+02  0.13513729748E+02  0.10013874814E+03  0.10216003987E+03  0.00000000000E+00 0.  1.
</event>
<event>
 4    1  0.1322546E+002  0.8496394E+02  0.7546771E-02  0.1192770E+00
          2   -1    0    0  502    0  0.00000000000E+00  0.00000000000E+00  0.85949746651E+03  0.85949746651E+03  0.00000000000E+00 0.  1.
         -2   -1    0    0    0  501 -0.00000000000E+00 -0.00000000000E+00 -0.14333168668E+02  0.14333168668E+02  0.00000000000E+00 0. -1.
          1    1    1    2  502    0 -0.82198506834E+02  0.21500615548E+02  0.70371277593E+03  0.70882335035E+03  0.00000000000E+00 0.  1.
         -1    1    1    2    0  501  0.82198506834E+02 -0.21500615548E+02  0.14145152191E+03  0.16500728483E+03  0.00000000000E+00 0. -1.
</event>
<event>
 4    1  0.1322546E+002  0.2016991E+02  0.7546771E-02  0.1531454E+00
          2   -1    0    0  502    0  0.00000000000E+00  0.00000000000E+00  0.30482863862E+02  0.30482863862E+02  0.00000000000E+00 0. -1.
         -2   -1    0    0    0  501 -0.00000000000E+00 -0.00000000000E+00 -0.14454682824E+02  0.14454682824E+02  0.00000000000E+00 0.  1.
          1    1    1    2  502    0 -0.11423533415E+02 -0.16623116569E+02  0.14236713336E+02  0.24688238632E+02  0.00000000000E+00 0.  1.
         -1    1    1    2    0  501  0.11423533415E+02  0.16623116569E+02  0.17914677019E+01  0.20249308054E+02  0.00000000000E+00 0. -1.
</event>
<event>
 4    1  0.1322546E+002  0.2095838E+02  0.7546771E-02  0.1519860E+00
          2   -1    0    0  502    0  0.00000000000E+00  0.00000000000E+00  0.71344750779E+01  0.71344750779E+01  0.00000000000E+00 0. -1.
         -2   -1    0    0    0  501 -0.00000000000E+00 -0.00000000000E+00 -0.14771183325E+03  0.14771183325E+03  0.00000000000E+00 0.  1.
          1    1    1    2  502    0  0.16666265235E+02 -0.12707845844E+02 -0.12941432315E+03  0.13110042250E+03  0.00000000000E+00 0.  1.
         -1    1    1    2    0  501 -0.16666265235E+02  0.12707845844E+02 -0.11163035020E+02  0.23745885827E+02  0.00000000000E+00 0. -1.
</event>
<event>
 4    1  0.1322546E+002  0.2155219E+02  0.7546771E-02  0.1511525E+00
          2   -1    0    0  502    0  0.00000000000E+00  0.00000000000E+00  0.23231727998E+04  0.23231727998E+04  0.00000000000E+00 0.  1.
         -2   -1    0    0    0  501 -0.00000000000E+00 -0.00000000000E+00 -0.23146278104E+00  0.23146278104E+00  0.00000000000E+00 0. -1.
          1    1    1    2  502    0 -0.20910992239E+02  0.52179919713E+01  0.15901780182E+04  0.15903240634E+04  0.00000000000E+00 0.  1.
         -1    1    1    2    0  501  0.20910992239E+02 -0.52179919713E+01  0.73276331874E+03  0.73308019911E+03  0.00000000000E+00 0. -1.
</event>
<event>
 4    1  0.1322546E+002  0.2108480E+02  0.7546771E-02  0.1518058E+00
          2   -1    0    0  502    0  0.00000000000E+00  0.00000000000E+00  0.21757852411E+03  0.21757852411E+03  0.00000000000E+00 0. -1.
         -2   -1    0    0    0  501 -0.00000000000E+00 -0.00000000000E+00 -0.20686246695E+01  0.20686246695E+01  0.00000000000E+00 0.  1.
          1    1    1    2  502    0 -0.59703474089E+01 -0.20221860310E+02  0.11991684608E+03  0.12175639062E+03  0.00000000000E+00 0. -1.
         -1    1    1    2    0  501  0.59703474089E+01  0.20221860310E+02  0.95593053358E+02  0.97890758158E+02  0.00000000000E+00 0.  1.
</event>
<event>
 4    1  0.1322546E+002  0.4092358E+02  0.7546771E-02  0.1343157E+00
          2   -1    0    0  502    0  0.00000000000E+00  0.00000000000E+00  0.16656783053E+02  0.16656783053E+02  0.00000000000E+00 0. -1.
         -2   -1    0    0    0  501 -0.00000000000E+00 -0.00000000000E+00 -0.10678700108E+03  0.10678700108E+03  0.00000000000E+00 0.  1.
          1    1    1    2  502    0 -0.15007200657E+02  0.38072609090E+02 -0.30141403903E+02  0.50825622118E+02  0.00000000000E+00 0. -1.
         -1    1    1    2    0  501  0.15007200657E+02 -0.38072609090E+02 -0.59988814129E+02  0.72618162020E+02  0.00000000000E+00 0.  1.
</event>
<event>
 4    1  0.1322546E+002  0.3147717E+02  0.7546771E-02  0.1407180E+00
          2   -1    0    0  502    0  0.00000000000E+00  0.00000000000E+00  0.30755128794E+01  0.30755128794E+01  0.00000000000E+00 0. -1.
         -2   -1    0    0    0  501 -0.00000000000E+00 -0.00000000000E+00 -0.32308627461E+03  0.32308627461E+03  0.00000000000E+00 0.  1.
          1    1    1    2  502    0  0.20424536886E+02  0.23951008765E+02 -0.15128150565E+03  0.15452154051E+03  0.00000000000E+00 0.  1.
         -1    1    1    2    0  501 -0.20424536886E+02 -0.23951008765E+02 -0.16872925608E+03  0.17164024698E+03  0.00000000000E+00 0. -1.
</event>
<event>
 4    1  0.1322546E+002  0.2902243E+02  0.7546771E-02  0.1428286E+00
          2   -1    0    0  502    0  0.00000000000E+00  0.00000000000E+00  0.69676981290E+03  0.69676981290E+03  0.00000000000E+00 0.  1.
         -2   -1    0    0    0  501 -0.00000000000E+00 -0.00000000000E+00 -0.19472520082E+01  0.19472520082E+01  0.00000000000E+00 0. -1.
          1    1    1    2  502    0 -0.13318672747E+02  0.25785930057E+02  0.56254181064E+03  0.56328996969E+03  0.00000000000E+00 0.  1.
         -1    1    1    2    0  501  0.13318672747E+02 -0.25785930057E+02  0.13228075025E+03  0.13542709522E+03  0.00000000000E+00 0. -1.
</event>
<event>
 4    1  0.1322546E+002  0.2478690E+02  0.7546771E-02  0.1471202E+00
          2   -1    0    0  502    0  0.00000000000E+00  0.00000000000E+00  0.58332029334E+03  0.58332029334E+03  0.00000000000E+00 0.  1.
         -2   -1    0    0    0  501 -0.00000000000E+00 -0.00000000000E+00 -0.10769484506E+01  0.10769484506E+01  0.00000000000E+00 0. -1.
          1    1    1    2  502    0  0.72319593411E+01  0.23708415838E+02  0.33445410954E+03  0.33537134881E+03  0.00000000000E+00 0.  1.
         -1    1    1    2    0  501 -0.72319593411E+01 -0.23708415838E+02  0.24778923535E+03  0.24902589298E+03  0.00000000000E+00 0. -1.
</event>
<event>
 4    1  0.1322546E+002  0.2768868E+02  0.7546771E-02  0.1440810E+00
          2   -1    0    0  502    0  0.00000000000E+00  0.00000000000E+00  0.22251441672E+03  0.22251441672E+03  0.00000000000E+00 0. -1.
         -2   -1    0    0    0  501 -0.00000000000E+00 -0.00000000000E+00 -0.51310145987E+01  0.51310145987E+01  0.00000000000E+00 0.  1.
          1    1    1    2  502    0 -0.25547238917E+02  0.10677141055E+02  0.43453834197E+02  0.51525706825E+02  0.00000000000E+00 0.  1.
         -1    1    1    2    0  501  0.25547238917E+02 -0.10677141055E+02  0.17392956793E+03  0.17611972450E+03  0.00000000000E+00 0. -1.
</event>
<event>
 4    1  0.1322546E+002  0.2260934E+02  0.7546771E-02  0.1497463E+00
          2   -1    0    0  502    0  0.00000000000E+00  0.00000000000E+00  0.53974353598E+02  0.53974353598E+02  0.00000000000E+00 0. -1.
         -2   -1    0    0    0  501 -0.00000000000E+00 -0.00000000000E+00 -0.17154486554E+02  0.17154486554E+02  0.00000000000E+00 0.  1.
          1    1    1    2  502    0  0.19610518285E+02 -0.11252099494E+02  0.42211783545E+02  0.47885455417E+02  0.00000000000E+00 0. -1.
         -1    1    1    2    0  501 -0.19610518285E+02  0.11252099494E+02 -0.53919165016E+01  0.23243384736E+02  0.00000000000E+00 0.  1.
</event>
<event>
 4    1  0.1322546E+002  0.2717776E+02  0.7546771E-02  0.1445831E+00
          2   -1    0    0  502    0  0.00000000000E+00  0.00000000000E+00  0.15100091912E+03  0.15100091912E+03  0.00000000000E+00 0.  1.
         -2   -1    0    0    0  501 -0.00000000000E+00 -0.00000000000E+00 -0.51845901584E+01  0.51845901584E+01  0.00000000000E+00 0. -1.
          1    1    1    2  502    0  0.27131336785E+02 -0.15877833901E+01  0.91473702839E+02  0.95425724010E+02  0.00000000000E+00 0.  1.
         -1    1    1    2    0  501 -0.27131336785E+02  0.15877833901E+01  0.54342626120E+02  0.60759785265E+02  0.00000000000E+00 0. -1.
</event>
<event>
 4    1  0.1322546E+002  0.3440013E+02  0.7546771E-02  0.1384830E+00
          2   -1    0    0  502    0  0.00000000000E+00  0.00000000000E+00  0.36422733666E+03  0.36422733666E+03  0.00000000000E+00 0.  1.
         -2   -1    0    0    0  501 -0.00000000000E+00 -0.00000000000E+00 -0.34151719270E+01  0.34151719270E+01  0.00000000000E+00 0. -1.
          1    1    1    2  502    0  0.12445605537E+02  0.32069855442E+02  0.13985621820E+03  0.14402475654E+03  0.00000000000E+00 0.  1.
         -1    1    1    2    0  501 -0.12445605537E+02 -0.32069855442E+02  0.22095594652E+03  0.22361775204E+03  0.00000000000E+00 0. -1.
</event>
<event>
 4    1  0.1322546E+002  0.3666774E+02  0.7546771E-02  0.1369203E+00
          2   -1    0    0  502    0  0.00000000000E+00  0.00000000000E+00  0.47124103473E+03  0.47124103473E+03  0.00000000000E+00 0. -1.
         -2   -1    0    0    0  501 -0.00000000000E+00 -0.00000000000E+00 -0.28899695588E+01  0.28899695588E+01  0.00000000000E+00 0.  1.
          1    1    1    2  502    0 -0.14185271429E+02 -0.33812735480E+02  0.26093271570E+03  0.26349649927E+03  0.00000000000E+00 0.  1.
         -1    1    1    2    0  501  0.14185271429E+02  0.33812735480E+02  0.20741834947E+03  0.21063450501E+03  0.00000000000E+00 0. -1.
</event>
<event>
 4    1  0.1322546E+002  0.2572610E+02  0.7546771E-02  0.1460842E+00
          2   -1    0    0  502    0  0.00000000000E+00  0.00000000000E+00  0.67731916225E+03  0.67731916225E+03  0.00000000000E+00 0. -1.
         -2   -1    0    0    0  501 -0.00000000000E+00 -0.00000000000E+00 -0.10777347114E+01  0.10777347114E+01  0.00000000000E+00 0.  1.
          1    1    1    2  502    0 -0.15635345015E+02  0.20429590297E+02  0.23448807328E+03  0.23589507982E+03  0.00000000000E+00 0.  1.
         -1    1    1    2    0  501  0.15635345015E+02 -0.20429590297E+02  0.44175335426E+03  0.44250181714E+03  0.00000000000E+00 0. -1.
</event>
<event>
 4    1  0.1322546E+002  0.2062332E+02  0.7546771E-02  0.1524711E+00
          2   -1    0    0  502    0  0.00000000000E+00  0.00000000000E+00  0.45936416886E+03  0.45936416886E+03  0.00000000000E+00 0. -1.
         -2   -1    0    0    0  501 -0.00000000000E+00 -0.00000000000E+00 -0.11718268820E+01  0.11718268820E+01  0.00000000000E+00 0.  1.
          1    1    1    2  502    0 -0.73472923979E+01 -0.19270150099E+02  0.33458642602E+03  0.33522141618E+03  0.00000000000E+00 0. -1.
         -1    1    1    2    0  501  0.73472923979E+01  0.19270150099E+02  0.12360591596E+03  0.12531457956E+03  0.00000000000E+00 0.  1.
</event>
<event>
 4    1  0.1322546E+002  0.2047017E+02  0.7546771E-02  0.1526966E+00
          2   -1    0    0  502    0  0.00000000000E+00  0.00000000000E+00  0.20092999362E+01  0.20092999362E+01  0.00000000000E+00 0. -1.
         -2   -1    0    0    0  501 -0.00000000000E+00 -0.00000000000E+00 -0.21344464460E+03  0.21344464460E+03  0.00000000000E+00 0.  1.
          1    1    1    2  502    0 -0.20469765057E+02  0.12934573287E+00 -0.89394823947E+02  0.91708574083E+02  0.00000000000E+00 0.  1.
         -1    1    1    2    0  501  0.20469765057E+02 -0.12934573287E+00 -0.12204052072E+03  0.12374537045E+03  0.00000000000E+00 0. -1.
</event>
<event>
 4    1  0.1322546E+002  0.2039888E+02  0.7546771E-02  0.1528023E+00
          2   -1    0    0  502    0  0.00000000000E+00  0.00000000000E+00  0.86940772606E+03  0.86940772606E+03  0.00000000000E+00 0.  1.
         -2   -1    0    0    0  501 -0.00000000000E+00 -0.00000000000E+00 -0.96527095426E+01  0.96527095426E+01  0.00000000000E+00 0. -1.
          1    1    1    2  502    0 -0.36551841342E+00 -0.20395600107E+02  0.13826094392E+01  0.20445677204E+02  0.00000000000E+00 0. -1.
         -1    1    1    2    0  501  0.36551841342E+00  0.20395600107E+02  0.85837240708E+03  0.85861475840E+03  0.00000000000E+00 0.  1.
</event>
<event>
 4    1  0.1322546E+002  0.4139240E+02  0.7546771E-02  0.1340514E+00
          2   -1    0    0  502    0  0.00000000000E+00  0.00000000000E+00  0.25688300828E+02  0.25688300828E+02  0.00000000000E+00 0.  1.
         -2   -1    0    0    0  501 -0.00000000000E+00 -0.00000000000E+00 -0.18629977390E+03  0.18629977390E+03  0.00000000000E+00 0. -1.
          1    1    1    2  502    0 -0.35401399629E+02  0.21449275553E+02  0.46213145441E+01  0.41649574614E+02  0.00000000000E+00 0.  1.
         -1    1    1    2    0  501  0.35401399629E+02 -0.21449275553E+02 -0.16523278762E+03  0.17033850012E+03  0.00000000000E+00 0. -1.
</event>
<event>
 4    1  0.1322546E+002  0.3233758E+02  0.7546771E-02  0.1400314E+00
          2   -1    0    0  502    0  0.00000000000E+00  0.00000000000E+00  0.15179129013E+04  0.15179129013E+04  0.00000000000E+00 0. -1.
         -2   -1    0    0    0  501 -0.00000000000E+00 -0.00000000000E+00 -0.70821461260E+00  0.70821461260E+00  0.00000000000E+00 0.  1.
          1    1    1    2  502    0 -0.31543547498E+02  0.71220470032E+01  0.88393579280E+03  0.88452710797E+03  0.00000000000E+00 0. -1.
         -1    1    1    2    0  501  0.31543547498E+02 -0.71220470032E+01  0.63326889386E+03  0.63409400792E+03  0.00000000000E+00 0.  1.
</event>
<event>
 4    1  0.1322546E+002  0.2483821E+02  0.7546771E-02  0.1470621E+00
          2   -1    0    0  502    0  0.00000000000E+00  0.00000000000E+00  0.49994651457E+03  0.49994651457E+03  0.00000000000E+00 0.  1.
         -2   -1    0    0    0  501 -0.00000000000E+00 -0.00000000000E+00 -0.14859879309E+01  0.14859879309E+01  0.00000000000E+00 0. -1.
          1    1    1    2  502    0  0.19993171842E+02  0.14738042748E+02  0.14598744660E+03  0.14808535170E+03  0.00000000000E+00 0. -1.
         -1    1    1    2    0  501 -0.19993171842E+02 -0.14738042748E+02  0.35247308004E+03  0.35334715080E+03  0.00000000000E+00 0.  1.
</event>
<event>
 4    1  0.1322546E+002  0.3017497E+02  0.7546771E-02  0.1418082E+00
          2   -1    0    0  502    0  0.00000000000E+00  0.00000000000E+00  0.17889124214E+04  0.17889124214E+04  0.00000000000E+00 0. -1.
         -2   -1    0    0    0  501 -0.00000000000E+00 -0.00000000000E+00 -0.54429401171E+00  0.54429401171E+00  0.00000000000E+00 0.  1.
          1    1    1    2  502    0 -0.12066778840E+02 -0.27657219096E+02  0.11220710397E+04  0.11224767022E+04  0.00000000000E+00 0. -1.
         -1    1    1    2    0  501  0.12066778840E+02  0.27657219096E+02  0.66629708773E+03  0.66698001323E+03  0.00000000000E+00 0.  1.
</event>
<event>
 4    1  0.1322546E+002  0.3835638E+02  0.7546771E-02  0.1358396E+00
          2   -1    0    0  502    0  0.00000000000E+00  0.00000000000E+00  0.13022663428E+04  0.13022663428E+04  0.00000000000E+00 0. -1.
         -2   -1    0    0    0  501 -0.00000000000E+00 -0.00000000000E+00 -0.11449125025E+01  0.11449125025E+01  0.00000000000E+00 0.  1.
          1    1    1    2  502    0 -0.21852869741E+02  0.31522435881E+02  0.72560355773E+03  0.72661663542E+03  0.00000000000E+00 0.  1.
         -1    1    1    2    0  501  0.21852869741E+02 -0.31522435881E+02  0.57551787252E+03  0.57679461984E+03  0.00000000000E+00 0. -1.
</event>
<event>
 4    1  0.1322546E+002  0.2128073E+02  0.7546771E-02  0.1515294E+00
          2   -1    0    0  502    0  0.00000000000E+00  0.00000000000E+00  0.76774905412E+01  0.76774905412E+01  0.00000000000E+00 0.  1.
         -2   -1    0    0    0  501 -0.00000000000E+00 -0.00000000000E+00 -0.64763391010E+02  0.64763391010E+02  0.00000000000E+00 0. -1.
          1    1    1    2  502    0  0.10542646024E+02  0.18485722426E+02 -0.17725347724E+02  0.27695798791E+02  0.00000000000E+00 0.  1.
         -1    1    1    2    0  501 -0.10542646024E+02 -0.18485722426E+02 -0.39360552746E+02  0.44745082760E+02  0.00000000000E+00 0. -1.
</event>
<event>
 4    1  0.1322546E+002  0.2658837E+02  0.7546771E-02  0.1451787E+00
          2   -1    0    0  502    0  0.00000000000E+00  0.00000000000E+00  0.26248396858E+02  0.26248396858E+02  0.00000000000E+00 0.  1.
         -2   -1    0    0    0  501 -0.00000000000E+00 -0.00000000000E+00 -0.27491387624E+02  0.27491387624E+02  0.00000000000E+00 0. -1.
          1    1    1    2  502    0 -0.18366667695E+02 -0.19225158934E+02  0.32088418539E+01  0.26781297286E+02  0.00000000000E+00 0. -1.
         -1    1    1    2    0  501  0.18366667695E+02  0.19225158934E+02 -0.44518326205E+01  0.26958487197E+02  0.00000000000E+00 0.  1.
</event>
<event>
 4    1  0.1322546E+002  0.2224789E+02  0.7546771E-02  0.1502165E+00
          2   -1    0    0  502    0  0.00000000000E+00  0.00000000000E+00  0.10808844726E+03  0.10808844726E+03  0.00000000000E+00 0.  1.
         -2   -1    0    0    0  501 -0.00000000000E+00 -0.00000000000E+00 -0.46629835872E+01  0.46629835872E+01  0.00000000000E+00 0. -1.
          1    1    1    2  502    0  0.11574357536E+02  0.19000078287E+02  0.59265341741E+02  0.63303629114E+02  0.00000000000E+00 0.  1.
         -1    1    1    2    0  501 -0.11574357536E+02 -0.19000078287E+02  0.44160121936E+02  0.49447801737E+02  0.00000000000E+00 0. -1.
</event>
<event>
 4    1  0.1322546E+002  0.3920378E+02  0.7546771E-02  0.1353216E+00
          2   -1    0    0  502    0  0.00000000000E+00  0.00000000000E+00  0.22885471218E+03  0.22885471218E+03  0.00000000000E+00 0. -1.
         -2   -1    0    0    0  501 -0.00000000000E+00 -0.00000000000E+00 -0.76871926832E+01  0.76871926832E+01  0.00000000000E+00 0.  1.
          1    1    1    2  502    0  0.28992681757E+02  0.26388652578E+02  0.15262711655E+03  0.15758164007E+03  0.00000000000E+00 0. -1.
         -1    1    1    2    0  501 -0.28992681757E+02 -0.26388652578E+02  0.68540402949E+02  0.78960264796E+02  0.00000000000E+00 0.  1.
</event>
<event>
 4    1  0.1322546E+002  0.5802111E+02  0.7546771E-02  0.1266709E+00
          2   -1    0    0  502    0  0.00000000000E+00  0.00000000000E+00  0.61768471672E+03  0.61768471672E+03  0.00000000000E+00 0.  1.
         -2   -1    0    0    0  501 -0.00000000000E+00 -0.00000000000E+00 -0.56078793235E+01  0.56078793235E+01  0.00000000000E+00 0. -1.
          1    1    1    2  502    0  0.54408972678E+02 -0.20152237514E+02  0.35831117613E+03  0.36297844003E+03  0.00000000000E+00 0.  1.
         -1    1    1    2    0  501 -0.54408972678E+02  0.20152237514E+02  0.25376566127E+03  0.26031415602E+03  0.00000000000E+00 0. -1.
</event>
<event>
 4    1  0.1322546E+002  0.2063079E+02  0.7546771E-02  0.1524602E+00
          2   -1    0    0  502    0  0.00000000000E+00  0.00000000000E+00  0.34294058900E+03  0.34294058900E+03  0.00000000000E+00 0. -1.
         -2   -1    0    0    0  501 -0.00000000000E+00 -0.00000000000E+00 -0.23739801727E+01  0.23739801727E+01  0.00000000000E+00 0.  1.
          1    1    1    2  502    0 -0.25843474265E+01  0.20468279795E+02  0.28955437810E+03  0.29028842072E+03  0.00000000000E+00 0. -1.
         -1    1    1    2    0  501  0.25843474265E+01 -0.20468279795E+02  0.51012230734E+02  0.55026148455E+02  0.00000000000E+00 0.  1.
</event>
<event>
 4    1  0.1322546E+002  0.2137468E+02  0.7546771E-02  0.1513982E+00
          2   -1    0    0  502    0  0.00000000000E+00  0.00000000000E+00  0.39405931643E+03  0.39405931643E+03  0.00000000000E+00 0. -1.
         -2   -1    0    0    0  501 -0.00000000000E+00 -0.00000000000E+00 -0.13625180674E+01  0.13625180674E+01  0.00000000000E+00 0.  1.
          1    1    1    2  502    0  0.17179036140E+02  0.12718404675E+02  0.27268291666E+03  0.27351937799E+03  0.00000000000E+00 0. -1.
         -1    1    1    2    0  501 -0.17179036140E+02 -0.12718404675E+02  0.12001388170E+03  0.12190245651E+03  0.00000000000E+00 0.  1.
</event>
<event>
 4    1  0.1322546E+002  0.2707598E+02  0.7546771E-02  0.1446846E+00
          2   -1    0    0  502    0  0.00000000000E+00  0.00000000000E+00  0.84558909385E+03  0.84558909385E+03  0.00000000000E+00 0. -1.
         -2   -1    0    0    0  501 -0.00000000000E+00 -0.00000000000E+00 -0.98309666826E+00  0.98309666826E+00  0.00000000000E+00 0.  1.
          1    1    1    2  502    0 -0.25881651220E+01  0.26952000855E+02  0.27682982403E+03  0.27815078720E+03  0.00000000000E+00 0.  1.
         -1    1    1    2    0  501  0.25881651220E+01 -0.26952000855E+02  0.56777617316E+03  0.56842140332E+03  0.00000000000E+00 0. -1.
</event>
<event>
 4    1  0.1322546E+002  0.2868062E+02  0.7546771E-02  0.1431419E+00
          2   -1    0    0  502    0  0.00000000000E+00  0.00000000000E+00  0.21662944431E+02  0.21662944431E+02  0.00000000000E+00 0. -1.
         -2   -1    0    0    0  501 -0.00000000000E+00 -0.00000000000E+00 -0.39767919842E+02  0.39767919842E+02  0.00000000000E+00 0.  1.
          1    1    1    2  502    0  0.23999686319E+02  0.15703274779E+02 -0.25245535053E+01  0.28791511815E+02  0.00000000000E+00 0. -1.
         -1    1    1    2    0  501 -0.23999686319E+02 -0.15703274779E+02 -0.15580421906E+02  0.32639352459E+02  0.00000000000E+00 0.  1.
</event>
<event>
 4    1  0.1322546E+002  0.2192184E+02  0.7546771E-02  0.1506499E+00
          2   -1    0    0  502    0  0.00000000000E+00  0.00000000000E+00  0.62720268826E+02  0.62720268826E+02  0.00000000000E+00 0.  1.
         -2   -1    0    0    0  501 -0.00000000000E+00 -0.00000000000E+00 -0.77664877853E+01  0.77664877853E+01  0.00000000000E+00 0. -1.
          1    1    1    2  502    0  0.19372679969E+02 -0.10259928357E+02  0.31563471416E+02  0.38429410442E+02  0.00000000000E+00 0. -1.
         -1    1    1    2    0  501 -0.19372679969E+02  0.10259928357E+02  0.23390309624E+02  0.32057346169E+02  0.00000000000E+00 0.  1.
</event>
<event>
 4    1  0.1322546E+002  0.2060646E+02  0.7546771E-02  0.1524958E+00
          2   -1    0    0  502    0  0.00000000000E+00  0.00000000000E+00  0.15512777158E+03  0.15512777158E+03  0.00000000000E+00 0. -1.
         -2   -1    0    0    0  501 -0.00000000000E+00 -0.00000000000E+00 -0.38058759851E+01  0.38058759851E+01  0.00000000000E+00 0.  1.
          1    1    1    2  502    0  0.73842775284E+01 -0.19237947832E+02  0.33552632237E+02  0.39375186621E+02  0.00000000000E+00 0.  1.
         -1    1    1    2    0  501 -0.73842775284E+01  0.19237947832E+02  0.11776926335E+03  0.11955846094E+03  0.00000000000E+00 0. -1.
</event>
<event>
 4    1  0.1322546E+002  0.2908148E+02  0.7546771E-02  0.1427750E+00
          2   -1    0    0  502    0  0.00000000000E+00  0.00000000000E+00  0.12906495775E+04  0.12906495775E+04  0.00000000000E+00 0.  1.
         -2   -1    0    0    0  501 -0.00000000000E+00 -0.00000000000E+00 -0.67275293739E+00  0.67275293739E+00  0.00000000000E+00 0. -1.
          1    1    1    2  502    0  0.96085406587E+01  0.27448291583E+02  0.74905209968E+03  0.74961642245E+03  0.00000000000E+00 0.  1.
         -1    1    1    2    0  501 -0.96085406587E+01 -0.27448291583E+02  0.54092472489E+03  0.54170590800E+03  0.00000000000E+00 0. -1.
</event>
<event>
 4    1  0.1322546E+002  0.3405002E+02  0.7546771E-02  0.1387368E+00
          2   -1    0    0  502    0  0.00000000000E+00  0.00000000000E+00  0.33323848777E+02  0.33323848777E+02  0.00000000000E+00 0. -1.
         -2   -1    0    0    0  501 -0.00000000000E+00 -0.00000000000E+00 -0.52921919102E+02  0.52921919102E+02  0.00000000000E+00 0.  1.
          1    1    1    2  502    0 -0.92196847993E+01 -0.32778059380E+02 -0.35038944361E+02  0.48858278587E+02  0.00000000000E+00 0.  1.
         -1    1    1    2    0  501  0.92196847993E+01  0.32778059380E+02  0.15440874036E+02  0.37387489292E+02  0.00000000000E+00 0. -1.
</event>
<event>
 4    1  0.1322546E+002  0.3370901E+02  0.7546771E-02  0.1389874E+00
          2   -1    0    0  502    0  0.00000000000E+00  0.00000000000E+00  0.70351182566E+03  0.70351182566E+03  0.00000000000E+00 0.  1.
         -2   -1    0    0    0  501 -0.00000000000E+00 -0.00000000000E+00 -0.16400020542E+01  0.16400020542E+01  0.00000000000E+00 0. -1.
          1    1    1    2  502    0 -0.66911308688E+01 -0.33038248212E+02  0.30755849902E+03  0.30940027051E+03  0.00000000000E+00 0. -1.
         -1    1    1    2    0  501  0.66911308688E+01  0.33038248212E+02  0.39431332459E+03  0.39575155720E+03  0.00000000000E+00 0.  1.
</event>
<event>
 4    1  0.1322546E+002  0.5723505E+02  0.7546771E-02  0.1269528E+00
          2   -1    0    0  502    0  0.00000000000E+00  0.00000000000E+00  0.11439072086E+02  0.11439072086E+02  0.00000000000E+00 0.  1.
         -2   -1    0    0    0  501 -0.00000000000E+00 -0.00000000000E+00 -0.29559565059E+03  0.29559565059E+03  0.00000000000E+00 0. -1.
          1    1    1    2  502    0 -0.20389604105E+02 -0.53480041150E+02 -0.16919375544E+03  0.17861236697E+03  0.00000000000E+00 0. -1.
         -1    1    1    2    0  501  0.20389604105E+02  0.53480041150E+02 -0.11496282307E+03  0.12842235570E+03  0.00000000000E+00 0.  1.
</event>
<event>
 4    1  0.1322546E+002  0.2247075E+02  0.7546771E-02  0.1499253E+00
          2   -1    0    0  502    0  0.00000000000E+00  0.00000000000E+00  0.49400668971E+01  0.49400668971E+01  0.00000000000E+00 0.  1.
         -2   -1    0    0    0  501 -0.00000000000E+00 -0.00000000000E+00 -0.10371111879E+03  0.10371111879E+03  0.00000000000E+00 0. -1.
          1    1    1    2  502    0  0.22422302860E+02 -0.14747708707E+01 -0.55916760282E+02  0.60262913098E+02  0.00000000000E+00 0.  1.
         -1    1    1    2    0  501 -0.22422302860E+02  0.14747708707E+01 -0.42854291612E+02  0.48388272589E+02  0.00000000000E+00 0. -1.
</event>
<event>
 4    1  0.1322546E+002  0.3165997E+02  0.7546771E-02  0.1405700E+00
          2   -1    0    0  502    0  0.00000000000E+00  0.00000000000E+00  0.27999358085E+03  0.27999358085E+03  0.00000000000E+00 0. -1.
         -2   -1    0    0    0  501 -0.00000000000E+00 -0.00000000000E+00 -0.41159733357E+01  0.41159733357E+01  0.00000000000E+00 0.  1.
          1    1    1    2  502    0  0.31313365674E+02  0.46719265899E+01  0.18920425694E+03  0.19183483680E+03  0.00000000000E+00 0. -1.
         -1    1    1    2    0  501 -0.31313365674E+02 -0.46719265899E+01  0.86673350579E+02  0.92274717385E+02  0.00000000000E+00 0.  1.
</event>
<event>
 4    1  0.1322546E+002  0.2054272E+02  0.7546771E-02  0.1525895E+00
          2   -1    0    0  502    0  0.00000000000E+00  0.00000000000E+00  0.17573685835E+02  0.17573685835E+02  0.00000000000E+00 0. -1.
         -2   -1    0    0    0  501 -0.00000000000E+00 -0.00000000000E+00 -0.31263749008E+02  0.31263749008E+02  0.00000000000E+00 0.  1.
          1    1    1    2  502    0 -0.98330783627E+01 -0.18036462345E+02 -0.18604364991E+02  0.27715082550E+02  0.00000000000E+00 0.  1.
         -1    1    1    2    0  501  0.98330783627E+01  0.18036462345E+02  0.49143018186E+01  0.21122352293E+02  0.00000000000E+00 0. -1.
</event>
<event>
 4    1  0.1322546E+002  0.1905537E+03  0.7546771E-02  0.1062044E+00
          2   -1    0    0  502    0  0.00000000000E+00  0.00000000000E+00  0.12163247760E+04  0.12163247760E+04  0.00000000000E+00 0.  1.
         -2   -1    0    0    0  501 -0.00000000000E+00 -0.00000000000E+00 -0.54512408978E+02  0.54512408978E+02  0.00000000000E+00 0. -1.
          1    1    1    2  502    0 -0.61705621860E+02 -0.18028625572E+03  0.10082773293E+04  0.10261256700E+04  0.00000000000E+00 0.  1.
         -1    1    1    2    0  501  0.61705621860E+02  0.18028625572E+03  0.15353503771E+03  0.24471151501E+03  0.00000000000E+00 0. -1.
</event>
<event>
 4    1  0.1322546E+002  0.2007355E+02  0.7546771E-02  0.1532914E+00
          2   -1    0    0  502    0  0.00000000000E+00  0.00000000000E+00  0.67263681500E+03  0.67263681500E+03  0.00000000000E+00 0.  1.
         -2   -1    0    0    0  501 -0.00000000000E+00 -0.00000000000E+00 -0.70678549155E+00  0.70678549155E+00  0.00000000000E+00 0. -1.
          1    1    1    2  502    0  0.27017904366E+01  0.19890899320E+02  0.46740543904E+03  0.46783628760E+03  0.00000000000E+00 0.  1.
         -1    1    1    2    0  501 -0.27017904366E+01 -0.19890899320E+02  0.20452459047E+03  0.20550731290E+03  0.00000000000E+00 0. -1.
</event>
<event>
 4    1  0.1322546E+002  0.2888472E+02  0.7546771E-02  0.1429542E+00
          2   -1    0    0  502    0  0.00000000000E+00  0.00000000000E+00  0.12756151310E+03  0.12756151310E+03  0.00000000000E+00 0.  1.
         -2   -1    0    0    0  501 -0.00000000000E+00 -0.00000000000E+00 -0.22279589646E+02  0.22279589646E+02  0.00000000000E+00 0. -1.
          1    1    1    2  502    0  0.85963163405E+01  0.27575902631E+02  0.11561129438E+03  0.11916500514E+03  0.00000000000E+00 0.  1.
         -1    1    1    2    0  501 -0.85963163405E+01 -0.27575902631E+02 -0.10329370932E+02  0.30676097607E+02  0.00000000000E+00 0. -1.
</event>
<event>
 4    1  0.1322546E+002  0.2248309E+02  0.7546771E-02  0.1499093E+00
          2   -1    0    0  502    0  0.00000000000E+00  0.00000000000E+00  0.16178750287E+04  0.16178750287E+04  0.00000000000E+00 0.  1.
         -2   -1    0    0    0  501 -0.00000000000E+00 -0.00000000000E+00 -0.39554976758E+00  0.39554976758E+00  0.00000000000E+00 0. -1.
          1    1    1    2  502    0  0.46103966320E+01 -0.22005306403E+02  0.43784901261E+03  0.43842587414E+03  0.00000000000E+00 0. -1.
         -1    1    1    2    0  501 -0.46103966320E+01  0.22005306403E+02  0.11796304664E+04  0.11798447044E+04  0.00000000000E+00 0.  1.
</event>
<event>
 4    1  0.1322546E+002  0.2015139E+02  0.7546771E-02  0.1531734E+00
          2   -1    0    0  502    0  0.00000000000E+00  0.00000000000E+00  0.36455457787E+01  0.36455457787E+01  0.00000000000E+00 0.  1.
         -2   -1    0    0    0  501 -0.00000000000E+00 -0.00000000000E+00 -0.11321264789E+03  0.11321264789E+03  0.00000000000E+00 0. -1.
          1    1    1    2  502    0  0.18952226801E+02  0.68477374276E+01 -0.62196624485E+02  0.65379649019E+02  0.00000000000E+00 0. -1.
         -1    1    1    2    0  501 -0.18952226801E+02 -0.68477374276E+01 -0.47370477623E+02  0.51478544646E+02  0.00000000000E+00 0.  1.
</event>
<event>
 4    1  0.1322546E+002  0.2358372E+02  0.7546771E-02  0.1485296E+00
          2   -1    0    0  502    0  0.00000000000E+00  0.00000000000E+00  0.29997059593E+04  0.29997059593E+04  0.00000000000E+00 0. -1.
         -2   -1    0    0    0  501 -0.00000000000E+00 -0.00000000000E+00 -0.19055754752E+00  0.19055754752E+00  0.00000000000E+00 0.  1.
          1    1    1    2  502    0  0.21786955867E+02 -0.90288603681E+01  0.12533613522E+04  0.12535832126E+04  0.00000000000E+00 0.  1.
         -1    1    1    2    0  501 -0.21786955867E+02  0.90288603681E+01  0.17461540496E+04  0.17463133043E+04  0.00000000000E+00 0. -1.
</event>
<event>
 4    1  0.1322546E+002  0.2922358E+02  0.7546771E-02  0.1426466E+00
          2   -1    0    0  502    0  0.00000000000E+00  0.00000000000E+00  0.14598411008E+03  0.14598411008E+03  0.00000000000E+00 0.  1.
         -2   -1    0    0    0  501 -0.00000000000E+00 -0.00000000000E+00 -0.61994079045E+01  0.61994079045E+01  0.00000000000E+00 0. -1.
          1    1    1    2  502    0  0.28271333662E+02 -0.73992733371E+01  0.87955112166E+02  0.92682896530E+02  0.00000000000E+00 0.  1.
         -1    1    1    2    0  501 -0.28271333662E+02  0.73992733371E+01  0.51829590005E+02  0.59500621450E+02  0.00000000000E+00 0. -1.
</event>
<event>
 4    1  0.1322546E+002  0.7046637E+02  0.7546771E-02  0.1227898E+00
          2   -1    0    0  502    0  0.00000000000E+00  0.00000000000E+00  0.33625160398E+02  0.33625160398E+02  0.00000000000E+00 0.  1.
         -2   -1    0    0    0  501 -0.00000000000E+00 -0.00000000000E+00 -0.14796765861E+03  0.14796765861E+03  0.00000000000E+00 0. -1.
          1    1    1    2  502    0  0.68449420905E+02 -0.16738762138E+02 -0.53115609501E+02  0.88242718412E+02  0.00000000000E+00 0.  1.
         -1    1    1    2    0  501 -0.68449420905E+02  0.16738762138E+02 -0.61226888714E+02  0.93350100598E+02  0.00000000000E+00 0. -1.
</event>
<event>
 4    1  0.1322546E+002  0.2705242E+02  0.7546771E-02  0.1447082E+00
          2   -1    0    0  502    0  0.00000000000E+00  0.00000000000E+00  0.17422977926E+01  0.17422977926E+01  0.00000000000E+00 0. -1.
         -2   -1    0    0    0  501 -0.00000000000E+00 -0.00000000000E+00 -0.59420645573E+03  0.59420645573E+03  0.00000000000E+00 0.  1.
          1    1    1    2  502    0  0.19477884291E+02  0.18773529629E+02 -0.13491012369E+03  0.13759569348E+03  0.00000000000E+00 0. -1.
         -1    1    1    2    0  501 -0.19477884291E+02 -0.18773529629E+02 -0.45755403425E+03  0.45835306004E+03  0.00000000000E+00 0.  1.
</event>
<event>
 4    1  0.1322546E+002  0.2199665E+02  0.7546771E-02  0.1505497E+00
          2   -1    0    0  502    0  0.00000000000E+00  0.00000000000E+00  0.78855383166E+02  0.78855383166E+02  0.00000000000E+00 0. -1.
         -2   -1    0    0    0  501 -0.00000000000E+00 -0.00000000000E+00 -0.32914472962E+02  0.32914472962E+02  0.00000000000E+00 0.  1.
          1    1    1    2  502    0 -0.21791938821E+02 -0.29939866062E+01  0.73377886387E+02  0.76603960498E+02  0.00000000000E+00 0. -1.
         -1    1    1    2    0  501  0.21791938821E+02  0.29939866062E+01 -0.27436976183E+02  0.35165895630E+02  0.00000000000E+00 0.  1.
</event>
<event>
 4    1  0.1322546E+002  0.2134464E+02  0.7546771E-02  0.1514401E+00
          2   -1    0    0  502    0  0.00000000000E+00  0.00000000000E+00  0.10414753385E+03  0.10414753385E+03  0.00000000000E+00 0.  1.
         -2   -1    0    0    0  501 -0.00000000000E+00 -0.00000000000E+00 -0.46603266042E+01  0.46603266042E+01  0.00000000000E+00 0. -1.
          1    1    1    2  502    0  0.11133691788E+02 -0.18210841063E+02  0.63216787161E+02  0.66722979580E+02  0.00000000000E+00 0. -1.
         -1    1    1    2    0  501 -0.11133691788E+02  0.18210841063E+02  0.36270420081E+02  0.42084880871E+02  0.00000000000E+00 0.  1.
</event>
<event>
 4    1  0.1322546E+002  0.2239175E+02  0.7546771E-02  0.1500281E+00
          2   -1    0    0  502    0  0.00000000000E+00  0.00000000000E+00  0.17266253755E+04  0.17266253755E+04  0.00000000000E+00 0.  1.
         -2   -1    0    0    0  501 -0.00000000000E+00 -0.00000000000E+00 -0.15358763488E+01  0.15358763488E+01  0.00000000000E+00 0. -1.
          1    1    1    2  502    0 -0.18336545002E+02 -0.12851524174E+02  0.16406638033E+04  0.16408165973E+04  0.00000000000E+00 0.  1.
         -1    1    1    2    0  501  0.18336545002E+02  0.12851524174E+02  0.84425695855E+02  0.87344654540E+02  0.00000000000E+00 0. -1.
</event>
<event>
 4    1  0.1322546E+002  0.2044905E+02  0.7546771E-02  0.1527278E+00
          2   -1    0    0  502    0  0.00000000000E+00  0.00000000000E+00  0.43656385259E+02  0.43656385259E+02  0.00000000000E+00 0.  1.
         -2   -1    0    0    0  501 -0.00000000000E+00 -0.00000000000E+00 -0.26514104866E+02  0.26514104866E+02  0.00000000000E+00 0. -1.
          1    1    1    2  502    0 -0.19341629432E+02 -0.66381396158E+01  0.36611665082E+02  0.41935397300E+02  0.00000000000E+00 0.  1.
         -1    1    1    2    0  501  0.19341629432E+02  0.66381396158E+01 -0.19469384689E+02  0.28235092824E+02  0.00000000000E+00 0. -1.
</event>
<event>
 4    1  0.1322546E+002  0.3749858E+02  0.7546771E-02  0.1363802E+00
          2   -1    0    0  502    0  0.00000000000E+00  0.00000000000E+00  0.19687913578E+03  0.19687913578E+03  0.00000000000E+00 0. -1.
         -2   -1    0    0    0  501 -0.00000000000E+00 -0.00000000000E+00 -0.11778620449E+02  0.11778620449E+02  0.00000000000E+00 0.  1.
          1    1    1    2  502    0 -0.37476890546E+02  0.12752235731E+01  0.15800638549E+03  0.16239507805E+03  0.00000000000E+00 0. -1.
         -1    1    1    2    0  501  0.37476890546E+02 -0.12752235731E+01  0.27094129839E+02  0.46262678175E+02  0.00000000000E+00 0.  1.
</event>
<event>
 4    1  0.1322546E+002  0.2100143E+02  0.7546771E-02  0.1519244E+00
          2   -1    0    0  502    0  0.00000000000E+00  0.00000000000E+00  0.53651193288E+02  0.53651193288E+02  0.00000000000E+00 0. -1.
         -2   -1    0    0    0  501 -0.00000000000E+00 -0.00000000000E+00 -0.17315811912E+02  0.17315811912E+02  0.00000000000E+00 0.  1.
          1    1    1    2  502    0  0.19467326725E+02 -0.78793036697E+01 -0.75483843062E+01  0.22316772655E+02  0.00000000000E+00 0.  1.
         -1    1    1    2    0  501 -0.19467326725E+02  0.78793036697E+01  0.43883765682E+02  0.48650232544E+02  0.00000000000E+00 0. -1.
</event>
<event>
 4    1  0.1322546E+002  0.5944338E+02  0.7546771E-02  0.1261736E+00
          2   -1    0    0  502    0  0.00000000000E+00  0.00000000000E+00  0.91430100837E+02  0.91430100837E+02  0.00000000000E+00 0. -1.
         -2   -1    0    0    0  501 -0.00000000000E+00 -0.00000000000E+00 -0.38858251630E+02  0.38858251630E+02  0.00000000000E+00 0.  1.
          1    1    1    2  502    0 -0.29292942448E+02 -0.51724648492E+02  0.31087092987E+02  0.67081466064E+02  0.00000000000E+00 0. -1.
         -1    1    1    2    0  501  0.29292942448E+02  0.51724648492E+02  0.21484756220E+02  0.63206886403E+02  0.00000000000E+00 0.  1.
</event>
<event>
 4    1  0.1322546E+002  0.2106127E+02  0.7546771E-02  0.1518392E+00
          2   -1    0    0  502    0  0.00000000000E+00  0.00000000000E+00  0.70049485863E+03  0.70049485863E+03  0.00000000000E+00 0. -1.
         -2   -1    0    0    0  501 -0.00000000000E+00 -0.00000000000E+00 -0.64253001232E+00  0.64253001232E+00  0.00000000000E+00 0.  1.
          1    1    1    2  502    0 -0.18302805846E+02 -0.10420379597E+02  0.39209384550E+03  0.39265908966E+03  0.00000000000E+00 0.  1.
         -1    1    1    2    0  501  0.18302805846E+02  0.10420379597E+02  0.30775848312E+03  0.30847829898E+03  0.00000000000E+00 0. -1.
</event>
<event>
 4    1  0.1322546E+002  0.4004454E+02  0.7546771E-02  0.1348225E+00
          2   -1    0    0  502    0  0.00000000000E+00  0.00000000000E+00  0.25774203757E+03  0.25774203757E+03  0.00000000000E+00 0. -1.
         -2   -1    0    0    0  501 -0.00000000000E+00 -0.00000000000E+00 -0.81347578940E+01  0.81347578940E+01  0.00000000000E+00 0.  1.
          1    1    1    2  502    0 -0.32164004208E+02 -0.23854606356E+02  0.60334094131E+02  0.72413868324E+02  0.00000000000E+00 0.  1.
         -1    1    1    2    0  501  0.32164004208E+02  0.23854606356E+02  0.18927318554E+03  0.19346292714E+03  0.00000000000E+00 0. -1.
</event>
<event>
 4    1  0.1322546E+002  0.4341891E+02  0.7546771E-02  0.1329537E+00
          2   -1    0    0  502    0  0.00000000000E+00  0.00000000000E+00  0.23239992827E+04  0.23239992827E+04  0.00000000000E+00 0.  1.
         -2   -1    0    0    0  501 -0.00000000000E+00 -0.00000000000E+00 -0.82128446071E+00  0.82128446071E+00  0.00000000000E+00 0. -1.
          1    1    1    2  502    0 -0.27582255709E+02  0.33532391771E+02  0.12904675318E+04  0.12911977590E+04  0.00000000000E+00 0.  1.
         -1    1    1    2    0  501  0.27582255709E+02 -0.33532391771E+02  0.10327104665E+04  0.10336228082E+04  0.00000000000E+00 0. -1.
</event>
<event>
 4    1  0.1322546E+002  0.2173720E+02  0.7546771E-02  0.1508995E+00
          2   -1    0    0  502    0  0.00000000000E+00  0.00000000000E+00  0.20532216340E+03  0.20532216340E+03  0.00000000000E+00 0.  1.
         -2   -1    0    0    0  501 -0.00000000000E+00 -0.00000000000E+00 -0.29753816168E+01  0.29753816168E+01  0.00000000000E+00 0. -1.
          1    1    1    2  502    0  0.45665386424E+00 -0.21732403549E+02  0.51600734188E+02  0.55992335775E+02  0.00000000000E+00 0. -1.
         -1    1    1    2    0  501 -0.45665386424E+00  0.21732403549E+02  0.15074604760E+03  0.15230520925E+03  0.00000000000E+00 0.  1.
</event>
<event>
 4    1  0.1322546E+002  0.3666906E+02  0.7546771E-02  0.1369194E+00
          2   -1    0    0  502    0  0.00000000000E+00  0.00000000000E+00  0.13444729133E+03  0.13444729133E+03  0.00000000000E+00 0.  1.
         -2   -1    0    0    0  501 -0.00000000000E+00 -0.00000000000E+00 -0.10083988829E+02  0.10083988829E+02  0.00000000000E+00 0. -1.
          1    1    1    2  502    0 -0.69350457428E+01  0.36007292392E+02  0.68733744251E+02  0.77903450268E+02  0.00000000000E+00 0.  1.
         -1    1    1    2    0  501  0.69350457428E+01 -0.36007292392E+02  0.55629558250E+02  0.66627829891E+02  0.00000000000E+00 0. -1.
</event>
<event>
 4    1  0.1322546E+002  0.3050920E+02  0.7546771E-02  0.1415222E+00
          2   -1    0    0  502    0  0.00000000000E+00  0.00000000000E+00  0.15656360070E+03  0.15656360070E+03  0.00000000000E+00 0. -1.
         -2   -1    0    0    0  501 -0.00000000000E+00 -0.00000000000E+00 -0.66162160197E+01  0.66162160197E+01  0.00000000000E+00 0.  1.
          1    1    1    2  502    0  0.30142077284E+02  0.47187668047E+01  0.10095602117E+03  0.10546530137E+03  0.00000000000E+00 0.  1.
         -1    1    1    2    0  501 -0.30142077284E+02 -0.47187668047E+01  0.48991363513E+02  0.57714515350E+02  0.00000000000E+00 0. -1.
</event>
<event>
 4    1  0.1322546E+002  0.2224713E+02  0.7546771E-02  0.1502175E+00
          2   -1    0    0  502    0  0.00000000000E+00  0.00000000000E+00  0.45287554746E+03  0.45287554746E+03  0.00000000000E+00 0. -1.
         -2   -1    0    0    0  501 -0.00000000000E+00 -0.00000000000E+00 -0.11126740399E+01  0.11126740399E+01  0.00000000000E+00 0.  1.
          1    1    1    2  502    0  0.21875429698E+02 -0.40497487627E+01  0.19559916991E+03  0.19686028081E+03  0.00000000000E+00 0. -1.
         -1    1    1    2    0  501 -0.21875429698E+02  0.40497487627E+01  0.25616370351E+03  0.25712794069E+03  0.00000000000E+00 0.  1.
</event>
<event>
 4    1  0.1322546E+002  0.2885713E+02  0.7546771E-02  0.1429795E+00
          2   -1    0    0  502    0  0.00000000000E+00  0.00000000000E+00  0.30556099220E+03  0.30556099220E+03  0.00000000000E+00 0.  1.
         -2   -1    0    0    0  501 -0.00000000000E+00 -0.00000000000E+00 -0.71951849693E+01  0.71951849693E+01  0.00000000000E+00 0. -1.
          1    1    1    2  502    0  0.21183936098E+02  0.19595270043E+02  0.27243801515E+03  0.27396205186E+03  0.00000000000E+00 0.  1.
         -1    1    1    2    0  501 -0.21183936098E+02 -0.19595270043E+02  0.25927792074E+02  0.38794125309E+02  0.00000000000E+00 0. -1.
</event>
<event>
 4    1  0.1322546E+002  0.3283780E+02  0.7546771E-02  0.1396436E+00
          2   -1    0    0  502    0  0.00000000000E+00  0.00000000000E+00  0.17790099310E+04  0.17790099310E+04  0.00000000000E+00 0. -1.
         -2   -1    0    0    0  501 -0.00000000000E+00 -0.00000000000E+00 -0.12755389645E+01  0.12755389645E+01  0.00000000000E+00 0.  1.
          1    1    1    2  502    0  0.25339531326E+02  0.20886103616E+02  0.24402010245E+03  0.24621968153E+03  0.00000000000E+00 0.  1.
         -1    1    1    2    0  501 -0.25339531326E+02 -0.20886103616E+02  0.15337142896E+04  0.15340657884E+04  0.00000000000E+00 0. -1.
</event>
<event>
 4    1  0.1322546E+002  0.2892836E+02  0.7546771E-02  0.1429143E+00
          2   -1    0    0  502    0  0.00000000000E+00  0.00000000000E+00  0.64238599148E+03  0.64238599148E+03  0.00000000000E+00 0. -1.
         -2   -1    0    0    0  501 -0.00000000000E+00 -0.00000000000E+00 -0.13035207059E+01  0.13035207059E+01  0.00000000000E+00 0.  1.
          1    1    1    2  502    0 -0.12388858436E+02  0.26141275205E+02  0.32851016102E+03  0.32978140635E+03  0.00000000000E+00 0. -1.
         -1    1    1    2    0  501  0.12388858436E+02 -0.26141275205E+02  0.31257230976E+03  0.31390810584E+03  0.00000000000E+00 0.  1.
</event>
<event>
 4    1  0.1322546E+002  0.3504068E+02  0.7546771E-02  0.1380277E+00
          2   -1    0    0  502    0  0.00000000000E+00  0.00000000000E+00  0.35592322328E+01  0.35592322328E+01  0.00000000000E+00 0. -1.
         -2   -1    0    0    0  501 -0.00000000000E+00 -0.00000000000E+00 -0.50930971120E+03  0.50930971120E+03  0.00000000000E+00 0.  1.
          1    1    1    2  502    0  0.27308988272E+02 -0.21956061341E+02 -0.10721237586E+03  0.11279336420E+03  0.00000000000E+00 0. -1.
         -1    1    1    2    0  501 -0.27308988272E+02  0.21956061341E+02 -0.39853810311E+03  0.40007557924E+03  0.00000000000E+00 0.  1.
</event>
<event>
 4    1  0.1322546E+002  0.3149240E+02  0.7546771E-02  0.1407056E+00
          2   -1    0    0  502    0  0.00000000000E+00  0.00000000000E+00  0.16269386034E+04  0.16269386034E+04  0.00000000000E+00 0. -1.
         -2   -1    0    0    0  501 -0.00000000000E+00 -0.00000000000E+00 -0.66597740127E+00  0.66597740127E+00  0.00000000000E+00 0.  1.
          1    1    1    2  502    0  0.26132325731E+02 -0.17574778906E+02  0.10499280132E+04  0.10504002115E+04  0.00000000000E+00 0. -1.
         -1    1    1    2    0  501 -0.26132325731E+02  0.17574778906E+02  0.57634461273E+03  0.57720436929E+03  0.00000000000E+00 0.  1.
</event>
<event>
 4    1  0.1322546E+002  0.2424803E+02  0.7546771E-02  0.1477394E+00
          2   -1    0    0  502    0  0.00000000000E+00  0.00000000000E+00  0.16001272594E+04  0.16001272594E+04  0.00000000000E+00 0.  1.
         -2   -1    0    0    0  501 -0.00000000000E+00 -0.00000000000E+00 -0.41282243001E+00  0.41282243001E+00  0.00000000000E+00 0. -1.
          1    1    1    2  502    0 -0.22962204882E+02 -0.77912962220E+01  0.53454956777E+03  0.53509925019E+03  0.00000000000E+00 0. -1.
         -1    1    1    2    0  501  0.22962204882E+02  0.77912962220E+01  0.10651648692E+04  0.10654408316E+04  0.00000000000E+00 0.  1.
</event>
<event>
 4    1  0.1322546E+002  0.2591146E+02  0.7546771E-02  0.1458860E+00
          2   -1    0    0  502    0  0.00000000000E+00  0.00000000000E+00  0.83083248932E+03  0.83083248932E+03  0.00000000000E+00 0. -1.
         -2   -1    0    0    0  501 -0.00000000000E+00 -0.00000000000E+00 -0.85611844834E+00  0.85611844834E+00  0.00000000000E+00 0.  1.
          1    1    1    2  502    0  0.47109287308E+01  0.25479620751E+02  0.51346257929E+03  0.51411596382E+03  0.00000000000E+00 0. -1.
         -1    1    1    2    0  501 -0.47109287308E+01 -0.25479620751E+02  0.31651379158E+03  0.31757264395E+03  0.00000000000E+00 0.  1.
</event>
<event>
 4    1  0.1322546E+002  0.2504844E+02  0.7546771E-02  0.1468262E+00
          2   -1    0    0  502    0  0.00000000000E+00  0.00000000000E+00  0.21270267116E+03  0.21270267116E+03  0.00000000000E+00 0.  1.
         -2   -1    0    0    0  501 -0.00000000000E+00 -0.00000000000E+00 -0.34915371661E+01  0.34915371661E+01  0.00000000000E+00 0. -1.
          1    1    1    2  502    0 -0.24839167338E+02 -0.32310997487E+01  0.14718614334E+03  0.14930232762E+03  0.00000000000E+00 0. -1.
         -1    1    1    2    0  501  0.24839167338E+02  0.32310997487E+01  0.62024990655E+02  0.66891880714E+02  0.00000000000E+00 0.  1.
</event>
<event>
 4    1  0.1322546E+002  0.2973532E+02  0.7546771E-02  0.1421911E+00
          2   -1    0    0  502    0  0.00000000000E+00  0.00000000000E+00  0.22747870310E+01  0.22747870310E+01  0.00000000000E+00 0.  1.
         -2   -1    0    0    0  501 -0.00000000000E+00 -0.00000000000E+00 -0.38871540416E+03  0.38871540416E+03  0.00000000000E+00 0. -1.
          1    1    1    2  502    0  0.29707616553E+02  0.12831829235E+01 -0.19477218450E+03  0.19702891385E+03  0.00000000000E+00 0. -1.
         -1    1    1    2    0  501 -0.29707616553E+02 -0.12831829235E+01 -0.19166843263E+03  0.19396127734E+03  0.00000000000E+00 0.  1.
</event>
<event>
 4    1  0.1322546E+002  0.2940160E+02  0.7546771E-02  0.1424869E+00
          2   -1    0    0  502    0  0.00000000000E+00  0.00000000000E+00  0.85501829022E+03  0.85501829022E+03  0.00000000000E+00 0. -1.
         -2   -1    0    0    0  501 -0.00000000000E+00 -0.00000000000E+00 -0.11450230098E+01  0.11450230098E+01  0.00000000000E+00 0.  1.
          1    1    1    2  502    0  0.10944318310E+02 -0.27288747881E+02  0.57337390644E+03  0.57412724239E+03  0.00000000000E+00 0. -1.
         -1    1    1    2    0  501 -0.10944318310E+02  0.27288747881E+02  0.28049936077E+03  0.28203607085E+03  0.00000000000E+00 0.  1.
</event>
<event>
 4    1  0.1322546E+002  0.2147403E+02  0.7546771E-02  0.1512603E+00
          2   -1    0    0  502    0  0.00000000000E+00  0.00000000000E+00  0.81808000159E+03  0.81808000159E+03  0.00000000000E+00 0.  1.
         -2   -1    0    0    0  501 -0.00000000000E+00 -0.00000000000E+00 -0.95946926258E+00  0.95946926258E+00  0.00000000000E+00 0. -1.
          1    1    1    2  502    0 -0.16996200341E+02 -0.13124897492E+02  0.67158244020E+03  0.67192567129E+03  0.00000000000E+00 0.  1.
         -1    1    1    2    0  501  0.16996200341E+02  0.13124897492E+02  0.14553809213E+03  0.14711379956E+03  0.00000000000E+00 0. -1.
</event>
<event>
 4    1  0.1322546E+002  0.2057771E+02  0.7546771E-02  0.1525380E+00
          2   -1    0    0  502    0  0.00000000000E+00  0.00000000000E+00  0.25193124488E+03  0.25193124488E+03  0.00000000000E+00 0. -1.
         -2   -1    0    0    0  501 -0.00000000000E+00 -0.00000000000E+00 -0.24459751634E+01  0.24459751634E+01  0.00000000000E+00 0.  1.
          1    1    1    2  502    0  0.19046354459E+02 -0.77896465876E+01  0.19588150119E+03  0.19695939866E+03  0.00000000000E+00 0. -1.
         -1    1    1    2    0  501 -0.19046354459E+02  0.77896465876E+01  0.53603768524E+02  0.57417821381E+02  0.00000000000E+00 0.  1.
</event>
<event>
 4    1  0.1322546E+002  0.2906429E+02  0.7546771E-02  0.1427906E+00
          2   -1    0    0  502    0  0.00000000000E+00  0.00000000000E+00  0.31543520684E+02  0.31543520684E+02  0.00000000000E+00 0.  1.
         -2   -1    0    0    0  501 -0.00000000000E+00 -0.00000000000E+00 -0.44701172128E+02  0.44701172128E+02  0.00000000000E+00 0. -1.
          1    1    1    2  502    0 -0.23823103733E+02 -0.16649100728E+02 -0.30716998641E+02  0.42287904087E+02  0.00000000000E+00 0. -1.
         -1    1    1    2    0  501  0.23823103733E+02  0.16649100728E+02  0.17559347196E+02  0.33956788725E+02  0.00000000000E+00 0.  1.
</event>
<event>
 4    1  0.1322546E+002  0.2849602E+02  0.7546771E-02  0.1433133E+00
          2   -1    0    0  502    0  0.00000000000E+00  0.00000000000E+00  0.71761472479E+03  0.71761472479E+03  0.00000000000E+00 0. -1.
         -2   -1    0    0    0  501 -0.00000000000E+00 -0.00000000000E+00 -0.54056214868E+01  0.54056214868E+01  0.00000000000E+00 0.  1.
          1    1    1    2  502    0  0.26121931989E+02  0.11387174688E+02  0.34651048143E+02  0.44863328183E+02  0.00000000000E+00 0.  1.
         -1    1    1    2    0  501 -0.26121931989E+02 -0.11387174688E+02  0.67755805516E+03  0.67815701809E+03  0.00000000000E+00 0. -1.
</event>
<event>
 4    1  0.1322546E+002  0.2654663E+02  0.7546771E-02  0.1452216E+00
          2   -1    0    0  502    0  0.00000000000E+00  0.00000000000E+00  0.22711502194E+03  0.22711502194E+03  0.00000000000E+00 0.  1.
         -2   -1    0    0    0  501 -0.00000000000E+00 -0.00000000000E+00 -0.34992843037E+01  0.34992843037E+01  0.00000000000E+00 0. -1.
          1    1    1    2  502    0  0.54315814221E+00  0.26541074378E+02  0.15061436932E+03  0.15293597319E+03  0.00000000000E+00 0.  1.
         -1    1    1    2    0  501 -0.54315814221E+00 -0.26541074378E+02  0.73001368318E+02  0.77678333055E+02  0.00000000000E+00 0. -1.
</event>
<event>
 4    1  0.1322546E+002  0.2404062E+02  0.7546771E-02  0.1479829E+00
          2   -1    0    0  502    0  0.00000000000E+00  0.00000000000E+00  0.86221727289E+03  0.86221727289E+03  0.00000000000E+00 0.  1.
         -2   -1    0    0    0  501 -0.00000000000E+00 -0.00000000000E+00 -0.87546713803E+00  0.87546713803E+00  0.00000000000E+00 0. -1.
          1    1    1    2  502    0  0.13495009753E+02  0.19895633110E+02  0.22176412873E+03  0.22306339972E+03  0.00000000000E+00 0. -1.
         -1    1    1    2    0  501 -0.13495009753E+02 -0.19895633110E+02  0.63957767702E+03  0.64002934030E+03  0.00000000000E+00 0.  1.
</event>
<event>
 4    1  0.1322546E+002  0.2110455E+02  0.7546771E-02  0.1517777E+00
          2   -1    0    0  502    0  0.00000000000E+00  0.00000000000E+00  0.30353107062E+03  0.30353107062E+03  0.00000000000E+00 0.  1.
         -2   -1    0    0    0  501 -0.00000000000E+00 -0.00000000000E+00 -0.14756290351E+01  0.14756290351E+01  0.00000000000E+00 0. -1.
          1    1    1    2  502    0 -0.10793947147E+02 -0.18135403952E+02  0.16241464030E+03  0.16378008901E+03  0.00000000000E+00 0. -1.
         -1    1    1    2    0  501  0.10793947147E+02  0.18135403952E+02  0.13964080128E+03  0.14122661065E+03  0.00000000000E+00 0.  1.
</event>
<event>
 4    1  0.1322546E+002  0.3149246E+02  0.7546771E-02  0.1407056E+00
          2   -1    0    0  502    0  0.00000000000E+00  0.00000000000E+00  0.74434497750E+03  0.74434497750E+03  0.00000000000E+00 0. -1.
         -2   -1    0    0    0  501 -0.00000000000E+00 -0.00000000000E+00 -0.29762509509E+01  0.29762509509E+01  0.00000000000E+00 0.  1.
          1    1    1    2  502    0  0.63280188491E+01  0.30850143576E+02  0.64838188602E+03  0.64914624339E+03  0.00000000000E+00 0. -1.
         -1    1    1    2    0  501 -0.63280188491E+01 -0.30850143576E+02  0.92986840531E+02  0.98174985069E+02  0.00000000000E+00 0.  1.
</event>
<event>
 4    1  0.1322546E+002  0.3177244E+02  0.7546771E-02  0.1404795E+00
          2   -1    0    0  502    0  0.00000000000E+00  0.00000000000E+00  0.67623656926E+03  0.67623656926E+03  0.00000000000E+00 0. -1.
         -2   -1    0    0    0  501 -0.00000000000E+00 -0.00000000000E+00 -0.17066748375E+01  0.17066748375E+01  0.00000000000E+00 0.  1.
          1    1    1    2  502    0  0.26746748481E+02 -0.17149317229E+02  0.45726053158E+03  0.45836304539E+03  0.00000000000E+00 0. -1.
         -1    1    1    2    0  501 -0.26746748481E+02  0.17149317229E+02  0.21726936285E+03  0.21958019872E+03  0.00000000000E+00 0.  1.
</event>
<event>
 4    1  0.1322546E+002  0.2092203E+02  0.7546771E-02  0.1520381E+00
          2   -1    0    0  502    0  0.00000000000E+00  0.00000000000E+00  0.14966493483E+02  0.14966493483E+02  0.00000000000E+00 0.  1.
         -2   -1    0    0    0  501 -0.00000000000E+00 -0.00000000000E+00 -0.36956508944E+02  0.36956508944E+02  0.00000000000E+00 0. -1.
          1    1    1    2  502    0 -0.15403955017E+02 -0.14158017705E+02 -0.22852310458E+02  0.30983211402E+02  0.00000000000E+00 0. -1.
         -1    1    1    2    0  501  0.15403955017E+02  0.14158017705E+02  0.86229499697E+00  0.20939791026E+02  0.00000000000E+00 0.  1.
</event>
<event>
 4    1  0.1322546E+002  0.2837551E+02  0.7546771E-02  0.1434260E+00
          2   -1    0    0  502    0  0.00000000000E+00  0.00000000000E+00  0.72579918316E+01  0.72579918316E+01  0.00000000000E+00 0. -1.
         -2   -1    0    0    0  501 -0.00000000000E+00 -0.00000000000E+00 -0.11132241438E+03  0.11132241438E+03  0.00000000000E+00 0.  1.
          1    1    1    2  502    0 -0.19077177926E+02  0.21005491402E+02 -0.48537063720E+02  0.56222912956E+02  0.00000000000E+00 0. -1.
         -1    1    1    2    0  501  0.19077177926E+02 -0.21005491402E+02 -0.55527358824E+02  0.62357493252E+02  0.00000000000E+00 0.  1.
</event>
<event>
 4    1  0.1322546E+002  0.2108501E+02  0.7546771E-02  0.1518055E+00
          2   -1    0    0  502    0  0.00000000000E+00  0.00000000000E+00  0.80553856605E+00  0.80553856605E+00  0.00000000000E+00 0. -1.
         -2   -1    0    0    0  501 -0.00000000000E+00 -0.00000000000E+00 -0.79820751439E+03  0.79820751439E+03  0.00000000000E+00 0.  1.
          1    1    1    2  502    0  0.14876171773E+02 -0.14942455784E+02 -0.17677712832E+03  0.17803013949E+03  0.00000000000E+00 0. -1.
         -1    1    1    2    0  501 -0.14876171773E+02  0.14942455784E+02 -0.62062484750E+03  0.62098291346E+03  0.00000000000E+00 0.  1.
</event>
<event>
 4    1  0.1322546E+002  0.2304019E+02  0.7546771E-02  0.1491994E+00
          2   -1    0    0  502    0  0.00000000000E+00  0.00000000000E+00  0.54302080744E+01  0.54302080744E+01  0.00000000000E+00 0. -1.
         -2   -1    0    0    0  501 -0.00000000000E+00 -0.00000000000E+00 -0.12209222529E+03  0.12209222529E+03  0.00000000000E+00 0.  1.
          1    1    1    2  502    0  0.13935654280E+02 -0.18347962104E+02 -0.86796255582E+02  0.89802228016E+02  0.00000000000E+00 0. -1.
         -1    1    1    2    0  501 -0.13935654280E+02  0.18347962104E+02 -0.29865761633E+02  0.37720205348E+02  0.00000000000E+00 0.  1.
</event>
<event>
 4    1  0.1322546E+002  0.3589206E+02  0.7546771E-02  0.1374398E+00
          2   -1    0    0  502    0  0.00000000000E+00  0.00000000000E+00  0.30121879879E+04  0.30121879879E+04  0.00000000000E+00 0.  1.
         -2   -1    0    0    0  501 -0.00000000000E+00 -0.00000000000E+00 -0.53587831446E+00  0.53587831446E+00  0.00000000000E+00 0. -1.
          1    1    1    2  502    0  0.35890469799E+02  0.33733783243E+00  0.21827113968E+04  0.21830064776E+04  0.00000000000E+00 0.  1.
         -1    1    1    2    0  501 -0.35890469799E+02 -0.33733783243E+00  0.82894071277E+03  0.82971738857E+03  0.00000000000E+00 0. -1.
</event>
<event>
 4    1  0.1322546E+002  0.2064808E+02  0.7546771E-02  0.1524349E+00
          2   -1    0    0  502    0  0.00000000000E+00  0.00000000000E+00  0.67173428932E+00  0.67173428932E+00  0.00000000000E+00 0. -1.
         -2   -1    0    0    0  501 -0.00000000000E+00 -0.00000000000E+00 -0.67864703184E+03  0.67864703184E+03  0.00000000000E+00 0.  1.
          1    1    1    2  502    0 -0.20020774434E+02  0.50509090997E+01 -0.42543175937E+03  0.42593253570E+03  0.00000000000E+00 0.  1.
         -1    1    1    2    0  501  0.20020774434E+02 -0.50509090997E+01 -0.25254353818E+03  0.25338623042E+03  0.00000000000E+00 0. -1.
</event>
<event>
 4    1  0.1322546E+002  0.2397018E+02  0.7546771E-02  0.1480662E+00
          2   -1    0    0  502    0  0.00000000000E+00  0.00000000000E+00  0.23903382193E+01  0.23903382193E+01  0.00000000000E+00 0. -1.
         -2   -1    0    0    0  501 -0.00000000000E+00 -0.00000000000E+00 -0.25852385905E+03  0.25852385905E+03  0.00000000000E+00 0.  1.
          1    1    1    2  502    0  0.23961556724E+02  0.64281415125E+00 -0.16263544064E+03  0.16439238414E+03  0.00000000000E+00 0.  1.
         -1    1    1    2    0  501 -0.23961556724E+02 -0.64281415125E+00 -0.93498080189E+02  0.96521813129E+02  0.00000000000E+00 0. -1.
</event>
<event>
 4    1  0.1322546E+002  0.2109221E+02  0.7546771E-02  0.1517952E+00
          2   -1    0    0  502    0  0.00000000000E+00  0.00000000000E+00  0.13887798246E+01  0.13887798246E+01  0.00000000000E+00 0.  1.
         -2   -1    0    0    0  501 -0.00000000000E+00 -0.00000000000E+00 -0.32724941360E+03  0.32724941360E+03  0.00000000000E+00 0. -1.
          1    1    1    2  502    0 -0.20836946423E+02 -0.32715273222E+01 -0.13905327343E+03  0.14064385546E+03  0.00000000000E+00 0. -1.
         -1    1    1    2    0  501  0.20836946423E+02  0.32715273222E+01 -0.18680736034E+03  0.18799433796E+03  0.00000000000E+00 0.  1.
</event>
<event>
 4    1  0.1322546E+002  0.2425695E+02  0.7546771E-02  0.1477290E+00
          2   -1    0    0  502    0  0.00000000000E+00  0.00000000000E+00  0.36571368794E+03  0.36571368794E+03  0.00000000000E+00 0.  1.
         -2   -1    0    0    0  501 -0.00000000000E+00 -0.00000000000E+00 -0.16483193166E+01  0.16483193166E+01  0.00000000000E+00 0. -1.
          1    1    1    2  502    0 -0.23785887035E+02  0.47572196560E+01  0.21043513464E+03  0.21182857563E+03  0.00000000000E+00 0. -1.
         -1    1    1    2    0  501  0.23785887035E+02 -0.47572196560E+01  0.15363023398E+03  0.15553343163E+03  0.00000000000E+00 0.  1.
</event>
<event>
 4    1  0.1322546E+002  0.3572753E+02  0.7546771E-02  0.1375519E+00
          2   -1    0    0  502    0  0.00000000000E+00  0.00000000000E+00  0.83497255937E+01  0.83497255937E+01  0.00000000000E+00 0. -1.
         -2   -1    0    0    0  501 -0.00000000000E+00 -0.00000000000E+00 -0.19936890028E+03  0.19936890028E+03  0.00000000000E+00 0.  1.
          1    1    1    2  502    0  0.35572970662E+02  0.33197083555E+01 -0.45354039710E+02  0.57735999370E+02  0.00000000000E+00 0. -1.
         -1    1    1    2    0  501 -0.35572970662E+02 -0.33197083555E+01 -0.14566513498E+03  0.14998262651E+03  0.00000000000E+00 0.  1.
</event>
<event>
 4    1  0.1322546E+002  0.3062319E+02  0.7546771E-02  0.1414257E+00
          2   -1    0    0  502    0  0.00000000000E+00  0.00000000000E+00  0.80489464187E+03  0.80489464187E+03  0.00000000000E+00 0. -1.
         -2   -1    0    0    0  501 -0.00000000000E+00 -0.00000000000E+00 -0.13160570726E+01  0.13160570726E+01  0.00000000000E+00 0.  1.
          1    1    1    2  502    0 -0.22947288743E+02  0.20278106513E+02  0.53831468747E+03  0.53918501686E+03  0.00000000000E+00 0.  1.
         -1    1    1    2    0  501  0.22947288743E+02 -0.20278106513E+02  0.26526389733E+03  0.26702568208E+03  0.00000000000E+00 0. -1.
</event>
<event>
 4    1  0.1322546E+002  0.3524143E+02  0.7546771E-02  0.1378874E+00
          2   -1    0    0  502    0  0.00000000000E+00  0.00000000000E+00  0.13485603199E+02  0.13485603199E+02  0.00000000000E+00 0. -1.
         -2   -1    0    0    0  501 -0.00000000000E+00 -0.00000000000E+00 -0.10870423189E+03  0.10870423189E+03  0.00000000000E+00 0.  1.
          1    1    1    2  502    0  0.16642361837E+02 -0.31064291402E+02 -0.71490446091E+02  0.79704719372E+02  0.00000000000E+00 0.  1.
         -1    1    1    2    0  501 -0.16642361837E+02  0.31064291402E+02 -0.23728182596E+02  0.42485115713E+02  0.00000000000E+00 0. -1.
</event>
<event>
 4    1  0.1322546E+002  0.2186953E+02  0.7546771E-02  0.1507203E+00
          2   -1    0    0  502    0  0.00000000000E+00  0.00000000000E+00  0.58260714255E+03  0.58260714255E+03  0.00000000000E+00 0. -1.
         -2   -1    0    0    0  501 -0.00000000000E+00 -0.00000000000E+00 -0.94339901701E+00  0.94339901701E+00  0.00000000000E+00 0.  1.
          1    1    1    2  502    0  0.39944006492E+01  0.21501650468E+02  0.18570240689E+03  0.18698572174E+03  0.00000000000E+00 0.  1.
         -1    1    1    2    0  501 -0.39944006492E+01 -0.21501650468E+02  0.39596133665E+03  0.39656481984E+03  0.00000000000E+00 0. -1.
</event>
<event>
 4    1  0.1322546E+002  0.3911649E+02  0.7546771E-02  0.1353742E+00
          2   -1    0    0  502    0  0.00000000000E+00  0.00000000000E+00  0.58866355555E+03  0.58866355555E+03  0.00000000000E+00 0. -1.
         -2   -1    0    0    0  501 -0.00000000000E+00 -0.00000000000E+00 -0.26936004259E+01  0.26936004259E+01  0.00000000000E+00 0.  1.
          1    1    1    2  502    0  0.38850294055E+02  0.45557336476E+01  0.34831507423E+03  0.35050462335E+03  0.00000000000E+00 0.  1.
         -1    1    1    2    0  501 -0.38850294055E+02 -0.45557336476E+01  0.23765488090E+03  0.24085253263E+03  0.00000000000E+00 0. -1.
</event>
<event>
 4    1  0.1322546E+002  0.5764243E+02  0.7546771E-02  0.1268060E+00
          2   -1    0    0  502    0  0.00000000000E+00  0.00000000000E+00  0.38717713982E+04  0.38717713982E+04  0.00000000000E+00 0.  1.
         -2   -1    0    0    0  501 -0.00000000000E+00 -0.00000000000E+00 -0.13409267178E+01  0.13409267178E+01  0.00000000000E+00 0. -1.
          1    1    1    2  502    0 -0.47840284212E+02 -0.32155201929E+02  0.77325738894E+03  0.77540288841E+03  0.00000000000E+00 0. -1.
         -1    1    1    2    0  501  0.47840284212E+02  0.32155201929E+02  0.30971730826E+04  0.30977094366E+04  0.00000000000E+00 0.  1.
</event>
<event>
 4    1  0.1322546E+002  0.3182566E+02  0.7546771E-02  0.1404368E+00
          2   -1    0    0  502    0  0.00000000000E+00  0.00000000000E+00  0.24356073305E+04  0.24356073305E+04  0.00000000000E+00 0.  1.
         -2   -1    0    0    0  501 -0.00000000000E+00 -0.00000000000E+00 -0.41943482139E+00  0.41943482139E+00  0.00000000000E+00 0. -1.
          1    1    1    2  502    0 -0.23130778640E+02  0.21859549587E+02  0.13300332019E+04  0.13304139171E+04  0.00000000000E+00 0.  1.
         -1    1    1    2    0  501  0.23130778640E+02 -0.21859549587E+02  0.11051546938E+04  0.11056128482E+04  0.00000000000E+00 0. -1.
</event>
<event>
 4    1  0.1322546E+002  0.2988541E+02  0.7546771E-02  0.1420595E+00
          2   -1    0    0  502    0  0.00000000000E+00  0.00000000000E+00  0.58424433293E+03  0.58424433293E+03  0.00000000000E+00 0. -1.
         -2   -1    0    0    0  501 -0.00000000000E+00 -0.00000000000E+00 -0.16457538420E+01  0.16457538420E+01  0.00000000000E+00 0.  1.
          1    1    1    2  502    0 -0.29879293784E+02 -0.60477449685E+00  0.36942338496E+03  0.37063024068E+03  0.00000000000E+00 0. -1.
         -1    1    1    2    0  501  0.29879293784E+02  0.60477449685E+00  0.21317519412E+03  0.21525984609E+03  0.00000000000E+00 0.  1.
</event>
<event>
 4    1  0.1322546E+002  0.2113105E+02  0.7546771E-02  0.1517402E+00
          2   -1    0    0  502    0  0.00000000000E+00  0.00000000000E+00  0.57733724803E+01  0.57733724803E+01  0.00000000000E+00 0. -1.
         -2   -1    0    0    0  501 -0.00000000000E+00 -0.00000000000E+00 -0.79336205768E+02  0.79336205768E+02  0.00000000000E+00 0.  1.
          1    1    1    2  502    0 -0.93648745613E+01 -0.18942550840E+02 -0.30033720128E+02  0.36722546924E+02  0.00000000000E+00 0.  1.
         -1    1    1    2    0  501  0.93648745613E+01  0.18942550840E+02 -0.43529113159E+02  0.48387031324E+02  0.00000000000E+00 0. -1.
</event>
<event>
 4    1  0.1322546E+002  0.2756399E+02  0.7546771E-02  0.1442024E+00
          2   -1    0    0  502    0  0.00000000000E+00  0.00000000000E+00  0.60712594596E+03  0.60712594596E+03  0.00000000000E+00 0.  1.
         -2   -1    0    0    0  501 -0.00000000000E+00 -0.00000000000E+00 -0.12555551829E+01  0.12555551829E+01  0.00000000000E+00 0. -1.
          1    1    1    2  502    0  0.27484552244E+02  0.20911288624E+01  0.32037893319E+03  0.32156248890E+03  0.00000000000E+00 0. -1.
         -1    1    1    2    0  501 -0.27484552244E+02 -0.20911288624E+01  0.28549145758E+03  0.28681901224E+03  0.00000000000E+00 0.  1.
</event>
<event>
 4    1  0.1322546E+002  0.3023322E+02  0.7546771E-02  0.1417580E+00
          2   -1    0    0  502    0  0.00000000000E+00  0.00000000000E+00  0.28753818130E+02  0.28753818130E+02  0.00000000000E+00 0.  1.
         -2   -1    0    0    0  501 -0.00000000000E+00 -0.00000000000E+00 -0.92492238560E+02  0.92492238560E+02  0.00000000000E+00 0. -1.
          1    1    1    2  502    0 -0.23953464415E+02 -0.18446654225E+02 -0.80981689657E+02  0.86441202960E+02  0.00000000000E+00 0. -1.
         -1    1    1    2    0  501  0.23953464415E+02  0.18446654225E+02  0.17243269227E+02  0.34804853730E+02  0.00000000000E+00 0.  1.
</event>
<event>
 4    1  0.1322546E+002  0.2147304E+02  0.7546771E-02  0.1512617E+00
          2   -1    0    0  502    0  0.00000000000E+00  0.00000000000E+00  0.85994420625E+02  0.85994420625E+02  0.00000000000E+00 0.  1.
         -2   -1    0    0    0  501 -0.00000000000E+00 -0.00000000000E+00 -0.67785299934E+01  0.67785299934E+01  0.00000000000E+00 0. -1.
          1    1    1    2  502    0 -0.68440695482E+01 -0.20353134650E+02  0.60813790318E+02  0.64493476189E+02  0.00000000000E+00 0.  1.
         -1    1    1    2    0  501  0.68440695482E+01  0.20353134650E+02  0.18402100314E+02  0.28279474430E+02  0.00000000000E+00 0. -1.
</event>
<event>
 4    1  0.1322546E+002  0.4019234E+02  0.7546771E-02  0.1347362E+00
          2   -1    0    0  502    0  0.00000000000E+00  0.00000000000E+00  0.19825565674E+02  0.19825565674E+02  0.00000000000E+00 0.  1.
         -2   -1    0    0    0  501 -0.00000000000E+00 -0.00000000000E+00 -0.22266459470E+03  0.22266459470E+03  0.00000000000E+00 0. -1.
          1    1    1    2  502    0  0.24192836203E+02 -0.32095654783E+02 -0.19796440734E+03  0.20200329441E+03  0.00000000000E+00 0. -1.
         -1    1    1    2    0  501 -0.24192836203E+02  0.32095654783E+02 -0.48746216938E+01  0.40486865971E+02  0.00000000000E+00 0.  1.
</event>
<event>
 4    1  0.1322546E+002  0.2294689E+02  0.7546771E-02  0.1493166E+00
          2   -1    0    0  502    0  0.00000000000E+00  0.00000000000E+00  0.14679863004E+03  0.14679863004E+03  0.00000000000E+00 0.  1.
         -2   -1    0    0    0  501 -0.00000000000E+00 -0.00000000000E+00 -0.91768944675E+01  0.91768944675E+01  0.00000000000E+00 0. -1.
          1    1    1    2  502    0  0.19591248304E+02  0.11947508420E+02  0.79438291390E+01  0.24283006176E+02  0.00000000000E+00 0. -1.
         -1    1    1    2    0  501 -0.19591248304E+02 -0.11947508420E+02  0.12967790643E+03  0.13169251833E+03  0.00000000000E+00 0.  1.
</event>
<event>
 4    1  0.1322546E+002  0.2002926E+02  0.7546771E-02  0.1533589E+00
          2   -1    0    0  502    0  0.00000000000E+00  0.00000000000E+00  0.74193183120E+01  0.74193183120E+01  0.00000000000E+00 0.  1.
         -2   -1    0    0    0  501 -0.00000000000E+00 -0.00000000000E+00 -0.62459563147E+02  0.62459563147E+02  0.00000000000E+00 0. -1.
          1    1    1    2  502    0 -0.19094108304E+02  0.60486477701E+01 -0.14715810361E+02  0.24854097979E+02  0.00000000000E+00 0.  1.
         -1    1    1    2    0  501  0.19094108304E+02 -0.60486477701E+01 -0.40324434474E+02  0.45024783480E+02  0.00000000000E+00 0. -1.
</event>
<event>
 4    1  0.1322546E+002  0.3995677E+02  0.7546771E-02  0.1348739E+00
          2   -1    0    0  502    0  0.00000000000E+00  0.00000000000E+00  0.17851366709E+04  0.17851366709E+04  0.00000000000E+00 0. -1.
         -2   -1    0    0    0  501 -0.00000000000E+00 -0.00000000000E+00 -0.46400954411E+01  0.46400954411E+01  0.00000000000E+00 0.  1.
          1    1    1    2  502    0 -0.38811584937E+02  0.94975896026E+01  0.16942821454E+04  0.16947532362E+04  0.00000000000E+00 0. -1.
         -1    1    1    2    0  501  0.38811584937E+02 -0.94975896026E+01  0.86214430080E+02  0.95023530179E+02  0.00000000000E+00 0.  1.
</event>
<event>
 4    1  0.1322546E+002  0.2162253E+02  0.7546771E-02  0.1510559E+00
          2   -1    0    0  502    0  0.00000000000E+00  0.00000000000E+00  0.53471617566E+01  0.53471617566E+01  0.00000000000E+00 0. -1.
         -2   -1    0    0    0  501 -0.00000000000E+00 -0.00000000000E+00 -0.12619965809E+03  0.12619965809E+03  0.00000000000E+00 0.  1.
          1    1    1    2  502    0  0.16277604658E+02 -0.14232823339E+02 -0.96879346221E+02  0.99262991078E+02  0.00000000000E+00 0.  1.
         -1    1    1    2    0  501 -0.16277604658E+02  0.14232823339E+02 -0.23973150112E+02  0.32283828768E+02  0.00000000000E+00 0. -1.
</event>
<event>
 4    1  0.1322546E+002  0.2840236E+02  0.7546771E-02  0.1434008E+00
          2   -1    0    0  502    0  0.00000000000E+00  0.00000000000E+00  0.12000806309E+03  0.12000806309E+03  0.00000000000E+00 0. -1.
         -2   -1    0    0    0  501 -0.00000000000E+00 -0.00000000000E+00 -0.67284265317E+01  0.67284265317E+01  0.00000000000E+00 0.  1.
          1    1    1    2  502    0 -0.26745316462E+02 -0.95593957079E+01  0.54681154634E+02  0.61617551648E+02  0.00000000000E+00 0.  1.
         -1    1    1    2    0  501  0.26745316462E+02  0.95593957079E+01  0.58598481922E+02  0.65118937971E+02  0.00000000000E+00 0. -1.
</event>
<event>
 4    1  0.1322546E+002  0.3740805E+02  0.7546771E-02  0.1364383E+00
          2   -1    0    0  502    0  0.00000000000E+00  0.00000000000E+00  0.35117339092E+02  0.35117339092E+02  0.00000000000E+00 0. -1.
         -2   -1    0    0    0  501 -0.00000000000E+00 -0.00000000000E+00 -0.96394551855E+02  0.96394551855E+02  0.00000000000E+00 0.  1.
          1    1    1    2  502    0 -0.36192595311E+02 -0.94582175164E+01  0.19724345638E+02  0.42289616276E+02  0.00000000000E+00 0. -1.
         -1    1    1    2    0  501  0.36192595311E+02  0.94582175164E+01 -0.81001558401E+02  0.89222274670E+02  0.00000000000E+00 0.  1.
</event>
<event>
 4    1  0.1322546E+002  0.2394811E+02  0.7546771E-02  0.1480924E+00
          2   -1    0    0  502    0  0.00000000000E+00  0.00000000000E+00  0.30097145210E+02  0.30097145210E+02  0.00000000000E+00 0.  1.
         -2   -1    0    0    0  501 -0.00000000000E+00 -0.00000000000E+00 -0.21183773446E+02  0.21183773446E+02  0.00000000000E+00 0. -1.
          1    1    1    2  502    0  0.23006507481E+02 -0.66492599969E+01  0.12584088419E+02  0.27053120454E+02  0.00000000000E+00 0.  1.
         -1    1    1    2    0  501 -0.23006507481E+02  0.66492599969E+01 -0.36707166544E+01  0.24227798202E+02  0.00000000000E+00 0. -1.
</event>
<event>
 4    1  0.1322546E+002  0.2166381E+02  0.7546771E-02  0.1509995E+00
          2   -1    0    0  502    0  0.00000000000E+00  0.00000000000E+00  0.85755035478E+03  0.85755035478E+03  0.00000000000E+00 0.  1.
         -2   -1    0    0    0  501 -0.00000000000E+00 -0.00000000000E+00 -0.56059227316E+00  0.56059227316E+00  0.00000000000E+00 0. -1.
          1    1    1    2  502    0 -0.15048699228E+02 -0.15583886664E+02  0.36237951250E+03  0.36302648932E+03  0.00000000000E+00 0. -1.
         -1    1    1    2    0  501  0.15048699228E+02  0.15583886664E+02  0.49461025001E+03  0.49508445773E+03  0.00000000000E+00 0.  1.
</event>
<event>
 4    1  0.1322546E+002  0.3053496E+02  0.7546771E-02  0.1415004E+00
          2   -1    0    0  502    0  0.00000000000E+00  0.00000000000E+00  0.52395720277E+03  0.52395720277E+03  0.00000000000E+00 0.  1.
         -2   -1    0    0    0  501 -0.00000000000E+00 -0.00000000000E+00 -0.20866755424E+01  0.20866755424E+01  0.00000000000E+00 0. -1.
          1    1    1    2  502    0  0.44916490789E+01  0.30202794695E+02  0.36185016440E+03  0.36313623504E+03  0.00000000000E+00 0.  1.
         -1    1    1    2    0  501 -0.44916490789E+01 -0.30202794695E+02  0.16002036283E+03  0.16290764328E+03  0.00000000000E+00 0. -1.
</event>
<event>
 4    1  0.1322546E+002  0.2029661E+02  0.7546771E-02  0.1529549E+00
          2   -1    0    0  502    0  0.00000000000E+00  0.00000000000E+00  0.35791589542E+03  0.35791589542E+03  0.00000000000E+00 0. -1.
         -2   -1    0    0    0  501 -0.00000000000E+00 -0.00000000000E+00 -0.11869972264E+01  0.11869972264E+01  0.00000000000E+00 0.  1.
          1    1    1    2  502    0 -0.37135635559E+01  0.19953994304E+02  0.20964295812E+03  0.21062317615E+03  0.00000000000E+00 0. -1.
         -1    1    1    2    0  501  0.37135635559E+01 -0.19953994304E+02  0.14708594008E+03  0.14847971650E+03  0.00000000000E+00 0.  1.
</event>
<event>
 4    1  0.1322546E+002  0.2186270E+02  0.7546771E-02  0.1507295E+00
          2   -1    0    0  502    0  0.00000000000E+00  0.00000000000E+00  0.14247037177E+04  0.14247037177E+04  0.00000000000E+00 0. -1.
         -2   -1    0    0    0  501 -0.00000000000E+00 -0.00000000000E+00 -0.36108499199E+00  0.36108499199E+00  0.00000000000E+00 0.  1.
          1    1    1    2  502    0  0.18802825683E+02 -0.11154877480E+02  0.52247653053E+03  0.52293374581E+03  0.00000000000E+00 0.  1.
         -1    1    1    2    0  501 -0.18802825683E+02  0.11154877480E+02  0.90186610213E+03  0.90213105684E+03  0.00000000000E+00 0. -1.
</event>
<event>
 4    1  0.1322546E+002  0.2096400E+02  0.7546771E-02  0.1519779E+00
          2   -1    0    0  502    0  0.00000000000E+00  0.00000000000E+00  0.17793411855E+04  0.17793411855E+04  0.00000000000E+00 0.  1.
         -2   -1    0    0    0  501 -0.00000000000E+00 -0.00000000000E+00 -0.25281503884E+00  0.25281503884E+00  0.00000000000E+00 0. -1.
          1    1    1    2  502    0 -0.72104383877E+01 -0.19684994545E+02  0.75454526809E+03  0.75483643992E+03  0.00000000000E+00 0. -1.
         -1    1    1    2    0  501  0.72104383877E+01  0.19684994545E+02  0.10245431024E+04  0.10247575606E+04  0.00000000000E+00 0.  1.
</event>
<event>
 4    1  0.1322546E+002  0.2638772E+02  0.7546771E-02  0.1453857E+00
          2   -1    0    0  502    0  0.00000000000E+00  0.00000000000E+00  0.65176229526E+01  0.65176229526E+01  0.00000000000E+00 0.  1.
         -2   -1    0    0    0  501 -0.00000000000E+00 -0.00000000000E+00 -0.12591143006E+03  0.12591143006E+03  0.00000000000E+00 0. -1.
          1    1    1    2  502    0  0.22285832531E+02  0.14129874370E+02 -0.33923798213E+02  0.42978317400E+02  0.00000000000E+00 0. -1.
         -1    1    1    2    0  501 -0.22285832531E+02 -0.14129874370E+02 -0.85470008896E+02  0.89450735615E+02  0.00000000000E+00 0.  1.
</event>
<event>
 4    1  0.1322546E+002  0.2185984E+02  0.7546771E-02  0.1507334E+00
          2   -1    0    0  502    0  0.00000000000E+00  0.00000000000E+00  0.24515284481E+03  0.24515284481E+03  0.00000000000E+00 0.  1.
         -2   -1    0    0    0  501 -0.00000000000E+00 -0.00000000000E+00 -0.28187893972E+01  0.28187893972E+01  0.00000000000E+00 0. -1.
          1    1    1    2  502    0  0.14775933051E+02 -0.16109763866E+02  0.52302268493E+02  0.56686682553E+02  0.00000000000E+00 0. -1.
         -1    1    1    2    0  501 -0.14775933051E+02  0.16109763866E+02  0.19003178692E+03  0.19128495165E+03  0.00000000000E+00 0.  1.
</event>
<event>
 4    1  0.1322546E+002  0.4601692E+02  0.7546771E-02  0.1316431E+00
          2   -1    0    0  502    0  0.00000000000E+00  0.00000000000E+00  0.95943850971E+01  0.95943850971E+01  0.00000000000E+00 0.  1.
         -2   -1    0    0    0  501 -0.00000000000E+00 -0.00000000000E+00 -0.33328709767E+03  0.33328709767E+03  0.00000000000E+00 0. -1.
          1    1    1    2  502    0 -0.23512002965E+02 -0.39556822567E+02 -0.62206319683E+02  0.77376887399E+02  0.00000000000E+00 0.  1.
         -1    1    1    2    0  501  0.23512002965E+02  0.39556822567E+02 -0.26148639289E+03  0.26550459537E+03  0.00000000000E+00 0. -1.
</event>
<event>
 4    1  0.1322546E+002  0.4234374E+02  0.7546771E-02  0.1335273E+00
          2   -1    0    0  502    0  0.00000000000E+00  0.00000000000E+00  0.24786325258E+04  0.24786325258E+04  0.00000000000E+00 0.  1.
         -2   -1    0    0    0  501 -0.00000000000E+00 -0.00000000000E+00 -0.14212832272E+01  0.14212832272E+01  0.00000000000E+00 0. -1.
          1    1    1    2  502    0 -0.27175473408E+02  0.32472851685E+02  0.21075430198E+04  0.21079683519E+04  0.00000000000E+00 0.  1.
         -1    1    1    2    0  501  0.27175473408E+02 -0.32472851685E+02  0.36966822276E+03  0.37208545708E+03  0.00000000000E+00 0. -1.
</event>
<event>
 4    1  0.1322546E+002  0.2086449E+02  0.7546771E-02  0.1521208E+00
          2   -1    0    0  502    0  0.00000000000E+00  0.00000000000E+00  0.18446862254E+02  0.18446862254E+02  0.00000000000E+00 0. -1.
         -2   -1    0    0    0  501 -0.00000000000E+00 -0.00000000000E+00 -0.44391331740E+02  0.44391331740E+02  0.00000000000E+00 0.  1.
          1    1    1    2  502    0  0.17038283482E+02  0.12042579321E+02  0.85306434963E+01  0.22541044766E+02  0.00000000000E+00 0. -1.
         -1    1    1    2    0  501 -0.17038283482E+02 -0.12042579321E+02 -0.34475112982E+02  0.40297149227E+02  0.00000000000E+00 0.  1.
</event>
<event>
 4    1  0.1322546E+002  0.2525893E+02  0.7546771E-02  0.1465928E+00
          2   -1    0    0  502    0  0.00000000000E+00  0.00000000000E+00  0.33265217963E+02  0.33265217963E+02  0.00000000000E+00 0.  1.
         -2   -1    0    0    0  501 -0.00000000000E+00 -0.00000000000E+00 -0.27597357425E+02  0.27597357425E+02  0.00000000000E+00 0. -1.
          1    1    1    2  502    0 -0.20203515495E+02  0.15160187643E+02 -0.13972867534E+02  0.28866145479E+02  0.00000000000E+00 0. -1.
         -1    1    1    2    0  501  0.20203515495E+02 -0.15160187643E+02  0.19640728071E+02  0.31996429908E+02  0.00000000000E+00 0.  1.
</event>
<event>
 4    1  0.1322546E+002  0.2009019E+02  0.7546771E-02  0.1532661E+00
          2   -1    0    0  502    0  0.00000000000E+00  0.00000000000E+00  0.40774236925E+03  0.40774236925E+03  0.00000000000E+00 0. -1.
         -2   -1    0    0    0  501 -0.00000000000E+00 -0.00000000000E+00 -0.11314799387E+01  0.11314799387E+01  0.00000000000E+00 0.  1.
          1    1    1    2  502    0 -0.13318150707E+02  0.15041368452E+02  0.27562701853E+03  0.27635822631E+03  0.00000000000E+00 0.  1.
         -1    1    1    2    0  501  0.13318150707E+02 -0.15041368452E+02  0.13098387078E+03  0.13251562288E+03  0.00000000000E+00 0. -1.
</event>
<event>
 4    1  0.1322546E+002  0.8970933E+02  0.7546771E-02  0.1182943E+00
          2   -1    0    0  502    0  0.00000000000E+00  0.00000000000E+00  0.77428273219E+03  0.77428273219E+03  0.00000000000E+00 0.  1.
         -2   -1    0    0    0  501 -0.00000000000E+00 -0.00000000000E+00 -0.10971845154E+02  0.10971845154E+02  0.00000000000E+00 0. -1.
          1    1    1    2  502    0 -0.95114099561E+01 -0.89203686055E+02  0.29153785489E+03  0.30502800750E+03  0.00000000000E+00 0.  1.
         -1    1    1    2    0  501  0.95114099561E+01  0.89203686055E+02  0.47177303214E+03  0.48022656984E+03  0.00000000000E+00 0. -1.
</event>
<event>
 4    1  0.1322546E+002  0.2066705E+02  0.7546771E-02  0.1524072E+00
          2   -1    0    0  502    0  0.00000000000E+00  0.00000000000E+00  0.59288438598E+03  0.59288438598E+03  0.00000000000E+00 0.  1.
         -2   -1    0    0    0  501 -0.00000000000E+00 -0.00000000000E+00 -0.75199878366E+00  0.75199878366E+00  0.00000000000E+00 0. -1.
          1    1    1    2  502    0  0.13781792243E+02  0.15400945773E+02  0.23524342208E+03  0.23614951739E+03  0.00000000000E+00 0.  1.
         -1    1    1    2    0  501 -0.13781792243E+02 -0.15400945773E+02  0.35688896511E+03  0.35748686738E+03  0.00000000000E+00 0. -1.
</event>
<event>
 4    1  0.1322546E+002  0.2002724E+02  0.7546771E-02  0.1533620E+00
          2   -1    0    0  502    0  0.00000000000E+00  0.00000000000E+00  0.32454581019E+02  0.32454581019E+02  0.00000000000E+00 0.  1.
         -2   -1    0    0    0  501 -0.00000000000E+00 -0.00000000000E+00 -0.13764553796E+02  0.13764553796E+02  0.00000000000E+00 0. -1.
          1    1    1    2  502    0  0.36499101450E+01  0.19691835345E+02  0.19589955517E+01  0.20122820053E+02  0.00000000000E+00 0.  1.
         -1    1    1    2    0  501 -0.36499101450E+01 -0.19691835345E+02  0.16731031672E+02  0.26096314762E+02  0.00000000000E+00 0. -1.
</event>
<event>
 4    1  0.1322546E+002  0.2693485E+02  0.7546771E-02  0.1448264E+00
          2   -1    0    0  502    0  0.00000000000E+00  0.00000000000E+00  0.19290944673E+03  0.19290944673E+03  0.00000000000E+00 0. -1.
         -2   -1    0    0    0  501 -0.00000000000E+00 -0.00000000000E+00 -0.52635554001E+01  0.52635554001E+01  0.00000000000E+00 0.  1.
          1    1    1    2  502    0  0.22967502669E+02 -0.14070538963E+02  0.40877972030E+02  0.48954007424E+02  0.00000000000E+00 0. -1.
         -1    1    1    2    0  501 -0.22967502669E+02  0.14070538963E+02  0.14676791930E+03  0.14921899471E+03  0.00000000000E+00 0.  1.
</event>
<event>
 4    1  0.1322546E+002  0.2062745E+02  0.7546771E-02  0.1524651E+00
          2   -1    0    0  502    0  0.00000000000E+00  0.00000000000E+00  0.76884027551E+03  0.76884027551E+03  0.00000000000E+00 0. -1.
         -2   -1    0    0    0  501 -0.00000000000E+00 -0.00000000000E+00 -0.58009441651E+00  0.58009441651E+00  0.00000000000E+00 0.  1.
          1    1    1    2  502    0  0.20548222488E+02  0.18061225326E+01  0.46662600349E+03  0.46708170448E+03  0.00000000000E+00 0.  1.
         -1    1    1    2    0  501 -0.20548222488E+02 -0.18061225326E+01  0.30163417760E+03  0.30233866545E+03  0.00000000000E+00 0. -1.
</event>
<event>
 4    1  0.1322546E+002  0.2605311E+02  0.7546771E-02  0.1457359E+00
          2   -1    0    0  502    0  0.00000000000E+00  0.00000000000E+00  0.12928661005E+04  0.12928661005E+04  0.00000000000E+00 0.  1.
         -2   -1    0    0    0  501 -0.00000000000E+00 -0.00000000000E+00 -0.76064777201E+00  0.76064777201E+00  0.00000000000E+00 0. -1.
          1    1    1    2  502    0 -0.21431444510E+02  0.14814100034E+02  0.10060605745E+04  0.10063978557E+04  0.00000000000E+00 0.  1.
         -1    1    1    2    0  501  0.21431444510E+02 -0.14814100034E+02  0.28604487825E+03  0.28722889261E+03  0.00000000000E+00 0. -1.
</event>
<event>
 4    1  0.1322546E+002  0.2607208E+02  0.7546771E-02  0.1457159E+00
          2   -1    0    0  502    0  0.00000000000E+00  0.00000000000E+00  0.23358455488E+03  0.23358455488E+03  0.00000000000E+00 0. -1.
         -2   -1    0    0    0  501 -0.00000000000E+00 -0.00000000000E+00 -0.53114890059E+01  0.53114890059E+01  0.00000000000E+00 0.  1.
          1    1    1    2  502    0  0.20164703848E+02  0.16526893989E+02  0.33820466757E+02  0.42703366118E+02  0.00000000000E+00 0.  1.
         -1    1    1    2    0  501 -0.20164703848E+02 -0.16526893989E+02  0.19445259911E+03  0.19619267777E+03  0.00000000000E+00 0. -1.
</event>
<event>
 4    1  0.1322546E+002  0.2245343E+02  0.7546771E-02  0.1499478E+00
          2   -1    0    0  502    0  0.00000000000E+00  0.00000000000E+00  0.11146617320E+03  0.11146617320E+03  0.00000000000E+00 0. -1.
         -2   -1    0    0    0  501 -0.00000000000E+00 -0.00000000000E+00 -0.69043725700E+01  0.69043725700E+01  0.00000000000E+00 0.  1.
          1    1    1    2  502    0  0.98950801168E+01 -0.20155490533E+02  0.87040069248E+02  0.89889543685E+02  0.00000000000E+00 0. -1.
         -1    1    1    2    0  501 -0.98950801168E+01  0.20155490533E+02  0.17521731381E+02  0.28481002084E+02  0.00000000000E+00 0.  1.
</event>
