<event>
 4    1  0.5568520E+002  0.2279163E+02  0.7546771E-02  0.1495131E+00
          2   -1    0    0  503    0  0.00000000000E+00  0.00000000000E+00  0.14870892234E+04  0.14870892234E+04  0.00000000000E+00 0.  1.
         -2   -1    0    0    0  501 -0.00000000000E+00 -0.00000000000E+00 -0.35571022415E+00  0.35571022415E+00  0.00000000000E+00 0. -1.
         21    1    1    2  502  501 -0.10535729751E+02  0.20210319549E+02  0.84310940255E+03  0.84341740751E+03  0.00000000000E+00 0.  1.
         21    1    1    2  503  502  0.10535729751E+02 -0.20210319549E+02  0.64362411065E+03  0.64402752614E+03  0.00000000000E+00 0. -1.
</event>
<event>
 4    1  0.5568520E+002  0.2982482E+02  0.7546771E-02  0.1421125E+00
          2   -1    0    0  502    0  0.00000000000E+00  0.00000000000E+00  0.99619947304E+03  0.99619947304E+03  0.00000000000E+00 0. -1.
         -2   -1    0    0    0  501 -0.00000000000E+00 -0.00000000000E+00 -0.22722271284E+01  0.22722271284E+01  0.00000000000E+00 0.  1.
         21    1    1    2  502  503 -0.20957844940E+02 -0.21220005575E+02  0.88592942236E+03  0.88643130659E+03  0.00000000000E+00 0. -1.
         21    1    1    2  503  501  0.20957844940E+02  0.21220005575E+02  0.10799782355E+03  0.11204039357E+03  0.00000000000E+00 0.  1.
</event>
<event>
 4    1  0.5568520E+002  0.2346520E+02  0.7546771E-02  0.1486738E+00
          2   -1    0    0  502    0  0.00000000000E+00  0.00000000000E+00  0.14122738161E+03  0.14122738161E+03  0.00000000000E+00 0.  1.
         -2   -1    0    0    0  501 -0.00000000000E+00 -0.00000000000E+00 -0.55244985914E+01  0.55244985914E+01  0.00000000000E+00 0. -1.
         21    1    1    2  502  503 -0.70955865554E+01 -0.22366682155E+02  0.10765562089E+03  0.11018324977E+03  0.00000000000E+00 0.  1.
         21    1    1    2  503  501  0.70955865554E+01  0.22366682155E+02  0.28047262126E+02  0.36568630436E+02  0.00000000000E+00 0. -1.
</event>
<event>
 4    1  0.5568520E+002  0.3621696E+02  0.7546771E-02  0.1372204E+00
          2   -1    0    0  502    0  0.00000000000E+00  0.00000000000E+00  0.10687315920E+03  0.10687315920E+03  0.00000000000E+00 0. -1.
         -2   -1    0    0    0  501 -0.00000000000E+00 -0.00000000000E+00 -0.13984599054E+02  0.13984599054E+02  0.00000000000E+00 0.  1.
         21    1    1    2  502  503  0.29631641952E+02  0.20823872250E+02  0.67584253150E+02  0.76676587914E+02  0.00000000000E+00 0. -1.
         21    1    1    2  503  501 -0.29631641952E+02 -0.20823872250E+02  0.25304306999E+02  0.44181170344E+02  0.00000000000E+00 0.  1.
</event>
<event>
 4    1  0.5568520E+002  0.4604489E+02  0.7546771E-02  0.1316296E+00
          2   -1    0    0  502    0  0.00000000000E+00  0.00000000000E+00  0.15032230907E+03  0.15032230907E+03  0.00000000000E+00 0.  1.
         -2   -1    0    0    0  501 -0.00000000000E+00 -0.00000000000E+00 -0.40239738429E+02  0.40239738429E+02  0.00000000000E+00 0. -1.
         21    1    1    2  502  503 -0.35174860121E+02  0.29712979449E+02  0.13182992903E+03  0.13963975838E+03  0.00000000000E+00 0.  1.
         21    1    1    2  503  501  0.35174860121E+02 -0.29712979449E+02 -0.21747358390E+02  0.50922289120E+02  0.00000000000E+00 0. -1.
</event>
<event>
 4    1  0.5568520E+002  0.3016304E+02  0.7546771E-02  0.1418185E+00
          2   -1    0    0  503    0  0.00000000000E+00  0.00000000000E+00  0.26097313064E+01  0.26097313064E+01  0.00000000000E+00 0.  1.
         -2   -1    0    0    0  501 -0.00000000000E+00 -0.00000000000E+00 -0.42019583217E+03  0.42019583217E+03  0.00000000000E+00 0. -1.
         21    1    1    2  502  501 -0.11151106980E+02  0.28026094273E+02 -0.29604249296E+03  0.29757514477E+03  0.00000000000E+00 0. -1.
         21    1    1    2  503  502  0.11151106980E+02 -0.28026094273E+02 -0.12154360790E+03  0.12523041870E+03  0.00000000000E+00 0.  1.
</event>
<event>
 4    1  0.5568520E+002  0.2184115E+02  0.7546771E-02  0.1507586E+00
          2   -1    0    0  503    0  0.00000000000E+00  0.00000000000E+00  0.75139706417E+03  0.75139706417E+03  0.00000000000E+00 0.  1.
         -2   -1    0    0    0  501 -0.00000000000E+00 -0.00000000000E+00 -0.11676429529E+01  0.11676429529E+01  0.00000000000E+00 0. -1.
         21    1    1    2  502  501 -0.67490903512E+01 -0.20772235915E+02  0.12094032898E+03  0.12289670126E+03  0.00000000000E+00 0. -1.
         21    1    1    2  503  502  0.67490903512E+01  0.20772235915E+02  0.62928909224E+03  0.62966800587E+03  0.00000000000E+00 0.  1.
</event>
<event>
 4    1  0.5568520E+002  0.2265936E+02  0.7546771E-02  0.1496820E+00
          2   -1    0    0  503    0  0.00000000000E+00  0.00000000000E+00  0.11329937849E+03  0.11329937849E+03  0.00000000000E+00 0.  1.
         -2   -1    0    0    0  501 -0.00000000000E+00 -0.00000000000E+00 -0.66726011103E+01  0.66726011103E+01  0.00000000000E+00 0. -1.
         21    1    1    2  502  501  0.22648885540E+02 -0.68889473318E+00  0.19335720595E+02  0.29787861338E+02  0.00000000000E+00 0. -1.
         21    1    1    2  503  502 -0.22648885540E+02  0.68889473318E+00  0.87291056789E+02  0.90184118266E+02  0.00000000000E+00 0.  1.
</event>
<event>
 4    1  0.5568520E+002  0.3409201E+02  0.7546771E-02  0.1387061E+00
          2   -1    0    0  503    0  0.00000000000E+00  0.00000000000E+00  0.20082840955E+04  0.20082840955E+04  0.00000000000E+00 0.  1.
         -2   -1    0    0    0  501 -0.00000000000E+00 -0.00000000000E+00 -0.77701966989E+00  0.77701966989E+00  0.00000000000E+00 0. -1.
         21    1    1    2  502  501 -0.12312538999E+02  0.31790980426E+02  0.49630582153E+03  0.49747535973E+03  0.00000000000E+00 0. -1.
         21    1    1    2  503  502  0.12312538999E+02 -0.31790980426E+02  0.15112012543E+04  0.15115857554E+04  0.00000000000E+00 0.  1.
</event>
<event>
 4    1  0.5568520E+002  0.2795129E+02  0.7546771E-02  0.1438279E+00
          2   -1    0    0  503    0  0.00000000000E+00  0.00000000000E+00  0.10787162313E+04  0.10787162313E+04  0.00000000000E+00 0. -1.
         -2   -1    0    0    0  501 -0.00000000000E+00 -0.00000000000E+00 -0.73463124520E+01  0.73463124520E+01  0.00000000000E+00 0.  1.
         21    1    1    2  502  501 -0.17890246572E+02  0.21475884800E+02  0.20116497303E+02  0.34437595940E+02  0.00000000000E+00 0.  1.
         21    1    1    2  503  502  0.17890246572E+02 -0.21475884800E+02  0.10512534215E+04  0.10516249478E+04  0.00000000000E+00 0. -1.
</event>
<event>
 4    1  0.5568520E+002  0.2808314E+02  0.7546771E-02  0.1437021E+00
          2   -1    0    0  502    0  0.00000000000E+00  0.00000000000E+00  0.14748541037E+04  0.14748541037E+04  0.00000000000E+00 0. -1.
         -2   -1    0    0    0  501 -0.00000000000E+00 -0.00000000000E+00 -0.54025958708E+00  0.54025958708E+00  0.00000000000E+00 0.  1.
         21    1    1    2  502  503 -0.27594356331E+02  0.52167490064E+01  0.81172343457E+03  0.81220908466E+03  0.00000000000E+00 0. -1.
         21    1    1    2  503  501  0.27594356331E+02 -0.52167490064E+01  0.66259040949E+03  0.66318527858E+03  0.00000000000E+00 0.  1.
</event>
<event>
 4    1  0.5568520E+002  0.2263513E+02  0.7546771E-02  0.1497131E+00
          2   -1    0    0  502    0  0.00000000000E+00  0.00000000000E+00  0.50590801657E+03  0.50590801657E+03  0.00000000000E+00 0.  1.
         -2   -1    0    0    0  501 -0.00000000000E+00 -0.00000000000E+00 -0.11402095616E+01  0.11402095616E+01  0.00000000000E+00 0. -1.
         21    1    1    2  502  503  0.22353492493E+02 -0.35595756725E+01  0.33715424131E+03  0.33791320134E+03  0.00000000000E+00 0.  1.
         21    1    1    2  503  501 -0.22353492493E+02  0.35595756725E+01  0.16761356570E+03  0.16913502479E+03  0.00000000000E+00 0. -1.
</event>
<event>
 4    1  0.5568520E+002  0.2338352E+02  0.7546771E-02  0.1487738E+00
          2   -1    0    0  503    0  0.00000000000E+00  0.00000000000E+00  0.15977565059E+04  0.15977565059E+04  0.00000000000E+00 0.  1.
         -2   -1    0    0    0  501 -0.00000000000E+00 -0.00000000000E+00 -0.65409262095E+00  0.65409262095E+00  0.00000000000E+00 0. -1.
         21    1    1    2  502  501 -0.21132242970E+02 -0.10010854900E+02  0.24669578096E+03  0.24780152795E+03  0.00000000000E+00 0. -1.
         21    1    1    2  503  502  0.21132242970E+02  0.10010854900E+02  0.13504066323E+04  0.13506090705E+04  0.00000000000E+00 0.  1.
</event>
<event>
 4    1  0.5568520E+002  0.3973740E+02  0.7546771E-02  0.1350032E+00
          2   -1    0    0  502    0  0.00000000000E+00  0.00000000000E+00  0.77186419455E+02  0.77186419455E+02  0.00000000000E+00 0. -1.
         -2   -1    0    0    0  501 -0.00000000000E+00 -0.00000000000E+00 -0.53138346770E+02  0.53138346770E+02  0.00000000000E+00 0.  1.
         21    1    1    2  502  503 -0.39638147889E+02 -0.28068533930E+01  0.63126032706E+02  0.74591937897E+02  0.00000000000E+00 0. -1.
         21    1    1    2  503  501  0.39638147889E+02  0.28068533930E+01 -0.39077960021E+02  0.55732828328E+02  0.00000000000E+00 0.  1.
</event>
<event>
 4    1  0.5568520E+002  0.2180760E+02  0.7546771E-02  0.1508040E+00
          2   -1    0    0  503    0  0.00000000000E+00  0.00000000000E+00  0.20690215602E+03  0.20690215602E+03  0.00000000000E+00 0. -1.
         -2   -1    0    0    0  501 -0.00000000000E+00 -0.00000000000E+00 -0.14236890484E+02  0.14236890484E+02  0.00000000000E+00 0.  1.
         21    1    1    2  502  501 -0.16133467132E+02 -0.14672509393E+02 -0.49185643859E+01  0.22355392396E+02  0.00000000000E+00 0.  1.
         21    1    1    2  503  502  0.16133467132E+02  0.14672509393E+02  0.19758382992E+03  0.19878365411E+03  0.00000000000E+00 0. -1.
</event>
<event>
 4    1  0.5568520E+002  0.2246702E+02  0.7546771E-02  0.1499301E+00
          2   -1    0    0  502    0  0.00000000000E+00  0.00000000000E+00  0.27146438059E+03  0.27146438059E+03  0.00000000000E+00 0. -1.
         -2   -1    0    0    0  501 -0.00000000000E+00 -0.00000000000E+00 -0.21546975134E+01  0.21546975134E+01  0.00000000000E+00 0.  1.
         21    1    1    2  502  503  0.13984857531E+02 -0.17583820430E+02  0.18529984007E+03  0.18665689838E+03  0.00000000000E+00 0.  1.
         21    1    1    2  503  501 -0.13984857531E+02  0.17583820430E+02  0.84009843005E+02  0.86962179726E+02  0.00000000000E+00 0. -1.
</event>
<event>
 4    1  0.5568520E+002  0.2582463E+02  0.7546771E-02  0.1459786E+00
          2   -1    0    0  503    0  0.00000000000E+00  0.00000000000E+00  0.26455330646E+01  0.26455330646E+01  0.00000000000E+00 0.  1.
         -2   -1    0    0    0  501 -0.00000000000E+00 -0.00000000000E+00 -0.50511830385E+03  0.50511830385E+03  0.00000000000E+00 0. -1.
         21    1    1    2  502  501  0.25689103410E+02 -0.26422650287E+01 -0.43092478481E+03  0.43169790568E+03  0.00000000000E+00 0. -1.
         21    1    1    2  503  502 -0.25689103410E+02  0.26422650287E+01 -0.71547985968E+02  0.76065931235E+02  0.00000000000E+00 0.  1.
</event>
<event>
 4    1  0.5568520E+002  0.3471386E+02  0.7546771E-02  0.1382586E+00
          2   -1    0    0  502    0  0.00000000000E+00  0.00000000000E+00  0.11625355690E+04  0.11625355690E+04  0.00000000000E+00 0. -1.
         -2   -1    0    0    0  501 -0.00000000000E+00 -0.00000000000E+00 -0.61484101900E+01  0.61484101900E+01  0.00000000000E+00 0.  1.
         21    1    1    2  502  503  0.20892361541E+02 -0.27722932703E+02  0.11110058636E+04  0.11115480559E+04  0.00000000000E+00 0. -1.
         21    1    1    2  503  501 -0.20892361541E+02  0.27722932703E+02  0.45381295239E+02  0.57135923253E+02  0.00000000000E+00 0.  1.
</event>
<event>
 4    1  0.5568520E+002  0.2527240E+02  0.7546771E-02  0.1465779E+00
          2   -1    0    0  502    0  0.00000000000E+00  0.00000000000E+00  0.14261244918E+04  0.14261244918E+04  0.00000000000E+00 0.  1.
         -2   -1    0    0    0  501 -0.00000000000E+00 -0.00000000000E+00 -0.61429966271E+00  0.61429966271E+00  0.00000000000E+00 0. -1.
         21    1    1    2  502  503 -0.67244789651E+01  0.24361350054E+02  0.10840867805E+04  0.10843813175E+04  0.00000000000E+00 0. -1.
         21    1    1    2  503  501  0.67244789651E+01 -0.24361350054E+02  0.34142341159E+03  0.34235747396E+03  0.00000000000E+00 0.  1.
</event>
<event>
 4    1  0.5568520E+002  0.2116331E+02  0.7546771E-02  0.1516946E+00
          2   -1    0    0  503    0  0.00000000000E+00  0.00000000000E+00  0.24740471747E+03  0.24740471747E+03  0.00000000000E+00 0. -1.
         -2   -1    0    0    0  501 -0.00000000000E+00 -0.00000000000E+00 -0.77868611899E+01  0.77868611899E+01  0.00000000000E+00 0.  1.
         21    1    1    2  502  501 -0.16591213395E+02 -0.13138392843E+02  0.80249671528E+01  0.22633732044E+02  0.00000000000E+00 0.  1.
         21    1    1    2  503  502  0.16591213395E+02  0.13138392843E+02  0.23159288912E+03  0.23255784661E+03  0.00000000000E+00 0. -1.
</event>
<event>
 4    1  0.5568520E+002  0.3395488E+02  0.7546771E-02  0.1388063E+00
          2   -1    0    0  502    0  0.00000000000E+00  0.00000000000E+00  0.32599170577E+02  0.32599170577E+02  0.00000000000E+00 0. -1.
         -2   -1    0    0    0  501 -0.00000000000E+00 -0.00000000000E+00 -0.36104796046E+02  0.36104796046E+02  0.00000000000E+00 0.  1.
         21    1    1    2  502  503  0.10236796599E+02  0.32375021292E+02 -0.66635338600E+01  0.34602553255E+02  0.00000000000E+00 0.  1.
         21    1    1    2  503  501 -0.10236796599E+02 -0.32375021292E+02  0.31579083906E+01  0.34101413368E+02  0.00000000000E+00 0. -1.
</event>
<event>
 4    1  0.5568520E+002  0.2205384E+02  0.7546771E-02  0.1504734E+00
          2   -1    0    0  502    0  0.00000000000E+00  0.00000000000E+00  0.20346072242E+03  0.20346072242E+03  0.00000000000E+00 0. -1.
         -2   -1    0    0    0  501 -0.00000000000E+00 -0.00000000000E+00 -0.24160475654E+01  0.24160475654E+01  0.00000000000E+00 0.  1.
         21    1    1    2  502  503 -0.21456021363E+02 -0.51000934935E+01  0.89936060399E+02  0.92600576491E+02  0.00000000000E+00 0. -1.
         21    1    1    2  503  501  0.21456021363E+02  0.51000934935E+01  0.11110861446E+03  0.11327619350E+03  0.00000000000E+00 0.  1.
</event>
<event>
 4    1  0.5568520E+002  0.2834565E+02  0.7546771E-02  0.1434540E+00
          2   -1    0    0  502    0  0.00000000000E+00  0.00000000000E+00  0.14190549598E+04  0.14190549598E+04  0.00000000000E+00 0.  1.
         -2   -1    0    0    0  501 -0.00000000000E+00 -0.00000000000E+00 -0.15028369007E+01  0.15028369007E+01  0.00000000000E+00 0. -1.
         21    1    1    2  502  503 -0.23224513355E+02  0.16251092027E+02  0.12695107973E+04  0.12698272089E+04  0.00000000000E+00 0.  1.
         21    1    1    2  503  501  0.23224513355E+02 -0.16251092027E+02  0.14804132568E+03  0.15073058788E+03  0.00000000000E+00 0. -1.
</event>
<event>
 4    1  0.5568520E+002  0.3378404E+02  0.7546771E-02  0.1389319E+00
          2   -1    0    0  503    0  0.00000000000E+00  0.00000000000E+00  0.98455091427E+01  0.98455091427E+01  0.00000000000E+00 0.  1.
         -2   -1    0    0    0  501 -0.00000000000E+00 -0.00000000000E+00 -0.12038875617E+03  0.12038875617E+03  0.00000000000E+00 0. -1.
         21    1    1    2  502  501 -0.87224764603E+01  0.32638623254E+02 -0.67807374358E+02  0.75757516728E+02  0.00000000000E+00 0.  1.
         21    1    1    2  503  502  0.87224764603E+01 -0.32638623254E+02 -0.42735872668E+02  0.54476748583E+02  0.00000000000E+00 0. -1.
</event>
<event>
 4    1  0.5568520E+002  0.2626902E+02  0.7546771E-02  0.1455092E+00
          2   -1    0    0  503    0  0.00000000000E+00  0.00000000000E+00  0.10474301044E+02  0.10474301044E+02  0.00000000000E+00 0. -1.
         -2   -1    0    0    0  501 -0.00000000000E+00 -0.00000000000E+00 -0.23785619584E+03  0.23785619584E+03  0.00000000000E+00 0.  1.
         21    1    1    2  502  501  0.25961822024E+02 -0.40056509412E+01 -0.21926938961E+03  0.22083733077E+03  0.00000000000E+00 0.  1.
         21    1    1    2  503  502 -0.25961822024E+02  0.40056509412E+01 -0.81125051805E+01  0.27493166107E+02  0.00000000000E+00 0. -1.
</event>
<event>
 4    1  0.5568520E+002  0.4648255E+02  0.7546771E-02  0.1314188E+00
          2   -1    0    0  503    0  0.00000000000E+00  0.00000000000E+00  0.16229339028E+04  0.16229339028E+04  0.00000000000E+00 0.  1.
         -2   -1    0    0    0  501 -0.00000000000E+00 -0.00000000000E+00 -0.20966991799E+01  0.20966991799E+01  0.00000000000E+00 0. -1.
         21    1    1    2  502  501  0.14483554411E+02  0.44168478963E+02  0.31950542563E+03  0.32286892834E+03  0.00000000000E+00 0. -1.
         21    1    1    2  503  502 -0.14483554411E+02 -0.44168478963E+02  0.13013317780E+04  0.13021616737E+04  0.00000000000E+00 0.  1.
</event>
<event>
 4    1  0.5568520E+002  0.2626225E+02  0.7546771E-02  0.1455163E+00
          2   -1    0    0  502    0  0.00000000000E+00  0.00000000000E+00  0.35853631751E+03  0.35853631751E+03  0.00000000000E+00 0.  1.
         -2   -1    0    0    0  501 -0.00000000000E+00 -0.00000000000E+00 -0.69423512469E+01  0.69423512469E+01  0.00000000000E+00 0. -1.
         21    1    1    2  502  503  0.68166542565E+00 -0.26253396979E+02  0.33116927008E+03  0.33220895678E+03  0.00000000000E+00 0.  1.
         21    1    1    2  503  501 -0.68166542565E+00  0.26253396979E+02  0.20424696181E+02  0.33269711974E+02  0.00000000000E+00 0. -1.
</event>
<event>
 4    1  0.5568520E+002  0.4542156E+02  0.7546771E-02  0.1319345E+00
          2   -1    0    0  503    0  0.00000000000E+00  0.00000000000E+00  0.53105602159E+03  0.53105602159E+03  0.00000000000E+00 0. -1.
         -2   -1    0    0    0  501 -0.00000000000E+00 -0.00000000000E+00 -0.59314093900E+01  0.59314093900E+01  0.00000000000E+00 0.  1.
         21    1    1    2  502  501 -0.29409713195E+02 -0.34614842070E+02  0.10485266170E+03  0.11426810223E+03  0.00000000000E+00 0.  1.
         21    1    1    2  503  502  0.29409713195E+02  0.34614842070E+02  0.42027195050E+03  0.42271932875E+03  0.00000000000E+00 0. -1.
</event>
<event>
 4    1  0.5568520E+002  0.2060208E+02  0.7546771E-02  0.1525023E+00
          2   -1    0    0  502    0  0.00000000000E+00  0.00000000000E+00  0.58022422598E+01  0.58022422598E+01  0.00000000000E+00 0. -1.
         -2   -1    0    0    0  501 -0.00000000000E+00 -0.00000000000E+00 -0.15700880637E+03  0.15700880637E+03  0.00000000000E+00 0.  1.
         21    1    1    2  502  503  0.19563267469E+02 -0.64594479043E+01 -0.16110961656E+02  0.26153565469E+02  0.00000000000E+00 0. -1.
         21    1    1    2  503  501 -0.19563267469E+02  0.64594479043E+01 -0.13509560246E+03  0.13665748316E+03  0.00000000000E+00 0.  1.
</event>
<event>
 4    1  0.5568520E+002  0.3127356E+02  0.7546771E-02  0.1408843E+00
          2   -1    0    0  503    0  0.00000000000E+00  0.00000000000E+00  0.45766198927E+02  0.45766198927E+02  0.00000000000E+00 0. -1.
         -2   -1    0    0    0  501 -0.00000000000E+00 -0.00000000000E+00 -0.23953991584E+03  0.23953991584E+03  0.00000000000E+00 0.  1.
         21    1    1    2  502  501  0.13380408954E+02  0.28266593541E+02 -0.23302797533E+03  0.23511714727E+03  0.00000000000E+00 0.  1.
         21    1    1    2  503  502 -0.13380408954E+02 -0.28266593541E+02  0.39254258418E+02  0.50188967494E+02  0.00000000000E+00 0. -1.
</event>
<event>
 4    1  0.5568520E+002  0.2852299E+02  0.7546771E-02  0.1432881E+00
          2   -1    0    0  503    0  0.00000000000E+00  0.00000000000E+00  0.66053829812E+03  0.66053829812E+03  0.00000000000E+00 0.  1.
         -2   -1    0    0    0  501 -0.00000000000E+00 -0.00000000000E+00 -0.17814730914E+01  0.17814730914E+01  0.00000000000E+00 0. -1.
         21    1    1    2  502  501 -0.10695457268E+02  0.26441788907E+02  0.14540537038E+03  0.14817652561E+03  0.00000000000E+00 0. -1.
         21    1    1    2  503  502  0.10695457268E+02 -0.26441788907E+02  0.51335145465E+03  0.51414324561E+03  0.00000000000E+00 0.  1.
</event>
<event>
 4    1  0.5568520E+002  0.2808008E+02  0.7546771E-02  0.1437050E+00
          2   -1    0    0  503    0  0.00000000000E+00  0.00000000000E+00  0.25008979139E+04  0.25008979139E+04  0.00000000000E+00 0.  1.
         -2   -1    0    0    0  501 -0.00000000000E+00 -0.00000000000E+00 -0.32656511066E+00  0.32656511066E+00  0.00000000000E+00 0. -1.
         21    1    1    2  502  501  0.27871260261E+02  0.34181363727E+01  0.14827366434E+04  0.14830025099E+04  0.00000000000E+00 0. -1.
         21    1    1    2  503  502 -0.27871260261E+02 -0.34181363727E+01  0.10178347054E+04  0.10182219691E+04  0.00000000000E+00 0.  1.
</event>
<event>
 4    1  0.5568520E+002  0.2561276E+02  0.7546771E-02  0.1462064E+00
          2   -1    0    0  503    0  0.00000000000E+00  0.00000000000E+00  0.19165673462E+02  0.19165673462E+02  0.00000000000E+00 0.  1.
         -2   -1    0    0    0  501 -0.00000000000E+00 -0.00000000000E+00 -0.98639101461E+02  0.98639101461E+02  0.00000000000E+00 0. -1.
         21    1    1    2  502  501  0.25546697057E+02  0.18384411862E+01 -0.87334503674E+02  0.91012796510E+02  0.00000000000E+00 0. -1.
         21    1    1    2  503  502 -0.25546697057E+02 -0.18384411862E+01  0.78610756755E+01  0.26791978413E+02  0.00000000000E+00 0.  1.
</event>
<event>
 4    1  0.5568520E+002  0.2335097E+02  0.7546771E-02  0.1488137E+00
          2   -1    0    0  502    0  0.00000000000E+00  0.00000000000E+00  0.24008081313E+04  0.24008081313E+04  0.00000000000E+00 0. -1.
         -2   -1    0    0    0  501 -0.00000000000E+00 -0.00000000000E+00 -0.24380482452E+00  0.24380482452E+00  0.00000000000E+00 0.  1.
         21    1    1    2  502  503 -0.21829009446E+02 -0.82923011709E+01  0.15143553878E+04  0.15145354101E+04  0.00000000000E+00 0. -1.
         21    1    1    2  503  501  0.21829009446E+02  0.82923011709E+01  0.88620893868E+03  0.88651652602E+03  0.00000000000E+00 0.  1.
</event>
<event>
 4    1  0.5568520E+002  0.4478962E+02  0.7546771E-02  0.1322495E+00
          2   -1    0    0  502    0  0.00000000000E+00  0.00000000000E+00  0.79546867914E+03  0.79546867914E+03  0.00000000000E+00 0.  1.
         -2   -1    0    0    0  501 -0.00000000000E+00 -0.00000000000E+00 -0.25220969393E+01  0.25220969393E+01  0.00000000000E+00 0. -1.
         21    1    1    2  502  503  0.26526851956E+02 -0.36089276288E+02  0.39314760807E+03  0.39569072705E+03  0.00000000000E+00 0.  1.
         21    1    1    2  503  501 -0.26526851956E+02  0.36089276288E+02  0.39979897413E+03  0.40230004903E+03  0.00000000000E+00 0. -1.
</event>
<event>
 4    1  0.5568520E+002  0.4102203E+02  0.7546771E-02  0.1342599E+00
          2   -1    0    0  503    0  0.00000000000E+00  0.00000000000E+00  0.79262222181E+02  0.79262222181E+02  0.00000000000E+00 0.  1.
         -2   -1    0    0    0  501 -0.00000000000E+00 -0.00000000000E+00 -0.11523296218E+03  0.11523296218E+03  0.00000000000E+00 0. -1.
         21    1    1    2  502  501 -0.58721279364E+01  0.40599569754E+02 -0.10581867493E+03  0.11349184514E+03  0.00000000000E+00 0. -1.
         21    1    1    2  503  502  0.58721279364E+01 -0.40599569754E+02  0.69847934928E+02  0.81003339218E+02  0.00000000000E+00 0.  1.
</event>
<event>
 4    1  0.5568520E+002  0.2545579E+02  0.7546771E-02  0.1463769E+00
          2   -1    0    0  503    0  0.00000000000E+00  0.00000000000E+00  0.97185160765E+02  0.97185160765E+02  0.00000000000E+00 0.  1.
         -2   -1    0    0    0  501 -0.00000000000E+00 -0.00000000000E+00 -0.90195273562E+01  0.90195273562E+01  0.00000000000E+00 0. -1.
         21    1    1    2  502  501  0.10038225928E+02 -0.23392971426E+02  0.16966624376E+02  0.30591885110E+02  0.00000000000E+00 0. -1.
         21    1    1    2  503  502 -0.10038225928E+02  0.23392971426E+02  0.71199009033E+02  0.75612803011E+02  0.00000000000E+00 0.  1.
</event>
<event>
 4    1  0.5568520E+002  0.2060517E+02  0.7546771E-02  0.1524977E+00
          2   -1    0    0  503    0  0.00000000000E+00  0.00000000000E+00  0.10353605571E+04  0.10353605571E+04  0.00000000000E+00 0.  1.
         -2   -1    0    0    0  501 -0.00000000000E+00 -0.00000000000E+00 -0.48022051500E+00  0.48022051500E+00  0.00000000000E+00 0. -1.
         21    1    1    2  502  501 -0.17949189238E+02  0.10119278218E+02  0.31949292046E+03  0.32015667947E+03  0.00000000000E+00 0. -1.
         21    1    1    2  503  502  0.17949189238E+02 -0.10119278218E+02  0.71538741608E+03  0.71568409810E+03  0.00000000000E+00 0.  1.
</event>
<event>
 4    1  0.5568520E+002  0.2065965E+02  0.7546771E-02  0.1524180E+00
          2   -1    0    0  503    0  0.00000000000E+00  0.00000000000E+00  0.29490928338E+00  0.29490928338E+00  0.00000000000E+00 0. -1.
         -2   -1    0    0    0  501 -0.00000000000E+00 -0.00000000000E+00 -0.14816329175E+04  0.14816329175E+04  0.00000000000E+00 0.  1.
         21    1    1    2  502  501 -0.63058638301E+01 -0.19673774494E+02 -0.85346691823E+03  0.85371693308E+03  0.00000000000E+00 0.  1.
         21    1    1    2  503  502  0.63058638301E+01  0.19673774494E+02 -0.62787109001E+03  0.62821089372E+03  0.00000000000E+00 0. -1.
</event>
<event>
 4    1  0.5568520E+002  0.2291103E+02  0.7546771E-02  0.1493618E+00
          2   -1    0    0  502    0  0.00000000000E+00  0.00000000000E+00  0.35432338163E+01  0.35432338163E+01  0.00000000000E+00 0. -1.
         -2   -1    0    0    0  501 -0.00000000000E+00 -0.00000000000E+00 -0.19894968008E+03  0.19894968008E+03  0.00000000000E+00 0.  1.
         21    1    1    2  502  503 -0.14490367918E+02  0.17746672228E+02 -0.14886630987E+03  0.15061903383E+03  0.00000000000E+00 0.  1.
         21    1    1    2  503  501  0.14490367918E+02 -0.17746672228E+02 -0.46540136394E+02  0.51873880066E+02  0.00000000000E+00 0. -1.
</event>
<event>
 4    1  0.5568520E+002  0.2874561E+02  0.7546771E-02  0.1430819E+00
          2   -1    0    0  503    0  0.00000000000E+00  0.00000000000E+00  0.37727476122E+02  0.37727476122E+02  0.00000000000E+00 0. -1.
         -2   -1    0    0    0  501 -0.00000000000E+00 -0.00000000000E+00 -0.57638064771E+02  0.57638064771E+02  0.00000000000E+00 0.  1.
         21    1    1    2  502  501  0.28572117309E+02 -0.31534386184E+01 -0.47500949282E+02  0.55521619620E+02  0.00000000000E+00 0.  1.
         21    1    1    2  503  502 -0.28572117309E+02  0.31534386184E+01  0.27590360632E+02  0.39843921273E+02  0.00000000000E+00 0. -1.
</event>
<event>
 4    1  0.5568520E+002  0.2619508E+02  0.7546771E-02  0.1455866E+00
          2   -1    0    0  502    0  0.00000000000E+00  0.00000000000E+00  0.41258350289E+02  0.41258350289E+02  0.00000000000E+00 0.  1.
         -2   -1    0    0    0  501 -0.00000000000E+00 -0.00000000000E+00 -0.44705377010E+02  0.44705377010E+02  0.00000000000E+00 0. -1.
         21    1    1    2  502  503  0.85241265568E+01  0.24769370174E+02  0.32337506608E+02  0.41616063798E+02  0.00000000000E+00 0.  1.
         21    1    1    2  503  501 -0.85241265568E+01 -0.24769370174E+02 -0.35784533330E+02  0.44347663501E+02  0.00000000000E+00 0. -1.
</event>
<event>
 4    1  0.5568520E+002  0.3951753E+02  0.7546771E-02  0.1351336E+00
          2   -1    0    0  503    0  0.00000000000E+00  0.00000000000E+00  0.82619977354E+02  0.82619977354E+02  0.00000000000E+00 0. -1.
         -2   -1    0    0    0  501 -0.00000000000E+00 -0.00000000000E+00 -0.22131476823E+02  0.22131476823E+02  0.00000000000E+00 0.  1.
         21    1    1    2  502  501 -0.19796120302E+02  0.34201587628E+02  0.10235043080E+02  0.40821453699E+02  0.00000000000E+00 0. -1.
         21    1    1    2  503  502  0.19796120302E+02 -0.34201587628E+02  0.50253457451E+02  0.63930000477E+02  0.00000000000E+00 0.  1.
</event>
<event>
 4    1  0.5568520E+002  0.2981141E+02  0.7546771E-02  0.1421243E+00
          2   -1    0    0  503    0  0.00000000000E+00  0.00000000000E+00  0.22177486392E+04  0.22177486392E+04  0.00000000000E+00 0.  1.
         -2   -1    0    0    0  501 -0.00000000000E+00 -0.00000000000E+00 -0.30045724860E+01  0.30045724860E+01  0.00000000000E+00 0. -1.
         21    1    1    2  502  501 -0.25071714501E+02 -0.16128531028E+02  0.73691730603E+02  0.79493342742E+02  0.00000000000E+00 0. -1.
         21    1    1    2  503  502  0.25071714501E+02  0.16128531028E+02  0.21410523362E+04  0.21412598690E+04  0.00000000000E+00 0.  1.
</event>
<event>
 4    1  0.5568520E+002  0.3398795E+02  0.7546771E-02  0.1387821E+00
          2   -1    0    0  502    0  0.00000000000E+00  0.00000000000E+00  0.69043467172E+02  0.69043467172E+02  0.00000000000E+00 0.  1.
         -2   -1    0    0    0  501 -0.00000000000E+00 -0.00000000000E+00 -0.18448297454E+02  0.18448297454E+02  0.00000000000E+00 0. -1.
         21    1    1    2  502  503  0.26287621100E+02 -0.21543949226E+02  0.38643710208E+02  0.51463745588E+02  0.00000000000E+00 0.  1.
         21    1    1    2  503  501 -0.26287621100E+02  0.21543949226E+02  0.11951459510E+02  0.36028019037E+02  0.00000000000E+00 0. -1.
</event>
<event>
 4    1  0.5568520E+002  0.2044611E+02  0.7546771E-02  0.1527322E+00
          2   -1    0    0  503    0  0.00000000000E+00  0.00000000000E+00  0.74865052368E+03  0.74865052368E+03  0.00000000000E+00 0.  1.
         -2   -1    0    0    0  501 -0.00000000000E+00 -0.00000000000E+00 -0.12699394642E+01  0.12699394642E+01  0.00000000000E+00 0. -1.
         21    1    1    2  502  501  0.50669516992E+01  0.19808315153E+02  0.93021283623E+02  0.95241810964E+02  0.00000000000E+00 0. -1.
         21    1    1    2  503  502 -0.50669516992E+01 -0.19808315153E+02  0.65435930059E+03  0.65467865218E+03  0.00000000000E+00 0.  1.
</event>
<event>
 4    1  0.5568520E+002  0.3588324E+02  0.7546771E-02  0.1374458E+00
          2   -1    0    0  503    0  0.00000000000E+00  0.00000000000E+00  0.82136081680E+02  0.82136081680E+02  0.00000000000E+00 0. -1.
         -2   -1    0    0    0  501 -0.00000000000E+00 -0.00000000000E+00 -0.16778612023E+02  0.16778612023E+02  0.00000000000E+00 0.  1.
         21    1    1    2  502  501  0.27772535897E+02  0.22722091121E+02  0.20003280566E+02  0.41082093526E+02  0.00000000000E+00 0. -1.
         21    1    1    2  503  502 -0.27772535897E+02 -0.22722091121E+02  0.45354189092E+02  0.57832600177E+02  0.00000000000E+00 0.  1.
</event>
<event>
 4    1  0.5568520E+002  0.3487563E+02  0.7546771E-02  0.1381440E+00
          2   -1    0    0  503    0  0.00000000000E+00  0.00000000000E+00  0.45222858557E+03  0.45222858557E+03  0.00000000000E+00 0.  1.
         -2   -1    0    0    0  501 -0.00000000000E+00 -0.00000000000E+00 -0.61897152391E+01  0.61897152391E+01  0.00000000000E+00 0. -1.
         21    1    1    2  502  501  0.32832430060E+02  0.11761837661E+02  0.50658661359E+02  0.61502920740E+02  0.00000000000E+00 0. -1.
         21    1    1    2  503  502 -0.32832430060E+02 -0.11761837661E+02  0.39538020897E+03  0.39691538007E+03  0.00000000000E+00 0.  1.
</event>
<event>
 4    1  0.5568520E+002  0.2834878E+02  0.7546771E-02  0.1434510E+00
          2   -1    0    0  503    0  0.00000000000E+00  0.00000000000E+00  0.14055890824E+04  0.14055890824E+04  0.00000000000E+00 0.  1.
         -2   -1    0    0    0  501 -0.00000000000E+00 -0.00000000000E+00 -0.15227906556E+01  0.15227906556E+01  0.00000000000E+00 0. -1.
         21    1    1    2  502  501  0.16321661319E+02  0.23178796143E+02  0.14603053971E+03  0.14875675361E+03  0.00000000000E+00 0. -1.
         21    1    1    2  503  502 -0.16321661319E+02 -0.23178796143E+02  0.12580357520E+04  0.12583551194E+04  0.00000000000E+00 0.  1.
</event>
<event>
 4    1  0.5568520E+002  0.2128974E+02  0.7546771E-02  0.1515168E+00
          2   -1    0    0  503    0  0.00000000000E+00  0.00000000000E+00  0.10623659023E+04  0.10623659023E+04  0.00000000000E+00 0.  1.
         -2   -1    0    0    0  501 -0.00000000000E+00 -0.00000000000E+00 -0.46668230010E+00  0.46668230010E+00  0.00000000000E+00 0. -1.
         21    1    1    2  502  501 -0.69099366395E+01  0.20137172682E+02  0.37529665509E+03  0.37590002962E+03  0.00000000000E+00 0. -1.
         21    1    1    2  503  502  0.69099366395E+01 -0.20137172682E+02  0.68660256488E+03  0.68693255495E+03  0.00000000000E+00 0.  1.
</event>
<event>
 4    1  0.5568520E+002  0.2162276E+02  0.7546771E-02  0.1510556E+00
          2   -1    0    0  502    0  0.00000000000E+00  0.00000000000E+00  0.86125623013E+00  0.86125623013E+00  0.00000000000E+00 0.  1.
         -2   -1    0    0    0  501 -0.00000000000E+00 -0.00000000000E+00 -0.57762638169E+03  0.57762638169E+03  0.00000000000E+00 0. -1.
         21    1    1    2  502  503  0.21415648173E+02 -0.29855964535E+01 -0.21742409083E+03  0.21849663394E+03  0.00000000000E+00 0. -1.
         21    1    1    2  503  501 -0.21415648173E+02  0.29855964535E+01 -0.35934103463E+03  0.35999100398E+03  0.00000000000E+00 0.  1.
</event>
<event>
 4    1  0.5568520E+002  0.2179209E+02  0.7546771E-02  0.1508250E+00
          2   -1    0    0  502    0  0.00000000000E+00  0.00000000000E+00  0.21683922611E+03  0.21683922611E+03  0.00000000000E+00 0.  1.
         -2   -1    0    0    0  501 -0.00000000000E+00 -0.00000000000E+00 -0.22404335047E+01  0.22404335047E+01  0.00000000000E+00 0. -1.
         21    1    1    2  502  503  0.21446649392E+02 -0.38647675707E+01  0.12372124151E+03  0.12562579671E+03  0.00000000000E+00 0.  1.
         21    1    1    2  503  501 -0.21446649392E+02  0.38647675707E+01  0.90877551101E+02  0.93453862909E+02  0.00000000000E+00 0. -1.
</event>
<event>
 4    1  0.5568520E+002  0.2478068E+02  0.7546771E-02  0.1471272E+00
          2   -1    0    0  502    0  0.00000000000E+00  0.00000000000E+00  0.14473404566E+03  0.14473404566E+03  0.00000000000E+00 0. -1.
         -2   -1    0    0    0  501 -0.00000000000E+00 -0.00000000000E+00 -0.65729461285E+01  0.65729461285E+01  0.00000000000E+00 0.  1.
         21    1    1    2  502  503 -0.24645567347E+02 -0.25842078405E+01  0.11412462124E+03  0.11678403698E+03  0.00000000000E+00 0. -1.
         21    1    1    2  503  501  0.24645567347E+02  0.25842078405E+01  0.24036478288E+02  0.34522954806E+02  0.00000000000E+00 0.  1.
</event>
<event>
 4    1  0.5568520E+002  0.2908873E+02  0.7546771E-02  0.1427684E+00
          2   -1    0    0  502    0  0.00000000000E+00  0.00000000000E+00  0.30405834691E+03  0.30405834691E+03  0.00000000000E+00 0. -1.
         -2   -1    0    0    0  501 -0.00000000000E+00 -0.00000000000E+00 -0.49460156209E+01  0.49460156209E+01  0.00000000000E+00 0.  1.
         21    1    1    2  502  503 -0.99880162618E+01 -0.27320204179E+02  0.25173243098E+03  0.25340751929E+03  0.00000000000E+00 0. -1.
         21    1    1    2  503  501  0.99880162618E+01  0.27320204179E+02  0.47379900315E+02  0.55596843248E+02  0.00000000000E+00 0.  1.
</event>
<event>
 4    1  0.5568520E+002  0.2758640E+02  0.7546771E-02  0.1441805E+00
          2   -1    0    0  502    0  0.00000000000E+00  0.00000000000E+00  0.17581697972E+04  0.17581697972E+04  0.00000000000E+00 0. -1.
         -2   -1    0    0    0  501 -0.00000000000E+00 -0.00000000000E+00 -0.10065910922E+01  0.10065910922E+01  0.00000000000E+00 0.  1.
         21    1    1    2  502  503 -0.26453003997E+02  0.78261051018E+01  0.15426517236E+04  0.15428983601E+04  0.00000000000E+00 0. -1.
         21    1    1    2  503  501  0.26453003997E+02 -0.78261051018E+01  0.21451148254E+03  0.21627802820E+03  0.00000000000E+00 0.  1.
</event>
<event>
 4    1  0.5568520E+002  0.2320047E+02  0.7546771E-02  0.1489996E+00
          2   -1    0    0  502    0  0.00000000000E+00  0.00000000000E+00  0.10554550690E+02  0.10554550690E+02  0.00000000000E+00 0.  1.
         -2   -1    0    0    0  501 -0.00000000000E+00 -0.00000000000E+00 -0.28052240265E+03  0.28052240265E+03  0.00000000000E+00 0. -1.
         21    1    1    2  502  503 -0.13573055936E+02 -0.18815793107E+02 -0.33377045098E+01  0.23439329962E+02  0.00000000000E+00 0.  1.
         21    1    1    2  503  501  0.13573055936E+02  0.18815793107E+02 -0.26663014745E+03  0.26763762338E+03  0.00000000000E+00 0. -1.
</event>
<event>
 4    1  0.5568520E+002  0.4331460E+02  0.7546771E-02  0.1330085E+00
          2   -1    0    0  502    0  0.00000000000E+00  0.00000000000E+00  0.29883807830E+03  0.29883807830E+03  0.00000000000E+00 0.  1.
         -2   -1    0    0    0  501 -0.00000000000E+00 -0.00000000000E+00 -0.64130894452E+01  0.64130894452E+01  0.00000000000E+00 0. -1.
         21    1    1    2  502  503  0.11450169720E+01 -0.43299467902E+02  0.16835046582E+03  0.17383335217E+03  0.00000000000E+00 0.  1.
         21    1    1    2  503  501 -0.11450169720E+01  0.43299467902E+02  0.12407452303E+03  0.13141781557E+03  0.00000000000E+00 0. -1.
</event>
<event>
 4    1  0.5568520E+002  0.2517441E+02  0.7546771E-02  0.1466862E+00
          2   -1    0    0  503    0  0.00000000000E+00  0.00000000000E+00  0.55537262602E+03  0.55537262602E+03  0.00000000000E+00 0. -1.
         -2   -1    0    0    0  501 -0.00000000000E+00 -0.00000000000E+00 -0.13527557147E+01  0.13527557147E+01  0.00000000000E+00 0.  1.
         21    1    1    2  502  501 -0.11557642563E+02 -0.22364519331E+02  0.16690966154E+03  0.16879747019E+03  0.00000000000E+00 0. -1.
         21    1    1    2  503  502  0.11557642563E+02  0.22364519331E+02  0.38711020877E+03  0.38792791155E+03  0.00000000000E+00 0.  1.
</event>
<event>
 4    1  0.5568520E+002  0.2239456E+02  0.7546771E-02  0.1500244E+00
          2   -1    0    0  502    0  0.00000000000E+00  0.00000000000E+00  0.96395111315E+01  0.96395111315E+01  0.00000000000E+00 0.  1.
         -2   -1    0    0    0  501 -0.00000000000E+00 -0.00000000000E+00 -0.56262112050E+02  0.56262112050E+02  0.00000000000E+00 0. -1.
         21    1    1    2  502  503  0.64006127697E+01 -0.21460395421E+02 -0.14271013779E+02  0.26555192519E+02  0.00000000000E+00 0.  1.
         21    1    1    2  503  501 -0.64006127697E+01  0.21460395421E+02 -0.32351587139E+02  0.39346430662E+02  0.00000000000E+00 0. -1.
</event>
<event>
 4    1  0.5568520E+002  0.2080748E+02  0.7546771E-02  0.1522031E+00
          2   -1    0    0  503    0  0.00000000000E+00  0.00000000000E+00  0.70393740972E+03  0.70393740972E+03  0.00000000000E+00 0. -1.
         -2   -1    0    0    0  501 -0.00000000000E+00 -0.00000000000E+00 -0.10109357643E+01  0.10109357643E+01  0.00000000000E+00 0.  1.
         21    1    1    2  502  501 -0.28595911867E+01 -0.20610044135E+02  0.13088901026E+03  0.13253257783E+03  0.00000000000E+00 0.  1.
         21    1    1    2  503  502  0.28595911867E+01  0.20610044135E+02  0.57203746370E+03  0.57241576765E+03  0.00000000000E+00 0. -1.
</event>
<event>
 4    1  0.5568520E+002  0.2217380E+02  0.7546771E-02  0.1503142E+00
          2   -1    0    0  502    0  0.00000000000E+00  0.00000000000E+00  0.50833624240E+02  0.50833624240E+02  0.00000000000E+00 0. -1.
         -2   -1    0    0    0  501 -0.00000000000E+00 -0.00000000000E+00 -0.15618774547E+02  0.15618774547E+02  0.00000000000E+00 0.  1.
         21    1    1    2  502  503  0.21566339687E+02  0.51546443815E+01  0.38109011455E+02  0.44090521887E+02  0.00000000000E+00 0. -1.
         21    1    1    2  503  501 -0.21566339687E+02 -0.51546443815E+01 -0.28941617618E+01  0.22361876900E+02  0.00000000000E+00 0.  1.
</event>
<event>
 4    1  0.5568520E+002  0.3784996E+02  0.7546771E-02  0.1361567E+00
          2   -1    0    0  502    0  0.00000000000E+00  0.00000000000E+00  0.15480289809E+03  0.15480289809E+03  0.00000000000E+00 0.  1.
         -2   -1    0    0    0  501 -0.00000000000E+00 -0.00000000000E+00 -0.93138373485E+01  0.93138373485E+01  0.00000000000E+00 0. -1.
         21    1    1    2  502  503  0.85907402551E+01 -0.36862161535E+02  0.79295549483E+02  0.87865829189E+02  0.00000000000E+00 0. -1.
         21    1    1    2  503  501 -0.85907402551E+01  0.36862161535E+02  0.66193511256E+02  0.76250906248E+02  0.00000000000E+00 0.  1.
</event>
<event>
 4    1  0.5568520E+002  0.2570464E+02  0.7546771E-02  0.1461073E+00
          2   -1    0    0  503    0  0.00000000000E+00  0.00000000000E+00  0.20796548660E+02  0.20796548660E+02  0.00000000000E+00 0.  1.
         -2   -1    0    0    0  501 -0.00000000000E+00 -0.00000000000E+00 -0.31818853809E+02  0.31818853809E+02  0.00000000000E+00 0. -1.
         21    1    1    2  502  501  0.25124926649E+02 -0.54282931486E+01 -0.44915144878E+01  0.26094099103E+02  0.00000000000E+00 0.  1.
         21    1    1    2  503  502 -0.25124926649E+02  0.54282931486E+01 -0.65307906612E+01  0.26521303367E+02  0.00000000000E+00 0. -1.
</event>
<event>
 4    1  0.5568520E+002  0.2359673E+02  0.7546771E-02  0.1485138E+00
          2   -1    0    0  503    0  0.00000000000E+00  0.00000000000E+00  0.65881047648E+02  0.65881047648E+02  0.00000000000E+00 0.  1.
         -2   -1    0    0    0  501 -0.00000000000E+00 -0.00000000000E+00 -0.11729551295E+02  0.11729551295E+02  0.00000000000E+00 0. -1.
         21    1    1    2  502  501 -0.19823996394E+02  0.12799016212E+02  0.65619455988E+01  0.24492137086E+02  0.00000000000E+00 0. -1.
         21    1    1    2  503  502  0.19823996394E+02 -0.12799016212E+02  0.47589550755E+02  0.53118461857E+02  0.00000000000E+00 0.  1.
</event>
<event>
 4    1  0.5568520E+002  0.2168889E+02  0.7546771E-02  0.1509652E+00
          2   -1    0    0  502    0  0.00000000000E+00  0.00000000000E+00  0.87359678956E+03  0.87359678956E+03  0.00000000000E+00 0.  1.
         -2   -1    0    0    0  501 -0.00000000000E+00 -0.00000000000E+00 -0.73712419422E+00  0.73712419422E+00  0.00000000000E+00 0. -1.
         21    1    1    2  502  503  0.66931571622E+01  0.20630309985E+02  0.66337601811E+03  0.66373047952E+03  0.00000000000E+00 0.  1.
         21    1    1    2  503  501 -0.66931571622E+01 -0.20630309985E+02  0.20948364725E+03  0.21060343423E+03  0.00000000000E+00 0. -1.
</event>
<event>
 4    1  0.5568520E+002  0.3723173E+02  0.7546771E-02  0.1365519E+00
          2   -1    0    0  502    0  0.00000000000E+00  0.00000000000E+00  0.15012828068E+04  0.15012828068E+04  0.00000000000E+00 0.  1.
         -2   -1    0    0    0  501 -0.00000000000E+00 -0.00000000000E+00 -0.16803030955E+01  0.16803030955E+01  0.00000000000E+00 0. -1.
         21    1    1    2  502  503  0.27843169651E+02 -0.24717600509E+02  0.12541842631E+04  0.12547367723E+04  0.00000000000E+00 0.  1.
         21    1    1    2  503  501 -0.27843169651E+02  0.24717600509E+02  0.24541824062E+03  0.24822633765E+03  0.00000000000E+00 0. -1.
</event>
<event>
 4    1  0.5568520E+002  0.2151810E+02  0.7546771E-02  0.1511995E+00
          2   -1    0    0  503    0  0.00000000000E+00  0.00000000000E+00  0.64884003003E+02  0.64884003003E+02  0.00000000000E+00 0.  1.
         -2   -1    0    0    0  501 -0.00000000000E+00 -0.00000000000E+00 -0.96502387980E+02  0.96502387980E+02  0.00000000000E+00 0. -1.
         21    1    1    2  502  501 -0.20993924069E+02  0.47205650455E+01 -0.93461501594E+02  0.95906625748E+02  0.00000000000E+00 0. -1.
         21    1    1    2  503  502  0.20993924069E+02 -0.47205650455E+01  0.61843116617E+02  0.65479765234E+02  0.00000000000E+00 0.  1.
</event>
<event>
 4    1  0.5568520E+002  0.5022998E+02  0.7546771E-02  0.1297178E+00
          2   -1    0    0  503    0  0.00000000000E+00  0.00000000000E+00  0.69807968096E+02  0.69807968096E+02  0.00000000000E+00 0.  1.
         -2   -1    0    0    0  501 -0.00000000000E+00 -0.00000000000E+00 -0.11998386096E+03  0.11998386096E+03  0.00000000000E+00 0. -1.
         21    1    1    2  502  501 -0.42413757924E+02  0.26909559715E+02 -0.10441377850E+03  0.11586754682E+03  0.00000000000E+00 0. -1.
         21    1    1    2  503  502  0.42413757924E+02 -0.26909559715E+02  0.54237885639E+02  0.73924282235E+02  0.00000000000E+00 0.  1.
</event>
<event>
 4    1  0.5568520E+002  0.3371462E+02  0.7546771E-02  0.1389832E+00
          2   -1    0    0  503    0  0.00000000000E+00  0.00000000000E+00  0.15445146176E+04  0.15445146176E+04  0.00000000000E+00 0. -1.
         -2   -1    0    0    0  501 -0.00000000000E+00 -0.00000000000E+00 -0.82267143638E+00  0.82267143638E+00  0.00000000000E+00 0.  1.
         21    1    1    2  502  501 -0.15384383408E+02  0.29999944340E+02  0.52097009521E+03  0.52205987780E+03  0.00000000000E+00 0.  1.
         21    1    1    2  503  502  0.15384383408E+02 -0.29999944340E+02  0.10227218510E+04  0.10232774112E+04  0.00000000000E+00 0. -1.
</event>
<event>
 4    1  0.5568520E+002  0.3187986E+02  0.7546771E-02  0.1403934E+00
          2   -1    0    0  503    0  0.00000000000E+00  0.00000000000E+00  0.99949131139E+03  0.99949131139E+03  0.00000000000E+00 0.  1.
         -2   -1    0    0    0  501 -0.00000000000E+00 -0.00000000000E+00 -0.11658923092E+01  0.11658923092E+01  0.00000000000E+00 0. -1.
         21    1    1    2  502  501  0.30206029274E+01  0.31736433130E+02  0.32027032860E+03  0.32185308545E+03  0.00000000000E+00 0. -1.
         21    1    1    2  503  502 -0.30206029274E+01 -0.31736433130E+02  0.67805509048E+03  0.67880411825E+03  0.00000000000E+00 0.  1.
</event>
<event>
 4    1  0.5568520E+002  0.2310574E+02  0.7546771E-02  0.1491175E+00
          2   -1    0    0  503    0  0.00000000000E+00  0.00000000000E+00  0.14221644020E+04  0.14221644020E+04  0.00000000000E+00 0.  1.
         -2   -1    0    0    0  501 -0.00000000000E+00 -0.00000000000E+00 -0.69230710221E+00  0.69230710221E+00  0.00000000000E+00 0. -1.
         21    1    1    2  502  501  0.71993669602E+01  0.21955510679E+02  0.22939792446E+03  0.23055863264E+03  0.00000000000E+00 0. -1.
         21    1    1    2  503  502 -0.71993669602E+01 -0.21955510679E+02  0.11920741704E+04  0.11922980765E+04  0.00000000000E+00 0.  1.
</event>
<event>
 4    1  0.5568520E+002  0.2176327E+02  0.7546771E-02  0.1508640E+00
          2   -1    0    0  502    0  0.00000000000E+00  0.00000000000E+00  0.30442258822E+03  0.30442258822E+03  0.00000000000E+00 0. -1.
         -2   -1    0    0    0  501 -0.00000000000E+00 -0.00000000000E+00 -0.24031353199E+01  0.24031353199E+01  0.00000000000E+00 0.  1.
         21    1    1    2  502  503 -0.82882090642E+01  0.20123253821E+02  0.24210256618E+03  0.24307877798E+03  0.00000000000E+00 0. -1.
         21    1    1    2  503  501  0.82882090642E+01 -0.20123253821E+02  0.59916886718E+02  0.63746945557E+02  0.00000000000E+00 0.  1.
</event>
<event>
 4    1  0.5568520E+002  0.2922307E+02  0.7546771E-02  0.1426470E+00
          2   -1    0    0  503    0  0.00000000000E+00  0.00000000000E+00  0.10223027680E+02  0.10223027680E+02  0.00000000000E+00 0.  1.
         -2   -1    0    0    0  501 -0.00000000000E+00 -0.00000000000E+00 -0.17541193668E+03  0.17541193668E+03  0.00000000000E+00 0. -1.
         21    1    1    2  502  501  0.19496869128E+02  0.21768328336E+02 -0.14976853842E+03  0.15259293275E+03  0.00000000000E+00 0. -1.
         21    1    1    2  503  502 -0.19496869128E+02 -0.21768328336E+02 -0.15420370585E+02  0.33042031616E+02  0.00000000000E+00 0.  1.
</event>
<event>
 4    1  0.5568520E+002  0.2941795E+02  0.7546771E-02  0.1424723E+00
          2   -1    0    0  502    0  0.00000000000E+00  0.00000000000E+00  0.25120122097E+04  0.25120122097E+04  0.00000000000E+00 0.  1.
         -2   -1    0    0    0  501 -0.00000000000E+00 -0.00000000000E+00 -0.40127340129E+00  0.40127340129E+00  0.00000000000E+00 0. -1.
         21    1    1    2  502  503  0.22369067709E+02  0.19106027911E+02  0.17282728590E+04  0.17285232109E+04  0.00000000000E+00 0.  1.
         21    1    1    2  503  501 -0.22369067709E+02 -0.19106027911E+02  0.78333807723E+03  0.78389027213E+03  0.00000000000E+00 0. -1.
</event>
<event>
 4    1  0.5568520E+002  0.2758573E+02  0.7546771E-02  0.1441811E+00
          2   -1    0    0  503    0  0.00000000000E+00  0.00000000000E+00  0.41366466478E+03  0.41366466478E+03  0.00000000000E+00 0. -1.
         -2   -1    0    0    0  501 -0.00000000000E+00 -0.00000000000E+00 -0.18607887587E+01  0.18607887587E+01  0.00000000000E+00 0.  1.
         21    1    1    2  502  501 -0.10874075360E+02 -0.25352064769E+02  0.18372553545E+03  0.18578494309E+03  0.00000000000E+00 0.  1.
         21    1    1    2  503  502  0.10874075360E+02  0.25352064769E+02  0.22807834058E+03  0.22974051045E+03  0.00000000000E+00 0. -1.
</event>
<event>
 4    1  0.5568520E+002  0.2059031E+02  0.7546771E-02  0.1525195E+00
          2   -1    0    0  503    0  0.00000000000E+00  0.00000000000E+00  0.75815255850E+01  0.75815255850E+01  0.00000000000E+00 0. -1.
         -2   -1    0    0    0  501 -0.00000000000E+00 -0.00000000000E+00 -0.12113204420E+03  0.12113204420E+03  0.00000000000E+00 0.  1.
         21    1    1    2  502  501 -0.16973008899E+02 -0.11656669006E+02 -0.10399545929E+03  0.10601422790E+03  0.00000000000E+00 0.  1.
         21    1    1    2  503  502  0.16973008899E+02  0.11656669006E+02 -0.95550593222E+01  0.22699341886E+02  0.00000000000E+00 0. -1.
</event>
<event>
 4    1  0.5568520E+002  0.2712412E+02  0.7546771E-02  0.1446365E+00
          2   -1    0    0  503    0  0.00000000000E+00  0.00000000000E+00  0.18971002767E+04  0.18971002767E+04  0.00000000000E+00 0.  1.
         -2   -1    0    0    0  501 -0.00000000000E+00 -0.00000000000E+00 -0.40034556305E+00  0.40034556305E+00  0.00000000000E+00 0. -1.
         21    1    1    2  502  501  0.25405418308E+00 -0.27122927441E+02  0.11162212484E+04  0.11165507570E+04  0.00000000000E+00 0.  1.
         21    1    1    2  503  502 -0.25405418308E+00  0.27122927441E+02  0.78047868277E+03  0.78094986522E+03  0.00000000000E+00 0. -1.
</event>
<event>
 4    1  0.5568520E+002  0.2060822E+02  0.7546771E-02  0.1524933E+00
          2   -1    0    0  503    0  0.00000000000E+00  0.00000000000E+00  0.96422132440E+02  0.96422132440E+02  0.00000000000E+00 0. -1.
         -2   -1    0    0    0  501 -0.00000000000E+00 -0.00000000000E+00 -0.55843254615E+01  0.55843254615E+01  0.00000000000E+00 0.  1.
         21    1    1    2  502  501 -0.20607738000E+02 -0.14038017839E+00  0.21976222485E+02  0.30127278781E+02  0.00000000000E+00 0.  1.
         21    1    1    2  503  502  0.20607738000E+02  0.14038017839E+00  0.68861584494E+02  0.71879179120E+02  0.00000000000E+00 0. -1.
</event>
<event>
 4    1  0.5568520E+002  0.2555073E+02  0.7546771E-02  0.1462736E+00
          2   -1    0    0  503    0  0.00000000000E+00  0.00000000000E+00  0.10311750482E+04  0.10311750482E+04  0.00000000000E+00 0.  1.
         -2   -1    0    0    0  501 -0.00000000000E+00 -0.00000000000E+00 -0.67293150034E+00  0.67293150034E+00  0.00000000000E+00 0. -1.
         21    1    1    2  502  501 -0.11499909802E+02 -0.22816477866E+02  0.64076718767E+03  0.64127640560E+03  0.00000000000E+00 0.  1.
         21    1    1    2  503  502  0.11499909802E+02  0.22816477866E+02  0.38973492901E+03  0.39057157408E+03  0.00000000000E+00 0. -1.
</event>
<event>
 4    1  0.5568520E+002  0.2646682E+02  0.7546771E-02  0.1453039E+00
          2   -1    0    0  502    0  0.00000000000E+00  0.00000000000E+00  0.21237289864E+03  0.21237289864E+03  0.00000000000E+00 0. -1.
         -2   -1    0    0    0  501 -0.00000000000E+00 -0.00000000000E+00 -0.39461541002E+01  0.39461541002E+01  0.00000000000E+00 0.  1.
         21    1    1    2  502  503 -0.21924310799E+01 -0.26375855366E+02  0.14803415277E+03  0.15038152442E+03  0.00000000000E+00 0. -1.
         21    1    1    2  503  501  0.21924310799E+01  0.26375855366E+02  0.60392591762E+02  0.65937528313E+02  0.00000000000E+00 0.  1.
</event>
<event>
 4    1  0.5568520E+002  0.2180121E+02  0.7546771E-02  0.1508126E+00
          2   -1    0    0  502    0  0.00000000000E+00  0.00000000000E+00  0.45412441506E+01  0.45412441506E+01  0.00000000000E+00 0.  1.
         -2   -1    0    0    0  501 -0.00000000000E+00 -0.00000000000E+00 -0.10543900323E+03  0.10543900323E+03  0.00000000000E+00 0. -1.
         21    1    1    2  502  503  0.11481827879E+02 -0.18532686050E+02 -0.55171381100E+02  0.59322627353E+02  0.00000000000E+00 0.  1.
         21    1    1    2  503  501 -0.11481827879E+02  0.18532686050E+02 -0.45726377980E+02  0.50657620027E+02  0.00000000000E+00 0. -1.
</event>
<event>
 4    1  0.5568520E+002  0.3165030E+02  0.7546771E-02  0.1405778E+00
          2   -1    0    0  502    0  0.00000000000E+00  0.00000000000E+00  0.21531921388E+04  0.21531921388E+04  0.00000000000E+00 0.  1.
         -2   -1    0    0    0  501 -0.00000000000E+00 -0.00000000000E+00 -0.62678378464E+00  0.62678378464E+00  0.00000000000E+00 0. -1.
         21    1    1    2  502  503  0.23829979577E+02  0.20829633512E+02  0.16230107903E+04  0.16233193669E+04  0.00000000000E+00 0.  1.
         21    1    1    2  503  501 -0.23829979577E+02 -0.20829633512E+02  0.52955456473E+03  0.53049955568E+03  0.00000000000E+00 0. -1.
</event>
<event>
 4    1  0.5568520E+002  0.3462891E+02  0.7546771E-02  0.1383191E+00
          2   -1    0    0  502    0  0.00000000000E+00  0.00000000000E+00  0.42940397868E+03  0.42940397868E+03  0.00000000000E+00 0.  1.
         -2   -1    0    0    0  501 -0.00000000000E+00 -0.00000000000E+00 -0.35135377329E+01  0.35135377329E+01  0.00000000000E+00 0. -1.
         21    1    1    2  502  503  0.32580136122E+02  0.11734394629E+02  0.31099492818E+03  0.31291693249E+03  0.00000000000E+00 0.  1.
         21    1    1    2  503  501 -0.32580136122E+02 -0.11734394629E+02  0.11489551276E+03  0.12000058391E+03  0.00000000000E+00 0. -1.
</event>
<event>
 4    1  0.5568520E+002  0.2111814E+02  0.7546771E-02  0.1517585E+00
          2   -1    0    0  503    0  0.00000000000E+00  0.00000000000E+00  0.58065281868E+03  0.58065281868E+03  0.00000000000E+00 0.  1.
         -2   -1    0    0    0  501 -0.00000000000E+00 -0.00000000000E+00 -0.15973681422E+01  0.15973681422E+01  0.00000000000E+00 0. -1.
         21    1    1    2  502  501  0.20056324148E+02  0.66120721410E+01  0.79761601902E+02  0.82509931368E+02  0.00000000000E+00 0. -1.
         21    1    1    2  503  502 -0.20056324148E+02 -0.66120721410E+01  0.49929384864E+03  0.49974025546E+03  0.00000000000E+00 0.  1.
</event>
<event>
 4    1  0.5568520E+002  0.3124595E+02  0.7546771E-02  0.1409069E+00
          2   -1    0    0  503    0  0.00000000000E+00  0.00000000000E+00  0.49401964328E+02  0.49401964328E+02  0.00000000000E+00 0.  1.
         -2   -1    0    0    0  501 -0.00000000000E+00 -0.00000000000E+00 -0.27332481362E+02  0.27332481362E+02  0.00000000000E+00 0. -1.
         21    1    1    2  502  501  0.27705081716E+02  0.14447770126E+02 -0.91566535886E+01  0.32560004905E+02  0.00000000000E+00 0. -1.
         21    1    1    2  503  502 -0.27705081716E+02 -0.14447770126E+02  0.31226136554E+02  0.44174440784E+02  0.00000000000E+00 0.  1.
</event>
<event>
 4    1  0.5568520E+002  0.2921458E+02  0.7546771E-02  0.1426547E+00
          2   -1    0    0  503    0  0.00000000000E+00  0.00000000000E+00  0.31182359383E+03  0.31182359383E+03  0.00000000000E+00 0. -1.
         -2   -1    0    0    0  501 -0.00000000000E+00 -0.00000000000E+00 -0.28293015562E+01  0.28293015562E+01  0.00000000000E+00 0.  1.
         21    1    1    2  502  501 -0.28853060859E+02 -0.45817894666E+01  0.12609608355E+03  0.12943613947E+03  0.00000000000E+00 0. -1.
         21    1    1    2  503  502  0.28853060859E+02  0.45817894666E+01  0.18289820873E+03  0.18521675592E+03  0.00000000000E+00 0.  1.
</event>
<event>
 4    1  0.5568520E+002  0.2344724E+02  0.7546771E-02  0.1486957E+00
          2   -1    0    0  503    0  0.00000000000E+00  0.00000000000E+00  0.81292878226E+03  0.81292878226E+03  0.00000000000E+00 0.  1.
         -2   -1    0    0    0  501 -0.00000000000E+00 -0.00000000000E+00 -0.80130390155E+00  0.80130390155E+00  0.00000000000E+00 0. -1.
         21    1    1    2  502  501 -0.13059885740E+02 -0.19473381370E+02  0.24535627427E+03  0.24647408489E+03  0.00000000000E+00 0. -1.
         21    1    1    2  503  502  0.13059885740E+02  0.19473381370E+02  0.56677120409E+03  0.56725600128E+03  0.00000000000E+00 0.  1.
</event>
<event>
 4    1  0.5568520E+002  0.3053416E+02  0.7546771E-02  0.1415010E+00
          2   -1    0    0  502    0  0.00000000000E+00  0.00000000000E+00  0.52792692721E+03  0.52792692721E+03  0.00000000000E+00 0. -1.
         -2   -1    0    0    0  501 -0.00000000000E+00 -0.00000000000E+00 -0.33071817197E+01  0.33071817197E+01  0.00000000000E+00 0.  1.
         21    1    1    2  502  503 -0.30050332488E+02 -0.54140828408E+01  0.44363150868E+03  0.44468106579E+03  0.00000000000E+00 0. -1.
         21    1    1    2  503  501  0.30050332488E+02  0.54140828408E+01  0.80988236812E+02  0.86553043144E+02  0.00000000000E+00 0.  1.
</event>
<event>
 4    1  0.5568520E+002  0.2176123E+02  0.7546771E-02  0.1508668E+00
          2   -1    0    0  502    0  0.00000000000E+00  0.00000000000E+00  0.19484631497E+03  0.19484631497E+03  0.00000000000E+00 0. -1.
         -2   -1    0    0    0  501 -0.00000000000E+00 -0.00000000000E+00 -0.26396820844E+01  0.26396820844E+01  0.00000000000E+00 0.  1.
         21    1    1    2  502  503  0.19943103036E+02 -0.87076759067E+01  0.12390782296E+03  0.12580421125E+03  0.00000000000E+00 0.  1.
         21    1    1    2  503  501 -0.19943103036E+02  0.87076759067E+01  0.68298809935E+02  0.71681785810E+02  0.00000000000E+00 0. -1.
</event>
<event>
 4    1  0.5568520E+002  0.2175856E+02  0.7546771E-02  0.1508704E+00
          2   -1    0    0  503    0  0.00000000000E+00  0.00000000000E+00  0.16502300085E+01  0.16502300085E+01  0.00000000000E+00 0.  1.
         -2   -1    0    0    0  501 -0.00000000000E+00 -0.00000000000E+00 -0.38705561068E+03  0.38705561068E+03  0.00000000000E+00 0. -1.
         21    1    1    2  502  501  0.18505761762E+02 -0.11444290971E+02 -0.29157234477E+03  0.29238308304E+03  0.00000000000E+00 0. -1.
         21    1    1    2  503  502 -0.18505761762E+02  0.11444290971E+02 -0.93833035908E+02  0.96322757654E+02  0.00000000000E+00 0.  1.
</event>
<event>
 4    1  0.5568520E+002  0.2336175E+02  0.7546771E-02  0.1488005E+00
          2   -1    0    0  503    0  0.00000000000E+00  0.00000000000E+00  0.27740389889E+03  0.27740389889E+03  0.00000000000E+00 0. -1.
         -2   -1    0    0    0  501 -0.00000000000E+00 -0.00000000000E+00 -0.20189835663E+01  0.20189835663E+01  0.00000000000E+00 0.  1.
         21    1    1    2  502  501  0.18592741670E+02 -0.14145007788E+02  0.16001877924E+03  0.16171512297E+03  0.00000000000E+00 0. -1.
         21    1    1    2  503  502 -0.18592741670E+02  0.14145007788E+02  0.11536613608E+03  0.11770775949E+03  0.00000000000E+00 0.  1.
</event>
<event>
 4    1  0.5568520E+002  0.2006104E+02  0.7546771E-02  0.1533105E+00
          2   -1    0    0  502    0  0.00000000000E+00  0.00000000000E+00  0.19246860054E+02  0.19246860054E+02  0.00000000000E+00 0.  1.
         -2   -1    0    0    0  501 -0.00000000000E+00 -0.00000000000E+00 -0.24639620440E+02  0.24639620440E+02  0.00000000000E+00 0. -1.
         21    1    1    2  502  503  0.15645393319E+02 -0.12556555910E+02  0.58412133472E+01  0.20894142763E+02  0.00000000000E+00 0.  1.
         21    1    1    2  503  501 -0.15645393319E+02  0.12556555910E+02 -0.11233973733E+02  0.22992337730E+02  0.00000000000E+00 0. -1.
</event>
<event>
 4    1  0.5568520E+002  0.2038558E+02  0.7546771E-02  0.1528221E+00
          2   -1    0    0  502    0  0.00000000000E+00  0.00000000000E+00  0.68592621052E+03  0.68592621052E+03  0.00000000000E+00 0.  1.
         -2   -1    0    0    0  501 -0.00000000000E+00 -0.00000000000E+00 -0.50486849306E+01  0.50486849306E+01  0.00000000000E+00 0. -1.
         21    1    1    2  502  503  0.19947302021E+02 -0.42043864129E+01  0.66453425494E+03  0.66484686034E+03  0.00000000000E+00 0.  1.
         21    1    1    2  503  501 -0.19947302021E+02  0.42043864129E+01  0.16343270656E+02  0.26128035111E+02  0.00000000000E+00 0. -1.
</event>
<event>
 4    1  0.5568520E+002  0.8562269E+02  0.7546771E-02  0.1191363E+00
          2   -1    0    0  503    0  0.00000000000E+00  0.00000000000E+00  0.82562966010E+03  0.82562966010E+03  0.00000000000E+00 0. -1.
         -2   -1    0    0    0  501 -0.00000000000E+00 -0.00000000000E+00 -0.10854657354E+02  0.10854657354E+02  0.00000000000E+00 0.  1.
         21    1    1    2  502  501 -0.85535810290E+02  0.38561093182E+01  0.22898052661E+03  0.24446538812E+03  0.00000000000E+00 0. -1.
         21    1    1    2  503  502  0.85535810290E+02 -0.38561093182E+01  0.58579447613E+03  0.59201892933E+03  0.00000000000E+00 0.  1.
</event>
<event>
 4    1  0.5568520E+002  0.3976310E+02  0.7546771E-02  0.1349880E+00
          2   -1    0    0  503    0  0.00000000000E+00  0.00000000000E+00  0.58120471181E+02  0.58120471181E+02  0.00000000000E+00 0. -1.
         -2   -1    0    0    0  501 -0.00000000000E+00 -0.00000000000E+00 -0.99860380761E+02  0.99860380761E+02  0.00000000000E+00 0.  1.
         21    1    1    2  502  501 -0.81291405107E+01 -0.38923273329E+02 -0.88247470335E+02  0.96792149230E+02  0.00000000000E+00 0.  1.
         21    1    1    2  503  502  0.81291405107E+01  0.38923273329E+02  0.46507560755E+02  0.61188702711E+02  0.00000000000E+00 0. -1.
</event>
<event>
 4    1  0.5568520E+002  0.2020502E+02  0.7546771E-02  0.1530924E+00
          2   -1    0    0  502    0  0.00000000000E+00  0.00000000000E+00  0.77584740433E+03  0.77584740433E+03  0.00000000000E+00 0.  1.
         -2   -1    0    0    0  501 -0.00000000000E+00 -0.00000000000E+00 -0.15827457001E+01  0.15827457001E+01  0.00000000000E+00 0. -1.
         21    1    1    2  502  503 -0.15780376022E+02 -0.12618343203E+02  0.70472618281E+03  0.70501576975E+03  0.00000000000E+00 0.  1.
         21    1    1    2  503  501  0.15780376022E+02  0.12618343203E+02  0.69538475823E+02  0.72414380287E+02  0.00000000000E+00 0. -1.
</event>
<event>
 4    1  0.5568520E+002  0.3290019E+02  0.7546771E-02  0.1395959E+00
          2   -1    0    0  503    0  0.00000000000E+00  0.00000000000E+00  0.31536367108E+01  0.31536367108E+01  0.00000000000E+00 0. -1.
         -2   -1    0    0    0  501 -0.00000000000E+00 -0.00000000000E+00 -0.35797130487E+03  0.35797130487E+03  0.00000000000E+00 0.  1.
         21    1    1    2  502  501 -0.31545179362E+02 -0.93447226750E+01 -0.21405038881E+03  0.21656405781E+03  0.00000000000E+00 0. -1.
         21    1    1    2  503  502  0.31545179362E+02  0.93447226750E+01 -0.14076727934E+03  0.14456088377E+03  0.00000000000E+00 0.  1.
</event>
<event>
 4    1  0.5568520E+002  0.3372687E+02  0.7546771E-02  0.1389741E+00
          2   -1    0    0  502    0  0.00000000000E+00  0.00000000000E+00  0.85876674074E+03  0.85876674074E+03  0.00000000000E+00 0. -1.
         -2   -1    0    0    0  501 -0.00000000000E+00 -0.00000000000E+00 -0.13650378044E+01  0.13650378044E+01  0.00000000000E+00 0.  1.
         21    1    1    2  502  503 -0.30328643497E+02 -0.14753824562E+02  0.35465778462E+03  0.35625783661E+03  0.00000000000E+00 0. -1.
         21    1    1    2  503  501  0.30328643497E+02  0.14753824562E+02  0.50274391831E+03  0.50387394193E+03  0.00000000000E+00 0.  1.
</event>
<event>
 4    1  0.5568520E+002  0.2942957E+02  0.7546771E-02  0.1424619E+00
          2   -1    0    0  502    0  0.00000000000E+00  0.00000000000E+00  0.71671065288E+03  0.71671065288E+03  0.00000000000E+00 0.  1.
         -2   -1    0    0    0  501 -0.00000000000E+00 -0.00000000000E+00 -0.28507794233E+01  0.28507794233E+01  0.00000000000E+00 0. -1.
         21    1    1    2  502  503  0.28857880872E+02 -0.57725618803E+01  0.63000869139E+03  0.63069568810E+03  0.00000000000E+00 0.  1.
         21    1    1    2  503  501 -0.28857880872E+02  0.57725618803E+01  0.83851182064E+02  0.88865744203E+02  0.00000000000E+00 0. -1.
</event>
<event>
 4    1  0.5568520E+002  0.3607105E+02  0.7546771E-02  0.1373186E+00
          2   -1    0    0  503    0  0.00000000000E+00  0.00000000000E+00  0.10138960452E+04  0.10138960452E+04  0.00000000000E+00 0. -1.
         -2   -1    0    0    0  501 -0.00000000000E+00 -0.00000000000E+00 -0.14069778935E+01  0.14069778935E+01  0.00000000000E+00 0.  1.
         21    1    1    2  502  501 -0.33222529467E+02 -0.14049352213E+02  0.35572636592E+03  0.35755051136E+03  0.00000000000E+00 0.  1.
         21    1    1    2  503  502  0.33222529467E+02  0.14049352213E+02  0.65676270142E+03  0.65775251177E+03  0.00000000000E+00 0. -1.
</event>
<event>
 4    1  0.5568520E+002  0.2653866E+02  0.7546771E-02  0.1452298E+00
          2   -1    0    0  502    0  0.00000000000E+00  0.00000000000E+00  0.27698651230E+03  0.27698651230E+03  0.00000000000E+00 0.  1.
         -2   -1    0    0    0  501 -0.00000000000E+00 -0.00000000000E+00 -0.45169021236E+01  0.45169021236E+01  0.00000000000E+00 0. -1.
         21    1    1    2  502  503 -0.22293192795E+02  0.14398395891E+02  0.22928697393E+03  0.23081771307E+03  0.00000000000E+00 0.  1.
         21    1    1    2  503  501  0.22293192795E+02 -0.14398395891E+02  0.43182636238E+02  0.50685701354E+02  0.00000000000E+00 0. -1.
</event>
<event>
 4    1  0.5568520E+002  0.2852512E+02  0.7546771E-02  0.1432862E+00
          2   -1    0    0  503    0  0.00000000000E+00  0.00000000000E+00  0.87261501955E+03  0.87261501955E+03  0.00000000000E+00 0.  1.
         -2   -1    0    0    0  501 -0.00000000000E+00 -0.00000000000E+00 -0.12610523458E+01  0.12610523458E+01  0.00000000000E+00 0. -1.
         21    1    1    2  502  501 -0.11590636060E+02  0.26064144732E+02  0.21263887415E+03  0.21454363958E+03  0.00000000000E+00 0. -1.
         21    1    1    2  503  502  0.11590636060E+02 -0.26064144732E+02  0.65871509306E+03  0.65933243232E+03  0.00000000000E+00 0.  1.
</event>
<event>
 4    1  0.5568520E+002  0.2934738E+02  0.7546771E-02  0.1425354E+00
          2   -1    0    0  503    0  0.00000000000E+00  0.00000000000E+00  0.27648106922E+02  0.27648106922E+02  0.00000000000E+00 0. -1.
         -2   -1    0    0    0  501 -0.00000000000E+00 -0.00000000000E+00 -0.25629203349E+03  0.25629203349E+03  0.00000000000E+00 0.  1.
         21    1    1    2  502  501 -0.61334504628E+00 -0.29340967398E+02 -0.24738471129E+03  0.24911937689E+03  0.00000000000E+00 0.  1.
         21    1    1    2  503  502  0.61334504628E+00  0.29340967398E+02  0.18740784727E+02  0.34820763521E+02  0.00000000000E+00 0. -1.
</event>
<event>
 4    1  0.5568520E+002  0.2432798E+02  0.7546771E-02  0.1476464E+00
          2   -1    0    0  502    0  0.00000000000E+00  0.00000000000E+00  0.11555677979E+03  0.11555677979E+03  0.00000000000E+00 0.  1.
         -2   -1    0    0    0  501 -0.00000000000E+00 -0.00000000000E+00 -0.39702426851E+02  0.39702426851E+02  0.00000000000E+00 0. -1.
         21    1    1    2  502  503  0.15943678599E+02 -0.18375248654E+02  0.11037672923E+03  0.11302598376E+03  0.00000000000E+00 0.  1.
         21    1    1    2  503  501 -0.15943678599E+02  0.18375248654E+02 -0.34522376287E+02  0.42233222881E+02  0.00000000000E+00 0. -1.
</event>
<event>
 4    1  0.5568520E+002  0.3040956E+02  0.7546771E-02  0.1416070E+00
          2   -1    0    0  503    0  0.00000000000E+00  0.00000000000E+00  0.24395477826E+03  0.24395477826E+03  0.00000000000E+00 0. -1.
         -2   -1    0    0    0  501 -0.00000000000E+00 -0.00000000000E+00 -0.58181154734E+01  0.58181154734E+01  0.00000000000E+00 0.  1.
         21    1    1    2  502  501  0.24860349689E+02  0.17512974271E+02  0.45345250427E+02  0.54597921121E+02  0.00000000000E+00 0.  1.
         21    1    1    2  503  502 -0.24860349689E+02 -0.17512974271E+02  0.19279141236E+03  0.19517497262E+03  0.00000000000E+00 0. -1.
</event>
<event>
 4    1  0.5568520E+002  0.2570962E+02  0.7546771E-02  0.1461019E+00
          2   -1    0    0  503    0  0.00000000000E+00  0.00000000000E+00  0.18944133992E+03  0.18944133992E+03  0.00000000000E+00 0. -1.
         -2   -1    0    0    0  501 -0.00000000000E+00 -0.00000000000E+00 -0.11672742717E+02  0.11672742717E+02  0.00000000000E+00 0.  1.
         21    1    1    2  502  501  0.74627865858E+01  0.24602668364E+02  0.46868943436E+01  0.26133339871E+02  0.00000000000E+00 0.  1.
         21    1    1    2  503  502 -0.74627865858E+01 -0.24602668364E+02  0.17308170286E+03  0.17498074277E+03  0.00000000000E+00 0. -1.
</event>
<event>
 4    1  0.5568520E+002  0.2219195E+02  0.7546771E-02  0.1502902E+00
          2   -1    0    0  503    0  0.00000000000E+00  0.00000000000E+00  0.33065148714E+03  0.33065148714E+03  0.00000000000E+00 0.  1.
         -2   -1    0    0    0  501 -0.00000000000E+00 -0.00000000000E+00 -0.18827636246E+01  0.18827636246E+01  0.00000000000E+00 0. -1.
         21    1    1    2  502  501  0.12209475603E+02 -0.18531364422E+02  0.88388811830E+02  0.91132128356E+02  0.00000000000E+00 0. -1.
         21    1    1    2  503  502 -0.12209475603E+02  0.18531364422E+02  0.24037991169E+03  0.24140212241E+03  0.00000000000E+00 0.  1.
</event>
<event>
 4    1  0.5568520E+002  0.2232616E+02  0.7546771E-02  0.1501138E+00
          2   -1    0    0  502    0  0.00000000000E+00  0.00000000000E+00  0.72331454439E+03  0.72331454439E+03  0.00000000000E+00 0. -1.
         -2   -1    0    0    0  501 -0.00000000000E+00 -0.00000000000E+00 -0.32205913962E+01  0.32205913962E+01  0.00000000000E+00 0.  1.
         21    1    1    2  502  503 -0.15532390308E+02  0.16037520350E+02  0.68211271818E+03  0.68247799782E+03  0.00000000000E+00 0. -1.
         21    1    1    2  503  501  0.15532390308E+02 -0.16037520350E+02  0.37981234813E+02  0.44057137964E+02  0.00000000000E+00 0.  1.
</event>
<event>
 4    1  0.5568520E+002  0.4039471E+02  0.7546771E-02  0.1346188E+00
          2   -1    0    0  502    0  0.00000000000E+00  0.00000000000E+00  0.31986785518E+04  0.31986785518E+04  0.00000000000E+00 0. -1.
         -2   -1    0    0    0  501 -0.00000000000E+00 -0.00000000000E+00 -0.18736218281E+01  0.18736218281E+01  0.00000000000E+00 0.  1.
         21    1    1    2  502  503 -0.20164382466E+02  0.35001858955E+02  0.29635534492E+04  0.29638287364E+04  0.00000000000E+00 0. -1.
         21    1    1    2  503  501  0.20164382466E+02 -0.35001858955E+02  0.23325148079E+03  0.23672343725E+03  0.00000000000E+00 0.  1.
</event>
<event>
 4    1  0.5568520E+002  0.2220960E+02  0.7546771E-02  0.1502669E+00
          2   -1    0    0  503    0  0.00000000000E+00  0.00000000000E+00  0.21509071516E+03  0.21509071516E+03  0.00000000000E+00 0. -1.
         -2   -1    0    0    0  501 -0.00000000000E+00 -0.00000000000E+00 -0.14121191827E+02  0.14121191827E+02  0.00000000000E+00 0.  1.
         21    1    1    2  502  501 -0.12638881912E+02 -0.18262665211E+02 -0.44031121685E+01  0.22641856667E+02  0.00000000000E+00 0.  1.
         21    1    1    2  503  502  0.12638881912E+02  0.18262665211E+02  0.20537263550E+03  0.20657005032E+03  0.00000000000E+00 0. -1.
</event>
<event>
 4    1  0.5568520E+002  0.3041572E+02  0.7546771E-02  0.1416018E+00
          2   -1    0    0  502    0  0.00000000000E+00  0.00000000000E+00  0.25727652562E+04  0.25727652562E+04  0.00000000000E+00 0.  1.
         -2   -1    0    0    0  501 -0.00000000000E+00 -0.00000000000E+00 -0.41059690351E+00  0.41059690351E+00  0.00000000000E+00 0. -1.
         21    1    1    2  502  503  0.19868915092E+02  0.23029159657E+02  0.17396874116E+04  0.17399532770E+04  0.00000000000E+00 0.  1.
         21    1    1    2  503  501 -0.19868915092E+02 -0.23029159657E+02  0.83266724772E+03  0.83322257615E+03  0.00000000000E+00 0. -1.
</event>
<event>
 4    1  0.5568520E+002  0.2202179E+02  0.7546771E-02  0.1505161E+00
          2   -1    0    0  502    0  0.00000000000E+00  0.00000000000E+00  0.36525178711E+02  0.36525178711E+02  0.00000000000E+00 0. -1.
         -2   -1    0    0    0  501 -0.00000000000E+00 -0.00000000000E+00 -0.49725041172E+02  0.49725041172E+02  0.00000000000E+00 0.  1.
         21    1    1    2  502  503  0.54910568294E+01  0.21326220953E+02  0.30321400159E+02  0.37474614245E+02  0.00000000000E+00 0. -1.
         21    1    1    2  503  501 -0.54910568294E+01 -0.21326220953E+02 -0.43521262621E+02  0.48775605638E+02  0.00000000000E+00 0.  1.
</event>
<event>
 4    1  0.5568520E+002  0.2584646E+02  0.7546771E-02  0.1459553E+00
          2   -1    0    0  503    0  0.00000000000E+00  0.00000000000E+00  0.14544011188E+02  0.14544011188E+02  0.00000000000E+00 0. -1.
         -2   -1    0    0    0  501 -0.00000000000E+00 -0.00000000000E+00 -0.45934182915E+02  0.45934182915E+02  0.00000000000E+00 0.  1.
         21    1    1    2  502  501 -0.12015490014E+02 -0.22883783026E+02 -0.15500215454E+02  0.30137952900E+02  0.00000000000E+00 0. -1.
         21    1    1    2  503  502  0.12015490014E+02  0.22883783026E+02 -0.15889956273E+02  0.30340241203E+02  0.00000000000E+00 0.  1.
</event>
<event>
 4    1  0.5568520E+002  0.2094060E+02  0.7546771E-02  0.1520115E+00
          2   -1    0    0  502    0  0.00000000000E+00  0.00000000000E+00  0.31624677418E+03  0.31624677418E+03  0.00000000000E+00 0.  1.
         -2   -1    0    0    0  501 -0.00000000000E+00 -0.00000000000E+00 -0.20191060769E+01  0.20191060769E+01  0.00000000000E+00 0. -1.
         21    1    1    2  502  503  0.20524932894E+02 -0.41516200364E+01  0.24617979107E+03  0.24706881299E+03  0.00000000000E+00 0.  1.
         21    1    1    2  503  501 -0.20524932894E+02  0.41516200364E+01  0.68047877035E+02  0.71197067272E+02  0.00000000000E+00 0. -1.
</event>
<event>
 4    1  0.5568520E+002  0.2006058E+02  0.7546771E-02  0.1533112E+00
          2   -1    0    0  503    0  0.00000000000E+00  0.00000000000E+00  0.82014631019E+03  0.82014631019E+03  0.00000000000E+00 0. -1.
         -2   -1    0    0    0  501 -0.00000000000E+00 -0.00000000000E+00 -0.16065029981E+02  0.16065029981E+02  0.00000000000E+00 0.  1.
         21    1    1    2  502  501 -0.16701403945E+02 -0.11112603777E+02 -0.96303794586E+01  0.22252439528E+02  0.00000000000E+00 0.  1.
         21    1    1    2  503  502  0.16701403945E+02  0.11112603777E+02  0.81371165967E+03  0.81395890064E+03  0.00000000000E+00 0. -1.
</event>
<event>
 4    1  0.5568520E+002  0.2459380E+02  0.7546771E-02  0.1473399E+00
          2   -1    0    0  502    0  0.00000000000E+00  0.00000000000E+00  0.54552166329E+02  0.54552166329E+02  0.00000000000E+00 0. -1.
         -2   -1    0    0    0  501 -0.00000000000E+00 -0.00000000000E+00 -0.15350180074E+02  0.15350180074E+02  0.00000000000E+00 0.  1.
         21    1    1    2  502  503 -0.13715947854E+02  0.20413911657E+02  0.38018847753E+02  0.45280103788E+02  0.00000000000E+00 0. -1.
         21    1    1    2  503  501  0.13715947854E+02 -0.20413911657E+02  0.11831385031E+01  0.24622242615E+02  0.00000000000E+00 0.  1.
</event>
<event>
 4    1  0.5568520E+002  0.2041553E+02  0.7546771E-02  0.1527775E+00
          2   -1    0    0  502    0  0.00000000000E+00  0.00000000000E+00  0.40541877459E+03  0.40541877459E+03  0.00000000000E+00 0.  1.
         -2   -1    0    0    0  501 -0.00000000000E+00 -0.00000000000E+00 -0.36857592645E+01  0.36857592645E+01  0.00000000000E+00 0. -1.
         21    1    1    2  502  503  0.10949265543E+02 -0.17231008370E+02  0.37456413463E+03  0.37512009413E+03  0.00000000000E+00 0.  1.
         21    1    1    2  503  501 -0.10949265543E+02  0.17231008370E+02  0.27168880690E+02  0.33984439724E+02  0.00000000000E+00 0. -1.
</event>
<event>
 4    1  0.5568520E+002  0.2919440E+02  0.7546771E-02  0.1426729E+00
          2   -1    0    0  502    0  0.00000000000E+00  0.00000000000E+00  0.23446551258E+04  0.23446551258E+04  0.00000000000E+00 0.  1.
         -2   -1    0    0    0  501 -0.00000000000E+00 -0.00000000000E+00 -0.10880901304E+01  0.10880901304E+01  0.00000000000E+00 0. -1.
         21    1    1    2  502  503 -0.21477914533E+02  0.19774029880E+02  0.21288900743E+04  0.21290902427E+04  0.00000000000E+00 0.  1.
         21    1    1    2  503  501  0.21477914533E+02 -0.19774029880E+02  0.21467696135E+03  0.21665297321E+03  0.00000000000E+00 0. -1.
</event>
<event>
 4    1  0.5568520E+002  0.2396388E+02  0.7546771E-02  0.1480737E+00
          2   -1    0    0  502    0  0.00000000000E+00  0.00000000000E+00  0.22396423467E+03  0.22396423467E+03  0.00000000000E+00 0. -1.
         -2   -1    0    0    0  501 -0.00000000000E+00 -0.00000000000E+00 -0.47754842649E+01  0.47754842649E+01  0.00000000000E+00 0.  1.
         21    1    1    2  502  503  0.11202458878E+02 -0.21184252290E+02  0.18742214318E+03  0.18894794887E+03  0.00000000000E+00 0. -1.
         21    1    1    2  503  501 -0.11202458878E+02  0.21184252290E+02  0.31766607231E+02  0.39791770066E+02  0.00000000000E+00 0.  1.
</event>
<event>
 4    1  0.5568520E+002  0.3464952E+02  0.7546771E-02  0.1383044E+00
          2   -1    0    0  502    0  0.00000000000E+00  0.00000000000E+00  0.13107727498E+03  0.13107727498E+03  0.00000000000E+00 0. -1.
         -2   -1    0    0    0  501 -0.00000000000E+00 -0.00000000000E+00 -0.15415910402E+02  0.15415910402E+02  0.00000000000E+00 0.  1.
         21    1    1    2  502  503 -0.34042268587E+02  0.64585598391E+01  0.10449328538E+03  0.11008830880E+03  0.00000000000E+00 0. -1.
         21    1    1    2  503  501  0.34042268587E+02 -0.64585598391E+01  0.11168079200E+02  0.36404876580E+02  0.00000000000E+00 0.  1.
</event>
<event>
 4    1  0.5568520E+002  0.2490232E+02  0.7546771E-02  0.1469899E+00
          2   -1    0    0  503    0  0.00000000000E+00  0.00000000000E+00  0.78442034626E+03  0.78442034626E+03  0.00000000000E+00 0. -1.
         -2   -1    0    0    0  501 -0.00000000000E+00 -0.00000000000E+00 -0.12717924857E+01  0.12717924857E+01  0.00000000000E+00 0.  1.
         21    1    1    2  502  501 -0.13432935564E+02  0.20968590958E+02  0.14991966907E+03  0.15197378965E+03  0.00000000000E+00 0.  1.
         21    1    1    2  503  502  0.13432935564E+02 -0.20968590958E+02  0.63322888470E+03  0.63371834910E+03  0.00000000000E+00 0. -1.
</event>
<event>
 4    1  0.5568520E+002  0.2085364E+02  0.7546771E-02  0.1521365E+00
          2   -1    0    0  503    0  0.00000000000E+00  0.00000000000E+00  0.92928314943E+03  0.92928314943E+03  0.00000000000E+00 0. -1.
         -2   -1    0    0    0  501 -0.00000000000E+00 -0.00000000000E+00 -0.12235112153E+01  0.12235112153E+01  0.00000000000E+00 0.  1.
         21    1    1    2  502  501  0.20839245042E+02  0.77467024342E+00  0.98422120761E+02  0.10060709768E+03  0.00000000000E+00 0.  1.
         21    1    1    2  503  502 -0.20839245042E+02 -0.77467024342E+00  0.82963751745E+03  0.82989956297E+03  0.00000000000E+00 0. -1.
</event>
<event>
 4    1  0.5568520E+002  0.3588827E+02  0.7546771E-02  0.1374424E+00
          2   -1    0    0  502    0  0.00000000000E+00  0.00000000000E+00  0.21376023721E+03  0.21376023721E+03  0.00000000000E+00 0.  1.
         -2   -1    0    0    0  501 -0.00000000000E+00 -0.00000000000E+00 -0.12159092878E+02  0.12159092878E+02  0.00000000000E+00 0. -1.
         21    1    1    2  502  503 -0.18989228901E+02 -0.30452868736E+02  0.20570420233E+02  0.41365568013E+02  0.00000000000E+00 0. -1.
         21    1    1    2  503  501  0.18989228901E+02  0.30452868736E+02  0.18103072410E+03  0.18455376208E+03  0.00000000000E+00 0.  1.
</event>
<event>
 4    1  0.5568520E+002  0.2675628E+02  0.7546771E-02  0.1450072E+00
          2   -1    0    0  502    0  0.00000000000E+00  0.00000000000E+00  0.76847814718E+02  0.76847814718E+02  0.00000000000E+00 0. -1.
         -2   -1    0    0    0  501 -0.00000000000E+00 -0.00000000000E+00 -0.94110252809E+01  0.94110252809E+01  0.00000000000E+00 0.  1.
         21    1    1    2  502  503 -0.97236501010E+01  0.24926877722E+02  0.29379898382E+02  0.39737602257E+02  0.00000000000E+00 0.  1.
         21    1    1    2  503  501  0.97236501010E+01 -0.24926877722E+02  0.38056891056E+02  0.46521237742E+02  0.00000000000E+00 0. -1.
</event>
<event>
 4    1  0.5568520E+002  0.2374367E+02  0.7546771E-02  0.1483365E+00
          2   -1    0    0  503    0  0.00000000000E+00  0.00000000000E+00  0.83672878784E+03  0.83672878784E+03  0.00000000000E+00 0. -1.
         -2   -1    0    0    0  501 -0.00000000000E+00 -0.00000000000E+00 -0.72638534936E+00  0.72638534936E+00  0.00000000000E+00 0.  1.
         21    1    1    2  502  501 -0.14636289159E+02  0.18696010967E+02  0.30530506040E+03  0.30622694475E+03  0.00000000000E+00 0.  1.
         21    1    1    2  503  502  0.14636289159E+02 -0.18696010967E+02  0.53069734209E+03  0.53122822843E+03  0.00000000000E+00 0. -1.
</event>
<event>
 4    1  0.5568520E+002  0.8468580E+02  0.7546771E-02  0.1193368E+00
          2   -1    0    0  502    0  0.00000000000E+00  0.00000000000E+00  0.11675235283E+04  0.11675235283E+04  0.00000000000E+00 0. -1.
         -2   -1    0    0    0  501 -0.00000000000E+00 -0.00000000000E+00 -0.65998099275E+01  0.65998099275E+01  0.00000000000E+00 0.  1.
         21    1    1    2  502  503  0.50833153162E+01 -0.84533098931E+02  0.73497076212E+03  0.73983356648E+03  0.00000000000E+00 0.  1.
         21    1    1    2  503  501 -0.50833153162E+01  0.84533098931E+02  0.42595295622E+03  0.43428977172E+03  0.00000000000E+00 0. -1.
</event>
<event>
 4    1  0.5568520E+002  0.2049728E+02  0.7546771E-02  0.1526565E+00
          2   -1    0    0  502    0  0.00000000000E+00  0.00000000000E+00  0.73353306879E+01  0.73353306879E+01  0.00000000000E+00 0.  1.
         -2   -1    0    0    0  501 -0.00000000000E+00 -0.00000000000E+00 -0.62406814370E+02  0.62406814370E+02  0.00000000000E+00 0. -1.
         21    1    1    2  502  503 -0.20185049105E+02 -0.35640339711E+01 -0.17537086170E+02  0.26975691591E+02  0.00000000000E+00 0. -1.
         21    1    1    2  503  501  0.20185049105E+02  0.35640339711E+01 -0.37534397512E+02  0.42766453466E+02  0.00000000000E+00 0.  1.
</event>
<event>
 4    1  0.5568520E+002  0.3253885E+02  0.7546771E-02  0.1398744E+00
          2   -1    0    0  503    0  0.00000000000E+00  0.00000000000E+00  0.21424701370E+03  0.21424701370E+03  0.00000000000E+00 0.  1.
         -2   -1    0    0    0  501 -0.00000000000E+00 -0.00000000000E+00 -0.65550512337E+01  0.65550512337E+01  0.00000000000E+00 0. -1.
         21    1    1    2  502  501  0.17576866431E+02  0.27383034765E+02  0.49077685980E+02  0.58884599749E+02  0.00000000000E+00 0. -1.
         21    1    1    2  503  502 -0.17576866431E+02 -0.27383034765E+02  0.15861427648E+03  0.16191746518E+03  0.00000000000E+00 0.  1.
</event>
<event>
 4    1  0.5568520E+002  0.4124529E+02  0.7546771E-02  0.1341339E+00
          2   -1    0    0  502    0  0.00000000000E+00  0.00000000000E+00  0.27272204725E+03  0.27272204725E+03  0.00000000000E+00 0. -1.
         -2   -1    0    0    0  501 -0.00000000000E+00 -0.00000000000E+00 -0.92031487548E+01  0.92031487548E+01  0.00000000000E+00 0.  1.
         21    1    1    2  502  503  0.38651039784E+02  0.14396897610E+02  0.21177544217E+03  0.21575451662E+03  0.00000000000E+00 0. -1.
         21    1    1    2  503  501 -0.38651039784E+02 -0.14396897610E+02  0.51743456323E+02  0.66170679379E+02  0.00000000000E+00 0.  1.
</event>
<event>
 4    1  0.5568520E+002  0.2161277E+02  0.7546771E-02  0.1510693E+00
          2   -1    0    0  502    0  0.00000000000E+00  0.00000000000E+00  0.61356868698E+03  0.61356868698E+03  0.00000000000E+00 0. -1.
         -2   -1    0    0    0  501 -0.00000000000E+00 -0.00000000000E+00 -0.79070430034E+00  0.79070430034E+00  0.00000000000E+00 0.  1.
         21    1    1    2  502  503  0.15814443116E+02 -0.14731439104E+02  0.36562229993E+03  0.36626053311E+03  0.00000000000E+00 0.  1.
         21    1    1    2  503  501 -0.15814443116E+02  0.14731439104E+02  0.24715568275E+03  0.24809885816E+03  0.00000000000E+00 0. -1.
</event>
<event>
 4    1  0.5568520E+002  0.7161701E+02  0.7546771E-02  0.1224772E+00
          2   -1    0    0  502    0  0.00000000000E+00  0.00000000000E+00  0.10623932101E+04  0.10623932101E+04  0.00000000000E+00 0. -1.
         -2   -1    0    0    0  501 -0.00000000000E+00 -0.00000000000E+00 -0.49212093064E+01  0.49212093064E+01  0.00000000000E+00 0.  1.
         21    1    1    2  502  503  0.20737137989E+02  0.68549013683E+02  0.45520373946E+03  0.46080303882E+03  0.00000000000E+00 0.  1.
         21    1    1    2  503  501 -0.20737137989E+02 -0.68549013683E+02  0.60226826133E+03  0.60651138058E+03  0.00000000000E+00 0. -1.
</event>
<event>
 4    1  0.5568520E+002  0.4254910E+02  0.7546771E-02  0.1334162E+00
          2   -1    0    0  502    0  0.00000000000E+00  0.00000000000E+00  0.28829484305E+03  0.28829484305E+03  0.00000000000E+00 0. -1.
         -2   -1    0    0    0  501 -0.00000000000E+00 -0.00000000000E+00 -0.80631758992E+01  0.80631758992E+01  0.00000000000E+00 0.  1.
         21    1    1    2  502  503 -0.20431079386E+02 -0.37322875964E+02  0.20980389686E+03  0.21407498970E+03  0.00000000000E+00 0. -1.
         21    1    1    2  503  501  0.20431079386E+02  0.37322875964E+02  0.70427770286E+02  0.82283029250E+02  0.00000000000E+00 0.  1.
</event>
<event>
 4    1  0.5568520E+002  0.2087964E+02  0.7546771E-02  0.1520990E+00
          2   -1    0    0  502    0  0.00000000000E+00  0.00000000000E+00  0.15446399178E+04  0.15446399178E+04  0.00000000000E+00 0.  1.
         -2   -1    0    0    0  501 -0.00000000000E+00 -0.00000000000E+00 -0.35039440103E+00  0.35039440103E+00  0.00000000000E+00 0. -1.
         21    1    1    2  502  503 -0.28096293099E+01  0.20689738786E+02  0.11128382673E+04  0.11130341273E+04  0.00000000000E+00 0.  1.
         21    1    1    2  503  501  0.28096293099E+01 -0.20689738786E+02  0.43145125610E+03  0.43195618493E+03  0.00000000000E+00 0. -1.
</event>
<event>
 4    1  0.5568520E+002  0.2937052E+02  0.7546771E-02  0.1425147E+00
          2   -1    0    0  502    0  0.00000000000E+00  0.00000000000E+00  0.21739266663E+01  0.21739266663E+01  0.00000000000E+00 0. -1.
         -2   -1    0    0    0  501 -0.00000000000E+00 -0.00000000000E+00 -0.51513323065E+03  0.51513323065E+03  0.00000000000E+00 0.  1.
         21    1    1    2  502  503 -0.26859687393E+02  0.11882121245E+02 -0.13251420125E+03  0.13573003037E+03  0.00000000000E+00 0.  1.
         21    1    1    2  503  501  0.26859687393E+02 -0.11882121245E+02 -0.38044510274E+03  0.38157712695E+03  0.00000000000E+00 0. -1.
</event>
<event>
 4    1  0.5568520E+002  0.2373135E+02  0.7546771E-02  0.1483513E+00
          2   -1    0    0  503    0  0.00000000000E+00  0.00000000000E+00  0.90021997600E+02  0.90021997600E+02  0.00000000000E+00 0. -1.
         -2   -1    0    0    0  501 -0.00000000000E+00 -0.00000000000E+00 -0.86693161625E+01  0.86693161625E+01  0.00000000000E+00 0.  1.
         21    1    1    2  502  501 -0.13745780542E+02 -0.19345038032E+02  0.14640940263E+02  0.27884298646E+02  0.00000000000E+00 0.  1.
         21    1    1    2  503  502  0.13745780542E+02  0.19345038032E+02  0.66711741174E+02  0.70807015116E+02  0.00000000000E+00 0. -1.
</event>
<event>
 4    1  0.5568520E+002  0.2162567E+02  0.7546771E-02  0.1510516E+00
          2   -1    0    0  502    0  0.00000000000E+00  0.00000000000E+00  0.14011449899E+04  0.14011449899E+04  0.00000000000E+00 0. -1.
         -2   -1    0    0    0  501 -0.00000000000E+00 -0.00000000000E+00 -0.33876086587E+00  0.33876086587E+00  0.00000000000E+00 0.  1.
         21    1    1    2  502  503 -0.20964921861E+02 -0.53048588121E+01  0.78540137523E+03  0.78569904523E+03  0.00000000000E+00 0. -1.
         21    1    1    2  503  501  0.20964921861E+02  0.53048588121E+01  0.61540485379E+03  0.61578470551E+03  0.00000000000E+00 0.  1.
</event>
<event>
 4    1  0.5568520E+002  0.5828212E+02  0.7546771E-02  0.1265784E+00
          2   -1    0    0  503    0  0.00000000000E+00  0.00000000000E+00  0.12919271527E+04  0.12919271527E+04  0.00000000000E+00 0. -1.
         -2   -1    0    0    0  501 -0.00000000000E+00 -0.00000000000E+00 -0.36519222940E+01  0.36519222940E+01  0.00000000000E+00 0.  1.
         21    1    1    2  502  501  0.54461241747E+02  0.20755214379E+02  0.30133796237E+03  0.30692242235E+03  0.00000000000E+00 0.  1.
         21    1    1    2  503  502 -0.54461241747E+02 -0.20755214379E+02  0.98693726805E+03  0.98865665266E+03  0.00000000000E+00 0. -1.
</event>
<event>
 4    1  0.5568520E+002  0.3349107E+02  0.7546771E-02  0.1391493E+00
          2   -1    0    0  502    0  0.00000000000E+00  0.00000000000E+00  0.11698394739E+04  0.11698394739E+04  0.00000000000E+00 0.  1.
         -2   -1    0    0    0  501 -0.00000000000E+00 -0.00000000000E+00 -0.11999356512E+01  0.11999356512E+01  0.00000000000E+00 0. -1.
         21    1    1    2  502  503 -0.10233723959E+01 -0.33475428977E+02  0.84679353264E+03  0.84745556730E+03  0.00000000000E+00 0.  1.
         21    1    1    2  503  501  0.10233723959E+01  0.33475428977E+02  0.32184600566E+03  0.32358384229E+03  0.00000000000E+00 0. -1.
</event>
<event>
 4    1  0.5568520E+002  0.4580883E+02  0.7546771E-02  0.1317444E+00
          2   -1    0    0  503    0  0.00000000000E+00  0.00000000000E+00  0.35750517266E+04  0.35750517266E+04  0.00000000000E+00 0. -1.
         -2   -1    0    0    0  501 -0.00000000000E+00 -0.00000000000E+00 -0.59781334629E+00  0.59781334629E+00  0.00000000000E+00 0.  1.
         21    1    1    2  502  501  0.21001498430E+02 -0.40711009688E+02  0.15464485937E+04  0.15471269186E+04  0.00000000000E+00 0. -1.
         21    1    1    2  503  502 -0.21001498430E+02  0.40711009688E+02  0.20280053195E+04  0.20285226213E+04  0.00000000000E+00 0.  1.
</event>
<event>
 4    1  0.5568520E+002  0.2594633E+02  0.7546771E-02  0.1458489E+00
          2   -1    0    0  503    0  0.00000000000E+00  0.00000000000E+00  0.77882007747E+03  0.77882007747E+03  0.00000000000E+00 0.  1.
         -2   -1    0    0    0  501 -0.00000000000E+00 -0.00000000000E+00 -0.13516461260E+01  0.13516461260E+01  0.00000000000E+00 0. -1.
         21    1    1    2  502  501  0.35241409168E+01  0.25705885984E+02  0.15452560042E+03  0.15668877857E+03  0.00000000000E+00 0. -1.
         21    1    1    2  503  502 -0.35241409168E+01 -0.25705885984E+02  0.62294283092E+03  0.62348294503E+03  0.00000000000E+00 0.  1.
</event>
<event>
 4    1  0.5568520E+002  0.2571279E+02  0.7546771E-02  0.1460985E+00
          2   -1    0    0  503    0  0.00000000000E+00  0.00000000000E+00  0.38882295577E+02  0.38882295577E+02  0.00000000000E+00 0.  1.
         -2   -1    0    0    0  501 -0.00000000000E+00 -0.00000000000E+00 -0.20988298574E+02  0.20988298574E+02  0.00000000000E+00 0. -1.
         21    1    1    2  502  501  0.16424040922E+02  0.19783792853E+02 -0.40960968395E+01  0.26037004228E+02  0.00000000000E+00 0. -1.
         21    1    1    2  503  502 -0.16424040922E+02 -0.19783792853E+02  0.21990093842E+02  0.33833589923E+02  0.00000000000E+00 0.  1.
</event>
<event>
 4    1  0.5568520E+002  0.2192347E+02  0.7546771E-02  0.1506477E+00
          2   -1    0    0  503    0  0.00000000000E+00  0.00000000000E+00  0.13879659300E+01  0.13879659300E+01  0.00000000000E+00 0. -1.
         -2   -1    0    0    0  501 -0.00000000000E+00 -0.00000000000E+00 -0.75264921964E+03  0.75264921964E+03  0.00000000000E+00 0.  1.
         21    1    1    2  502  501 -0.12998320186E+02  0.17654524463E+02 -0.65265729632E+03  0.65302540915E+03  0.00000000000E+00 0.  1.
         21    1    1    2  503  502  0.12998320186E+02 -0.17654524463E+02 -0.98603957390E+02  0.10101177642E+03  0.00000000000E+00 0. -1.
</event>
<event>
 4    1  0.5568520E+002  0.2089634E+02  0.7546771E-02  0.1520750E+00
          2   -1    0    0  502    0  0.00000000000E+00  0.00000000000E+00  0.78568895630E+03  0.78568895630E+03  0.00000000000E+00 0. -1.
         -2   -1    0    0    0  501 -0.00000000000E+00 -0.00000000000E+00 -0.50184880395E+01  0.50184880395E+01  0.00000000000E+00 0.  1.
         21    1    1    2  502  503 -0.17006064756E+02 -0.12142931440E+02  0.76315543786E+03  0.76344147081E+03  0.00000000000E+00 0. -1.
         21    1    1    2  503  501  0.17006064756E+02  0.12142931440E+02  0.17515030404E+02  0.27265973529E+02  0.00000000000E+00 0.  1.
</event>
<event>
 4    1  0.5568520E+002  0.2078310E+02  0.7546771E-02  0.1522384E+00
          2   -1    0    0  503    0  0.00000000000E+00  0.00000000000E+00  0.99851561535E+03  0.99851561535E+03  0.00000000000E+00 0. -1.
         -2   -1    0    0    0  501 -0.00000000000E+00 -0.00000000000E+00 -0.69467518936E+00  0.69467518936E+00  0.00000000000E+00 0.  1.
         21    1    1    2  502  501 -0.37339519377E+01 -0.20444926327E+02  0.19203234820E+03  0.19315372160E+03  0.00000000000E+00 0.  1.
         21    1    1    2  503  502  0.37339519377E+01  0.20444926327E+02  0.80578859195E+03  0.80605656894E+03  0.00000000000E+00 0. -1.
</event>
<event>
 4    1  0.5568520E+002  0.2093810E+02  0.7546771E-02  0.1520150E+00
          2   -1    0    0  503    0  0.00000000000E+00  0.00000000000E+00  0.11194761598E+04  0.11194761598E+04  0.00000000000E+00 0. -1.
         -2   -1    0    0    0  501 -0.00000000000E+00 -0.00000000000E+00 -0.41176045557E+00  0.41176045557E+00  0.00000000000E+00 0.  1.
         21    1    1    2  502  501 -0.20428995668E+02 -0.45891558093E+01  0.43567951833E+03  0.43618235511E+03  0.00000000000E+00 0. -1.
         21    1    1    2  503  502  0.20428995668E+02  0.45891558093E+01  0.68338488101E+03  0.68370556515E+03  0.00000000000E+00 0.  1.
</event>
<event>
 4    1  0.5568520E+002  0.2344149E+02  0.7546771E-02  0.1487027E+00
          2   -1    0    0  503    0  0.00000000000E+00  0.00000000000E+00  0.14791557657E+03  0.14791557657E+03  0.00000000000E+00 0.  1.
         -2   -1    0    0    0  501 -0.00000000000E+00 -0.00000000000E+00 -0.75995640135E+02  0.75995640135E+02  0.00000000000E+00 0. -1.
         21    1    1    2  502  501 -0.23036628919E+02 -0.43378904225E+01 -0.73224928442E+02  0.76885588445E+02  0.00000000000E+00 0. -1.
         21    1    1    2  503  502  0.23036628919E+02  0.43378904225E+01  0.14514486487E+03  0.14702562826E+03  0.00000000000E+00 0.  1.
</event>
<event>
 4    1  0.5568520E+002  0.2467219E+02  0.7546771E-02  0.1472504E+00
          2   -1    0    0  502    0  0.00000000000E+00  0.00000000000E+00  0.14565960626E+04  0.14565960626E+04  0.00000000000E+00 0.  1.
         -2   -1    0    0    0  501 -0.00000000000E+00 -0.00000000000E+00 -0.65633104498E+00  0.65633104498E+00  0.00000000000E+00 0. -1.
         21    1    1    2  502  503  0.21797441668E+02 -0.11558051539E+02  0.11671283275E+04  0.11673890739E+04  0.00000000000E+00 0.  1.
         21    1    1    2  503  501 -0.21797441668E+02  0.11558051539E+02  0.28881140402E+03  0.28986331970E+03  0.00000000000E+00 0. -1.
</event>
<event>
 4    1  0.5568520E+002  0.2044619E+02  0.7546771E-02  0.1527321E+00
          2   -1    0    0  503    0  0.00000000000E+00  0.00000000000E+00  0.19141716234E+01  0.19141716234E+01  0.00000000000E+00 0.  1.
         -2   -1    0    0    0  501 -0.00000000000E+00 -0.00000000000E+00 -0.24868238979E+03  0.24868238979E+03  0.00000000000E+00 0. -1.
         21    1    1    2  502  501 -0.20443421212E+02 -0.33632687049E+00 -0.16711109001E+03  0.16835724810E+03  0.00000000000E+00 0. -1.
         21    1    1    2  503  502  0.20443421212E+02  0.33632687049E+00 -0.79657128160E+02  0.82239313307E+02  0.00000000000E+00 0.  1.
</event>
<event>
 4    1  0.5568520E+002  0.2298776E+02  0.7546771E-02  0.1492652E+00
          2   -1    0    0  503    0  0.00000000000E+00  0.00000000000E+00  0.21217988480E+03  0.21217988480E+03  0.00000000000E+00 0.  1.
         -2   -1    0    0    0  501 -0.00000000000E+00 -0.00000000000E+00 -0.35604434868E+01  0.35604434868E+01  0.00000000000E+00 0. -1.
         21    1    1    2  502  501 -0.21869389742E+02  0.70828499134E+01  0.45177134613E+02  0.50689352555E+02  0.00000000000E+00 0. -1.
         21    1    1    2  503  502  0.21869389742E+02 -0.70828499134E+01  0.16344230670E+03  0.16505097573E+03  0.00000000000E+00 0.  1.
</event>
<event>
 4    1  0.5568520E+002  0.3861041E+02  0.7546771E-02  0.1356827E+00
          2   -1    0    0  502    0  0.00000000000E+00  0.00000000000E+00  0.30071169301E+03  0.30071169301E+03  0.00000000000E+00 0. -1.
         -2   -1    0    0    0  501 -0.00000000000E+00 -0.00000000000E+00 -0.93469662328E+01  0.93469662328E+01  0.00000000000E+00 0.  1.
         21    1    1    2  502  503  0.36624527143E+00  0.38608674568E+02  0.25192204143E+03  0.25486364756E+03  0.00000000000E+00 0. -1.
         21    1    1    2  503  501 -0.36624527143E+00 -0.38608674568E+02  0.39442685342E+02  0.55195011681E+02  0.00000000000E+00 0.  1.
</event>
<event>
 4    1  0.5568520E+002  0.2224841E+02  0.7546771E-02  0.1502158E+00
          2   -1    0    0  503    0  0.00000000000E+00  0.00000000000E+00  0.15675773961E+03  0.15675773961E+03  0.00000000000E+00 0. -1.
         -2   -1    0    0    0  501 -0.00000000000E+00 -0.00000000000E+00 -0.14451269374E+02  0.14451269374E+02  0.00000000000E+00 0.  1.
         21    1    1    2  502  501 -0.12423478281E+02 -0.18456672031E+02 -0.45230005384E+01  0.22703503891E+02  0.00000000000E+00 0.  1.
         21    1    1    2  503  502  0.12423478281E+02  0.18456672031E+02  0.14682947078E+03  0.14850550510E+03  0.00000000000E+00 0. -1.
</event>
<event>
 4    1  0.5568520E+002  0.2984387E+02  0.7546771E-02  0.1420958E+00
          2   -1    0    0  502    0  0.00000000000E+00  0.00000000000E+00  0.34261594155E+03  0.34261594155E+03  0.00000000000E+00 0.  1.
         -2   -1    0    0    0  501 -0.00000000000E+00 -0.00000000000E+00 -0.67292701184E+01  0.67292701184E+01  0.00000000000E+00 0. -1.
         21    1    1    2  502  503  0.22986450923E+02  0.19033642165E+02  0.30477913014E+03  0.30623679503E+03  0.00000000000E+00 0.  1.
         21    1    1    2  503  501 -0.22986450923E+02 -0.19033642165E+02  0.31107541293E+02  0.43108416642E+02  0.00000000000E+00 0. -1.
</event>
<event>
 4    1  0.5568520E+002  0.2109578E+02  0.7546771E-02  0.1517902E+00
          2   -1    0    0  502    0  0.00000000000E+00  0.00000000000E+00  0.70460237273E+03  0.70460237273E+03  0.00000000000E+00 0.  1.
         -2   -1    0    0    0  501 -0.00000000000E+00 -0.00000000000E+00 -0.63685575883E+00  0.63685575883E+00  0.00000000000E+00 0. -1.
         21    1    1    2  502  503  0.14814622278E+02 -0.15018619219E+02  0.38399414673E+03  0.38457318768E+03  0.00000000000E+00 0.  1.
         21    1    1    2  503  501 -0.14814622278E+02  0.15018619219E+02  0.31997137023E+03  0.32066604081E+03  0.00000000000E+00 0. -1.
</event>
<event>
 4    1  0.5568520E+002  0.2145387E+02  0.7546771E-02  0.1512882E+00
          2   -1    0    0  503    0  0.00000000000E+00  0.00000000000E+00  0.10975266337E+02  0.10975266337E+02  0.00000000000E+00 0.  1.
         -2   -1    0    0    0  501 -0.00000000000E+00 -0.00000000000E+00 -0.64740618339E+02  0.64740618339E+02  0.00000000000E+00 0. -1.
         21    1    1    2  502  501 -0.21320367842E+02 -0.23896381116E+01 -0.49351046890E+02  0.53812584814E+02  0.00000000000E+00 0. -1.
         21    1    1    2  503  502  0.21320367842E+02  0.23896381116E+01 -0.44143051113E+01  0.21903299862E+02  0.00000000000E+00 0.  1.
</event>
<event>
 4    1  0.5568520E+002  0.2822425E+02  0.7546771E-02  0.1435683E+00
          2   -1    0    0  502    0  0.00000000000E+00  0.00000000000E+00  0.38684562386E+03  0.38684562386E+03  0.00000000000E+00 0.  1.
         -2   -1    0    0    0  501 -0.00000000000E+00 -0.00000000000E+00 -0.23198827936E+01  0.23198827936E+01  0.00000000000E+00 0. -1.
         21    1    1    2  502  503 -0.26214245843E+02  0.10460479231E+02  0.25748477503E+03  0.25902705976E+03  0.00000000000E+00 0.  1.
         21    1    1    2  503  501  0.26214245843E+02 -0.10460479231E+02  0.12704096604E+03  0.13013844690E+03  0.00000000000E+00 0. -1.
</event>
<event>
 4    1  0.5568520E+002  0.2485574E+02  0.7546771E-02  0.1470424E+00
          2   -1    0    0  502    0  0.00000000000E+00  0.00000000000E+00  0.59548621370E+02  0.59548621370E+02  0.00000000000E+00 0. -1.
         -2   -1    0    0    0  501 -0.00000000000E+00 -0.00000000000E+00 -0.13204086570E+02  0.13204086570E+02  0.00000000000E+00 0.  1.
         21    1    1    2  502  503 -0.13186297656E+02 -0.21069635393E+02  0.40010622333E+02  0.47102631359E+02  0.00000000000E+00 0. -1.
         21    1    1    2  503  501  0.13186297656E+02  0.21069635393E+02  0.63339124667E+01  0.25650076581E+02  0.00000000000E+00 0.  1.
</event>
<event>
 4    1  0.5568520E+002  0.2072169E+02  0.7546771E-02  0.1523276E+00
          2   -1    0    0  502    0  0.00000000000E+00  0.00000000000E+00  0.54326083827E+02  0.54326083827E+02  0.00000000000E+00 0. -1.
         -2   -1    0    0    0  501 -0.00000000000E+00 -0.00000000000E+00 -0.20447067226E+02  0.20447067226E+02  0.00000000000E+00 0.  1.
         21    1    1    2  502  503 -0.16324997553E+00  0.20721047666E+02  0.46221702131E+02  0.50654064150E+02  0.00000000000E+00 0. -1.
         21    1    1    2  503  501  0.16324997553E+00 -0.20721047666E+02 -0.12342685530E+02  0.24119086903E+02  0.00000000000E+00 0.  1.
</event>
<event>
 4    1  0.5568520E+002  0.4475887E+02  0.7546771E-02  0.1322650E+00
          2   -1    0    0  503    0  0.00000000000E+00  0.00000000000E+00  0.17362781302E+04  0.17362781302E+04  0.00000000000E+00 0.  1.
         -2   -1    0    0    0  501 -0.00000000000E+00 -0.00000000000E+00 -0.11525877851E+02  0.11525877851E+02  0.00000000000E+00 0. -1.
         21    1    1    2  502  501  0.23485314703E+01  0.44697214381E+02  0.33369228271E+02  0.55828863224E+02  0.00000000000E+00 0. -1.
         21    1    1    2  503  502 -0.23485314703E+01 -0.44697214381E+02  0.16913830241E+04  0.16919751448E+04  0.00000000000E+00 0.  1.
</event>
<event>
 4    1  0.5568520E+002  0.4750554E+02  0.7546771E-02  0.1309366E+00
          2   -1    0    0  503    0  0.00000000000E+00  0.00000000000E+00  0.15117545562E+04  0.15117545562E+04  0.00000000000E+00 0. -1.
         -2   -1    0    0    0  501 -0.00000000000E+00 -0.00000000000E+00 -0.36321210063E+01  0.36321210063E+01  0.00000000000E+00 0.  1.
         21    1    1    2  502  501 -0.23804418751E+02  0.41111139583E+02  0.17256171340E+03  0.17898134283E+03  0.00000000000E+00 0.  1.
         21    1    1    2  503  502  0.23804418751E+02 -0.41111139583E+02  0.13355607218E+04  0.13364053344E+04  0.00000000000E+00 0. -1.
</event>
<event>
 4    1  0.5568520E+002  0.2608734E+02  0.7546771E-02  0.1456998E+00
          2   -1    0    0  502    0  0.00000000000E+00  0.00000000000E+00  0.58742673245E+03  0.58742673245E+03  0.00000000000E+00 0. -1.
         -2   -1    0    0    0  501 -0.00000000000E+00 -0.00000000000E+00 -0.49130420328E+01  0.49130420328E+01  0.00000000000E+00 0.  1.
         21    1    1    2  502  503  0.28689471380E+01 -0.25929104205E+02  0.55016314981E+03  0.55078130026E+03  0.00000000000E+00 0. -1.
         21    1    1    2  503  501 -0.28689471380E+01  0.25929104205E+02  0.32350540610E+02  0.41558474230E+02  0.00000000000E+00 0.  1.
</event>
<event>
 4    1  0.5568520E+002  0.2487767E+02  0.7546771E-02  0.1470177E+00
          2   -1    0    0  503    0  0.00000000000E+00  0.00000000000E+00  0.15699187945E+02  0.15699187945E+02  0.00000000000E+00 0.  1.
         -2   -1    0    0    0  501 -0.00000000000E+00 -0.00000000000E+00 -0.48345364249E+02  0.48345364249E+02  0.00000000000E+00 0. -1.
         21    1    1    2  502  501  0.13632138172E+02 -0.20810174160E+02 -0.30080321476E+02  0.39034911039E+02  0.00000000000E+00 0. -1.
         21    1    1    2  503  502 -0.13632138172E+02  0.20810174160E+02 -0.25658548270E+01  0.25009641155E+02  0.00000000000E+00 0.  1.
</event>
<event>
 4    1  0.5568520E+002  0.2608772E+02  0.7546771E-02  0.1456994E+00
          2   -1    0    0  502    0  0.00000000000E+00  0.00000000000E+00  0.78077288827E+02  0.78077288827E+02  0.00000000000E+00 0. -1.
         -2   -1    0    0    0  501 -0.00000000000E+00 -0.00000000000E+00 -0.90080068608E+01  0.90080068608E+01  0.00000000000E+00 0.  1.
         21    1    1    2  502  503  0.88314435808E+01 -0.24547399909E+02  0.42366110884E+02  0.49753960540E+02  0.00000000000E+00 0. -1.
         21    1    1    2  503  501 -0.88314435808E+01  0.24547399909E+02  0.26703171083E+02  0.37331335147E+02  0.00000000000E+00 0.  1.
</event>
<event>
 4    1  0.5568520E+002  0.2786648E+02  0.7546771E-02  0.1439093E+00
          2   -1    0    0  503    0  0.00000000000E+00  0.00000000000E+00  0.21466364108E+03  0.21466364108E+03  0.00000000000E+00 0. -1.
         -2   -1    0    0    0  501 -0.00000000000E+00 -0.00000000000E+00 -0.40464716435E+01  0.40464716435E+01  0.00000000000E+00 0.  1.
         21    1    1    2  502  501 -0.16141499856E+02  0.22715477214E+02  0.14091483389E+03  0.14364376538E+03  0.00000000000E+00 0. -1.
         21    1    1    2  503  502  0.16141499856E+02 -0.22715477214E+02  0.69702335544E+02  0.75066347340E+02  0.00000000000E+00 0.  1.
</event>
<event>
 4    1  0.5568520E+002  0.2094469E+02  0.7546771E-02  0.1520056E+00
          2   -1    0    0  503    0  0.00000000000E+00  0.00000000000E+00  0.73181389943E+03  0.73181389943E+03  0.00000000000E+00 0.  1.
         -2   -1    0    0    0  501 -0.00000000000E+00 -0.00000000000E+00 -0.28590063563E+01  0.28590063563E+01  0.00000000000E+00 0. -1.
         21    1    1    2  502  501  0.18419708781E+02 -0.99696762203E+01  0.37913069497E+02  0.43313750175E+02  0.00000000000E+00 0. -1.
         21    1    1    2  503  502 -0.18419708781E+02  0.99696762203E+01  0.69104182358E+03  0.69135915561E+03  0.00000000000E+00 0.  1.
</event>
<event>
 4    1  0.5568520E+002  0.2222848E+02  0.7546771E-02  0.1502420E+00
          2   -1    0    0  503    0  0.00000000000E+00  0.00000000000E+00  0.38122401922E+01  0.38122401922E+01  0.00000000000E+00 0.  1.
         -2   -1    0    0    0  501 -0.00000000000E+00 -0.00000000000E+00 -0.15320692249E+03  0.15320692249E+03  0.00000000000E+00 0. -1.
         21    1    1    2  502  501 -0.16701636477E+02 -0.14668354087E+02 -0.10550858048E+03  0.10782469952E+03  0.00000000000E+00 0.  1.
         21    1    1    2  503  502  0.16701636477E+02  0.14668354087E+02 -0.43886101822E+02  0.49194463162E+02  0.00000000000E+00 0. -1.
</event>
<event>
 4    1  0.5568520E+002  0.2465302E+02  0.7546771E-02  0.1472723E+00
          2   -1    0    0  503    0  0.00000000000E+00  0.00000000000E+00  0.21720373375E+03  0.21720373375E+03  0.00000000000E+00 0. -1.
         -2   -1    0    0    0  501 -0.00000000000E+00 -0.00000000000E+00 -0.58480624259E+01  0.58480624259E+01  0.00000000000E+00 0.  1.
         21    1    1    2  502  501 -0.24546585866E+02 -0.22883108614E+01  0.25137663025E+02  0.35208995252E+02  0.00000000000E+00 0.  1.
         21    1    1    2  503  502  0.24546585866E+02  0.22883108614E+01  0.18621800830E+03  0.18784280092E+03  0.00000000000E+00 0. -1.
</event>
<event>
 4    1  0.5568520E+002  0.3168521E+02  0.7546771E-02  0.1405496E+00
          2   -1    0    0  503    0  0.00000000000E+00  0.00000000000E+00  0.33228945555E+02  0.33228945555E+02  0.00000000000E+00 0. -1.
         -2   -1    0    0    0  501 -0.00000000000E+00 -0.00000000000E+00 -0.57361907402E+02  0.57361907402E+02  0.00000000000E+00 0.  1.
         21    1    1    2  502  501  0.31683377660E+02 -0.34042390964E+00 -0.43227901829E+02  0.53596677182E+02  0.00000000000E+00 0.  1.
         21    1    1    2  503  502 -0.31683377660E+02  0.34042390964E+00  0.19094939982E+02  0.36994175775E+02  0.00000000000E+00 0. -1.
</event>
<event>
 4    1  0.5568520E+002  0.2524598E+02  0.7546771E-02  0.1466070E+00
          2   -1    0    0  503    0  0.00000000000E+00  0.00000000000E+00  0.15289988529E+04  0.15289988529E+04  0.00000000000E+00 0. -1.
         -2   -1    0    0    0  501 -0.00000000000E+00 -0.00000000000E+00 -0.93552617646E+00  0.93552617646E+00  0.00000000000E+00 0.  1.
         21    1    1    2  502  501 -0.13205860921E+02  0.21516616328E+02  0.19443953248E+03  0.19607164846E+03  0.00000000000E+00 0.  1.
         21    1    1    2  503  502  0.13205860921E+02 -0.21516616328E+02  0.13336237943E+04  0.13338627306E+04  0.00000000000E+00 0. -1.
</event>
<event>
 4    1  0.5568520E+002  0.2190496E+02  0.7546771E-02  0.1506726E+00
          2   -1    0    0  503    0  0.00000000000E+00  0.00000000000E+00  0.87192302706E+03  0.87192302706E+03  0.00000000000E+00 0.  1.
         -2   -1    0    0    0  501 -0.00000000000E+00 -0.00000000000E+00 -0.72787669488E+00  0.72787669488E+00  0.00000000000E+00 0. -1.
         21    1    1    2  502  501  0.55515977452E+01 -0.21189782891E+02  0.22008949808E+03  0.22117688464E+03  0.00000000000E+00 0. -1.
         21    1    1    2  503  502 -0.55515977452E+01  0.21189782891E+02  0.65110565228E+03  0.65147401911E+03  0.00000000000E+00 0.  1.
</event>
<event>
 4    1  0.5568520E+002  0.3829427E+02  0.7546771E-02  0.1358782E+00
          2   -1    0    0  502    0  0.00000000000E+00  0.00000000000E+00  0.99937626725E+03  0.99937626725E+03  0.00000000000E+00 0. -1.
         -2   -1    0    0    0  501 -0.00000000000E+00 -0.00000000000E+00 -0.20984183571E+01  0.20984183571E+01  0.00000000000E+00 0.  1.
         21    1    1    2  502  503 -0.12978285849E+01 -0.38272272479E+02  0.77323636548E+03  0.77418404020E+03  0.00000000000E+00 0. -1.
         21    1    1    2  503  501  0.12978285849E+01  0.38272272479E+02  0.22404148342E+03  0.22729064541E+03  0.00000000000E+00 0.  1.
</event>
<event>
 4    1  0.5568520E+002  0.2489472E+02  0.7546771E-02  0.1469985E+00
          2   -1    0    0  502    0  0.00000000000E+00  0.00000000000E+00  0.31542440324E+03  0.31542440324E+03  0.00000000000E+00 0.  1.
         -2   -1    0    0    0  501 -0.00000000000E+00 -0.00000000000E+00 -0.13223175899E+02  0.13223175899E+02  0.00000000000E+00 0. -1.
         21    1    1    2  502  503 -0.16972518376E+02  0.18212104738E+02  0.30272545139E+03  0.30374733918E+03  0.00000000000E+00 0.  1.
         21    1    1    2  503  501  0.16972518376E+02 -0.18212104738E+02 -0.52422405247E+00  0.24900239956E+02  0.00000000000E+00 0. -1.
</event>
<event>
 4    1  0.5568520E+002  0.2074624E+02  0.7546771E-02  0.1522919E+00
          2   -1    0    0  502    0  0.00000000000E+00  0.00000000000E+00  0.12063560214E+03  0.12063560214E+03  0.00000000000E+00 0. -1.
         -2   -1    0    0    0  501 -0.00000000000E+00 -0.00000000000E+00 -0.36429198537E+01  0.36429198537E+01  0.00000000000E+00 0.  1.
         21    1    1    2  502  503 -0.20213478839E+02  0.46713870907E+01  0.49574601343E+02  0.53740559008E+02  0.00000000000E+00 0. -1.
         21    1    1    2  503  501  0.20213478839E+02 -0.46713870907E+01  0.67418080944E+02  0.70537962987E+02  0.00000000000E+00 0.  1.
</event>
<event>
 4    1  0.5568520E+002  0.2155090E+02  0.7546771E-02  0.1511543E+00
          2   -1    0    0  502    0  0.00000000000E+00  0.00000000000E+00  0.17672265023E+04  0.17672265023E+04  0.00000000000E+00 0. -1.
         -2   -1    0    0    0  501 -0.00000000000E+00 -0.00000000000E+00 -0.50958547708E+00  0.50958547708E+00  0.00000000000E+00 0.  1.
         21    1    1    2  502  503  0.16156687111E+02  0.14261931335E+02  0.14984385785E+04  0.14985935455E+04  0.00000000000E+00 0.  1.
         21    1    1    2  503  501 -0.16156687111E+02 -0.14261931335E+02  0.26827833837E+03  0.26914254228E+03  0.00000000000E+00 0. -1.
</event>
<event>
 4    1  0.5568520E+002  0.2642529E+02  0.7546771E-02  0.1453468E+00
          2   -1    0    0  502    0  0.00000000000E+00  0.00000000000E+00  0.22598344865E+02  0.22598344865E+02  0.00000000000E+00 0.  1.
         -2   -1    0    0    0  501 -0.00000000000E+00 -0.00000000000E+00 -0.38687500504E+02  0.38687500504E+02  0.00000000000E+00 0. -1.
         21    1    1    2  502  503 -0.19649501003E+02 -0.17668992838E+02  0.57032737556E+01  0.27033747966E+02  0.00000000000E+00 0.  1.
         21    1    1    2  503  501  0.19649501003E+02  0.17668992838E+02 -0.21792429395E+02  0.34252097403E+02  0.00000000000E+00 0. -1.
</event>
<event>
 4    1  0.5568520E+002  0.2047147E+02  0.7546771E-02  0.1526946E+00
          2   -1    0    0  503    0  0.00000000000E+00  0.00000000000E+00  0.41836199075E+03  0.41836199075E+03  0.00000000000E+00 0. -1.
         -2   -1    0    0    0  501 -0.00000000000E+00 -0.00000000000E+00 -0.28182965733E+01  0.28182965733E+01  0.00000000000E+00 0.  1.
         21    1    1    2  502  501  0.18629190385E+02  0.84872964889E+01  0.38699831060E+02  0.43780793279E+02  0.00000000000E+00 0.  1.
         21    1    1    2  503  502 -0.18629190385E+02 -0.84872964889E+01  0.37684386311E+03  0.37739949404E+03  0.00000000000E+00 0. -1.
</event>
<event>
 4    1  0.5568520E+002  0.3939700E+02  0.7546771E-02  0.1352056E+00
          2   -1    0    0  502    0  0.00000000000E+00  0.00000000000E+00  0.33567003723E+03  0.33567003723E+03  0.00000000000E+00 0.  1.
         -2   -1    0    0    0  501 -0.00000000000E+00 -0.00000000000E+00 -0.12379732986E+02  0.12379732986E+02  0.00000000000E+00 0. -1.
         21    1    1    2  502  503  0.29016841471E+02 -0.26648567479E+02  0.29938778931E+03  0.30196882559E+03  0.00000000000E+00 0.  1.
         21    1    1    2  503  501 -0.29016841471E+02  0.26648567479E+02  0.23902514931E+02  0.46080944627E+02  0.00000000000E+00 0. -1.
</event>
<event>
 4    1  0.5568520E+002  0.4168770E+02  0.7546771E-02  0.1338870E+00
          2   -1    0    0  503    0  0.00000000000E+00  0.00000000000E+00  0.27255772403E+04  0.27255772403E+04  0.00000000000E+00 0. -1.
         -2   -1    0    0    0  501 -0.00000000000E+00 -0.00000000000E+00 -0.96457442311E+00  0.96457442311E+00  0.00000000000E+00 0.  1.
         21    1    1    2  502  501 -0.41659793392E+02 -0.15251098805E+01  0.56859543625E+03  0.57012159621E+03  0.00000000000E+00 0.  1.
         21    1    1    2  503  502  0.41659793392E+02  0.15251098805E+01  0.21560172296E+04  0.21564202185E+04  0.00000000000E+00 0. -1.
</event>
<event>
 4    1  0.5568520E+002  0.2689654E+02  0.7546771E-02  0.1448650E+00
          2   -1    0    0  503    0  0.00000000000E+00  0.00000000000E+00  0.13041777626E+03  0.13041777626E+03  0.00000000000E+00 0.  1.
         -2   -1    0    0    0  501 -0.00000000000E+00 -0.00000000000E+00 -0.63611551717E+01  0.63611551717E+01  0.00000000000E+00 0. -1.
         21    1    1    2  502  501  0.91553056726E+01  0.25290395483E+02  0.86495401325E+02  0.90580782598E+02  0.00000000000E+00 0.  1.
         21    1    1    2  503  502 -0.91553056726E+01 -0.25290395483E+02  0.37561219766E+02  0.46198148836E+02  0.00000000000E+00 0. -1.
</event>
<event>
 4    1  0.5568520E+002  0.4941477E+02  0.7546771E-02  0.1300730E+00
          2   -1    0    0  502    0  0.00000000000E+00  0.00000000000E+00  0.11857352864E+03  0.11857352864E+03  0.00000000000E+00 0.  1.
         -2   -1    0    0    0  501 -0.00000000000E+00 -0.00000000000E+00 -0.37376053839E+02  0.37376053839E+02  0.00000000000E+00 0. -1.
         21    1    1    2  502  503 -0.16370077498E+02 -0.46624452631E+02  0.92849092171E+02  0.10517971733E+03  0.00000000000E+00 0.  1.
         21    1    1    2  503  501  0.16370077498E+02  0.46624452631E+02 -0.11651617367E+02  0.50769865153E+02  0.00000000000E+00 0. -1.
</event>
<event>
 4    1  0.5568520E+002  0.2029459E+02  0.7546771E-02  0.1529579E+00
          2   -1    0    0  503    0  0.00000000000E+00  0.00000000000E+00  0.19052554268E+03  0.19052554268E+03  0.00000000000E+00 0. -1.
         -2   -1    0    0    0  501 -0.00000000000E+00 -0.00000000000E+00 -0.33146051006E+01  0.33146051006E+01  0.00000000000E+00 0.  1.
         21    1    1    2  502  501  0.12072237517E+01 -0.20258654949E+02  0.36446639376E+02  0.41716040216E+02  0.00000000000E+00 0.  1.
         21    1    1    2  503  502 -0.12072237517E+01  0.20258654949E+02  0.15076429821E+03  0.15212410757E+03  0.00000000000E+00 0. -1.
</event>
<event>
 4    1  0.5568520E+002  0.2208860E+02  0.7546771E-02  0.1504271E+00
          2   -1    0    0  502    0  0.00000000000E+00  0.00000000000E+00  0.22432018882E+03  0.22432018882E+03  0.00000000000E+00 0.  1.
         -2   -1    0    0    0  501 -0.00000000000E+00 -0.00000000000E+00 -0.33388064235E+01  0.33388064235E+01  0.00000000000E+00 0. -1.
         21    1    1    2  502  503 -0.17311844877E+00 -0.22087922567E+02  0.17769410789E+03  0.17906172755E+03  0.00000000000E+00 0.  1.
         21    1    1    2  503  501  0.17311844877E+00  0.22087922567E+02  0.43287274503E+02  0.48597267693E+02  0.00000000000E+00 0. -1.
</event>
<event>
 4    1  0.5568520E+002  0.2119650E+02  0.7546771E-02  0.1516478E+00
          2   -1    0    0  502    0  0.00000000000E+00  0.00000000000E+00  0.70373478608E+02  0.70373478608E+02  0.00000000000E+00 0.  1.
         -2   -1    0    0    0  501 -0.00000000000E+00 -0.00000000000E+00 -0.11161919898E+02  0.11161919898E+02  0.00000000000E+00 0. -1.
         21    1    1    2  502  503 -0.20297139100E+02  0.61088329406E+01  0.56277343334E+02  0.60136769686E+02  0.00000000000E+00 0.  1.
         21    1    1    2  503  501  0.20297139100E+02 -0.61088329406E+01  0.29342153765E+01  0.21398628821E+02  0.00000000000E+00 0. -1.
</event>
<event>
 4    1  0.5568520E+002  0.2319858E+02  0.7546771E-02  0.1490020E+00
          2   -1    0    0  502    0  0.00000000000E+00  0.00000000000E+00  0.41010954798E+03  0.41010954798E+03  0.00000000000E+00 0.  1.
         -2   -1    0    0    0  501 -0.00000000000E+00 -0.00000000000E+00 -0.30406012575E+01  0.30406012575E+01  0.00000000000E+00 0. -1.
         21    1    1    2  502  503 -0.18428143426E+02  0.14091750361E+02  0.35927866039E+03  0.36002684582E+03  0.00000000000E+00 0.  1.
         21    1    1    2  503  501  0.18428143426E+02 -0.14091750361E+02  0.47790286331E+02  0.53123303418E+02  0.00000000000E+00 0. -1.
</event>
<event>
 4    1  0.5568520E+002  0.2833017E+02  0.7546771E-02  0.1434685E+00
          2   -1    0    0  503    0  0.00000000000E+00  0.00000000000E+00  0.52501131600E+03  0.52501131600E+03  0.00000000000E+00 0. -1.
         -2   -1    0    0    0  501 -0.00000000000E+00 -0.00000000000E+00 -0.16997056646E+01  0.16997056646E+01  0.00000000000E+00 0.  1.
         21    1    1    2  502  501  0.25296566810E+02 -0.12754703959E+02  0.17812877989E+03  0.18036757190E+03  0.00000000000E+00 0. -1.
         21    1    1    2  503  502 -0.25296566810E+02  0.12754703959E+02  0.34518283044E+03  0.34634344977E+03  0.00000000000E+00 0.  1.
</event>
<event>
 4    1  0.5568520E+002  0.2650447E+02  0.7546771E-02  0.1452650E+00
          2   -1    0    0  502    0  0.00000000000E+00  0.00000000000E+00  0.45730073132E+03  0.45730073132E+03  0.00000000000E+00 0. -1.
         -2   -1    0    0    0  501 -0.00000000000E+00 -0.00000000000E+00 -0.19541332538E+01  0.19541332538E+01  0.00000000000E+00 0.  1.
         21    1    1    2  502  503 -0.24670301802E+02  0.96882968762E+01  0.33387247814E+03  0.33492285462E+03  0.00000000000E+00 0. -1.
         21    1    1    2  503  501  0.24670301802E+02 -0.96882968762E+01  0.12147411992E+03  0.12433200995E+03  0.00000000000E+00 0.  1.
</event>
<event>
 4    1  0.5568520E+002  0.2092491E+02  0.7546771E-02  0.1520340E+00
          2   -1    0    0  503    0  0.00000000000E+00  0.00000000000E+00  0.42180298522E+02  0.42180298522E+02  0.00000000000E+00 0.  1.
         -2   -1    0    0    0  501 -0.00000000000E+00 -0.00000000000E+00 -0.31937759323E+02  0.31937759323E+02  0.00000000000E+00 0. -1.
         21    1    1    2  502  501  0.16334210796E+02  0.13078426660E+02 -0.25325330412E+02  0.32851545576E+02  0.00000000000E+00 0. -1.
         21    1    1    2  503  502 -0.16334210796E+02 -0.13078426660E+02  0.35567869611E+02  0.41266512269E+02  0.00000000000E+00 0.  1.
</event>
<event>
 4    1  0.5568520E+002  0.1074243E+03  0.7546771E-02  0.1151529E+00
          2   -1    0    0  502    0  0.00000000000E+00  0.00000000000E+00  0.10813008192E+03  0.10813008192E+03  0.00000000000E+00 0. -1.
         -2   -1    0    0    0  501 -0.00000000000E+00 -0.00000000000E+00 -0.10757625367E+03  0.10757625367E+03  0.00000000000E+00 0.  1.
         21    1    1    2  502  503 -0.14699916007E+02 -0.10641377219E+03 -0.93278392960E+01  0.10782850749E+03  0.00000000000E+00 0. -1.
         21    1    1    2  503  501  0.14699916007E+02  0.10641377219E+03  0.98816675484E+01  0.10787782810E+03  0.00000000000E+00 0.  1.
</event>
<event>
 4    1  0.5568520E+002  0.2275960E+02  0.7546771E-02  0.1495539E+00
          2   -1    0    0  502    0  0.00000000000E+00  0.00000000000E+00  0.50454038301E+03  0.50454038301E+03  0.00000000000E+00 0. -1.
         -2   -1    0    0    0  501 -0.00000000000E+00 -0.00000000000E+00 -0.10572720661E+01  0.10572720661E+01  0.00000000000E+00 0.  1.
         21    1    1    2  502  503  0.22579232208E+02 -0.28596478279E+01  0.29474637576E+03  0.29562379021E+03  0.00000000000E+00 0. -1.
         21    1    1    2  503  501 -0.22579232208E+02  0.28596478279E+01  0.20873673518E+03  0.20997386487E+03  0.00000000000E+00 0.  1.
</event>
<event>
 4    1  0.5568520E+002  0.2226528E+02  0.7546771E-02  0.1501936E+00
          2   -1    0    0  503    0  0.00000000000E+00  0.00000000000E+00  0.43176946253E+00  0.43176946253E+00  0.00000000000E+00 0.  1.
         -2   -1    0    0    0  501 -0.00000000000E+00 -0.00000000000E+00 -0.14972843933E+04  0.14972843933E+04  0.00000000000E+00 0. -1.
         21    1    1    2  502  501 -0.21717924084E+02 -0.49065807033E+01 -0.11100310446E+04  0.11102543235E+04  0.00000000000E+00 0. -1.
         21    1    1    2  503  502  0.21717924084E+02  0.49065807033E+01 -0.38682157923E+03  0.38746183930E+03  0.00000000000E+00 0.  1.
</event>
<event>
 4    1  0.5568520E+002  0.2630374E+02  0.7546771E-02  0.1454730E+00
          2   -1    0    0  502    0  0.00000000000E+00  0.00000000000E+00  0.77302021494E+00  0.77302021494E+00  0.00000000000E+00 0. -1.
         -2   -1    0    0    0  501 -0.00000000000E+00 -0.00000000000E+00 -0.99979169978E+03  0.99979169978E+03  0.00000000000E+00 0.  1.
         21    1    1    2  502  503 -0.10061664137E+01 -0.26284488763E+02 -0.33757695718E+03  0.33860019011E+03  0.00000000000E+00 0.  1.
         21    1    1    2  503  501  0.10061664137E+01  0.26284488763E+02 -0.66144172238E+03  0.66196452988E+03  0.00000000000E+00 0. -1.
</event>
<event>
 4    1  0.5568520E+002  0.3182096E+02  0.7546771E-02  0.1404406E+00
          2   -1    0    0  503    0  0.00000000000E+00  0.00000000000E+00  0.13202326731E+04  0.13202326731E+04  0.00000000000E+00 0.  1.
         -2   -1    0    0    0  501 -0.00000000000E+00 -0.00000000000E+00 -0.30586374040E+01  0.30586374040E+01  0.00000000000E+00 0. -1.
         21    1    1    2  502  501  0.26789332149E+02  0.17172797277E+02  0.85873200674E+02  0.91579363818E+02  0.00000000000E+00 0. -1.
         21    1    1    2  503  502 -0.26789332149E+02 -0.17172797277E+02  0.12313008350E+04  0.12317119466E+04  0.00000000000E+00 0.  1.
</event>
<event>
 4    1  0.5568520E+002  0.2638878E+02  0.7546771E-02  0.1453846E+00
          2   -1    0    0  502    0  0.00000000000E+00  0.00000000000E+00  0.66991959275E+01  0.66991959275E+01  0.00000000000E+00 0. -1.
         -2   -1    0    0    0  501 -0.00000000000E+00 -0.00000000000E+00 -0.20967873436E+03  0.20967873436E+03  0.00000000000E+00 0.  1.
         21    1    1    2  502  503 -0.74736359418E+01  0.25308348606E+02 -0.24664077002E+02  0.36120415801E+02  0.00000000000E+00 0. -1.
         21    1    1    2  503  501  0.74736359418E+01 -0.25308348606E+02 -0.17831546143E+03  0.18025751448E+03  0.00000000000E+00 0.  1.
</event>
<event>
 4    1  0.5568520E+002  0.2433612E+02  0.7546771E-02  0.1476369E+00
          2   -1    0    0  503    0  0.00000000000E+00  0.00000000000E+00  0.16481541851E+03  0.16481541851E+03  0.00000000000E+00 0.  1.
         -2   -1    0    0    0  501 -0.00000000000E+00 -0.00000000000E+00 -0.92424846510E+01  0.92424846510E+01  0.00000000000E+00 0. -1.
         21    1    1    2  502  501  0.52057538044E+01  0.23772814153E+02  0.97473459104E+01  0.26215593026E+02  0.00000000000E+00 0. -1.
         21    1    1    2  503  502 -0.52057538044E+01 -0.23772814153E+02  0.14582558795E+03  0.14784231013E+03  0.00000000000E+00 0.  1.
</event>
<event>
 4    1  0.5568520E+002  0.2079593E+02  0.7546771E-02  0.1522199E+00
          2   -1    0    0  502    0  0.00000000000E+00  0.00000000000E+00  0.94044231850E+03  0.94044231850E+03  0.00000000000E+00 0. -1.
         -2   -1    0    0    0  501 -0.00000000000E+00 -0.00000000000E+00 -0.24755076725E+01  0.24755076725E+01  0.00000000000E+00 0.  1.
         21    1    1    2  502  503  0.12520489996E+02  0.16604453234E+02  0.89440464450E+03  0.89464637630E+03  0.00000000000E+00 0. -1.
         21    1    1    2  503  501 -0.12520489996E+02 -0.16604453234E+02  0.43562166327E+02  0.48271449864E+02  0.00000000000E+00 0.  1.
</event>
<event>
 4    1  0.5568520E+002  0.2780483E+02  0.7546771E-02  0.1439687E+00
          2   -1    0    0  503    0  0.00000000000E+00  0.00000000000E+00  0.71118909518E+03  0.71118909518E+03  0.00000000000E+00 0.  1.
         -2   -1    0    0    0  501 -0.00000000000E+00 -0.00000000000E+00 -0.11087721554E+01  0.11087721554E+01  0.00000000000E+00 0. -1.
         21    1    1    2  502  501  0.92519866918E+01  0.26220395025E+02  0.30520709785E+03  0.30647101159E+03  0.00000000000E+00 0. -1.
         21    1    1    2  503  502 -0.92519866918E+01 -0.26220395025E+02  0.40487322518E+03  0.40582685574E+03  0.00000000000E+00 0.  1.
</event>
<event>
 4    1  0.5568520E+002  0.2750901E+02  0.7546771E-02  0.1442561E+00
          2   -1    0    0  502    0  0.00000000000E+00  0.00000000000E+00  0.40111337141E+03  0.40111337141E+03  0.00000000000E+00 0. -1.
         -2   -1    0    0    0  501 -0.00000000000E+00 -0.00000000000E+00 -0.20749484182E+01  0.20749484182E+01  0.00000000000E+00 0.  1.
         21    1    1    2  502  503  0.93086315801E+01  0.25886191398E+02  0.13878396552E+03  0.14148404367E+03  0.00000000000E+00 0.  1.
         21    1    1    2  503  501 -0.93086315801E+01 -0.25886191398E+02  0.26025445747E+03  0.26170427616E+03  0.00000000000E+00 0. -1.
</event>
<event>
 4    1  0.5568520E+002  0.2290534E+02  0.7546771E-02  0.1493690E+00
          2   -1    0    0  503    0  0.00000000000E+00  0.00000000000E+00  0.10633502800E+02  0.10633502800E+02  0.00000000000E+00 0. -1.
         -2   -1    0    0    0  501 -0.00000000000E+00 -0.00000000000E+00 -0.73711527151E+02  0.73711527151E+02  0.00000000000E+00 0.  1.
         21    1    1    2  502  501 -0.22100836566E+02 -0.60172740150E+01 -0.55788648708E+02  0.60307776349E+02  0.00000000000E+00 0.  1.
         21    1    1    2  503  502  0.22100836566E+02  0.60172740150E+01 -0.72893756431E+01  0.24037253603E+02  0.00000000000E+00 0. -1.
</event>
<event>
 4    1  0.5568520E+002  0.2629865E+02  0.7546771E-02  0.1454783E+00
          2   -1    0    0  503    0  0.00000000000E+00  0.00000000000E+00  0.24119583637E+04  0.24119583637E+04  0.00000000000E+00 0. -1.
         -2   -1    0    0    0  501 -0.00000000000E+00 -0.00000000000E+00 -0.33074904555E+00  0.33074904555E+00  0.00000000000E+00 0.  1.
         21    1    1    2  502  501 -0.20563302878E+02  0.16394187042E+02  0.76587457199E+03  0.76632596120E+03  0.00000000000E+00 0.  1.
         21    1    1    2  503  502  0.20563302878E+02 -0.16394187042E+02  0.16457530427E+04  0.16459631515E+04  0.00000000000E+00 0. -1.
</event>
<event>
 4    1  0.5568520E+002  0.2035426E+02  0.7546771E-02  0.1528687E+00
          2   -1    0    0  503    0  0.00000000000E+00  0.00000000000E+00  0.45776809497E+02  0.45776809497E+02  0.00000000000E+00 0. -1.
         -2   -1    0    0    0  501 -0.00000000000E+00 -0.00000000000E+00 -0.18931913265E+02  0.18931913265E+02  0.00000000000E+00 0.  1.
         21    1    1    2  502  501 -0.97134627603E+01  0.17886999093E+02 -0.99523803156E+01  0.22657139477E+02  0.00000000000E+00 0.  1.
         21    1    1    2  503  502  0.97134627603E+01 -0.17886999093E+02  0.36797276548E+02  0.42051583284E+02  0.00000000000E+00 0. -1.
</event>
<event>
 4    1  0.5568520E+002  0.2042637E+02  0.7546771E-02  0.1527615E+00
          2   -1    0    0  503    0  0.00000000000E+00  0.00000000000E+00  0.33351318580E+03  0.33351318580E+03  0.00000000000E+00 0. -1.
         -2   -1    0    0    0  501 -0.00000000000E+00 -0.00000000000E+00 -0.37543382723E+01  0.37543382723E+01  0.00000000000E+00 0.  1.
         21    1    1    2  502  501 -0.19749821292E+02 -0.52135425597E+01  0.27179210050E+02  0.33999204785E+02  0.00000000000E+00 0.  1.
         21    1    1    2  503  502  0.19749821292E+02  0.52135425597E+01  0.30257963748E+03  0.30326831929E+03  0.00000000000E+00 0. -1.
</event>
<event>
 4    1  0.5568520E+002  0.2068582E+02  0.7546771E-02  0.1523798E+00
          2   -1    0    0  502    0  0.00000000000E+00  0.00000000000E+00  0.11555834615E+03  0.11555834615E+03  0.00000000000E+00 0. -1.
         -2   -1    0    0    0  501 -0.00000000000E+00 -0.00000000000E+00 -0.42695166365E+01  0.42695166365E+01  0.00000000000E+00 0.  1.
         21    1    1    2  502  503 -0.16659796742E+02 -0.12261903126E+02  0.77470516379E+02  0.80184686841E+02  0.00000000000E+00 0. -1.
         21    1    1    2  503  501  0.16659796742E+02  0.12261903126E+02  0.33818313130E+02  0.39643175941E+02  0.00000000000E+00 0.  1.
</event>
<event>
 4    1  0.5568520E+002  0.3236750E+02  0.7546771E-02  0.1400079E+00
          2   -1    0    0  503    0  0.00000000000E+00  0.00000000000E+00  0.27126450017E+02  0.27126450017E+02  0.00000000000E+00 0. -1.
         -2   -1    0    0    0  501 -0.00000000000E+00 -0.00000000000E+00 -0.39176042071E+02  0.39176042071E+02  0.00000000000E+00 0.  1.
         21    1    1    2  502  501  0.31609254714E+02 -0.69649069597E+01 -0.99701929383E+01  0.33868269217E+02  0.00000000000E+00 0. -1.
         21    1    1    2  503  502 -0.31609254714E+02  0.69649069597E+01 -0.20793991158E+01  0.32434222870E+02  0.00000000000E+00 0.  1.
</event>
<event>
 4    1  0.5568520E+002  0.3338716E+02  0.7546771E-02  0.1392271E+00
          2   -1    0    0  502    0  0.00000000000E+00  0.00000000000E+00  0.86129699572E+03  0.86129699572E+03  0.00000000000E+00 0. -1.
         -2   -1    0    0    0  501 -0.00000000000E+00 -0.00000000000E+00 -0.24716292146E+01  0.24716292146E+01  0.00000000000E+00 0.  1.
         21    1    1    2  502  503 -0.14220337549E+02 -0.30207361726E+02  0.72749799429E+03  0.72826371213E+03  0.00000000000E+00 0. -1.
         21    1    1    2  503  501  0.14220337549E+02  0.30207361726E+02  0.13132737221E+03  0.13550491281E+03  0.00000000000E+00 0.  1.
</event>
<event>
 4    1  0.5568520E+002  0.2001194E+02  0.7546771E-02  0.1533853E+00
          2   -1    0    0  502    0  0.00000000000E+00  0.00000000000E+00  0.11351257734E+04  0.11351257734E+04  0.00000000000E+00 0. -1.
         -2   -1    0    0    0  501 -0.00000000000E+00 -0.00000000000E+00 -0.78858585185E+00  0.78858585185E+00  0.00000000000E+00 0.  1.
         21    1    1    2  502  503 -0.10243342603E+02  0.17191621730E+02  0.98937539903E+03  0.98957776760E+03  0.00000000000E+00 0. -1.
         21    1    1    2  503  501  0.10243342603E+02 -0.17191621730E+02  0.14496178849E+03  0.14633659163E+03  0.00000000000E+00 0.  1.
</event>
<event>
 4    1  0.5568520E+002  0.5357526E+02  0.7546771E-02  0.1283373E+00
          2   -1    0    0  502    0  0.00000000000E+00  0.00000000000E+00  0.32680345792E+02  0.32680345792E+02  0.00000000000E+00 0.  1.
         -2   -1    0    0    0  501 -0.00000000000E+00 -0.00000000000E+00 -0.13233609759E+03  0.13233609759E+03  0.00000000000E+00 0. -1.
         21    1    1    2  502  503 -0.39272905255E+02 -0.36441008275E+02 -0.19793229551E+01  0.53611807381E+02  0.00000000000E+00 0.  1.
         21    1    1    2  503  501  0.39272905255E+02  0.36441008275E+02 -0.97676428846E+02  0.11140463600E+03  0.00000000000E+00 0. -1.
</event>
<event>
 4    1  0.5568520E+002  0.4065378E+02  0.7546771E-02  0.1344697E+00
          2   -1    0    0  503    0  0.00000000000E+00  0.00000000000E+00  0.19445089786E+03  0.19445089786E+03  0.00000000000E+00 0.  1.
         -2   -1    0    0    0  501 -0.00000000000E+00 -0.00000000000E+00 -0.14879315693E+02  0.14879315693E+02  0.00000000000E+00 0. -1.
         21    1    1    2  502  501 -0.38643781403E+02  0.12624900142E+02  0.21250310263E+02  0.45872711179E+02  0.00000000000E+00 0. -1.
         21    1    1    2  503  502  0.38643781403E+02 -0.12624900142E+02  0.15832127190E+03  0.16345750237E+03  0.00000000000E+00 0.  1.
</event>
<event>
 4    1  0.5568520E+002  0.4725110E+02  0.7546771E-02  0.1310552E+00
          2   -1    0    0  502    0  0.00000000000E+00  0.00000000000E+00  0.24325190448E+04  0.24325190448E+04  0.00000000000E+00 0. -1.
         -2   -1    0    0    0  501 -0.00000000000E+00 -0.00000000000E+00 -0.12293412444E+01  0.12293412444E+01  0.00000000000E+00 0.  1.
         21    1    1    2  502  503 -0.29432997925E+02  0.36964380348E+02  0.18281903384E+04  0.18288008586E+04  0.00000000000E+00 0. -1.
         21    1    1    2  503  501  0.29432997925E+02 -0.36964380348E+02  0.60309936516E+03  0.60494752751E+03  0.00000000000E+00 0.  1.
</event>
<event>
 4    1  0.5568520E+002  0.2386218E+02  0.7546771E-02  0.1481946E+00
          2   -1    0    0  502    0  0.00000000000E+00  0.00000000000E+00  0.22845335630E+03  0.22845335630E+03  0.00000000000E+00 0.  1.
         -2   -1    0    0    0  501 -0.00000000000E+00 -0.00000000000E+00 -0.81215191417E+01  0.81215191417E+01  0.00000000000E+00 0. -1.
         21    1    1    2  502  503  0.22635408845E+02 -0.75526175610E+01  0.20864388931E+03  0.21000399118E+03  0.00000000000E+00 0.  1.
         21    1    1    2  503  501 -0.22635408845E+02  0.75526175610E+01  0.11687947852E+02  0.26570884264E+02  0.00000000000E+00 0. -1.
</event>
<event>
 4    1  0.5568520E+002  0.2100285E+02  0.7546771E-02  0.1519224E+00
          2   -1    0    0  503    0  0.00000000000E+00  0.00000000000E+00  0.77718813972E+03  0.77718813972E+03  0.00000000000E+00 0.  1.
         -2   -1    0    0    0  501 -0.00000000000E+00 -0.00000000000E+00 -0.30797984292E+01  0.30797984292E+01  0.00000000000E+00 0. -1.
         21    1    1    2  502  501 -0.12726983706E+02  0.16707596372E+02  0.34698768059E+02  0.40560133082E+02  0.00000000000E+00 0. -1.
         21    1    1    2  503  502  0.12726983706E+02 -0.16707596372E+02  0.73940957323E+03  0.73970780507E+03  0.00000000000E+00 0.  1.
</event>
<event>
 4    1  0.5568520E+002  0.4088210E+02  0.7546771E-02  0.1343393E+00
          2   -1    0    0  503    0  0.00000000000E+00  0.00000000000E+00  0.14955363404E+04  0.14955363404E+04  0.00000000000E+00 0. -1.
         -2   -1    0    0    0  501 -0.00000000000E+00 -0.00000000000E+00 -0.11197329129E+01  0.11197329129E+01  0.00000000000E+00 0.  1.
         21    1    1    2  502  501  0.32418906063E+02 -0.24907032387E+02  0.71421337720E+03  0.71538248085E+03  0.00000000000E+00 0.  1.
         21    1    1    2  503  502 -0.32418906063E+02  0.24907032387E+02  0.78020323032E+03  0.78127359250E+03  0.00000000000E+00 0. -1.
</event>
<event>
 4    1  0.5568520E+002  0.2228190E+02  0.7546771E-02  0.1501718E+00
          2   -1    0    0  502    0  0.00000000000E+00  0.00000000000E+00  0.87243594606E+03  0.87243594606E+03  0.00000000000E+00 0.  1.
         -2   -1    0    0    0  501 -0.00000000000E+00 -0.00000000000E+00 -0.78714484824E+00  0.78714484824E+00  0.00000000000E+00 0. -1.
         21    1    1    2  502  503  0.22269751113E+02 -0.73582010977E+00  0.66563163117E+03  0.66600446820E+03  0.00000000000E+00 0.  1.
         21    1    1    2  503  501 -0.22269751113E+02  0.73582010977E+00  0.20601717004E+03  0.20721862271E+03  0.00000000000E+00 0. -1.
</event>
<event>
 4    1  0.5568520E+002  0.2701165E+02  0.7546771E-02  0.1447491E+00
          2   -1    0    0  502    0  0.00000000000E+00  0.00000000000E+00  0.54776451584E+03  0.54776451584E+03  0.00000000000E+00 0.  1.
         -2   -1    0    0    0  501 -0.00000000000E+00 -0.00000000000E+00 -0.15941916833E+01  0.15941916833E+01  0.00000000000E+00 0. -1.
         21    1    1    2  502  503 -0.13777346929E+02 -0.23233892959E+02  0.38447742315E+03  0.38542511332E+03  0.00000000000E+00 0.  1.
         21    1    1    2  503  501  0.13777346929E+02  0.23233892959E+02  0.16169290101E+03  0.16393359420E+03  0.00000000000E+00 0. -1.
</event>
<event>
 4    1  0.5568520E+002  0.2132922E+02  0.7546771E-02  0.1514616E+00
          2   -1    0    0  502    0  0.00000000000E+00  0.00000000000E+00  0.14252446218E+04  0.14252446218E+04  0.00000000000E+00 0. -1.
         -2   -1    0    0    0  501 -0.00000000000E+00 -0.00000000000E+00 -0.33397475946E+00  0.33397475946E+00  0.00000000000E+00 0.  1.
         21    1    1    2  502  503 -0.50412215691E+01  0.20724905615E+02  0.56252486180E+03  0.56292908592E+03  0.00000000000E+00 0.  1.
         21    1    1    2  503  501  0.50412215691E+01 -0.20724905615E+02  0.86238578528E+03  0.86264951068E+03  0.00000000000E+00 0. -1.
</event>
<event>
 4    1  0.5568520E+002  0.2593875E+02  0.7546771E-02  0.1458570E+00
          2   -1    0    0  502    0  0.00000000000E+00  0.00000000000E+00  0.34643434139E+01  0.34643434139E+01  0.00000000000E+00 0. -1.
         -2   -1    0    0    0  501 -0.00000000000E+00 -0.00000000000E+00 -0.19459430392E+03  0.19459430392E+03  0.00000000000E+00 0.  1.
         21    1    1    2  502  503 -0.26484358542E+01  0.25803186615E+02 -0.91178234446E+02  0.94796039414E+02  0.00000000000E+00 0.  1.
         21    1    1    2  503  501  0.26484358542E+01 -0.25803186615E+02 -0.99951726062E+02  0.10326260792E+03  0.00000000000E+00 0. -1.
</event>
<event>
 4    1  0.5568520E+002  0.2621953E+02  0.7546771E-02  0.1455610E+00
          2   -1    0    0  502    0  0.00000000000E+00  0.00000000000E+00  0.23376766115E+03  0.23376766115E+03  0.00000000000E+00 0.  1.
         -2   -1    0    0    0  501 -0.00000000000E+00 -0.00000000000E+00 -0.47053952898E+01  0.47053952898E+01  0.00000000000E+00 0. -1.
         21    1    1    2  502  503 -0.44145797113E+01  0.25845221347E+02  0.18754978322E+03  0.18937366545E+03  0.00000000000E+00 0.  1.
         21    1    1    2  503  501  0.44145797113E+01 -0.25845221347E+02  0.41512482642E+02  0.49099390990E+02  0.00000000000E+00 0. -1.
</event>
<event>
 4    1  0.5568520E+002  0.3812313E+02  0.7546771E-02  0.1359850E+00
          2   -1    0    0  503    0  0.00000000000E+00  0.00000000000E+00  0.11862317724E+03  0.11862317724E+03  0.00000000000E+00 0. -1.
         -2   -1    0    0    0  501 -0.00000000000E+00 -0.00000000000E+00 -0.12365247236E+02  0.12365247236E+02  0.00000000000E+00 0.  1.
         21    1    1    2  502  501  0.38064263106E+02 -0.21177286541E+01  0.46861566465E+02  0.60410092799E+02  0.00000000000E+00 0.  1.
         21    1    1    2  503  502 -0.38064263106E+02  0.21177286541E+01  0.59396363537E+02  0.70578331674E+02  0.00000000000E+00 0. -1.
</event>
<event>
 4    1  0.5568520E+002  0.2121726E+02  0.7546771E-02  0.1516185E+00
          2   -1    0    0  502    0  0.00000000000E+00  0.00000000000E+00  0.27892162290E+03  0.27892162290E+03  0.00000000000E+00 0.  1.
         -2   -1    0    0    0  501 -0.00000000000E+00 -0.00000000000E+00 -0.67888910198E+01  0.67888910198E+01  0.00000000000E+00 0. -1.
         21    1    1    2  502  503 -0.19676377084E+02  0.79380239040E+01  0.26078993634E+03  0.26165160602E+03  0.00000000000E+00 0.  1.
         21    1    1    2  503  501  0.19676377084E+02 -0.79380239040E+01  0.11342795546E+02  0.24058907902E+02  0.00000000000E+00 0. -1.
</event>
<event>
 4    1  0.5568520E+002  0.2246210E+02  0.7546771E-02  0.1499365E+00
          2   -1    0    0  502    0  0.00000000000E+00  0.00000000000E+00  0.69277937467E+01  0.69277937467E+01  0.00000000000E+00 0.  1.
         -2   -1    0    0    0  501 -0.00000000000E+00 -0.00000000000E+00 -0.13852554232E+03  0.13852554232E+03  0.00000000000E+00 0. -1.
         21    1    1    2  502  503  0.66212491490E+01  0.21464044060E+02 -0.15714858784E+02  0.27413553478E+02  0.00000000000E+00 0.  1.
         21    1    1    2  503  501 -0.66212491490E+01 -0.21464044060E+02 -0.11588288979E+03  0.11803978259E+03  0.00000000000E+00 0. -1.
</event>
<event>
 4    1  0.5568520E+002  0.2747085E+02  0.7546771E-02  0.1442935E+00
          2   -1    0    0  502    0  0.00000000000E+00  0.00000000000E+00  0.51975440927E+01  0.51975440927E+01  0.00000000000E+00 0. -1.
         -2   -1    0    0    0  501 -0.00000000000E+00 -0.00000000000E+00 -0.14620013402E+03  0.14620013402E+03  0.00000000000E+00 0.  1.
         21    1    1    2  502  503  0.27464011643E+02  0.61293672977E+00 -0.64218776638E+02  0.69847683568E+02  0.00000000000E+00 0. -1.
         21    1    1    2  503  501 -0.27464011643E+02 -0.61293672977E+00 -0.76783813294E+02  0.81549994549E+02  0.00000000000E+00 0.  1.
</event>
<event>
 4    1  0.5568520E+002  0.2403613E+02  0.7546771E-02  0.1479882E+00
          2   -1    0    0  503    0  0.00000000000E+00  0.00000000000E+00  0.12371909966E+02  0.12371909966E+02  0.00000000000E+00 0.  1.
         -2   -1    0    0    0  501 -0.00000000000E+00 -0.00000000000E+00 -0.48227962994E+02  0.48227962994E+02  0.00000000000E+00 0. -1.
         21    1    1    2  502  501  0.73116826424E+01 -0.22897044033E+02 -0.12530113405E+02  0.27106070730E+02  0.00000000000E+00 0.  1.
         21    1    1    2  503  502 -0.73116826424E+01  0.22897044033E+02 -0.23325939623E+02  0.33493802229E+02  0.00000000000E+00 0. -1.
</event>
<event>
 4    1  0.5568520E+002  0.2142053E+02  0.7546771E-02  0.1513345E+00
          2   -1    0    0  502    0  0.00000000000E+00  0.00000000000E+00  0.21363383756E+02  0.21363383756E+02  0.00000000000E+00 0. -1.
         -2   -1    0    0    0  501 -0.00000000000E+00 -0.00000000000E+00 -0.35112540880E+02  0.35112540880E+02  0.00000000000E+00 0.  1.
         21    1    1    2  502  503  0.11114674041E+02  0.18311285587E+02  0.10721875759E+02  0.23954076453E+02  0.00000000000E+00 0. -1.
         21    1    1    2  503  501 -0.11114674041E+02 -0.18311285587E+02 -0.24471032882E+02  0.32521848183E+02  0.00000000000E+00 0.  1.
</event>
<event>
 4    1  0.5568520E+002  0.1442597E+03  0.7546771E-02  0.1103650E+00
          2   -1    0    0  502    0  0.00000000000E+00  0.00000000000E+00  0.17403247352E+04  0.17403247352E+04  0.00000000000E+00 0. -1.
         -2   -1    0    0    0  501 -0.00000000000E+00 -0.00000000000E+00 -0.12810393629E+02  0.12810393629E+02  0.00000000000E+00 0.  1.
         21    1    1    2  502  503 -0.12048297918E+02  0.14375568211E+03  0.10898653578E+04  0.10993713457E+04  0.00000000000E+00 0.  1.
         21    1    1    2  503  501  0.12048297918E+02 -0.14375568211E+03  0.63764898381E+03  0.65376378316E+03  0.00000000000E+00 0. -1.
</event>
<event>
 4    1  0.5568520E+002  0.2179677E+02  0.7546771E-02  0.1508186E+00
          2   -1    0    0  502    0  0.00000000000E+00  0.00000000000E+00  0.21843083374E+02  0.21843083374E+02  0.00000000000E+00 0. -1.
         -2   -1    0    0    0  501 -0.00000000000E+00 -0.00000000000E+00 -0.37259264910E+02  0.37259264910E+02  0.00000000000E+00 0.  1.
         21    1    1    2  502  503  0.21741736733E+02  0.15479498059E+01  0.11357285727E+02  0.24578185528E+02  0.00000000000E+00 0. -1.
         21    1    1    2  503  501 -0.21741736733E+02 -0.15479498059E+01 -0.26773467263E+02  0.34524162757E+02  0.00000000000E+00 0.  1.
</event>
<event>
 4    1  0.5568520E+002  0.2713983E+02  0.7546771E-02  0.1446209E+00
          2   -1    0    0  502    0  0.00000000000E+00  0.00000000000E+00  0.60562683535E+03  0.60562683535E+03  0.00000000000E+00 0.  1.
         -2   -1    0    0    0  501 -0.00000000000E+00 -0.00000000000E+00 -0.13210177768E+01  0.13210177768E+01  0.00000000000E+00 0. -1.
         21    1    1    2  502  503  0.13542093982E+02  0.23519822944E+02  0.38763211849E+03  0.38858104646E+03  0.00000000000E+00 0. -1.
         21    1    1    2  503  501 -0.13542093982E+02 -0.23519822944E+02  0.21667369909E+03  0.21836680667E+03  0.00000000000E+00 0.  1.
</event>
<event>
 4    1  0.5568520E+002  0.2294437E+02  0.7546771E-02  0.1493198E+00
          2   -1    0    0  503    0  0.00000000000E+00  0.00000000000E+00  0.53076888685E+02  0.53076888685E+02  0.00000000000E+00 0.  1.
         -2   -1    0    0    0  501 -0.00000000000E+00 -0.00000000000E+00 -0.14986941867E+02  0.14986941867E+02  0.00000000000E+00 0. -1.
         21    1    1    2  502  501 -0.17115497259E+02  0.15280836971E+02 -0.74595752745E+00  0.22956495325E+02  0.00000000000E+00 0. -1.
         21    1    1    2  503  502  0.17115497259E+02 -0.15280836971E+02  0.38835904345E+02  0.45107335227E+02  0.00000000000E+00 0.  1.
</event>
<event>
 4    1  0.5568520E+002  0.4230618E+02  0.7546771E-02  0.1335477E+00
          2   -1    0    0  502    0  0.00000000000E+00  0.00000000000E+00  0.13516483909E+03  0.13516483909E+03  0.00000000000E+00 0.  1.
         -2   -1    0    0    0  501 -0.00000000000E+00 -0.00000000000E+00 -0.13525360153E+02  0.13525360153E+02  0.00000000000E+00 0. -1.
         21    1    1    2  502  503  0.11718168693E+01  0.42289947166E+02  0.50053251534E+02  0.65537323527E+02  0.00000000000E+00 0. -1.
         21    1    1    2  503  501 -0.11718168693E+01 -0.42289947166E+02  0.71586227401E+02  0.83152875714E+02  0.00000000000E+00 0.  1.
</event>
<event>
 4    1  0.5568520E+002  0.2783367E+02  0.7546771E-02  0.1439409E+00
          2   -1    0    0  502    0  0.00000000000E+00  0.00000000000E+00  0.19822056445E+03  0.19822056445E+03  0.00000000000E+00 0. -1.
         -2   -1    0    0    0  501 -0.00000000000E+00 -0.00000000000E+00 -0.68230428894E+01  0.68230428894E+01  0.00000000000E+00 0.  1.
         21    1    1    2  502  503  0.55797506987E+00  0.27828075056E+02  0.16270641773E+03  0.16506995931E+03  0.00000000000E+00 0.  1.
         21    1    1    2  503  501 -0.55797506987E+00 -0.27828075056E+02  0.28691103836E+02  0.39973648030E+02  0.00000000000E+00 0. -1.
</event>
<event>
 4    1  0.5568520E+002  0.2115718E+02  0.7546771E-02  0.1517032E+00
          2   -1    0    0  502    0  0.00000000000E+00  0.00000000000E+00  0.14836090683E+03  0.14836090683E+03  0.00000000000E+00 0.  1.
         -2   -1    0    0    0  501 -0.00000000000E+00 -0.00000000000E+00 -0.42324238009E+01  0.42324238009E+01  0.00000000000E+00 0. -1.
         21    1    1    2  502  503 -0.19194644337E+02  0.88989809247E+01  0.11294783930E+03  0.11491231716E+03  0.00000000000E+00 0.  1.
         21    1    1    2  503  501  0.19194644337E+02 -0.88989809247E+01  0.31180643726E+02  0.37681013467E+02  0.00000000000E+00 0. -1.
</event>
<event>
 4    1  0.5568520E+002  0.2566691E+02  0.7546771E-02  0.1461479E+00
          2   -1    0    0  502    0  0.00000000000E+00  0.00000000000E+00  0.10423835538E+02  0.10423835538E+02  0.00000000000E+00 0. -1.
         -2   -1    0    0    0  501 -0.00000000000E+00 -0.00000000000E+00 -0.13688486024E+03  0.13688486024E+03  0.00000000000E+00 0.  1.
         21    1    1    2  502  503  0.18690361345E+02 -0.17591487142E+02 -0.91913275852E+01  0.27262988278E+02  0.00000000000E+00 0. -1.
         21    1    1    2  503  501 -0.18690361345E+02  0.17591487142E+02 -0.11726969712E+03  0.12004570750E+03  0.00000000000E+00 0.  1.
</event>
<event>
 4    1  0.5568520E+002  0.2651231E+02  0.7546771E-02  0.1452570E+00
          2   -1    0    0  503    0  0.00000000000E+00  0.00000000000E+00  0.15869171715E+04  0.15869171715E+04  0.00000000000E+00 0. -1.
         -2   -1    0    0    0  501 -0.00000000000E+00 -0.00000000000E+00 -0.93846334513E+00  0.93846334513E+00  0.00000000000E+00 0.  1.
         21    1    1    2  502  501  0.22362604525E+02  0.14241365449E+02  0.21608180449E+03  0.21770220211E+03  0.00000000000E+00 0. -1.
         21    1    1    2  503  502 -0.22362604525E+02 -0.14241365449E+02  0.13698969037E+04  0.13701534328E+04  0.00000000000E+00 0.  1.
</event>
<event>
 4    1  0.5568520E+002  0.2063557E+02  0.7546771E-02  0.1524532E+00
          2   -1    0    0  502    0  0.00000000000E+00  0.00000000000E+00  0.37693400801E+03  0.37693400801E+03  0.00000000000E+00 0.  1.
         -2   -1    0    0    0  501 -0.00000000000E+00 -0.00000000000E+00 -0.18237831810E+01  0.18237831810E+01  0.00000000000E+00 0. -1.
         21    1    1    2  502  503 -0.11304120288E+02 -0.17263937461E+02  0.30438316794E+03  0.30508185720E+03  0.00000000000E+00 0.  1.
         21    1    1    2  503  501  0.11304120288E+02  0.17263937461E+02  0.70727056895E+02  0.73675933990E+02  0.00000000000E+00 0. -1.
</event>
<event>
 4    1  0.5568520E+002  0.3021785E+02  0.7546771E-02  0.1417713E+00
          2   -1    0    0  503    0  0.00000000000E+00  0.00000000000E+00  0.70772318068E+03  0.70772318068E+03  0.00000000000E+00 0. -1.
         -2   -1    0    0    0  501 -0.00000000000E+00 -0.00000000000E+00 -0.47950783816E+01  0.47950783816E+01  0.00000000000E+00 0.  1.
         21    1    1    2  502  501 -0.21304665658E+02  0.21429640212E+02  0.46882626013E+02  0.55777225462E+02  0.00000000000E+00 0.  1.
         21    1    1    2  503  502  0.21304665658E+02 -0.21429640212E+02  0.65604547629E+03  0.65674103360E+03  0.00000000000E+00 0. -1.
</event>
<event>
 4    1  0.5568520E+002  0.2119521E+02  0.7546771E-02  0.1516496E+00
          2   -1    0    0  502    0  0.00000000000E+00  0.00000000000E+00  0.45673340970E+03  0.45673340970E+03  0.00000000000E+00 0.  1.
         -2   -1    0    0    0  501 -0.00000000000E+00 -0.00000000000E+00 -0.13976707605E+01  0.13976707605E+01  0.00000000000E+00 0. -1.
         21    1    1    2  502  503 -0.13269539128E+02  0.16527445811E+02  0.35234916814E+03  0.35298608106E+03  0.00000000000E+00 0.  1.
         21    1    1    2  503  501  0.13269539128E+02 -0.16527445811E+02  0.10298657080E+03  0.10514499940E+03  0.00000000000E+00 0. -1.
</event>
<event>
 4    1  0.5568520E+002  0.2973074E+02  0.7546771E-02  0.1421951E+00
          2   -1    0    0  502    0  0.00000000000E+00  0.00000000000E+00  0.61432908211E+03  0.61432908211E+03  0.00000000000E+00 0. -1.
         -2   -1    0    0    0  501 -0.00000000000E+00 -0.00000000000E+00 -0.96391199718E+01  0.96391199718E+01  0.00000000000E+00 0.  1.
         21    1    1    2  502  503 -0.25362695403E+02 -0.15512916626E+02  0.59010357161E+03  0.59085204758E+03  0.00000000000E+00 0. -1.
         21    1    1    2  503  501  0.25362695403E+02  0.15512916626E+02  0.14586390525E+02  0.33116154501E+02  0.00000000000E+00 0.  1.
</event>
<event>
 4    1  0.5568520E+002  0.3453434E+02  0.7546771E-02  0.1383867E+00
          2   -1    0    0  502    0  0.00000000000E+00  0.00000000000E+00  0.61039187870E+03  0.61039187870E+03  0.00000000000E+00 0.  1.
         -2   -1    0    0    0  501 -0.00000000000E+00 -0.00000000000E+00 -0.41147717955E+01  0.41147717955E+01  0.00000000000E+00 0. -1.
         21    1    1    2  502  503  0.25892957710E+02  0.22851154355E+02  0.52579854867E+03  0.52693143226E+03  0.00000000000E+00 0.  1.
         21    1    1    2  503  501 -0.25892957710E+02 -0.22851154355E+02  0.80478558229E+02  0.87575218235E+02  0.00000000000E+00 0. -1.
</event>
<event>
 4    1  0.5568520E+002  0.2435210E+02  0.7546771E-02  0.1476184E+00
          2   -1    0    0  502    0  0.00000000000E+00  0.00000000000E+00  0.59452059282E+01  0.59452059282E+01  0.00000000000E+00 0.  1.
         -2   -1    0    0    0  501 -0.00000000000E+00 -0.00000000000E+00 -0.10882791144E+03  0.10882791144E+03  0.00000000000E+00 0. -1.
         21    1    1    2  502  503  0.19095681673E+02  0.15112233010E+02 -0.34865655212E+02  0.42528091404E+02  0.00000000000E+00 0.  1.
         21    1    1    2  503  501 -0.19095681673E+02 -0.15112233010E+02 -0.68017050299E+02  0.72245025964E+02  0.00000000000E+00 0. -1.
</event>
<event>
 4    1  0.5568520E+002  0.2516525E+02  0.7546771E-02  0.1466963E+00
          2   -1    0    0  503    0  0.00000000000E+00  0.00000000000E+00  0.34875165756E+02  0.34875165756E+02  0.00000000000E+00 0.  1.
         -2   -1    0    0    0  501 -0.00000000000E+00 -0.00000000000E+00 -0.19124468460E+02  0.19124468460E+02  0.00000000000E+00 0. -1.
         21    1    1    2  502  501 -0.37139521061E+01  0.24889687432E+02  0.18081563199E+01  0.25230129013E+02  0.00000000000E+00 0. -1.
         21    1    1    2  503  502  0.37139521061E+01 -0.24889687432E+02  0.13942540977E+02  0.28769505203E+02  0.00000000000E+00 0.  1.
</event>
<event>
 4    1  0.5568520E+002  0.9997653E+02  0.7546771E-02  0.1163849E+00
          2   -1    0    0  502    0  0.00000000000E+00  0.00000000000E+00  0.23173576131E+04  0.23173576131E+04  0.00000000000E+00 0.  1.
         -2   -1    0    0    0  501 -0.00000000000E+00 -0.00000000000E+00 -0.67050908986E+01  0.67050908986E+01  0.00000000000E+00 0. -1.
         21    1    1    2  502  503 -0.49095029065E+02  0.87091814124E+02  0.18493640134E+04  0.18520644050E+04  0.00000000000E+00 0.  1.
         21    1    1    2  503  501  0.49095029065E+02 -0.87091814124E+02  0.46128850876E+03  0.47199829902E+03  0.00000000000E+00 0. -1.
</event>
<event>
 4    1  0.5568520E+002  0.2023830E+02  0.7546771E-02  0.1530424E+00
          2   -1    0    0  503    0  0.00000000000E+00  0.00000000000E+00  0.47653352937E+02  0.47653352937E+02  0.00000000000E+00 0. -1.
         -2   -1    0    0    0  501 -0.00000000000E+00 -0.00000000000E+00 -0.64377836234E+02  0.64377836234E+02  0.00000000000E+00 0.  1.
         21    1    1    2  502  501  0.49630218660E+01 -0.19620322934E+02 -0.60504567271E+02  0.63799618485E+02  0.00000000000E+00 0.  1.
         21    1    1    2  503  502 -0.49630218660E+01  0.19620322934E+02  0.43780083975E+02  0.48231570687E+02  0.00000000000E+00 0. -1.
</event>
<event>
 4    1  0.5568520E+002  0.2351273E+02  0.7546771E-02  0.1486158E+00
          2   -1    0    0  503    0  0.00000000000E+00  0.00000000000E+00  0.40272039693E+03  0.40272039693E+03  0.00000000000E+00 0.  1.
         -2   -1    0    0    0  501 -0.00000000000E+00 -0.00000000000E+00 -0.13996471553E+01  0.13996471553E+01  0.00000000000E+00 0. -1.
         21    1    1    2  502  501  0.19014733951E+02 -0.13830710879E+02  0.17266807906E+03  0.17426162572E+03  0.00000000000E+00 0. -1.
         21    1    1    2  503  502 -0.19014733951E+02  0.13830710879E+02  0.22865267072E+03  0.22985841837E+03  0.00000000000E+00 0.  1.
</event>
<event>
 4    1  0.5568520E+002  0.2551880E+02  0.7546771E-02  0.1463082E+00
          2   -1    0    0  503    0  0.00000000000E+00  0.00000000000E+00  0.42130579395E+01  0.42130579395E+01  0.00000000000E+00 0. -1.
         -2   -1    0    0    0  501 -0.00000000000E+00 -0.00000000000E+00 -0.16106099478E+03  0.16106099478E+03  0.00000000000E+00 0.  1.
         21    1    1    2  502  501  0.23701523014E+02  0.94576403410E+01 -0.61833424550E+02  0.66892313053E+02  0.00000000000E+00 0. -1.
         21    1    1    2  503  502 -0.23701523014E+02 -0.94576403410E+01 -0.95014512288E+02  0.98381739664E+02  0.00000000000E+00 0.  1.
</event>
<event>
 4    1  0.5568520E+002  0.2106492E+02  0.7546771E-02  0.1518340E+00
          2   -1    0    0  503    0  0.00000000000E+00  0.00000000000E+00  0.35309823604E+02  0.35309823604E+02  0.00000000000E+00 0. -1.
         -2   -1    0    0    0  501 -0.00000000000E+00 -0.00000000000E+00 -0.29353802776E+02  0.29353802776E+02  0.00000000000E+00 0.  1.
         21    1    1    2  502  501  0.16613852550E+02 -0.12950321375E+02 -0.21472316213E+02  0.30079748732E+02  0.00000000000E+00 0.  1.
         21    1    1    2  503  502 -0.16613852550E+02  0.12950321375E+02  0.27428337041E+02  0.34583877647E+02  0.00000000000E+00 0. -1.
</event>
<event>
 4    1  0.5568520E+002  0.3528207E+02  0.7546771E-02  0.1378591E+00
          2   -1    0    0  503    0  0.00000000000E+00  0.00000000000E+00  0.23905385283E+04  0.23905385283E+04  0.00000000000E+00 0. -1.
         -2   -1    0    0    0  501 -0.00000000000E+00 -0.00000000000E+00 -0.69822496482E+00  0.69822496482E+00  0.00000000000E+00 0.  1.
         21    1    1    2  502  501 -0.34078929569E+02 -0.91351347925E+01  0.59209907904E+03  0.59314934336E+03  0.00000000000E+00 0.  1.
         21    1    1    2  503  502  0.34078929569E+02  0.91351347925E+01  0.17977412242E+04  0.17980874099E+04  0.00000000000E+00 0. -1.
</event>
<event>
 4    1  0.5568520E+002  0.2534644E+02  0.7546771E-02  0.1464965E+00
          2   -1    0    0  502    0  0.00000000000E+00  0.00000000000E+00  0.38310387572E+02  0.38310387572E+02  0.00000000000E+00 0. -1.
         -2   -1    0    0    0  501 -0.00000000000E+00 -0.00000000000E+00 -0.27476531333E+02  0.27476531333E+02  0.00000000000E+00 0.  1.
         21    1    1    2  502  503  0.74241679156E+01 -0.24234766070E+02  0.25950532659E+02  0.36274954183E+02  0.00000000000E+00 0. -1.
         21    1    1    2  503  501 -0.74241679156E+01  0.24234766070E+02 -0.15116676420E+02  0.29511964721E+02  0.00000000000E+00 0.  1.
</event>
<event>
 4    1  0.5568520E+002  0.3265528E+02  0.7546771E-02  0.1397842E+00
          2   -1    0    0  503    0  0.00000000000E+00  0.00000000000E+00  0.75386491372E+03  0.75386491372E+03  0.00000000000E+00 0. -1.
         -2   -1    0    0    0  501 -0.00000000000E+00 -0.00000000000E+00 -0.14159206624E+01  0.14159206624E+01  0.00000000000E+00 0.  1.
         21    1    1    2  502  501 -0.13146912380E+02  0.29891904537E+02  0.36440484752E+03  0.36586508464E+03  0.00000000000E+00 0.  1.
         21    1    1    2  503  502  0.13146912380E+02 -0.29891904537E+02  0.38804414553E+03  0.38941574974E+03  0.00000000000E+00 0. -1.
</event>
<event>
 4    1  0.5568520E+002  0.2794823E+02  0.7546771E-02  0.1438309E+00
          2   -1    0    0  502    0  0.00000000000E+00  0.00000000000E+00  0.31850344313E+03  0.31850344313E+03  0.00000000000E+00 0.  1.
         -2   -1    0    0    0  501 -0.00000000000E+00 -0.00000000000E+00 -0.21467015073E+02  0.21467015073E+02  0.00000000000E+00 0. -1.
         21    1    1    2  502  503 -0.11385144471E+02 -0.25524145944E+02  0.30849940262E+03  0.30976278821E+03  0.00000000000E+00 0.  1.
         21    1    1    2  503  501  0.11385144471E+02  0.25524145944E+02 -0.11462974563E+02  0.30207669997E+02  0.00000000000E+00 0. -1.
</event>
<event>
 4    1  0.5568520E+002  0.6614033E+02  0.7546771E-02  0.1240285E+00
          2   -1    0    0  502    0  0.00000000000E+00  0.00000000000E+00  0.96351543024E+03  0.96351543024E+03  0.00000000000E+00 0.  1.
         -2   -1    0    0    0  501 -0.00000000000E+00 -0.00000000000E+00 -0.82329007875E+01  0.82329007875E+01  0.00000000000E+00 0. -1.
         21    1    1    2  502  503  0.52585883719E+02 -0.40115677470E+02  0.80304312941E+03  0.80576225429E+03  0.00000000000E+00 0. -1.
         21    1    1    2  503  501 -0.52585883719E+02  0.40115677470E+02  0.15223940004E+03  0.16598607674E+03  0.00000000000E+00 0.  1.
</event>
<event>
 4    1  0.5568520E+002  0.3137470E+02  0.7546771E-02  0.1408015E+00
          2   -1    0    0  503    0  0.00000000000E+00  0.00000000000E+00  0.96609830748E+03  0.96609830748E+03  0.00000000000E+00 0. -1.
         -2   -1    0    0    0  501 -0.00000000000E+00 -0.00000000000E+00 -0.35580060069E+01  0.35580060069E+01  0.00000000000E+00 0.  1.
         21    1    1    2  502  501  0.23863472066E+02  0.20369253930E+02  0.71704382065E+02  0.78268066362E+02  0.00000000000E+00 0.  1.
         21    1    1    2  503  502 -0.23863472066E+02 -0.20369253930E+02  0.89083591940E+03  0.89138824712E+03  0.00000000000E+00 0. -1.
</event>
<event>
 4    1  0.5568520E+002  0.2212285E+02  0.7546771E-02  0.1503816E+00
          2   -1    0    0  503    0  0.00000000000E+00  0.00000000000E+00  0.16700195725E+03  0.16700195725E+03  0.00000000000E+00 0.  1.
         -2   -1    0    0    0  501 -0.00000000000E+00 -0.00000000000E+00 -0.11238103957E+02  0.11238103957E+02  0.00000000000E+00 0. -1.
         21    1    1    2  502  501  0.21896437435E+02 -0.31569871747E+01  0.12581838144E+01  0.22158600292E+02  0.00000000000E+00 0. -1.
         21    1    1    2  503  502 -0.21896437435E+02  0.31569871747E+01  0.15450566947E+03  0.15608146091E+03  0.00000000000E+00 0.  1.
</event>
<event>
 4    1  0.5568520E+002  0.2715951E+02  0.7546771E-02  0.1446012E+00
          2   -1    0    0  503    0  0.00000000000E+00  0.00000000000E+00  0.13144444529E+04  0.13144444529E+04  0.00000000000E+00 0.  1.
         -2   -1    0    0    0  501 -0.00000000000E+00 -0.00000000000E+00 -0.56238883116E+00  0.56238883116E+00  0.00000000000E+00 0. -1.
         21    1    1    2  502  501 -0.18133829873E+02  0.20218880735E+02  0.68743409366E+03  0.68797040056E+03  0.00000000000E+00 0. -1.
         21    1    1    2  503  502  0.18133829873E+02 -0.20218880735E+02  0.62644797040E+03  0.62703644116E+03  0.00000000000E+00 0.  1.
</event>
<event>
 4    1  0.5568520E+002  0.2528282E+02  0.7546771E-02  0.1465664E+00
          2   -1    0    0  503    0  0.00000000000E+00  0.00000000000E+00  0.37829661000E+03  0.37829661000E+03  0.00000000000E+00 0. -1.
         -2   -1    0    0    0  501 -0.00000000000E+00 -0.00000000000E+00 -0.24424392838E+01  0.24424392838E+01  0.00000000000E+00 0.  1.
         21    1    1    2  502  501  0.15406787955E+02 -0.20046237568E+02  0.82245837092E+02  0.86044165837E+02  0.00000000000E+00 0.  1.
         21    1    1    2  503  502 -0.15406787955E+02  0.20046237568E+02  0.29360833363E+03  0.29469488345E+03  0.00000000000E+00 0. -1.
</event>
<event>
 4    1  0.5568520E+002  0.3315860E+02  0.7546771E-02  0.1393992E+00
          2   -1    0    0  503    0  0.00000000000E+00  0.00000000000E+00  0.23099756537E+04  0.23099756537E+04  0.00000000000E+00 0.  1.
         -2   -1    0    0    0  501 -0.00000000000E+00 -0.00000000000E+00 -0.13214778952E+01  0.13214778952E+01  0.00000000000E+00 0. -1.
         21    1    1    2  502  501  0.32833144406E+02  0.46343950980E+01  0.22994158910E+03  0.23232009682E+03  0.00000000000E+00 0. -1.
         21    1    1    2  503  502 -0.32833144406E+02 -0.46343950980E+01  0.20787125868E+04  0.20789770348E+04  0.00000000000E+00 0.  1.
</event>
<event>
 4    1  0.5568520E+002  0.3246255E+02  0.7546771E-02  0.1399337E+00
          2   -1    0    0  503    0  0.00000000000E+00  0.00000000000E+00  0.26454780069E+03  0.26454780069E+03  0.00000000000E+00 0.  1.
         -2   -1    0    0    0  501 -0.00000000000E+00 -0.00000000000E+00 -0.74451312893E+01  0.74451312893E+01  0.00000000000E+00 0. -1.
         21    1    1    2  502  501  0.29617366126E+02  0.13290170508E+02  0.35818397130E+02  0.48340196331E+02  0.00000000000E+00 0.  1.
         21    1    1    2  503  502 -0.29617366126E+02 -0.13290170508E+02  0.22128427227E+03  0.22365273565E+03  0.00000000000E+00 0. -1.
</event>
<event>
 4    1  0.5568520E+002  0.2024894E+02  0.7546771E-02  0.1530264E+00
          2   -1    0    0  502    0  0.00000000000E+00  0.00000000000E+00  0.31779899957E+03  0.31779899957E+03  0.00000000000E+00 0.  1.
         -2   -1    0    0    0  501 -0.00000000000E+00 -0.00000000000E+00 -0.27209659762E+01  0.27209659762E+01  0.00000000000E+00 0. -1.
         21    1    1    2  502  503 -0.16122953050E+02 -0.12250303426E+02  0.27375078048E+03  0.27449865093E+03  0.00000000000E+00 0.  1.
         21    1    1    2  503  501  0.16122953050E+02  0.12250303426E+02  0.41327253115E+02  0.46021314617E+02  0.00000000000E+00 0. -1.
</event>
<event>
 4    1  0.5568520E+002  0.2515277E+02  0.7546771E-02  0.1467102E+00
          2   -1    0    0  503    0  0.00000000000E+00  0.00000000000E+00  0.26228497827E+03  0.26228497827E+03  0.00000000000E+00 0. -1.
         -2   -1    0    0    0  501 -0.00000000000E+00 -0.00000000000E+00 -0.11566285724E+02  0.11566285724E+02  0.00000000000E+00 0.  1.
         21    1    1    2  502  501  0.25131683632E+02 -0.10297179001E+01  0.35453274041E+01  0.25401401291E+02  0.00000000000E+00 0.  1.
         21    1    1    2  503  502 -0.25131683632E+02  0.10297179001E+01  0.24717336515E+03  0.24844986271E+03  0.00000000000E+00 0. -1.
</event>
<event>
 4    1  0.5568520E+002  0.2645184E+02  0.7546771E-02  0.1453194E+00
          2   -1    0    0  503    0  0.00000000000E+00  0.00000000000E+00  0.13623749551E+04  0.13623749551E+04  0.00000000000E+00 0. -1.
         -2   -1    0    0    0  501 -0.00000000000E+00 -0.00000000000E+00 -0.60855609947E+00  0.60855609947E+00  0.00000000000E+00 0.  1.
         21    1    1    2  502  501 -0.47459945201E+01 -0.26022594673E+02  0.41166873966E+03  0.41251769794E+03  0.00000000000E+00 0. -1.
         21    1    1    2  503  502  0.47459945201E+01  0.26022594673E+02  0.95009765932E+03  0.95046581324E+03  0.00000000000E+00 0.  1.
</event>
<event>
 4    1  0.5568520E+002  0.2038151E+02  0.7546771E-02  0.1528281E+00
          2   -1    0    0  503    0  0.00000000000E+00  0.00000000000E+00  0.12623279285E+01  0.12623279285E+01  0.00000000000E+00 0.  1.
         -2   -1    0    0    0  501 -0.00000000000E+00 -0.00000000000E+00 -0.33232113767E+03  0.33232113767E+03  0.00000000000E+00 0. -1.
         21    1    1    2  502  501 -0.20055325054E+02 -0.36317872569E+01 -0.18200320493E+03  0.18314085439E+03  0.00000000000E+00 0. -1.
         21    1    1    2  503  502  0.20055325054E+02  0.36317872569E+01 -0.14905560481E+03  0.15044261121E+03  0.00000000000E+00 0.  1.
</event>
<event>
 4    1  0.5568520E+002  0.2808891E+02  0.7546771E-02  0.1436966E+00
          2   -1    0    0  503    0  0.00000000000E+00  0.00000000000E+00  0.72974932149E+03  0.72974932149E+03  0.00000000000E+00 0.  1.
         -2   -1    0    0    0  501 -0.00000000000E+00 -0.00000000000E+00 -0.20961429986E+01  0.20961429986E+01  0.00000000000E+00 0. -1.
         21    1    1    2  502  501  0.13435083062E+02  0.24667496831E+02  0.10919922648E+03  0.11275397075E+03  0.00000000000E+00 0. -1.
         21    1    1    2  503  502 -0.13435083062E+02 -0.24667496831E+02  0.61845395201E+03  0.61909149373E+03  0.00000000000E+00 0.  1.
</event>
<event>
 4    1  0.5568520E+002  0.2663133E+02  0.7546771E-02  0.1451347E+00
          2   -1    0    0  502    0  0.00000000000E+00  0.00000000000E+00  0.70303010721E+03  0.70303010721E+03  0.00000000000E+00 0.  1.
         -2   -1    0    0    0  501 -0.00000000000E+00 -0.00000000000E+00 -0.50734816118E+01  0.50734816118E+01  0.00000000000E+00 0. -1.
         21    1    1    2  502  503  0.83326762467E+01  0.25294158091E+02  0.66588118345E+03  0.66641351907E+03  0.00000000000E+00 0.  1.
         21    1    1    2  503  501 -0.83326762467E+01 -0.25294158091E+02  0.32075442154E+02  0.41690069757E+02  0.00000000000E+00 0. -1.
</event>
<event>
 4    1  0.5568520E+002  0.2118755E+02  0.7546771E-02  0.1516604E+00
          2   -1    0    0  502    0  0.00000000000E+00  0.00000000000E+00  0.40895641131E+01  0.40895641131E+01  0.00000000000E+00 0. -1.
         -2   -1    0    0    0  501 -0.00000000000E+00 -0.00000000000E+00 -0.12369662070E+03  0.12369662070E+03  0.00000000000E+00 0.  1.
         21    1    1    2  502  503  0.14487635319E+02  0.15460298122E+02 -0.38365034431E+02  0.43826798446E+02  0.00000000000E+00 0.  1.
         21    1    1    2  503  501 -0.14487635319E+02 -0.15460298122E+02 -0.81242022154E+02  0.83959386365E+02  0.00000000000E+00 0. -1.
</event>
<event>
 4    1  0.5568520E+002  0.1907462E+03  0.7546771E-02  0.1061898E+00
          2   -1    0    0  502    0  0.00000000000E+00  0.00000000000E+00  0.68739100588E+03  0.68739100588E+03  0.00000000000E+00 0. -1.
         -2   -1    0    0    0  501 -0.00000000000E+00 -0.00000000000E+00 -0.10065631130E+03  0.10065631130E+03  0.00000000000E+00 0.  1.
         21    1    1    2  502  503 -0.10224590139E+03 -0.16102760290E+03  0.56468457489E+03  0.59603085689E+03  0.00000000000E+00 0. -1.
         21    1    1    2  503  501  0.10224590139E+03  0.16102760290E+03  0.22050119687E+02  0.19201646030E+03  0.00000000000E+00 0.  1.
</event>
<event>
 4    1  0.5568520E+002  0.2127883E+02  0.7546771E-02  0.1515321E+00
          2   -1    0    0  503    0  0.00000000000E+00  0.00000000000E+00  0.49729644659E+03  0.49729644659E+03  0.00000000000E+00 0.  1.
         -2   -1    0    0    0  501 -0.00000000000E+00 -0.00000000000E+00 -0.10182508030E+01  0.10182508030E+01  0.00000000000E+00 0. -1.
         21    1    1    2  502  501 -0.19145261926E+02 -0.92869670245E+01  0.16708873333E+03  0.16843821899E+03  0.00000000000E+00 0. -1.
         21    1    1    2  503  502  0.19145261926E+02  0.92869670245E+01  0.32918946246E+03  0.32987647840E+03  0.00000000000E+00 0.  1.
</event>
<event>
 4    1  0.5568520E+002  0.2836324E+02  0.7546771E-02  0.1434375E+00
          2   -1    0    0  503    0  0.00000000000E+00  0.00000000000E+00  0.27888838244E+03  0.27888838244E+03  0.00000000000E+00 0. -1.
         -2   -1    0    0    0  501 -0.00000000000E+00 -0.00000000000E+00 -0.10982057802E+02  0.10982057802E+02  0.00000000000E+00 0.  1.
         21    1    1    2  502  501  0.27459466334E+02  0.71029121764E+01  0.94996475759E+01  0.29911819684E+02  0.00000000000E+00 0.  1.
         21    1    1    2  503  502 -0.27459466334E+02 -0.71029121764E+01  0.25840667706E+03  0.25995862056E+03  0.00000000000E+00 0. -1.
</event>
<event>
 4    1  0.5568520E+002  0.2847378E+02  0.7546771E-02  0.1433340E+00
          2   -1    0    0  503    0  0.00000000000E+00  0.00000000000E+00  0.21869945256E+01  0.21869945256E+01  0.00000000000E+00 0.  1.
         -2   -1    0    0    0  501 -0.00000000000E+00 -0.00000000000E+00 -0.54822566726E+03  0.54822566726E+03  0.00000000000E+00 0. -1.
         21    1    1    2  502  501  0.28422762419E+02  0.17036968181E+01 -0.42961817743E+03  0.43056072090E+03  0.00000000000E+00 0. -1.
         21    1    1    2  503  502 -0.28422762419E+02 -0.17036968181E+01 -0.11642049531E+03  0.11985194088E+03  0.00000000000E+00 0.  1.
</event>
<event>
 4    1  0.5568520E+002  0.2269167E+02  0.7546771E-02  0.1496407E+00
          2   -1    0    0  502    0  0.00000000000E+00  0.00000000000E+00  0.34216010351E+02  0.34216010351E+02  0.00000000000E+00 0.  1.
         -2   -1    0    0    0  501 -0.00000000000E+00 -0.00000000000E+00 -0.29721152054E+02  0.29721152054E+02  0.00000000000E+00 0. -1.
         21    1    1    2  502  503  0.23773649781E+01  0.22566785855E+02  0.24708974747E+02  0.33547654480E+02  0.00000000000E+00 0.  1.
         21    1    1    2  503  501 -0.23773649781E+01 -0.22566785855E+02 -0.20214116450E+02  0.30389507925E+02  0.00000000000E+00 0. -1.
</event>
<event>
 4    1  0.5568520E+002  0.2144703E+02  0.7546771E-02  0.1512977E+00
          2   -1    0    0  503    0  0.00000000000E+00  0.00000000000E+00  0.40477692823E+03  0.40477692823E+03  0.00000000000E+00 0. -1.
         -2   -1    0    0    0  501 -0.00000000000E+00 -0.00000000000E+00 -0.21294850511E+01  0.21294850511E+01  0.00000000000E+00 0.  1.
         21    1    1    2  502  501 -0.21437737233E+02 -0.63119458876E+00  0.62383570981E+02  0.65967301844E+02  0.00000000000E+00 0.  1.
         21    1    1    2  503  502  0.21437737233E+02  0.63119458876E+00  0.34026387219E+03  0.34093911143E+03  0.00000000000E+00 0. -1.
</event>
<event>
 4    1  0.5568520E+002  0.2148601E+02  0.7546771E-02  0.1512438E+00
          2   -1    0    0  503    0  0.00000000000E+00  0.00000000000E+00  0.10799977244E+04  0.10799977244E+04  0.00000000000E+00 0.  1.
         -2   -1    0    0    0  501 -0.00000000000E+00 -0.00000000000E+00 -0.19365349364E+01  0.19365349364E+01  0.00000000000E+00 0. -1.
         21    1    1    2  502  501  0.14503963469E+02  0.15851935222E+02  0.61485325038E+02  0.65131359586E+02  0.00000000000E+00 0. -1.
         21    1    1    2  503  502 -0.14503963469E+02 -0.15851935222E+02  0.10165758644E+04  0.10168028997E+04  0.00000000000E+00 0.  1.
</event>
<event>
 4    1  0.5568520E+002  0.6422954E+02  0.7546771E-02  0.1246102E+00
          2   -1    0    0  503    0  0.00000000000E+00  0.00000000000E+00  0.99303591507E+02  0.99303591507E+02  0.00000000000E+00 0. -1.
         -2   -1    0    0    0  501 -0.00000000000E+00 -0.00000000000E+00 -0.74789058537E+02  0.74789058537E+02  0.00000000000E+00 0.  1.
         21    1    1    2  502  501  0.11856973826E+02 -0.63125636712E+02 -0.45778701441E+02  0.78874098057E+02  0.00000000000E+00 0.  1.
         21    1    1    2  503  502 -0.11856973826E+02  0.63125636712E+02  0.70293234411E+02  0.95218551987E+02  0.00000000000E+00 0. -1.
</event>
<event>
 4    1  0.5568520E+002  0.2503249E+02  0.7546771E-02  0.1468440E+00
          2   -1    0    0  502    0  0.00000000000E+00  0.00000000000E+00  0.94259340576E+03  0.94259340576E+03  0.00000000000E+00 0. -1.
         -2   -1    0    0    0  501 -0.00000000000E+00 -0.00000000000E+00 -0.99017785489E+00  0.99017785489E+00  0.00000000000E+00 0.  1.
         21    1    1    2  502  503 -0.15424117303E+02  0.19716038020E+02  0.74125675350E+03  0.74167931086E+03  0.00000000000E+00 0. -1.
         21    1    1    2  503  501  0.15424117303E+02 -0.19716038020E+02  0.20034647441E+03  0.20190427276E+03  0.00000000000E+00 0.  1.
</event>
<event>
 4    1  0.5568520E+002  0.2114529E+02  0.7546771E-02  0.1517201E+00
          2   -1    0    0  502    0  0.00000000000E+00  0.00000000000E+00  0.58215653295E+03  0.58215653295E+03  0.00000000000E+00 0.  1.
         -2   -1    0    0    0  501 -0.00000000000E+00 -0.00000000000E+00 -0.13904524069E+01  0.13904524069E+01  0.00000000000E+00 0. -1.
         21    1    1    2  502  503  0.20423644409E+02 -0.54770397312E+01  0.48559421111E+03  0.48605438078E+03  0.00000000000E+00 0.  1.
         21    1    1    2  503  501 -0.20423644409E+02  0.54770397312E+01  0.95171869439E+02  0.97492604579E+02  0.00000000000E+00 0. -1.
</event>
<event>
 4    1  0.5568520E+002  0.2049192E+02  0.7546771E-02  0.1526644E+00
          2   -1    0    0  502    0  0.00000000000E+00  0.00000000000E+00  0.78359054573E+03  0.78359054573E+03  0.00000000000E+00 0. -1.
         -2   -1    0    0    0  501 -0.00000000000E+00 -0.00000000000E+00 -0.26620571415E+01  0.26620571415E+01  0.00000000000E+00 0.  1.
         21    1    1    2  502  503  0.54191049145E+01 -0.19762392411E+02  0.74179975512E+03  0.74208274171E+03  0.00000000000E+00 0. -1.
         21    1    1    2  503  501 -0.54191049145E+01  0.19762392411E+02  0.39128733465E+02  0.44169861155E+02  0.00000000000E+00 0.  1.
</event>
<event>
 4    1  0.5568520E+002  0.2967686E+02  0.7546771E-02  0.1422426E+00
          2   -1    0    0  503    0  0.00000000000E+00  0.00000000000E+00  0.33676185746E+03  0.33676185746E+03  0.00000000000E+00 0. -1.
         -2   -1    0    0    0  501 -0.00000000000E+00 -0.00000000000E+00 -0.26506699123E+01  0.26506699123E+01  0.00000000000E+00 0.  1.
         21    1    1    2  502  501  0.13866947810E+02 -0.26237828933E+02  0.14743764475E+03  0.15039473062E+03  0.00000000000E+00 0. -1.
         21    1    1    2  503  502 -0.13866947810E+02  0.26237828933E+02  0.18667354280E+03  0.18901779675E+03  0.00000000000E+00 0.  1.
</event>
<event>
 4    1  0.5568520E+002  0.2620567E+02  0.7546771E-02  0.1455755E+00
          2   -1    0    0  503    0  0.00000000000E+00  0.00000000000E+00  0.17818276509E+02  0.17818276509E+02  0.00000000000E+00 0. -1.
         -2   -1    0    0    0  501 -0.00000000000E+00 -0.00000000000E+00 -0.15330723630E+03  0.15330723630E+03  0.00000000000E+00 0.  1.
         21    1    1    2  502  501 -0.16959796544E+02 -0.19977543909E+02 -0.14177490032E+03  0.14417648671E+03  0.00000000000E+00 0.  1.
         21    1    1    2  503  502  0.16959796544E+02  0.19977543909E+02  0.62859405266E+01  0.26949026100E+02  0.00000000000E+00 0. -1.
</event>
<event>
 4    1  0.5568520E+002  0.2612624E+02  0.7546771E-02  0.1456588E+00
          2   -1    0    0  503    0  0.00000000000E+00  0.00000000000E+00  0.69112110684E+01  0.69112110684E+01  0.00000000000E+00 0. -1.
         -2   -1    0    0    0  501 -0.00000000000E+00 -0.00000000000E+00 -0.39913566535E+03  0.39913566535E+03  0.00000000000E+00 0.  1.
         21    1    1    2  502  501 -0.38730283840E+01 -0.25837573230E+02 -0.37223487842E+03  0.37315062006E+03  0.00000000000E+00 0.  1.
         21    1    1    2  503  502  0.38730283840E+01  0.25837573230E+02 -0.19989575864E+02  0.32896256360E+02  0.00000000000E+00 0. -1.
</event>
<event>
 4    1  0.5568520E+002  0.2546609E+02  0.7546771E-02  0.1463656E+00
          2   -1    0    0  503    0  0.00000000000E+00  0.00000000000E+00  0.30072274898E+02  0.30072274898E+02  0.00000000000E+00 0.  1.
         -2   -1    0    0    0  501 -0.00000000000E+00 -0.00000000000E+00 -0.50660423838E+02  0.50660423838E+02  0.00000000000E+00 0. -1.
         21    1    1    2  502  501 -0.22173977172E+02  0.12523431019E+02 -0.40885110665E+02  0.48167560269E+02  0.00000000000E+00 0. -1.
         21    1    1    2  503  502  0.22173977172E+02 -0.12523431019E+02  0.20296961725E+02  0.32565138467E+02  0.00000000000E+00 0.  1.
</event>
<event>
 4    1  0.5568520E+002  0.4086321E+02  0.7546771E-02  0.1343500E+00
          2   -1    0    0  503    0  0.00000000000E+00  0.00000000000E+00  0.10334889861E+03  0.10334889861E+03  0.00000000000E+00 0. -1.
         -2   -1    0    0    0  501 -0.00000000000E+00 -0.00000000000E+00 -0.16157639578E+02  0.16157639578E+02  0.00000000000E+00 0.  1.
         21    1    1    2  502  501  0.22221279879E+02  0.34293100499E+02  0.43988625445E+02  0.60039996585E+02  0.00000000000E+00 0. -1.
         21    1    1    2  503  502 -0.22221279879E+02 -0.34293100499E+02  0.43202633585E+02  0.59466541601E+02  0.00000000000E+00 0.  1.
</event>
<event>
 4    1  0.5568520E+002  0.3304288E+02  0.7546771E-02  0.1394870E+00
          2   -1    0    0  502    0  0.00000000000E+00  0.00000000000E+00  0.18709182055E+04  0.18709182055E+04  0.00000000000E+00 0.  1.
         -2   -1    0    0    0  501 -0.00000000000E+00 -0.00000000000E+00 -0.58717004035E+00  0.58717004035E+00  0.00000000000E+00 0. -1.
         21    1    1    2  502  503  0.32275748778E+02  0.70787024366E+01  0.10083264074E+04  0.10088676701E+04  0.00000000000E+00 0. -1.
         21    1    1    2  503  501 -0.32275748778E+02 -0.70787024366E+01  0.86200462808E+03  0.86263770543E+03  0.00000000000E+00 0.  1.
</event>
<event>
 4    1  0.5568520E+002  0.1344176E+03  0.7546771E-02  0.1114754E+00
          2   -1    0    0  502    0  0.00000000000E+00  0.00000000000E+00  0.14070012300E+04  0.14070012300E+04  0.00000000000E+00 0. -1.
         -2   -1    0    0    0  501 -0.00000000000E+00 -0.00000000000E+00 -0.45327880005E+02  0.45327880005E+02  0.00000000000E+00 0.  1.
         21    1    1    2  502  503  0.93167785209E+02 -0.96890985529E+02  0.12955923708E+04  0.13025466174E+04  0.00000000000E+00 0. -1.
         21    1    1    2  503  501 -0.93167785209E+02  0.96890985529E+02  0.66080979220E+02  0.14978249261E+03  0.00000000000E+00 0.  1.
</event>
<event>
 4    1  0.5568520E+002  0.4146686E+02  0.7546771E-02  0.1340098E+00
          2   -1    0    0  503    0  0.00000000000E+00  0.00000000000E+00  0.19592380364E+03  0.19592380364E+03  0.00000000000E+00 0.  1.
         -2   -1    0    0    0  501 -0.00000000000E+00 -0.00000000000E+00 -0.15567345050E+03  0.15567345050E+03  0.00000000000E+00 0. -1.
         21    1    1    2  502  501 -0.41437983122E+02 -0.15471888114E+01 -0.15064608317E+03  0.15624897636E+03  0.00000000000E+00 0. -1.
         21    1    1    2  503  502  0.41437983122E+02  0.15471888114E+01  0.19089643631E+03  0.19534827779E+03  0.00000000000E+00 0.  1.
</event>
<event>
 4    1  0.5568520E+002  0.2011104E+02  0.7546771E-02  0.1532345E+00
          2   -1    0    0  503    0  0.00000000000E+00  0.00000000000E+00  0.74881640647E+01  0.74881640647E+01  0.00000000000E+00 0.  1.
         -2   -1    0    0    0  501 -0.00000000000E+00 -0.00000000000E+00 -0.10319914187E+03  0.10319914187E+03  0.00000000000E+00 0. -1.
         21    1    1    2  502  501 -0.18204092652E+02 -0.85477932587E+01 -0.86063442626E+02  0.88381954694E+02  0.00000000000E+00 0. -1.
         21    1    1    2  503  502  0.18204092652E+02  0.85477932587E+01 -0.96475351758E+01  0.22305351237E+02  0.00000000000E+00 0.  1.
</event>
<event>
 4    1  0.5568520E+002  0.2509590E+02  0.7546771E-02  0.1467733E+00
          2   -1    0    0  502    0  0.00000000000E+00  0.00000000000E+00  0.12448042220E+04  0.12448042220E+04  0.00000000000E+00 0.  1.
         -2   -1    0    0    0  501 -0.00000000000E+00 -0.00000000000E+00 -0.51211588147E+00  0.51211588147E+00  0.00000000000E+00 0. -1.
         21    1    1    2  502  503 -0.12151688511E+02 -0.21957697907E+02  0.55380288663E+03  0.55437121252E+03  0.00000000000E+00 0. -1.
         21    1    1    2  503  501  0.12151688511E+02  0.21957697907E+02  0.69048921949E+03  0.69094512536E+03  0.00000000000E+00 0.  1.
</event>
<event>
 4    1  0.5568520E+002  0.2176531E+02  0.7546771E-02  0.1508613E+00
          2   -1    0    0  503    0  0.00000000000E+00  0.00000000000E+00  0.16615032081E+04  0.16615032081E+04  0.00000000000E+00 0.  1.
         -2   -1    0    0    0  501 -0.00000000000E+00 -0.00000000000E+00 -0.54087314823E+00  0.54087314823E+00  0.00000000000E+00 0. -1.
         21    1    1    2  502  501 -0.21326005367E+02  0.43508705598E+01  0.25903552561E+03  0.25994832584E+03  0.00000000000E+00 0. -1.
         21    1    1    2  503  502  0.21326005367E+02 -0.43508705598E+01  0.14019268093E+04  0.14020957554E+04  0.00000000000E+00 0.  1.
</event>
<event>
 4    1  0.5568520E+002  0.2313621E+02  0.7546771E-02  0.1490795E+00
          2   -1    0    0  502    0  0.00000000000E+00  0.00000000000E+00  0.16577740750E+03  0.16577740750E+03  0.00000000000E+00 0. -1.
         -2   -1    0    0    0  501 -0.00000000000E+00 -0.00000000000E+00 -0.61134334427E+01  0.61134334427E+01  0.00000000000E+00 0.  1.
         21    1    1    2  502  503 -0.16073491381E+02 -0.16641126199E+02  0.13886778286E+03  0.14078190694E+03  0.00000000000E+00 0. -1.
         21    1    1    2  503  501  0.16073491381E+02  0.16641126199E+02  0.20796191203E+02  0.31108934004E+02  0.00000000000E+00 0.  1.
</event>
<event>
 4    1  0.5568520E+002  0.2977555E+02  0.7546771E-02  0.1421557E+00
          2   -1    0    0  503    0  0.00000000000E+00  0.00000000000E+00  0.14318106494E+04  0.14318106494E+04  0.00000000000E+00 0. -1.
         -2   -1    0    0    0  501 -0.00000000000E+00 -0.00000000000E+00 -0.64412306255E+00  0.64412306255E+00  0.00000000000E+00 0.  1.
         21    1    1    2  502  501  0.31792748415E+01 -0.29605335316E+02  0.85645619808E+03  0.85697363023E+03  0.00000000000E+00 0. -1.
         21    1    1    2  503  502 -0.31792748415E+01  0.29605335316E+02  0.57471032826E+03  0.57548114224E+03  0.00000000000E+00 0.  1.
</event>
<event>
 4    1  0.5568520E+002  0.2204549E+02  0.7546771E-02  0.1504845E+00
          2   -1    0    0  503    0  0.00000000000E+00  0.00000000000E+00  0.95617639585E+03  0.95617639585E+03  0.00000000000E+00 0. -1.
         -2   -1    0    0    0  501 -0.00000000000E+00 -0.00000000000E+00 -0.55018882036E+00  0.55018882036E+00  0.00000000000E+00 0.  1.
         21    1    1    2  502  501  0.15914670615E+02  0.15255388510E+02  0.34578572527E+03  0.34648776518E+03  0.00000000000E+00 0. -1.
         21    1    1    2  503  502 -0.15914670615E+02 -0.15255388510E+02  0.60984048176E+03  0.61023881949E+03  0.00000000000E+00 0.  1.
</event>
<event>
 4    1  0.5568520E+002  0.2106230E+02  0.7546771E-02  0.1518377E+00
          2   -1    0    0  502    0  0.00000000000E+00  0.00000000000E+00  0.50100738825E+02  0.50100738825E+02  0.00000000000E+00 0.  1.
         -2   -1    0    0    0  501 -0.00000000000E+00 -0.00000000000E+00 -0.90171902181E+01  0.90171902181E+01  0.00000000000E+00 0. -1.
         21    1    1    2  502  503  0.17592455082E+02  0.11581285099E+02  0.24511286148E+02  0.32317546147E+02  0.00000000000E+00 0. -1.
         21    1    1    2  503  501 -0.17592455082E+02 -0.11581285099E+02  0.16572262459E+02  0.26800382896E+02  0.00000000000E+00 0.  1.
</event>
<event>
 4    1  0.5568520E+002  0.3189648E+02  0.7546771E-02  0.1403802E+00
          2   -1    0    0  503    0  0.00000000000E+00  0.00000000000E+00  0.26432669988E+03  0.26432669988E+03  0.00000000000E+00 0. -1.
         -2   -1    0    0    0  501 -0.00000000000E+00 -0.00000000000E+00 -0.49769848615E+01  0.49769848615E+01  0.00000000000E+00 0.  1.
         21    1    1    2  502  501  0.85350361319E+01 -0.30733341983E+02  0.65570606162E+02  0.72917004490E+02  0.00000000000E+00 0.  1.
         21    1    1    2  503  502 -0.85350361319E+01  0.30733341983E+02  0.19377910886E+03  0.19638668025E+03  0.00000000000E+00 0. -1.
</event>
<event>
 4    1  0.5568520E+002  0.2600707E+02  0.7546771E-02  0.1457846E+00
          2   -1    0    0  502    0  0.00000000000E+00  0.00000000000E+00  0.96666832099E+03  0.96666832099E+03  0.00000000000E+00 0.  1.
         -2   -1    0    0    0  501 -0.00000000000E+00 -0.00000000000E+00 -0.17797714604E+01  0.17797714604E+01  0.00000000000E+00 0. -1.
         21    1    1    2  502  503  0.13211340094E+02 -0.22401522051E+02  0.85966242812E+03  0.86005572960E+03  0.00000000000E+00 0.  1.
         21    1    1    2  503  501 -0.13211340094E+02  0.22401522051E+02  0.10522612140E+03  0.10839236284E+03  0.00000000000E+00 0. -1.
</event>
<event>
 4    1  0.5568520E+002  0.4055286E+02  0.7546771E-02  0.1345276E+00
          2   -1    0    0  502    0  0.00000000000E+00  0.00000000000E+00  0.62485014426E+03  0.62485014426E+03  0.00000000000E+00 0.  1.
         -2   -1    0    0    0  501 -0.00000000000E+00 -0.00000000000E+00 -0.26559616814E+01  0.26559616814E+01  0.00000000000E+00 0. -1.
         21    1    1    2  502  503 -0.11935271741E+02  0.38756728929E+02  0.34096883317E+03  0.34337192655E+03  0.00000000000E+00 0.  1.
         21    1    1    2  503  501  0.11935271741E+02 -0.38756728929E+02  0.28122534940E+03  0.28413417939E+03  0.00000000000E+00 0. -1.
</event>
<event>
 4    1  0.5568520E+002  0.2616793E+02  0.7546771E-02  0.1456150E+00
          2   -1    0    0  503    0  0.00000000000E+00  0.00000000000E+00  0.74800767407E+02  0.74800767407E+02  0.00000000000E+00 0. -1.
         -2   -1    0    0    0  501 -0.00000000000E+00 -0.00000000000E+00 -0.12923823274E+02  0.12923823274E+02  0.00000000000E+00 0.  1.
         21    1    1    2  502  501 -0.26166062564E+02  0.31284609635E+00  0.72503957647E+01  0.27153801603E+02  0.00000000000E+00 0.  1.
         21    1    1    2  503  502  0.26166062564E+02 -0.31284609635E+00  0.54626548368E+02  0.60570789077E+02  0.00000000000E+00 0. -1.
</event>
<event>
 4    1  0.5568520E+002  0.5651526E+02  0.7546771E-02  0.1272155E+00
          2   -1    0    0  503    0  0.00000000000E+00  0.00000000000E+00  0.21884281424E+02  0.21884281424E+02  0.00000000000E+00 0.  1.
         -2   -1    0    0    0  501 -0.00000000000E+00 -0.00000000000E+00 -0.14709016618E+03  0.14709016618E+03  0.00000000000E+00 0. -1.
         21    1    1    2  502  501 -0.15930382856E+02 -0.54223585279E+02 -0.70046856746E+02  0.90002980165E+02  0.00000000000E+00 0. -1.
         21    1    1    2  503  502  0.15930382856E+02  0.54223585279E+02 -0.55159028005E+02  0.78971467436E+02  0.00000000000E+00 0.  1.
</event>
<event>
 4    1  0.5568520E+002  0.2034697E+02  0.7546771E-02  0.1528796E+00
          2   -1    0    0  502    0  0.00000000000E+00  0.00000000000E+00  0.18229285953E+03  0.18229285953E+03  0.00000000000E+00 0.  1.
         -2   -1    0    0    0  501 -0.00000000000E+00 -0.00000000000E+00 -0.30398934291E+01  0.30398934291E+01  0.00000000000E+00 0. -1.
         21    1    1    2  502  503  0.19909292406E+02 -0.41975159477E+01  0.13622880068E+03  0.13773991868E+03  0.00000000000E+00 0.  1.
         21    1    1    2  503  501 -0.19909292406E+02  0.41975159477E+01  0.43024165423E+02  0.47592834277E+02  0.00000000000E+00 0. -1.
</event>
<event>
 4    1  0.5568520E+002  0.2087498E+02  0.7546771E-02  0.1521057E+00
          2   -1    0    0  503    0  0.00000000000E+00  0.00000000000E+00  0.27074055112E+02  0.27074055112E+02  0.00000000000E+00 0.  1.
         -2   -1    0    0    0  501 -0.00000000000E+00 -0.00000000000E+00 -0.73748672841E+02  0.73748672841E+02  0.00000000000E+00 0. -1.
         21    1    1    2  502  501 -0.45913893673E+01 -0.20363790723E+02 -0.67909474181E+02  0.71045489037E+02  0.00000000000E+00 0. -1.
         21    1    1    2  503  502  0.45913893673E+01  0.20363790723E+02  0.21234856452E+02  0.29777238916E+02  0.00000000000E+00 0.  1.
</event>
<event>
 4    1  0.5568520E+002  0.2123936E+02  0.7546771E-02  0.1515875E+00
          2   -1    0    0  502    0  0.00000000000E+00  0.00000000000E+00  0.15344141478E+02  0.15344141478E+02  0.00000000000E+00 0.  1.
         -2   -1    0    0    0  501 -0.00000000000E+00 -0.00000000000E+00 -0.51009732241E+02  0.51009732241E+02  0.00000000000E+00 0. -1.
         21    1    1    2  502  503  0.21235792031E+02 -0.38945254895E+00  0.37615074422E+01  0.21569874240E+02  0.00000000000E+00 0. -1.
         21    1    1    2  503  501 -0.21235792031E+02  0.38945254895E+00 -0.39427098205E+02  0.44783999479E+02  0.00000000000E+00 0.  1.
</event>
<event>
 4    1  0.5568520E+002  0.3189213E+02  0.7546771E-02  0.1403836E+00
          2   -1    0    0  503    0  0.00000000000E+00  0.00000000000E+00  0.41278813986E+01  0.41278813986E+01  0.00000000000E+00 0. -1.
         -2   -1    0    0    0  501 -0.00000000000E+00 -0.00000000000E+00 -0.24652570741E+03  0.24652570741E+03  0.00000000000E+00 0.  1.
         21    1    1    2  502  501  0.30008178799E+02  0.10798937982E+02 -0.11836309271E+03  0.12258437736E+03  0.00000000000E+00 0. -1.
         21    1    1    2  503  502 -0.30008178799E+02 -0.10798937982E+02 -0.12403473330E+03  0.12806921145E+03  0.00000000000E+00 0.  1.
</event>
<event>
 4    1  0.5568520E+002  0.2398707E+02  0.7546771E-02  0.1480462E+00
          2   -1    0    0  503    0  0.00000000000E+00  0.00000000000E+00  0.50229326091E+02  0.50229326091E+02  0.00000000000E+00 0.  1.
         -2   -1    0    0    0  501 -0.00000000000E+00 -0.00000000000E+00 -0.11615847421E+02  0.11615847421E+02  0.00000000000E+00 0. -1.
         21    1    1    2  502  501  0.20874917180E+02  0.11815972423E+02  0.15668495540E+02  0.28651023089E+02  0.00000000000E+00 0. -1.
         21    1    1    2  503  502 -0.20874917180E+02 -0.11815972423E+02  0.22944983130E+02  0.33194150424E+02  0.00000000000E+00 0.  1.
</event>
<event>
 4    1  0.5568520E+002  0.2322496E+02  0.7546771E-02  0.1489692E+00
          2   -1    0    0  503    0  0.00000000000E+00  0.00000000000E+00  0.80635822402E+00  0.80635822402E+00  0.00000000000E+00 0.  1.
         -2   -1    0    0    0  501 -0.00000000000E+00 -0.00000000000E+00 -0.12741080095E+04  0.12741080095E+04  0.00000000000E+00 0. -1.
         21    1    1    2  502  501  0.16519763668E+02 -0.16324710555E+02 -0.10759787132E+04  0.10762293389E+04  0.00000000000E+00 0. -1.
         21    1    1    2  503  502 -0.16519763668E+02  0.16324710555E+02 -0.19732293809E+03  0.19868502879E+03  0.00000000000E+00 0.  1.
</event>
<event>
 4    1  0.5568520E+002  0.2711642E+02  0.7546771E-02  0.1446442E+00
          2   -1    0    0  503    0  0.00000000000E+00  0.00000000000E+00  0.88207270001E+03  0.88207270001E+03  0.00000000000E+00 0.  1.
         -2   -1    0    0    0  501 -0.00000000000E+00 -0.00000000000E+00 -0.99234136282E+00  0.99234136282E+00  0.00000000000E+00 0. -1.
         21    1    1    2  502  501  0.21662234343E+02  0.16310971238E+02  0.26394842773E+03  0.26533765786E+03  0.00000000000E+00 0. -1.
         21    1    1    2  503  502 -0.21662234343E+02 -0.16310971238E+02  0.61713193093E+03  0.61772738352E+03  0.00000000000E+00 0.  1.
</event>
<event>
 4    1  0.5568520E+002  0.5355416E+02  0.7546771E-02  0.1283457E+00
          2   -1    0    0  502    0  0.00000000000E+00  0.00000000000E+00  0.24944457875E+03  0.24944457875E+03  0.00000000000E+00 0. -1.
         -2   -1    0    0    0  501 -0.00000000000E+00 -0.00000000000E+00 -0.26341838293E+02  0.26341838293E+02  0.00000000000E+00 0.  1.
         21    1    1    2  502  503 -0.52348771741E+02 -0.11298406589E+02  0.21506482599E+03  0.22163241476E+03  0.00000000000E+00 0. -1.
         21    1    1    2  503  501  0.52348771741E+02  0.11298406589E+02  0.80379144670E+01  0.54154002283E+02  0.00000000000E+00 0.  1.
</event>
<event>
 4    1  0.5568520E+002  0.2077414E+02  0.7546771E-02  0.1522514E+00
          2   -1    0    0  503    0  0.00000000000E+00  0.00000000000E+00  0.41085417302E+03  0.41085417302E+03  0.00000000000E+00 0.  1.
         -2   -1    0    0    0  501 -0.00000000000E+00 -0.00000000000E+00 -0.44589764994E+01  0.44589764994E+01  0.00000000000E+00 0. -1.
         21    1    1    2  502  501 -0.12372138272E+02  0.16688177460E+02  0.21640170862E+02  0.29997701034E+02  0.00000000000E+00 0. -1.
         21    1    1    2  503  502  0.12372138272E+02 -0.16688177460E+02  0.38475502566E+03  0.38531544849E+03  0.00000000000E+00 0.  1.
</event>
<event>
 4    1  0.5568520E+002  0.4787872E+02  0.7546771E-02  0.1307641E+00
          2   -1    0    0  503    0  0.00000000000E+00  0.00000000000E+00  0.48458631219E+03  0.48458631219E+03  0.00000000000E+00 0. -1.
         -2   -1    0    0    0  501 -0.00000000000E+00 -0.00000000000E+00 -0.23266829004E+02  0.23266829004E+02  0.00000000000E+00 0.  1.
         21    1    1    2  502  501 -0.46221548961E+02  0.12487617736E+02  0.40124533354E+01  0.48046560406E+02  0.00000000000E+00 0.  1.
         21    1    1    2  503  502  0.46221548961E+02 -0.12487617736E+02  0.45730702985E+03  0.45980658079E+03  0.00000000000E+00 0. -1.
</event>
<event>
 4    1  0.5568520E+002  0.3209428E+02  0.7546771E-02  0.1402229E+00
          2   -1    0    0  503    0  0.00000000000E+00  0.00000000000E+00  0.71304382985E+02  0.71304382985E+02  0.00000000000E+00 0. -1.
         -2   -1    0    0    0  501 -0.00000000000E+00 -0.00000000000E+00 -0.14739450206E+02  0.14739450206E+02  0.00000000000E+00 0.  1.
         21    1    1    2  502  501  0.31643978279E+02  0.53573727116E+01  0.34355798378E+02  0.47014505058E+02  0.00000000000E+00 0. -1.
         21    1    1    2  503  502 -0.31643978279E+02 -0.53573727116E+01  0.22209134401E+02  0.39029328133E+02  0.00000000000E+00 0.  1.
</event>
<event>
 4    1  0.5568520E+002  0.2202613E+02  0.7546771E-02  0.1505103E+00
          2   -1    0    0  502    0  0.00000000000E+00  0.00000000000E+00  0.18706299697E+04  0.18706299697E+04  0.00000000000E+00 0.  1.
         -2   -1    0    0    0  501 -0.00000000000E+00 -0.00000000000E+00 -0.51387160327E+00  0.51387160327E+00  0.00000000000E+00 0. -1.
         21    1    1    2  502  503 -0.21605481391E+02  0.42841106128E+01  0.15934902054E+04  0.15936424270E+04  0.00000000000E+00 0.  1.
         21    1    1    2  503  501  0.21605481391E+02 -0.42841106128E+01  0.27662589273E+03  0.27750141433E+03  0.00000000000E+00 0. -1.
</event>
<event>
 4    1  0.5568520E+002  0.2193903E+02  0.7546771E-02  0.1506269E+00
          2   -1    0    0  503    0  0.00000000000E+00  0.00000000000E+00  0.10110182821E+04  0.10110182821E+04  0.00000000000E+00 0. -1.
         -2   -1    0    0    0  501 -0.00000000000E+00 -0.00000000000E+00 -0.15309016890E+01  0.15309016890E+01  0.00000000000E+00 0.  1.
         21    1    1    2  502  501 -0.20586839832E+02  0.75830636119E+01  0.84498283738E+02  0.87299947209E+02  0.00000000000E+00 0.  1.
         21    1    1    2  503  502  0.20586839832E+02 -0.75830636119E+01  0.92498909670E+03  0.92524923661E+03  0.00000000000E+00 0. -1.
</event>
<event>
 4    1  0.5568520E+002  0.4033655E+02  0.7546771E-02  0.1346525E+00
          2   -1    0    0  502    0  0.00000000000E+00  0.00000000000E+00  0.21793345404E+03  0.21793345404E+03  0.00000000000E+00 0.  1.
         -2   -1    0    0    0  501 -0.00000000000E+00 -0.00000000000E+00 -0.17681432919E+02  0.17681432919E+02  0.00000000000E+00 0. -1.
         21    1    1    2  502  503 -0.18033578268E+02  0.36080841868E+02  0.18967231451E+03  0.19391396027E+03  0.00000000000E+00 0.  1.
         21    1    1    2  503  501  0.18033578268E+02 -0.36080841868E+02  0.10579706612E+02  0.41700926693E+02  0.00000000000E+00 0. -1.
</event>
<event>
 4    1  0.5568520E+002  0.2306360E+02  0.7546771E-02  0.1491701E+00
          2   -1    0    0  503    0  0.00000000000E+00  0.00000000000E+00  0.18208717409E+02  0.18208717409E+02  0.00000000000E+00 0.  1.
         -2   -1    0    0    0  501 -0.00000000000E+00 -0.00000000000E+00 -0.65387679050E+02  0.65387679050E+02  0.00000000000E+00 0. -1.
         21    1    1    2  502  501  0.11077031794E+02 -0.20229410930E+02 -0.54678889249E+02  0.59344002472E+02  0.00000000000E+00 0. -1.
         21    1    1    2  503  502 -0.11077031794E+02  0.20229410930E+02  0.74999276072E+01  0.24252393986E+02  0.00000000000E+00 0.  1.
</event>
<event>
 4    1  0.5568520E+002  0.4370829E+02  0.7546771E-02  0.1328026E+00
          2   -1    0    0  502    0  0.00000000000E+00  0.00000000000E+00  0.67206939486E+03  0.67206939486E+03  0.00000000000E+00 0. -1.
         -2   -1    0    0    0  501 -0.00000000000E+00 -0.00000000000E+00 -0.28564357584E+01  0.28564357584E+01  0.00000000000E+00 0.  1.
         21    1    1    2  502  503 -0.43376779574E+02  0.53730659974E+01  0.31110799875E+03  0.31416333607E+03  0.00000000000E+00 0.  1.
         21    1    1    2  503  501  0.43376779574E+02 -0.53730659974E+01  0.35810496035E+03  0.36076249454E+03  0.00000000000E+00 0. -1.
</event>
<event>
 4    1  0.5568520E+002  0.2269239E+02  0.7546771E-02  0.1496397E+00
          2   -1    0    0  503    0  0.00000000000E+00  0.00000000000E+00  0.12188979322E+02  0.12188979322E+02  0.00000000000E+00 0. -1.
         -2   -1    0    0    0  501 -0.00000000000E+00 -0.00000000000E+00 -0.47449116651E+02  0.47449116651E+02  0.00000000000E+00 0.  1.
         21    1    1    2  502  501 -0.16927424856E+02  0.15113129373E+02 -0.27503803396E+02  0.35656746808E+02  0.00000000000E+00 0.  1.
         21    1    1    2  503  502  0.16927424856E+02 -0.15113129373E+02 -0.77563339325E+01  0.23981349165E+02  0.00000000000E+00 0. -1.
</event>
<event>
 4    1  0.5568520E+002  0.2559742E+02  0.7546771E-02  0.1462230E+00
          2   -1    0    0  503    0  0.00000000000E+00  0.00000000000E+00  0.23676000922E+03  0.23676000922E+03  0.00000000000E+00 0. -1.
         -2   -1    0    0    0  501 -0.00000000000E+00 -0.00000000000E+00 -0.13281850550E+02  0.13281850550E+02  0.00000000000E+00 0.  1.
         21    1    1    2  502  501 -0.24038198247E+02 -0.87973392047E+01  0.50314484127E+00  0.25602369163E+02  0.00000000000E+00 0.  1.
         21    1    1    2  503  502  0.24038198247E+02  0.87973392047E+01  0.22297501383E+03  0.22443949061E+03  0.00000000000E+00 0. -1.
</event>
<event>
 4    1  0.5568520E+002  0.4490880E+02  0.7546771E-02  0.1321896E+00
          2   -1    0    0  502    0  0.00000000000E+00  0.00000000000E+00  0.19354476459E+02  0.19354476459E+02  0.00000000000E+00 0. -1.
         -2   -1    0    0    0  501 -0.00000000000E+00 -0.00000000000E+00 -0.16261120815E+03  0.16261120815E+03  0.00000000000E+00 0.  1.
         21    1    1    2  502  503 -0.31413377923E+02  0.32093614328E+02 -0.17100302485E+02  0.48054351918E+02  0.00000000000E+00 0. -1.
         21    1    1    2  503  501  0.31413377923E+02 -0.32093614328E+02 -0.12615642921E+03  0.13391133269E+03  0.00000000000E+00 0.  1.
</event>
<event>
 4    1  0.5568520E+002  0.2889849E+02  0.7546771E-02  0.1429416E+00
          2   -1    0    0  503    0  0.00000000000E+00  0.00000000000E+00  0.24215835635E+02  0.24215835635E+02  0.00000000000E+00 0.  1.
         -2   -1    0    0    0  501 -0.00000000000E+00 -0.00000000000E+00 -0.90966404356E+02  0.90966404356E+02  0.00000000000E+00 0. -1.
         21    1    1    2  502  501  0.18817520052E+02 -0.21932248660E+02 -0.78754969906E+02  0.83889617218E+02  0.00000000000E+00 0. -1.
         21    1    1    2  503  502 -0.18817520052E+02  0.21932248660E+02  0.12004401184E+02  0.31292622772E+02  0.00000000000E+00 0.  1.
</event>
<event>
 4    1  0.5568520E+002  0.3018228E+02  0.7546771E-02  0.1418019E+00
          2   -1    0    0  502    0  0.00000000000E+00  0.00000000000E+00  0.60709564030E+02  0.60709564030E+02  0.00000000000E+00 0. -1.
         -2   -1    0    0    0  501 -0.00000000000E+00 -0.00000000000E+00 -0.58725167335E+02  0.58725167335E+02  0.00000000000E+00 0.  1.
         21    1    1    2  502  503 -0.14562281592E+02  0.26436910037E+02  0.52518327245E+02  0.60573467411E+02  0.00000000000E+00 0. -1.
         21    1    1    2  503  501  0.14562281592E+02 -0.26436910037E+02 -0.50533930550E+02  0.58861263955E+02  0.00000000000E+00 0.  1.
</event>
<event>
 4    1  0.5568520E+002  0.2199105E+02  0.7546771E-02  0.1505572E+00
          2   -1    0    0  503    0  0.00000000000E+00  0.00000000000E+00  0.35224497128E+02  0.35224497128E+02  0.00000000000E+00 0. -1.
         -2   -1    0    0    0  501 -0.00000000000E+00 -0.00000000000E+00 -0.22191091977E+02  0.22191091977E+02  0.00000000000E+00 0.  1.
         21    1    1    2  502  501 -0.21465074493E+02  0.47809018415E+01 -0.11210596456E+02  0.24683677164E+02  0.00000000000E+00 0.  1.
         21    1    1    2  503  502  0.21465074493E+02 -0.47809018415E+01  0.24244001607E+02  0.32731911942E+02  0.00000000000E+00 0. -1.
</event>
<event>
 4    1  0.5568520E+002  0.2231234E+02  0.7546771E-02  0.1501318E+00
          2   -1    0    0  502    0  0.00000000000E+00  0.00000000000E+00  0.14636878806E+04  0.14636878806E+04  0.00000000000E+00 0.  1.
         -2   -1    0    0    0  501 -0.00000000000E+00 -0.00000000000E+00 -0.74020121715E+00  0.74020121715E+00  0.00000000000E+00 0. -1.
         21    1    1    2  502  503 -0.13189724035E+02 -0.17996441063E+02  0.12697846328E+04  0.12699806511E+04  0.00000000000E+00 0.  1.
         21    1    1    2  503  501  0.13189724035E+02  0.17996441063E+02  0.19316304664E+03  0.19444743068E+03  0.00000000000E+00 0. -1.
</event>
<event>
 4    1  0.5568520E+002  0.3239876E+02  0.7546771E-02  0.1399835E+00
          2   -1    0    0  502    0  0.00000000000E+00  0.00000000000E+00  0.25507112058E+02  0.25507112058E+02  0.00000000000E+00 0.  1.
         -2   -1    0    0    0  501 -0.00000000000E+00 -0.00000000000E+00 -0.51750066937E+02  0.51750066937E+02  0.00000000000E+00 0. -1.
         21    1    1    2  502  503  0.16652127827E+02  0.27791838679E+02  0.43591855074E+01  0.32690704437E+02  0.00000000000E+00 0.  1.
         21    1    1    2  503  501 -0.16652127827E+02 -0.27791838679E+02 -0.30602140386E+02  0.44566474558E+02  0.00000000000E+00 0. -1.
</event>
<event>
 4    1  0.5568520E+002  0.2596715E+02  0.7546771E-02  0.1458269E+00
          2   -1    0    0  502    0  0.00000000000E+00  0.00000000000E+00  0.23474541043E+04  0.23474541043E+04  0.00000000000E+00 0.  1.
         -2   -1    0    0    0  501 -0.00000000000E+00 -0.00000000000E+00 -0.29384042014E+00  0.29384042014E+00  0.00000000000E+00 0. -1.
         21    1    1    2  502  503 -0.25649394328E+02 -0.40498477814E+01  0.13494581610E+04  0.13497079762E+04  0.00000000000E+00 0.  1.
         21    1    1    2  503  501  0.25649394328E+02  0.40498477814E+01  0.99770210287E+03  0.99803996852E+03  0.00000000000E+00 0. -1.
</event>
<event>
 4    1  0.5568520E+002  0.2411275E+02  0.7546771E-02  0.1478979E+00
          2   -1    0    0  503    0  0.00000000000E+00  0.00000000000E+00  0.17875487808E+04  0.17875487808E+04  0.00000000000E+00 0.  1.
         -2   -1    0    0    0  501 -0.00000000000E+00 -0.00000000000E+00 -0.43864957169E+00  0.43864957169E+00  0.00000000000E+00 0. -1.
         21    1    1    2  502  501 -0.10107797714E+02 -0.21891943651E+02  0.13480772011E+04  0.13482928335E+04  0.00000000000E+00 0.  1.
         21    1    1    2  503  502  0.10107797714E+02  0.21891943651E+02  0.43903293015E+03  0.43969459688E+03  0.00000000000E+00 0. -1.
</event>
<event>
 4    1  0.5568520E+002  0.2010506E+02  0.7546771E-02  0.1532436E+00
          2   -1    0    0  503    0  0.00000000000E+00  0.00000000000E+00  0.67023493744E+03  0.67023493744E+03  0.00000000000E+00 0.  1.
         -2   -1    0    0    0  501 -0.00000000000E+00 -0.00000000000E+00 -0.19235792372E+01  0.19235792372E+01  0.00000000000E+00 0. -1.
         21    1    1    2  502  501  0.12330666972E+02  0.15879799744E+02  0.55701487795E+02  0.59218824122E+02  0.00000000000E+00 0. -1.
         21    1    1    2  503  502 -0.12330666972E+02 -0.15879799744E+02  0.61260987041E+03  0.61293969256E+03  0.00000000000E+00 0.  1.
</event>
<event>
 4    1  0.5568520E+002  0.2329239E+02  0.7546771E-02  0.1488859E+00
          2   -1    0    0  503    0  0.00000000000E+00  0.00000000000E+00  0.35734517103E+03  0.35734517103E+03  0.00000000000E+00 0. -1.
         -2   -1    0    0    0  501 -0.00000000000E+00 -0.00000000000E+00 -0.15609211051E+01  0.15609211051E+01  0.00000000000E+00 0.  1.
         21    1    1    2  502  501 -0.18565707058E+02 -0.14065911751E+02  0.14821761173E+03  0.15003664812E+03  0.00000000000E+00 0.  1.
         21    1    1    2  503  502  0.18565707058E+02  0.14065911751E+02  0.20756663820E+03  0.20886944402E+03  0.00000000000E+00 0. -1.
</event>
<event>
 4    1  0.5568520E+002  0.2541527E+02  0.7546771E-02  0.1464211E+00
          2   -1    0    0  503    0  0.00000000000E+00  0.00000000000E+00  0.29770578125E+01  0.29770578125E+01  0.00000000000E+00 0. -1.
         -2   -1    0    0    0  501 -0.00000000000E+00 -0.00000000000E+00 -0.99547768596E+03  0.99547768596E+03  0.00000000000E+00 0.  1.
         21    1    1    2  502  501 -0.25103538255E+02  0.39684041690E+01 -0.93773306126E+03  0.93807741154E+03  0.00000000000E+00 0.  1.
         21    1    1    2  503  502  0.25103538255E+02 -0.39684041690E+01 -0.54767566888E+02  0.60377332232E+02  0.00000000000E+00 0. -1.
</event>
<event>
 4    1  0.5568520E+002  0.2309341E+02  0.7546771E-02  0.1491329E+00
          2   -1    0    0  502    0  0.00000000000E+00  0.00000000000E+00  0.88615095778E+02  0.88615095778E+02  0.00000000000E+00 0.  1.
         -2   -1    0    0    0  501 -0.00000000000E+00 -0.00000000000E+00 -0.27881476267E+02  0.27881476267E+02  0.00000000000E+00 0. -1.
         21    1    1    2  502  503 -0.20943011329E+02  0.97311697585E+01  0.81946967159E+02  0.85138773863E+02  0.00000000000E+00 0.  1.
         21    1    1    2  503  501  0.20943011329E+02 -0.97311697585E+01 -0.21213347647E+02  0.31357798182E+02  0.00000000000E+00 0. -1.
</event>
<event>
 4    1  0.5568520E+002  0.2259159E+02  0.7546771E-02  0.1497691E+00
          2   -1    0    0  502    0  0.00000000000E+00  0.00000000000E+00  0.99390590162E+03  0.99390590162E+03  0.00000000000E+00 0.  1.
         -2   -1    0    0    0  501 -0.00000000000E+00 -0.00000000000E+00 -0.60675852432E+00  0.60675852432E+00  0.00000000000E+00 0. -1.
         21    1    1    2  502  503  0.16103553920E+02 -0.15844731572E+02  0.30171229742E+03  0.30255692090E+03  0.00000000000E+00 0. -1.
         21    1    1    2  503  501 -0.16103553920E+02  0.15844731572E+02  0.69158684568E+03  0.69195573925E+03  0.00000000000E+00 0.  1.
</event>
<event>
 4    1  0.5568520E+002  0.2053957E+02  0.7546771E-02  0.1525941E+00
          2   -1    0    0  503    0  0.00000000000E+00  0.00000000000E+00  0.60965732756E+01  0.60965732756E+01  0.00000000000E+00 0. -1.
         -2   -1    0    0    0  501 -0.00000000000E+00 -0.00000000000E+00 -0.20963323876E+03  0.20963323876E+03  0.00000000000E+00 0.  1.
         21    1    1    2  502  501 -0.18479319213E+02 -0.89659646423E+01 -0.19005342271E+03  0.19116008277E+03  0.00000000000E+00 0.  1.
         21    1    1    2  503  502  0.18479319213E+02  0.89659646423E+01 -0.13483242775E+02  0.24569729267E+02  0.00000000000E+00 0. -1.
</event>
<event>
 4    1  0.5568520E+002  0.2453589E+02  0.7546771E-02  0.1474063E+00
          2   -1    0    0  503    0  0.00000000000E+00  0.00000000000E+00  0.10028408951E+04  0.10028408951E+04  0.00000000000E+00 0.  1.
         -2   -1    0    0    0  501 -0.00000000000E+00 -0.00000000000E+00 -0.64360604415E+00  0.64360604415E+00  0.00000000000E+00 0. -1.
         21    1    1    2  502  501 -0.24510765110E+02  0.11101172614E+01  0.37095529325E+03  0.37176583968E+03  0.00000000000E+00 0.  1.
         21    1    1    2  503  502  0.24510765110E+02 -0.11101172614E+01  0.63124199584E+03  0.63171866149E+03  0.00000000000E+00 0. -1.
</event>
<event>
 4    1  0.5568520E+002  0.2065190E+02  0.7546771E-02  0.1524293E+00
          2   -1    0    0  503    0  0.00000000000E+00  0.00000000000E+00  0.10870082573E+03  0.10870082573E+03  0.00000000000E+00 0.  1.
         -2   -1    0    0    0  501 -0.00000000000E+00 -0.00000000000E+00 -0.47056292483E+01  0.47056292483E+01  0.00000000000E+00 0. -1.
         21    1    1    2  502  501  0.18078405189E+02 -0.99835984236E+01  0.28882046550E+02  0.35505965479E+02  0.00000000000E+00 0. -1.
         21    1    1    2  503  502 -0.18078405189E+02  0.99835984236E+01  0.75113149937E+02  0.77900489505E+02  0.00000000000E+00 0.  1.
</event>
<event>
 4    1  0.5568520E+002  0.6195411E+02  0.7546771E-02  0.1253334E+00
          2   -1    0    0  503    0  0.00000000000E+00  0.00000000000E+00  0.39627971166E+04  0.39627971166E+04  0.00000000000E+00 0. -1.
         -2   -1    0    0    0  501 -0.00000000000E+00 -0.00000000000E+00 -0.25215757940E+01  0.25215757940E+01  0.00000000000E+00 0.  1.
         21    1    1    2  502  501  0.61777473926E+02 -0.46750268540E+01  0.42418537337E+03  0.42868583268E+03  0.00000000000E+00 0.  1.
         21    1    1    2  503  502 -0.61777473926E+02  0.46750268540E+01  0.35360901674E+04  0.35366328597E+04  0.00000000000E+00 0. -1.
</event>
<event>
 4    1  0.5568520E+002  0.2414027E+02  0.7546771E-02  0.1478655E+00
          2   -1    0    0  502    0  0.00000000000E+00  0.00000000000E+00  0.38493294395E+02  0.38493294395E+02  0.00000000000E+00 0. -1.
         -2   -1    0    0    0  501 -0.00000000000E+00 -0.00000000000E+00 -0.31809974773E+02  0.31809974773E+02  0.00000000000E+00 0.  1.
         21    1    1    2  502  503 -0.53585000239E+01 -0.23538032645E+02  0.28789065131E+02  0.37570770213E+02  0.00000000000E+00 0. -1.
         21    1    1    2  503  501  0.53585000239E+01  0.23538032645E+02 -0.22105745509E+02  0.32732498955E+02  0.00000000000E+00 0.  1.
</event>
<event>
 4    1  0.5568520E+002  0.2251832E+02  0.7546771E-02  0.1498637E+00
          2   -1    0    0  502    0  0.00000000000E+00  0.00000000000E+00  0.35772210104E+03  0.35772210104E+03  0.00000000000E+00 0. -1.
         -2   -1    0    0    0  501 -0.00000000000E+00 -0.00000000000E+00 -0.15807101276E+01  0.15807101276E+01  0.00000000000E+00 0.  1.
         21    1    1    2  502  503 -0.69606363543E+00 -0.22507556411E+02  0.23579583004E+03  0.23686863039E+03  0.00000000000E+00 0. -1.
         21    1    1    2  503  501  0.69606363543E+00  0.22507556411E+02  0.12034556088E+03  0.12243418078E+03  0.00000000000E+00 0.  1.
</event>
<event>
 4    1  0.5568520E+002  0.2538308E+02  0.7546771E-02  0.1464563E+00
          2   -1    0    0  503    0  0.00000000000E+00  0.00000000000E+00  0.14162647603E+03  0.14162647603E+03  0.00000000000E+00 0. -1.
         -2   -1    0    0    0  501 -0.00000000000E+00 -0.00000000000E+00 -0.77780195132E+01  0.77780195132E+01  0.00000000000E+00 0.  1.
         21    1    1    2  502  501 -0.63131021168E+01  0.24585475715E+02  0.18794375846E+02  0.31583689428E+02  0.00000000000E+00 0.  1.
         21    1    1    2  503  502  0.63131021168E+01 -0.24585475715E+02  0.11505408067E+03  0.11782080612E+03  0.00000000000E+00 0. -1.
</event>
<event>
 4    1  0.5568520E+002  0.3018076E+02  0.7546771E-02  0.1418032E+00
          2   -1    0    0  502    0  0.00000000000E+00  0.00000000000E+00  0.36603691104E+01  0.36603691104E+01  0.00000000000E+00 0.  1.
         -2   -1    0    0    0  501 -0.00000000000E+00 -0.00000000000E+00 -0.27284621829E+03  0.27284621829E+03  0.00000000000E+00 0. -1.
         21    1    1    2  502  503 -0.27019687280E+02 -0.13446730411E+02 -0.93591422268E+02  0.98337339712E+02  0.00000000000E+00 0.  1.
         21    1    1    2  503  501  0.27019687280E+02  0.13446730411E+02 -0.17559442691E+03  0.17816924769E+03  0.00000000000E+00 0. -1.
</event>
<event>
 4    1  0.5568520E+002  0.2824406E+02  0.7546771E-02  0.1435496E+00
          2   -1    0    0  503    0  0.00000000000E+00  0.00000000000E+00  0.15858817071E+03  0.15858817071E+03  0.00000000000E+00 0. -1.
         -2   -1    0    0    0  501 -0.00000000000E+00 -0.00000000000E+00 -0.82130365228E+01  0.82130365228E+01  0.00000000000E+00 0.  1.
         21    1    1    2  502  501  0.23996284876E+02 -0.14896490448E+02  0.23268627081E+02  0.36594482121E+02  0.00000000000E+00 0.  1.
         21    1    1    2  503  502 -0.23996284876E+02  0.14896490448E+02  0.12710650711E+03  0.13020672512E+03  0.00000000000E+00 0. -1.
</event>
<event>
 4    1  0.5568520E+002  0.2006885E+02  0.7546771E-02  0.1532986E+00
          2   -1    0    0  503    0  0.00000000000E+00  0.00000000000E+00  0.93218912080E+01  0.93218912080E+01  0.00000000000E+00 0. -1.
         -2   -1    0    0    0  501 -0.00000000000E+00 -0.00000000000E+00 -0.45534490459E+02  0.45534490459E+02  0.00000000000E+00 0.  1.
         21    1    1    2  502  501  0.46165882674E+01 -0.19530642475E+02 -0.24309154935E+02  0.31522910658E+02  0.00000000000E+00 0.  1.
         21    1    1    2  503  502 -0.46165882674E+01  0.19530642475E+02 -0.11903444316E+02  0.23333471009E+02  0.00000000000E+00 0. -1.
</event>
<event>
 4    1  0.5568520E+002  0.5179179E+02  0.7546771E-02  0.1290585E+00
          2   -1    0    0  502    0  0.00000000000E+00  0.00000000000E+00  0.53746154357E+03  0.53746154357E+03  0.00000000000E+00 0. -1.
         -2   -1    0    0    0  501 -0.00000000000E+00 -0.00000000000E+00 -0.50754518040E+01  0.50754518040E+01  0.00000000000E+00 0.  1.
         21    1    1    2  502  503  0.13603694898E+02  0.49973284430E+02  0.23117006362E+03  0.23690079777E+03  0.00000000000E+00 0. -1.
         21    1    1    2  503  501 -0.13603694898E+02 -0.49973284430E+02  0.30121602815E+03  0.30563619760E+03  0.00000000000E+00 0.  1.
</event>
<event>
 4    1  0.5568520E+002  0.8454727E+02  0.7546771E-02  0.1193667E+00
          2   -1    0    0  502    0  0.00000000000E+00  0.00000000000E+00  0.12493957388E+04  0.12493957388E+04  0.00000000000E+00 0.  1.
         -2   -1    0    0    0  501 -0.00000000000E+00 -0.00000000000E+00 -0.64324730873E+01  0.64324730873E+01  0.00000000000E+00 0. -1.
         21    1    1    2  502  503 -0.79206759660E+02 -0.29572459897E+02  0.41270543310E+03  0.42127664980E+03  0.00000000000E+00 0. -1.
         21    1    1    2  503  501  0.79206759660E+02  0.29572459897E+02  0.83025783264E+03  0.83455156211E+03  0.00000000000E+00 0.  1.
</event>
<event>
 4    1  0.5568520E+002  0.2024205E+02  0.7546771E-02  0.1530367E+00
          2   -1    0    0  503    0  0.00000000000E+00  0.00000000000E+00  0.12366176879E+04  0.12366176879E+04  0.00000000000E+00 0. -1.
         -2   -1    0    0    0  501 -0.00000000000E+00 -0.00000000000E+00 -0.50244833800E+00  0.50244833800E+00  0.00000000000E+00 0.  1.
         21    1    1    2  502  501  0.20238741453E+02 -0.36624095089E+00  0.25708697984E+03  0.25788263995E+03  0.00000000000E+00 0.  1.
         21    1    1    2  503  502 -0.20238741453E+02  0.36624095089E+00  0.97902825972E+03  0.97923749628E+03  0.00000000000E+00 0. -1.
</event>
<event>
 4    1  0.5568520E+002  0.4802313E+02  0.7546771E-02  0.1306979E+00
          2   -1    0    0  502    0  0.00000000000E+00  0.00000000000E+00  0.91152540935E+02  0.91152540935E+02  0.00000000000E+00 0.  1.
         -2   -1    0    0    0  501 -0.00000000000E+00 -0.00000000000E+00 -0.26653483618E+02  0.26653483618E+02  0.00000000000E+00 0. -1.
         21    1    1    2  502  503 -0.32886154578E+02  0.34996024191E+02  0.18979294298E+02  0.51637529803E+02  0.00000000000E+00 0. -1.
         21    1    1    2  503  501  0.32886154578E+02 -0.34996024191E+02  0.45519763019E+02  0.66168494750E+02  0.00000000000E+00 0.  1.
</event>
<event>
 4    1  0.5568520E+002  0.3091614E+02  0.7546771E-02  0.1411799E+00
          2   -1    0    0  502    0  0.00000000000E+00  0.00000000000E+00  0.86843174986E+01  0.86843174986E+01  0.00000000000E+00 0. -1.
         -2   -1    0    0    0  501 -0.00000000000E+00 -0.00000000000E+00 -0.14431229014E+03  0.14431229014E+03  0.00000000000E+00 0.  1.
         21    1    1    2  502  503 -0.11182248803E+02 -0.28822992180E+02 -0.30545951046E+02  0.43461047983E+02  0.00000000000E+00 0. -1.
         21    1    1    2  503  501  0.11182248803E+02  0.28822992180E+02 -0.10508202160E+03  0.10953555966E+03  0.00000000000E+00 0.  1.
</event>
<event>
 4    1  0.5568520E+002  0.5272556E+02  0.7546771E-02  0.1286769E+00
          2   -1    0    0  502    0  0.00000000000E+00  0.00000000000E+00  0.16716499471E+04  0.16716499471E+04  0.00000000000E+00 0. -1.
         -2   -1    0    0    0  501 -0.00000000000E+00 -0.00000000000E+00 -0.37902582635E+01  0.37902582635E+01  0.00000000000E+00 0.  1.
         21    1    1    2  502  503  0.52724314010E+02  0.36227793264E+00  0.14615151588E+04  0.14624659120E+04  0.00000000000E+00 0. -1.
         21    1    1    2  503  501 -0.52724314010E+02 -0.36227793264E+00  0.20634453009E+03  0.21297429335E+03  0.00000000000E+00 0.  1.
</event>
<event>
 4    1  0.5568520E+002  0.2143987E+02  0.7546771E-02  0.1513076E+00
          2   -1    0    0  502    0  0.00000000000E+00  0.00000000000E+00  0.26101897386E+03  0.26101897386E+03  0.00000000000E+00 0.  1.
         -2   -1    0    0    0  501 -0.00000000000E+00 -0.00000000000E+00 -0.17783519449E+01  0.17783519449E+01  0.00000000000E+00 0. -1.
         21    1    1    2  502  503 -0.21437998354E+02  0.28318101506E+00  0.14258032469E+03  0.14418327556E+03  0.00000000000E+00 0. -1.
         21    1    1    2  503  501  0.21437998354E+02 -0.28318101506E+00  0.11666029723E+03  0.11861405024E+03  0.00000000000E+00 0.  1.
</event>
<event>
 4    1  0.5568520E+002  0.2050088E+02  0.7546771E-02  0.1526512E+00
          2   -1    0    0  503    0  0.00000000000E+00  0.00000000000E+00  0.56123819120E+02  0.56123819120E+02  0.00000000000E+00 0. -1.
         -2   -1    0    0    0  501 -0.00000000000E+00 -0.00000000000E+00 -0.77774078626E+01  0.77774078626E+01  0.00000000000E+00 0.  1.
         21    1    1    2  502  501  0.87712177967E+01 -0.18529754524E+02  0.18015720908E+02  0.27291981683E+02  0.00000000000E+00 0.  1.
         21    1    1    2  503  502 -0.87712177967E+01  0.18529754524E+02  0.30330690349E+02  0.36609245299E+02  0.00000000000E+00 0. -1.
</event>
<event>
 4    1  0.5568520E+002  0.2085679E+02  0.7546771E-02  0.1521319E+00
          2   -1    0    0  502    0  0.00000000000E+00  0.00000000000E+00  0.55212997069E+03  0.55212997069E+03  0.00000000000E+00 0.  1.
         -2   -1    0    0    0  501 -0.00000000000E+00 -0.00000000000E+00 -0.84642780459E+00  0.84642780459E+00  0.00000000000E+00 0. -1.
         21    1    1    2  502  503  0.65701590009E+01  0.19794919647E+02  0.34836605500E+03  0.34898984815E+03  0.00000000000E+00 0.  1.
         21    1    1    2  503  501 -0.65701590009E+01 -0.19794919647E+02  0.20291748789E+03  0.20398655035E+03  0.00000000000E+00 0. -1.
</event>
<event>
 4    1  0.5568520E+002  0.2242447E+02  0.7546771E-02  0.1499854E+00
          2   -1    0    0  503    0  0.00000000000E+00  0.00000000000E+00  0.48581380063E+01  0.48581380063E+01  0.00000000000E+00 0.  1.
         -2   -1    0    0    0  501 -0.00000000000E+00 -0.00000000000E+00 -0.21030153444E+03  0.21030153444E+03  0.00000000000E+00 0. -1.
         21    1    1    2  502  501  0.20533635214E+02 -0.90125883919E+01 -0.17938399269E+03  0.18078018077E+03  0.00000000000E+00 0.  1.
         21    1    1    2  503  502 -0.20533635214E+02  0.90125883919E+01 -0.26059403740E+02  0.34379491676E+02  0.00000000000E+00 0. -1.
</event>
<event>
 4    1  0.5568520E+002  0.2046805E+02  0.7546771E-02  0.1526997E+00
          2   -1    0    0  503    0  0.00000000000E+00  0.00000000000E+00  0.74800265325E+01  0.74800265325E+01  0.00000000000E+00 0.  1.
         -2   -1    0    0    0  501 -0.00000000000E+00 -0.00000000000E+00 -0.19188746789E+03  0.19188746789E+03  0.00000000000E+00 0. -1.
         21    1    1    2  502  501  0.13064386834E+02  0.15756364719E+02 -0.17608749978E+03  0.17727309105E+03  0.00000000000E+00 0. -1.
         21    1    1    2  503  502 -0.13064386834E+02 -0.15756364719E+02 -0.83199415803E+01  0.22094403373E+02  0.00000000000E+00 0.  1.
</event>
<event>
 4    1  0.5568520E+002  0.2011530E+02  0.7546771E-02  0.1532280E+00
          2   -1    0    0  502    0  0.00000000000E+00  0.00000000000E+00  0.19659072350E+02  0.19659072350E+02  0.00000000000E+00 0. -1.
         -2   -1    0    0    0  501 -0.00000000000E+00 -0.00000000000E+00 -0.34210219663E+02  0.34210219663E+02  0.00000000000E+00 0.  1.
         21    1    1    2  502  503  0.34006148373E+01  0.19825773547E+02  0.97245044521E+01  0.22342593064E+02  0.00000000000E+00 0.  1.
         21    1    1    2  503  501 -0.34006148373E+01 -0.19825773547E+02 -0.24275651766E+02  0.31526698949E+02  0.00000000000E+00 0. -1.
</event>
<event>
 4    1  0.5568520E+002  0.2491668E+02  0.7546771E-02  0.1469738E+00
          2   -1    0    0  502    0  0.00000000000E+00  0.00000000000E+00  0.61031444403E+01  0.61031444403E+01  0.00000000000E+00 0. -1.
         -2   -1    0    0    0  501 -0.00000000000E+00 -0.00000000000E+00 -0.40886000454E+03  0.40886000454E+03  0.00000000000E+00 0.  1.
         21    1    1    2  502  503 -0.12766761326E+02 -0.21397447195E+02 -0.21550541966E+02  0.32943387808E+02  0.00000000000E+00 0. -1.
         21    1    1    2  503  501  0.12766761326E+02  0.21397447195E+02 -0.38120631813E+03  0.38201976117E+03  0.00000000000E+00 0.  1.
</event>
<event>
 4    1  0.5568520E+002  0.2144422E+02  0.7546771E-02  0.1513016E+00
          2   -1    0    0  502    0  0.00000000000E+00  0.00000000000E+00  0.12099453532E+04  0.12099453532E+04  0.00000000000E+00 0. -1.
         -2   -1    0    0    0  501 -0.00000000000E+00 -0.00000000000E+00 -0.39160275939E+00  0.39160275939E+00  0.00000000000E+00 0.  1.
         21    1    1    2  502  503 -0.20880664113E+02 -0.48838762048E+01  0.70866564482E+03  0.70899002146E+03  0.00000000000E+00 0.  1.
         21    1    1    2  503  501  0.20880664113E+02  0.48838762048E+01  0.50088810565E+03  0.50134693453E+03  0.00000000000E+00 0. -1.
</event>
<event>
 4    1  0.5568520E+002  0.3967881E+02  0.7546771E-02  0.1350378E+00
          2   -1    0    0  503    0  0.00000000000E+00  0.00000000000E+00  0.97368866406E+03  0.97368866406E+03  0.00000000000E+00 0.  1.
         -2   -1    0    0    0  501 -0.00000000000E+00 -0.00000000000E+00 -0.28455277589E+01  0.28455277589E+01  0.00000000000E+00 0. -1.
         21    1    1    2  502  501  0.36982627836E+02  0.14376832643E+02  0.16459009056E+03  0.16930536314E+03  0.00000000000E+00 0. -1.
         21    1    1    2  503  502 -0.36982627836E+02 -0.14376832643E+02  0.80625304575E+03  0.80722882868E+03  0.00000000000E+00 0.  1.
</event>
<event>
 4    1  0.5568520E+002  0.2469786E+02  0.7546771E-02  0.1472212E+00
          2   -1    0    0  502    0  0.00000000000E+00  0.00000000000E+00  0.17791625321E+02  0.17791625321E+02  0.00000000000E+00 0.  1.
         -2   -1    0    0    0  501 -0.00000000000E+00 -0.00000000000E+00 -0.35076385454E+02  0.35076385454E+02  0.00000000000E+00 0. -1.
         21    1    1    2  502  503  0.89105907030E+01 -0.23034448781E+02 -0.46716401742E+01  0.25135804726E+02  0.00000000000E+00 0.  1.
         21    1    1    2  503  501 -0.89105907030E+01  0.23034448781E+02 -0.12613119959E+02  0.27732206050E+02  0.00000000000E+00 0. -1.
</event>
<event>
 4    1  0.5568520E+002  0.4253027E+02  0.7546771E-02  0.1334264E+00
          2   -1    0    0  502    0  0.00000000000E+00  0.00000000000E+00  0.78322964060E+02  0.78322964060E+02  0.00000000000E+00 0. -1.
         -2   -1    0    0    0  501 -0.00000000000E+00 -0.00000000000E+00 -0.31716516122E+02  0.31716516122E+02  0.00000000000E+00 0.  1.
         21    1    1    2  502  503  0.23888845028E+02 -0.35187306700E+02 -0.53835831160E+01  0.42869644700E+02  0.00000000000E+00 0.  1.
         21    1    1    2  503  501 -0.23888845028E+02  0.35187306700E+02  0.51990031054E+02  0.67169835481E+02  0.00000000000E+00 0. -1.
</event>
<event>
 4    1  0.5568520E+002  0.2805915E+02  0.7546771E-02  0.1437249E+00
          2   -1    0    0  503    0  0.00000000000E+00  0.00000000000E+00  0.10283097688E+02  0.10283097688E+02  0.00000000000E+00 0. -1.
         -2   -1    0    0    0  501 -0.00000000000E+00 -0.00000000000E+00 -0.21371462784E+03  0.21371462784E+03  0.00000000000E+00 0.  1.
         21    1    1    2  502  501 -0.36197578968E+01 -0.27824687602E+02 -0.19143700483E+03  0.19348240929E+03  0.00000000000E+00 0.  1.
         21    1    1    2  503  502  0.36197578968E+01  0.27824687602E+02 -0.11994525325E+02  0.30515316239E+02  0.00000000000E+00 0. -1.
</event>
<event>
 4    1  0.5568520E+002  0.2033175E+02  0.7546771E-02  0.1529023E+00
          2   -1    0    0  503    0  0.00000000000E+00  0.00000000000E+00  0.11088307617E+03  0.11088307617E+03  0.00000000000E+00 0. -1.
         -2   -1    0    0    0  501 -0.00000000000E+00 -0.00000000000E+00 -0.37281170249E+01  0.37281170249E+01  0.00000000000E+00 0.  1.
         21    1    1    2  502  501 -0.12145801902E+02 -0.16305198550E+02  0.53778375682E+02  0.57493423055E+02  0.00000000000E+00 0.  1.
         21    1    1    2  503  502  0.12145801902E+02  0.16305198550E+02  0.53376583467E+02  0.57117770143E+02  0.00000000000E+00 0. -1.
</event>
<event>
 4    1  0.5568520E+002  0.2112044E+02  0.7546771E-02  0.1517552E+00
          2   -1    0    0  503    0  0.00000000000E+00  0.00000000000E+00  0.11831464573E+04  0.11831464573E+04  0.00000000000E+00 0.  1.
         -2   -1    0    0    0  501 -0.00000000000E+00 -0.00000000000E+00 -0.59046528413E+00  0.59046528413E+00  0.00000000000E+00 0. -1.
         21    1    1    2  502  501 -0.17554853032E+02  0.11743089708E+02  0.23542666626E+03  0.23637213923E+03  0.00000000000E+00 0. -1.
         21    1    1    2  503  502  0.17554853032E+02 -0.11743089708E+02  0.94712932578E+03  0.94736478337E+03  0.00000000000E+00 0.  1.
</event>
<event>
 4    1  0.5568520E+002  0.2268491E+02  0.7546771E-02  0.1496493E+00
          2   -1    0    0  502    0  0.00000000000E+00  0.00000000000E+00  0.19093918036E+01  0.19093918036E+01  0.00000000000E+00 0. -1.
         -2   -1    0    0    0  501 -0.00000000000E+00 -0.00000000000E+00 -0.47021477569E+03  0.47021477569E+03  0.00000000000E+00 0.  1.
         21    1    1    2  502  503  0.22641082159E+02  0.14094177598E+01 -0.79927900574E+02  0.83084741980E+02  0.00000000000E+00 0. -1.
         21    1    1    2  503  501 -0.22641082159E+02 -0.14094177598E+01 -0.38837748331E+03  0.38903942551E+03  0.00000000000E+00 0.  1.
</event>
<event>
 4    1  0.5568520E+002  0.2225332E+02  0.7546771E-02  0.1502093E+00
          2   -1    0    0  503    0  0.00000000000E+00  0.00000000000E+00  0.20048347791E+03  0.20048347791E+03  0.00000000000E+00 0.  1.
         -2   -1    0    0    0  501 -0.00000000000E+00 -0.00000000000E+00 -0.41113116257E+01  0.41113116257E+01  0.00000000000E+00 0. -1.
         21    1    1    2  502  501  0.74195307307E+01  0.20980007938E+02  0.33552333248E+02  0.40261262222E+02  0.00000000000E+00 0. -1.
         21    1    1    2  503  502 -0.74195307307E+01 -0.20980007938E+02  0.16281983304E+03  0.16433352732E+03  0.00000000000E+00 0.  1.
</event>
<event>
 4    1  0.5568520E+002  0.2171078E+02  0.7546771E-02  0.1509354E+00
          2   -1    0    0  503    0  0.00000000000E+00  0.00000000000E+00  0.12204389788E+04  0.12204389788E+04  0.00000000000E+00 0. -1.
         -2   -1    0    0    0  501 -0.00000000000E+00 -0.00000000000E+00 -0.42754387927E+00  0.42754387927E+00  0.00000000000E+00 0.  1.
         21    1    1    2  502  501 -0.10622009794E+02 -0.18934915705E+02  0.42022695980E+03  0.42078742361E+03  0.00000000000E+00 0.  1.
         21    1    1    2  503  502  0.10622009794E+02  0.18934915705E+02  0.79978447514E+03  0.80007909909E+03  0.00000000000E+00 0. -1.
</event>
<event>
 4    1  0.5568520E+002  0.2477936E+02  0.7546771E-02  0.1471287E+00
          2   -1    0    0  502    0  0.00000000000E+00  0.00000000000E+00  0.38204499771E+03  0.38204499771E+03  0.00000000000E+00 0.  1.
         -2   -1    0    0    0  501 -0.00000000000E+00 -0.00000000000E+00 -0.18826500621E+01  0.18826500621E+01  0.00000000000E+00 0. -1.
         21    1    1    2  502  503 -0.22069850034E+02 -0.11266692771E+02  0.26351033397E+03  0.26467284099E+03  0.00000000000E+00 0. -1.
         21    1    1    2  503  501  0.22069850034E+02  0.11266692771E+02  0.11665201368E+03  0.11925480679E+03  0.00000000000E+00 0.  1.
</event>
<event>
 4    1  0.5568520E+002  0.2954265E+02  0.7546771E-02  0.1423613E+00
          2   -1    0    0  502    0  0.00000000000E+00  0.00000000000E+00  0.44109273552E+03  0.44109273552E+03  0.00000000000E+00 0. -1.
         -2   -1    0    0    0  501 -0.00000000000E+00 -0.00000000000E+00 -0.19924673419E+01  0.19924673419E+01  0.00000000000E+00 0.  1.
         21    1    1    2  502  503 -0.59494130480E+01 -0.28937393862E+02  0.20110129771E+03  0.20325968665E+03  0.00000000000E+00 0.  1.
         21    1    1    2  503  501  0.59494130480E+01  0.28937393862E+02  0.23799897047E+03  0.23982551620E+03  0.00000000000E+00 0. -1.
</event>
<event>
 4    1  0.5568520E+002  0.2425205E+02  0.7546771E-02  0.1477347E+00
          2   -1    0    0  503    0  0.00000000000E+00  0.00000000000E+00  0.29736036725E+01  0.29736036725E+01  0.00000000000E+00 0. -1.
         -2   -1    0    0    0  501 -0.00000000000E+00 -0.00000000000E+00 -0.24199981306E+03  0.24199981306E+03  0.00000000000E+00 0.  1.
         21    1    1    2  502  501 -0.23675239437E+02  0.52578603015E+01 -0.17186342403E+03  0.17356612162E+03  0.00000000000E+00 0.  1.
         21    1    1    2  503  502  0.23675239437E+02 -0.52578603015E+01 -0.67162785362E+02  0.71407295109E+02  0.00000000000E+00 0. -1.
</event>
<event>
 4    1  0.5568520E+002  0.3130182E+02  0.7546771E-02  0.1408611E+00
          2   -1    0    0  502    0  0.00000000000E+00  0.00000000000E+00  0.35220951730E+02  0.35220951730E+02  0.00000000000E+00 0. -1.
         -2   -1    0    0    0  501 -0.00000000000E+00 -0.00000000000E+00 -0.35872497076E+02  0.35872497076E+02  0.00000000000E+00 0.  1.
         21    1    1    2  502  503 -0.11268317993E+02  0.29203238282E+02  0.16517124883E+02  0.35392365433E+02  0.00000000000E+00 0. -1.
         21    1    1    2  503  501  0.11268317993E+02 -0.29203238282E+02 -0.17168670229E+02  0.35701083373E+02  0.00000000000E+00 0.  1.
</event>
<event>
 4    1  0.5568520E+002  0.5778424E+02  0.7546771E-02  0.1267553E+00
          2   -1    0    0  502    0  0.00000000000E+00  0.00000000000E+00  0.27053164136E+04  0.27053164136E+04  0.00000000000E+00 0. -1.
         -2   -1    0    0    0  501 -0.00000000000E+00 -0.00000000000E+00 -0.16059119045E+03  0.16059119045E+03  0.00000000000E+00 0.  1.
         21    1    1    2  502  503 -0.40432696512E+02 -0.41282146719E+02  0.26997992214E+04  0.27004175333E+04  0.00000000000E+00 0. -1.
         21    1    1    2  503  501  0.40432696512E+02  0.41282146719E+02 -0.15507399821E+03  0.16549007072E+03  0.00000000000E+00 0.  1.
</event>
<event>
 4    1  0.5568520E+002  0.4242189E+02  0.7546771E-02  0.1334850E+00
          2   -1    0    0  502    0  0.00000000000E+00  0.00000000000E+00  0.62724060520E+03  0.62724060520E+03  0.00000000000E+00 0. -1.
         -2   -1    0    0    0  501 -0.00000000000E+00 -0.00000000000E+00 -0.36535186259E+01  0.36535186259E+01  0.00000000000E+00 0.  1.
         21    1    1    2  502  503  0.40472294326E+02 -0.12712613042E+02  0.45795884223E+03  0.45991946938E+03  0.00000000000E+00 0. -1.
         21    1    1    2  503  501 -0.40472294326E+02  0.12712613042E+02  0.16562824435E+03  0.17097465445E+03  0.00000000000E+00 0.  1.
</event>
<event>
 4    1  0.5568520E+002  0.2561071E+02  0.7546771E-02  0.1462086E+00
          2   -1    0    0  503    0  0.00000000000E+00  0.00000000000E+00  0.42457001390E+03  0.42457001390E+03  0.00000000000E+00 0.  1.
         -2   -1    0    0    0  501 -0.00000000000E+00 -0.00000000000E+00 -0.29121349232E+01  0.29121349232E+01  0.00000000000E+00 0. -1.
         21    1    1    2  502  501 -0.17534029319E+02  0.18667250100E+02  0.64372834188E+02  0.69280373786E+02  0.00000000000E+00 0. -1.
         21    1    1    2  503  502  0.17534029319E+02 -0.18667250100E+02  0.35728504479E+03  0.35820177504E+03  0.00000000000E+00 0.  1.
</event>
<event>
 4    1  0.5568520E+002  0.2398445E+02  0.7546771E-02  0.1480493E+00
          2   -1    0    0  502    0  0.00000000000E+00  0.00000000000E+00  0.12995642762E+03  0.12995642762E+03  0.00000000000E+00 0. -1.
         -2   -1    0    0    0  501 -0.00000000000E+00 -0.00000000000E+00 -0.72976298584E+01  0.72976298584E+01  0.00000000000E+00 0.  1.
         21    1    1    2  502  503  0.13657537746E+02 -0.19716123093E+02  0.10437509118E+03  0.10709534774E+03  0.00000000000E+00 0.  1.
         21    1    1    2  503  501 -0.13657537746E+02  0.19716123093E+02  0.18283706579E+02  0.30158709744E+02  0.00000000000E+00 0. -1.
</event>
<event>
 4    1  0.5568520E+002  0.2031660E+02  0.7546771E-02  0.1529250E+00
          2   -1    0    0  503    0  0.00000000000E+00  0.00000000000E+00  0.10422236248E+04  0.10422236248E+04  0.00000000000E+00 0.  1.
         -2   -1    0    0    0  501 -0.00000000000E+00 -0.00000000000E+00 -0.39731439154E+00  0.39731439154E+00  0.00000000000E+00 0. -1.
         21    1    1    2  502  501 -0.90526460828E+01  0.18188287120E+02  0.55041590571E+03  0.55079073471E+03  0.00000000000E+00 0.  1.
         21    1    1    2  503  502  0.90526460828E+01 -0.18188287120E+02  0.49141040471E+03  0.49183020449E+03  0.00000000000E+00 0. -1.
</event>
<event>
 4    1  0.5568520E+002  0.2164676E+02  0.7546771E-02  0.1510228E+00
          2   -1    0    0  503    0  0.00000000000E+00  0.00000000000E+00  0.11458114817E+03  0.11458114817E+03  0.00000000000E+00 0.  1.
         -2   -1    0    0    0  501 -0.00000000000E+00 -0.00000000000E+00 -0.73059931230E+01  0.73059931230E+01  0.00000000000E+00 0. -1.
         21    1    1    2  502  501  0.12466732002E+02  0.17696407844E+02  0.13200662329E+02  0.25354284516E+02  0.00000000000E+00 0. -1.
         21    1    1    2  503  502 -0.12466732002E+02 -0.17696407844E+02  0.94074492723E+02  0.96532856782E+02  0.00000000000E+00 0.  1.
</event>
<event>
 4    1  0.5568520E+002  0.4512476E+02  0.7546771E-02  0.1320817E+00
          2   -1    0    0  502    0  0.00000000000E+00  0.00000000000E+00  0.38084562599E+03  0.38084562599E+03  0.00000000000E+00 0. -1.
         -2   -1    0    0    0  501 -0.00000000000E+00 -0.00000000000E+00 -0.23620100538E+02  0.23620100538E+02  0.00000000000E+00 0.  1.
         21    1    1    2  502  503 -0.36618654615E+02  0.26368893177E+02  0.35649036296E+03  0.35933497363E+03  0.00000000000E+00 0. -1.
         21    1    1    2  503  501  0.36618654615E+02 -0.26368893177E+02  0.73516249491E+00  0.45130752897E+02  0.00000000000E+00 0.  1.
</event>
<event>
 4    1  0.5568520E+002  0.2168637E+02  0.7546771E-02  0.1509687E+00
          2   -1    0    0  502    0  0.00000000000E+00  0.00000000000E+00  0.16154133618E+03  0.16154133618E+03  0.00000000000E+00 0. -1.
         -2   -1    0    0    0  501 -0.00000000000E+00 -0.00000000000E+00 -0.29762650194E+01  0.29762650194E+01  0.00000000000E+00 0.  1.
         21    1    1    2  502  503  0.17752925635E+02  0.12455202980E+02  0.91433787060E+02  0.93970398881E+02  0.00000000000E+00 0. -1.
         21    1    1    2  503  501 -0.17752925635E+02 -0.12455202980E+02  0.67131284104E+02  0.70547202321E+02  0.00000000000E+00 0.  1.
</event>
<event>
 4    1  0.5568520E+002  0.2001594E+02  0.7546771E-02  0.1533792E+00
          2   -1    0    0  503    0  0.00000000000E+00  0.00000000000E+00  0.16891675073E+01  0.16891675073E+01  0.00000000000E+00 0. -1.
         -2   -1    0    0    0  501 -0.00000000000E+00 -0.00000000000E+00 -0.39074356270E+03  0.39074356270E+03  0.00000000000E+00 0.  1.
         21    1    1    2  502  501 -0.55103517301E+01  0.19242503991E+02 -0.31753492827E+03  0.31816515933E+03  0.00000000000E+00 0.  1.
         21    1    1    2  503  502  0.55103517301E+01 -0.19242503991E+02 -0.71519466919E+02  0.74267570880E+02  0.00000000000E+00 0. -1.
</event>
<event>
 4    1  0.5568520E+002  0.2555557E+02  0.7546771E-02  0.1462683E+00
          2   -1    0    0  503    0  0.00000000000E+00  0.00000000000E+00  0.28815321495E+02  0.28815321495E+02  0.00000000000E+00 0.  1.
         -2   -1    0    0    0  501 -0.00000000000E+00 -0.00000000000E+00 -0.25372882510E+02  0.25372882510E+02  0.00000000000E+00 0. -1.
         21    1    1    2  502  501 -0.14013540690E+01  0.25517114420E+02 -0.71307336185E+01  0.26531759902E+02  0.00000000000E+00 0.  1.
         21    1    1    2  503  502  0.14013540690E+01 -0.25517114420E+02  0.10573172604E+02  0.27656444103E+02  0.00000000000E+00 0. -1.
</event>
<event>
 4    1  0.5568520E+002  0.3194159E+02  0.7546771E-02  0.1403442E+00
          2   -1    0    0  503    0  0.00000000000E+00  0.00000000000E+00  0.22500145178E+02  0.22500145178E+02  0.00000000000E+00 0.  1.
         -2   -1    0    0    0  501 -0.00000000000E+00 -0.00000000000E+00 -0.45478588279E+02  0.45478588279E+02  0.00000000000E+00 0. -1.
         21    1    1    2  502  501  0.31577070285E+02 -0.48118479950E+01 -0.13332540906E+02  0.34612452902E+02  0.00000000000E+00 0.  1.
         21    1    1    2  503  502 -0.31577070285E+02  0.48118479950E+01 -0.96459021947E+01  0.33366280555E+02  0.00000000000E+00 0. -1.
</event>
<event>
 4    1  0.5568520E+002  0.2552250E+02  0.7546771E-02  0.1463042E+00
          2   -1    0    0  503    0  0.00000000000E+00  0.00000000000E+00  0.92955802202E+02  0.92955802202E+02  0.00000000000E+00 0.  1.
         -2   -1    0    0    0  501 -0.00000000000E+00 -0.00000000000E+00 -0.12375118650E+02  0.12375118650E+02  0.00000000000E+00 0. -1.
         21    1    1    2  502  501 -0.24771094909E+02 -0.61474119094E+01  0.56056643364E+01  0.26130849371E+02  0.00000000000E+00 0. -1.
         21    1    1    2  503  502  0.24771094909E+02  0.61474119094E+01  0.74975019216E+02  0.79200071481E+02  0.00000000000E+00 0.  1.
</event>
<event>
 4    1  0.5568520E+002  0.2617165E+02  0.7546771E-02  0.1456111E+00
          2   -1    0    0  503    0  0.00000000000E+00  0.00000000000E+00  0.38367543337E+03  0.38367543337E+03  0.00000000000E+00 0. -1.
         -2   -1    0    0    0  501 -0.00000000000E+00 -0.00000000000E+00 -0.21929901352E+01  0.21929901352E+01  0.00000000000E+00 0.  1.
         21    1    1    2  502  501  0.71378234900E+01  0.25179485272E+02  0.27393384302E+03  0.27518122275E+03  0.00000000000E+00 0. -1.
         21    1    1    2  503  502 -0.71378234900E+01 -0.25179485272E+02  0.10754860022E+03  0.11068720076E+03  0.00000000000E+00 0.  1.
</event>
<event>
 4    1  0.5568520E+002  0.3602714E+02  0.7546771E-02  0.1373482E+00
          2   -1    0    0  503    0  0.00000000000E+00  0.00000000000E+00  0.42243193307E+03  0.42243193307E+03  0.00000000000E+00 0.  1.
         -2   -1    0    0    0  501 -0.00000000000E+00 -0.00000000000E+00 -0.21607899384E+02  0.21607899384E+02  0.00000000000E+00 0. -1.
         21    1    1    2  502  501 -0.32483800584E+02  0.15580680516E+02 -0.52176276663E+01  0.36403001857E+02  0.00000000000E+00 0. -1.
         21    1    1    2  503  502  0.32483800584E+02 -0.15580680516E+02  0.40604166135E+03  0.40763683060E+03  0.00000000000E+00 0.  1.
</event>
<event>
 4    1  0.5568520E+002  0.2197178E+02  0.7546771E-02  0.1505830E+00
          2   -1    0    0  503    0  0.00000000000E+00  0.00000000000E+00  0.84352565844E+03  0.84352565844E+03  0.00000000000E+00 0. -1.
         -2   -1    0    0    0  501 -0.00000000000E+00 -0.00000000000E+00 -0.62269604086E+00  0.62269604086E+00  0.00000000000E+00 0.  1.
         21    1    1    2  502  501  0.16039785880E+02 -0.15016135861E+02  0.30139067340E+03  0.30219049799E+03  0.00000000000E+00 0.  1.
         21    1    1    2  503  502 -0.16039785880E+02  0.15016135861E+02  0.54151228900E+03  0.54195785649E+03  0.00000000000E+00 0. -1.
</event>
<event>
 4    1  0.5568520E+002  0.7631109E+02  0.7546771E-02  0.1212680E+00
          2   -1    0    0  502    0  0.00000000000E+00  0.00000000000E+00  0.11753037745E+03  0.11753037745E+03  0.00000000000E+00 0. -1.
         -2   -1    0    0    0  501 -0.00000000000E+00 -0.00000000000E+00 -0.49901215548E+02  0.49901215548E+02  0.00000000000E+00 0.  1.
         21    1    1    2  502  503 -0.16391476271E+02  0.74529870793E+02  0.40858912447E+02  0.86561150992E+02  0.00000000000E+00 0. -1.
         21    1    1    2  503  501  0.16391476271E+02 -0.74529870793E+02  0.26770249459E+02  0.80870442010E+02  0.00000000000E+00 0.  1.
</event>
<event>
 4    1  0.5568520E+002  0.2062785E+02  0.7546771E-02  0.1524645E+00
          2   -1    0    0  503    0  0.00000000000E+00  0.00000000000E+00  0.47156020332E+01  0.47156020332E+01  0.00000000000E+00 0. -1.
         -2   -1    0    0    0  501 -0.00000000000E+00 -0.00000000000E+00 -0.25382619565E+03  0.25382619565E+03  0.00000000000E+00 0.  1.
         21    1    1    2  502  501 -0.20521321365E+02  0.20936824575E+01 -0.22833530421E+03  0.22926517242E+03  0.00000000000E+00 0.  1.
         21    1    1    2  503  502  0.20521321365E+02 -0.20936824575E+01 -0.20775289408E+02  0.29276625263E+02  0.00000000000E+00 0. -1.
</event>
<event>
 4    1  0.5568520E+002  0.2973590E+02  0.7546771E-02  0.1421906E+00
          2   -1    0    0  502    0  0.00000000000E+00  0.00000000000E+00  0.31564470981E+03  0.31564470981E+03  0.00000000000E+00 0. -1.
         -2   -1    0    0    0  501 -0.00000000000E+00 -0.00000000000E+00 -0.31817109164E+01  0.31817109164E+01  0.00000000000E+00 0.  1.
         21    1    1    2  502  503  0.10651590089E+02  0.27762692558E+02  0.21135110082E+03  0.21343268561E+03  0.00000000000E+00 0.  1.
         21    1    1    2  503  501 -0.10651590089E+02 -0.27762692558E+02  0.10111189808E+03  0.10539373512E+03  0.00000000000E+00 0. -1.
</event>
<event>
 4    1  0.5568520E+002  0.2685316E+02  0.7546771E-02  0.1449089E+00
          2   -1    0    0  503    0  0.00000000000E+00  0.00000000000E+00  0.30811944262E+03  0.30811944262E+03  0.00000000000E+00 0. -1.
         -2   -1    0    0    0  501 -0.00000000000E+00 -0.00000000000E+00 -0.60504617463E+01  0.60504617463E+01  0.00000000000E+00 0.  1.
         21    1    1    2  502  501 -0.17159094694E+02 -0.20655688494E+02  0.28025534179E+02  0.38813948059E+02  0.00000000000E+00 0.  1.
         21    1    1    2  503  502  0.17159094694E+02  0.20655688494E+02  0.27404344669E+03  0.27535595631E+03  0.00000000000E+00 0. -1.
</event>
<event>
 4    1  0.5568520E+002  0.4751934E+02  0.7546771E-02  0.1309301E+00
          2   -1    0    0  503    0  0.00000000000E+00  0.00000000000E+00  0.21179235046E+02  0.21179235046E+02  0.00000000000E+00 0. -1.
         -2   -1    0    0    0  501 -0.00000000000E+00 -0.00000000000E+00 -0.11956518637E+03  0.11956518637E+03  0.00000000000E+00 0.  1.
         21    1    1    2  502  501  0.63884568501E+01  0.47087951384E+02 -0.72350206718E+02  0.86560036729E+02  0.00000000000E+00 0.  1.
         21    1    1    2  503  502 -0.63884568501E+01 -0.47087951384E+02 -0.26035744601E+02  0.54184384682E+02  0.00000000000E+00 0. -1.
</event>
<event>
 4    1  0.5568520E+002  0.2636499E+02  0.7546771E-02  0.1454093E+00
          2   -1    0    0  503    0  0.00000000000E+00  0.00000000000E+00  0.43611319218E+03  0.43611319218E+03  0.00000000000E+00 0.  1.
         -2   -1    0    0    0  501 -0.00000000000E+00 -0.00000000000E+00 -0.91600799362E+01  0.91600799362E+01  0.00000000000E+00 0. -1.
         21    1    1    2  502  501  0.44571947869E+01  0.25985497018E+02  0.11134634417E+02  0.28619796020E+02  0.00000000000E+00 0. -1.
         21    1    1    2  503  502 -0.44571947869E+01 -0.25985497018E+02  0.41581847783E+03  0.41665347609E+03  0.00000000000E+00 0.  1.
</event>
<event>
 4    1  0.5568520E+002  0.2411468E+02  0.7546771E-02  0.1478956E+00
          2   -1    0    0  502    0  0.00000000000E+00  0.00000000000E+00  0.40366115047E+03  0.40366115047E+03  0.00000000000E+00 0. -1.
         -2   -1    0    0    0  501 -0.00000000000E+00 -0.00000000000E+00 -0.30856754565E+01  0.30856754565E+01  0.00000000000E+00 0.  1.
         21    1    1    2  502  503  0.24113941480E+02 -0.18822931545E+00  0.34878240892E+03  0.34961505456E+03  0.00000000000E+00 0. -1.
         21    1    1    2  503  501 -0.24113941480E+02  0.18822931545E+00  0.51793066098E+02  0.57131771369E+02  0.00000000000E+00 0.  1.
</event>
<event>
 4    1  0.5568520E+002  0.2865209E+02  0.7546771E-02  0.1431683E+00
          2   -1    0    0  503    0  0.00000000000E+00  0.00000000000E+00  0.16246693016E+03  0.16246693016E+03  0.00000000000E+00 0.  1.
         -2   -1    0    0    0  501 -0.00000000000E+00 -0.00000000000E+00 -0.36640494279E+02  0.36640494279E+02  0.00000000000E+00 0. -1.
         21    1    1    2  502  501 -0.28017307674E+02  0.59977477545E+01 -0.29521369571E+02  0.41139442981E+02  0.00000000000E+00 0. -1.
         21    1    1    2  503  502  0.28017307674E+02 -0.59977477545E+01  0.15534780546E+03  0.15796798146E+03  0.00000000000E+00 0.  1.
</event>
<event>
 4    1  0.5568520E+002  0.4504828E+02  0.7546771E-02  0.1321198E+00
          2   -1    0    0  503    0  0.00000000000E+00  0.00000000000E+00  0.79129120803E+03  0.79129120803E+03  0.00000000000E+00 0.  1.
         -2   -1    0    0    0  501 -0.00000000000E+00 -0.00000000000E+00 -0.25870852348E+01  0.25870852348E+01  0.00000000000E+00 0. -1.
         21    1    1    2  502  501  0.84627428125E+01  0.44246236650E+02  0.43135552358E+03  0.43370143554E+03  0.00000000000E+00 0.  1.
         21    1    1    2  503  502 -0.84627428125E+01 -0.44246236650E+02  0.35734859922E+03  0.36017685772E+03  0.00000000000E+00 0. -1.
</event>
<event>
 4    1  0.5568520E+002  0.2489316E+02  0.7546771E-02  0.1470002E+00
          2   -1    0    0  503    0  0.00000000000E+00  0.00000000000E+00  0.26868898111E+03  0.26868898111E+03  0.00000000000E+00 0. -1.
         -2   -1    0    0    0  501 -0.00000000000E+00 -0.00000000000E+00 -0.24048416390E+01  0.24048416390E+01  0.00000000000E+00 0.  1.
         21    1    1    2  502  501 -0.24261018049E+02  0.55742520945E+01  0.10569962426E+03  0.10859134335E+03  0.00000000000E+00 0.  1.
         21    1    1    2  503  502  0.24261018049E+02 -0.55742520945E+01  0.16058451522E+03  0.16250247940E+03  0.00000000000E+00 0. -1.
</event>
<event>
 4    1  0.5568520E+002  0.2949552E+02  0.7546771E-02  0.1424032E+00
          2   -1    0    0  502    0  0.00000000000E+00  0.00000000000E+00  0.12763444987E+02  0.12763444987E+02  0.00000000000E+00 0. -1.
         -2   -1    0    0    0  501 -0.00000000000E+00 -0.00000000000E+00 -0.22590652051E+03  0.22590652051E+03  0.00000000000E+00 0.  1.
         21    1    1    2  502  503  0.29407811070E+02 -0.22729019661E+01 -0.68520232826E+01  0.30280945466E+02  0.00000000000E+00 0. -1.
         21    1    1    2  503  501 -0.29407811070E+02  0.22729019661E+01 -0.20629105224E+03  0.20838902003E+03  0.00000000000E+00 0.  1.
</event>
<event>
 4    1  0.5568520E+002  0.2026432E+02  0.7546771E-02  0.1530033E+00
          2   -1    0    0  502    0  0.00000000000E+00  0.00000000000E+00  0.31614912579E+02  0.31614912579E+02  0.00000000000E+00 0. -1.
         -2   -1    0    0    0  501 -0.00000000000E+00 -0.00000000000E+00 -0.14913691382E+02  0.14913691382E+02  0.00000000000E+00 0.  1.
         21    1    1    2  502  503 -0.13599229092E+02 -0.15023431888E+02 -0.71651144971E-02  0.20264318121E+02  0.00000000000E+00 0.  1.
         21    1    1    2  503  501  0.13599229092E+02  0.15023431888E+02  0.16708386311E+02  0.26264285840E+02  0.00000000000E+00 0. -1.
</event>
<event>
 4    1  0.5568520E+002  0.2041979E+02  0.7546771E-02  0.1527712E+00
          2   -1    0    0  502    0  0.00000000000E+00  0.00000000000E+00  0.61129794865E+03  0.61129794865E+03  0.00000000000E+00 0. -1.
         -2   -1    0    0    0  501 -0.00000000000E+00 -0.00000000000E+00 -0.16504446680E+01  0.16504446680E+01  0.00000000000E+00 0.  1.
         21    1    1    2  502  503  0.16477770000E+02 -0.12060308417E+02  0.53957495260E+03  0.53996119992E+03  0.00000000000E+00 0. -1.
         21    1    1    2  503  501 -0.16477770000E+02  0.12060308417E+02  0.70072551386E+02  0.72987193404E+02  0.00000000000E+00 0.  1.
</event>
<event>
 4    1  0.5568520E+002  0.3446697E+02  0.7546771E-02  0.1384350E+00
          2   -1    0    0  502    0  0.00000000000E+00  0.00000000000E+00  0.61519258578E+03  0.61519258578E+03  0.00000000000E+00 0.  1.
         -2   -1    0    0    0  501 -0.00000000000E+00 -0.00000000000E+00 -0.22230259665E+01  0.22230259665E+01  0.00000000000E+00 0. -1.
         21    1    1    2  502  503 -0.24080633194E+02 -0.24659581440E+02  0.41836255144E+03  0.41977993795E+03  0.00000000000E+00 0.  1.
         21    1    1    2  503  501  0.24080633194E+02  0.24659581440E+02  0.19460700837E+03  0.19763567381E+03  0.00000000000E+00 0. -1.
</event>
<event>
 4    1  0.5568520E+002  0.2092381E+02  0.7546771E-02  0.1520355E+00
          2   -1    0    0  503    0  0.00000000000E+00  0.00000000000E+00  0.70467972614E+03  0.70467972614E+03  0.00000000000E+00 0. -1.
         -2   -1    0    0    0  501 -0.00000000000E+00 -0.00000000000E+00 -0.97317137931E+00  0.97317137931E+00  0.00000000000E+00 0.  1.
         21    1    1    2  502  501  0.20680808683E+02 -0.31796451899E+01  0.13969082254E+03  0.14124918369E+03  0.00000000000E+00 0.  1.
         21    1    1    2  503  502 -0.20680808683E+02  0.31796451899E+01  0.56401573223E+03  0.56440371383E+03  0.00000000000E+00 0. -1.
</event>
<event>
 4    1  0.5568520E+002  0.2501595E+02  0.7546771E-02  0.1468625E+00
          2   -1    0    0  502    0  0.00000000000E+00  0.00000000000E+00  0.15159562531E+04  0.15159562531E+04  0.00000000000E+00 0. -1.
         -2   -1    0    0    0  501 -0.00000000000E+00 -0.00000000000E+00 -0.43202166928E+00  0.43202166928E+00  0.00000000000E+00 0.  1.
         21    1    1    2  502  503  0.10118750414E+02  0.22878127810E+02  0.91765917175E+03  0.91800008352E+03  0.00000000000E+00 0. -1.
         21    1    1    2  503  501 -0.10118750414E+02 -0.22878127810E+02  0.59786505966E+03  0.59838819123E+03  0.00000000000E+00 0.  1.
</event>
<event>
 4    1  0.5568520E+002  0.2111596E+02  0.7546771E-02  0.1517616E+00
          2   -1    0    0  503    0  0.00000000000E+00  0.00000000000E+00  0.14275724174E+02  0.14275724174E+02  0.00000000000E+00 0. -1.
         -2   -1    0    0    0  501 -0.00000000000E+00 -0.00000000000E+00 -0.40580977368E+02  0.40580977368E+02  0.00000000000E+00 0.  1.
         21    1    1    2  502  501  0.19311418468E+02  0.85412493479E+01 -0.26316411726E+02  0.33740737245E+02  0.00000000000E+00 0.  1.
         21    1    1    2  503  502 -0.19311418468E+02 -0.85412493479E+01  0.11158532747E-01  0.21115964297E+02  0.00000000000E+00 0. -1.
</event>
<event>
 4    1  0.5568520E+002  0.3055398E+02  0.7546771E-02  0.1414842E+00
          2   -1    0    0  503    0  0.00000000000E+00  0.00000000000E+00  0.46091883343E+03  0.46091883343E+03  0.00000000000E+00 0. -1.
         -2   -1    0    0    0  501 -0.00000000000E+00 -0.00000000000E+00 -0.40826485278E+01  0.40826485278E+01  0.00000000000E+00 0.  1.
         21    1    1    2  502  501  0.30525927270E+02  0.13088772193E+01  0.63375272530E+02  0.70356027201E+02  0.00000000000E+00 0.  1.
         21    1    1    2  503  502 -0.30525927270E+02 -0.13088772193E+01  0.39346091237E+03  0.39464545475E+03  0.00000000000E+00 0. -1.
</event>
<event>
 4    1  0.5568520E+002  0.2188516E+02  0.7546771E-02  0.1506993E+00
          2   -1    0    0  502    0  0.00000000000E+00  0.00000000000E+00  0.40759293408E+02  0.40759293408E+02  0.00000000000E+00 0.  1.
         -2   -1    0    0    0  501 -0.00000000000E+00 -0.00000000000E+00 -0.19998601719E+02  0.19998601719E+02  0.00000000000E+00 0. -1.
         21    1    1    2  502  503  0.62691053442E+01  0.20968039502E+02  0.29889484788E+02  0.37045130088E+02  0.00000000000E+00 0.  1.
         21    1    1    2  503  501 -0.62691053442E+01 -0.20968039502E+02 -0.91287930981E+01  0.23712765039E+02  0.00000000000E+00 0. -1.
</event>
<event>
 4    1  0.5568520E+002  0.2549102E+02  0.7546771E-02  0.1463385E+00
          2   -1    0    0  502    0  0.00000000000E+00  0.00000000000E+00  0.99589069667E+01  0.99589069667E+01  0.00000000000E+00 0.  1.
         -2   -1    0    0    0  501 -0.00000000000E+00 -0.00000000000E+00 -0.87622168707E+02  0.87622168707E+02  0.00000000000E+00 0. -1.
         21    1    1    2  502  503  0.17459756265E+02 -0.18572798313E+02 -0.14176419944E+02  0.29167838597E+02  0.00000000000E+00 0.  1.
         21    1    1    2  503  501 -0.17459756265E+02  0.18572798313E+02 -0.63486841797E+02  0.68413237077E+02  0.00000000000E+00 0. -1.
</event>
<event>
 4    1  0.5568520E+002  0.2199269E+02  0.7546771E-02  0.1505550E+00
          2   -1    0    0  502    0  0.00000000000E+00  0.00000000000E+00  0.26159908890E+02  0.26159908890E+02  0.00000000000E+00 0. -1.
         -2   -1    0    0    0  501 -0.00000000000E+00 -0.00000000000E+00 -0.19352623475E+02  0.19352623475E+02  0.00000000000E+00 0.  1.
         21    1    1    2  502  503 -0.15007685184E+02 -0.16076317291E+02  0.82099998812E+01  0.23475150485E+02  0.00000000000E+00 0. -1.
         21    1    1    2  503  501  0.15007685184E+02  0.16076317291E+02 -0.14027144665E+01  0.22037381880E+02  0.00000000000E+00 0.  1.
</event>
<event>
 4    1  0.5568520E+002  0.2339662E+02  0.7546771E-02  0.1487577E+00
          2   -1    0    0  502    0  0.00000000000E+00  0.00000000000E+00  0.16351038805E+03  0.16351038805E+03  0.00000000000E+00 0.  1.
         -2   -1    0    0    0  501 -0.00000000000E+00 -0.00000000000E+00 -0.48595853291E+01  0.48595853291E+01  0.00000000000E+00 0. -1.
         21    1    1    2  502  503  0.49548787062E+01 -0.22865934761E+02  0.12628005001E+03  0.12842917436E+03  0.00000000000E+00 0.  1.
         21    1    1    2  503  501 -0.49548787062E+01  0.22865934761E+02  0.32370752711E+02  0.39940799023E+02  0.00000000000E+00 0. -1.
</event>
<event>
 4    1  0.5568520E+002  0.5497699E+02  0.7546771E-02  0.1277925E+00
          2   -1    0    0  502    0  0.00000000000E+00  0.00000000000E+00  0.33119346846E+03  0.33119346846E+03  0.00000000000E+00 0. -1.
         -2   -1    0    0    0  501 -0.00000000000E+00 -0.00000000000E+00 -0.91339593031E+01  0.91339593031E+01  0.00000000000E+00 0.  1.
         21    1    1    2  502  503  0.31245178444E+02  0.45235029974E+02  0.15600425578E+03  0.16540797119E+03  0.00000000000E+00 0.  1.
         21    1    1    2  503  501 -0.31245178444E+02 -0.45235029974E+02  0.16605525338E+03  0.17491945658E+03  0.00000000000E+00 0. -1.
</event>
<event>
 4    1  0.5568520E+002  0.2288383E+02  0.7546771E-02  0.1493962E+00
          2   -1    0    0  503    0  0.00000000000E+00  0.00000000000E+00  0.36027847013E+02  0.36027847013E+02  0.00000000000E+00 0. -1.
         -2   -1    0    0    0  501 -0.00000000000E+00 -0.00000000000E+00 -0.21365816094E+02  0.21365816094E+02  0.00000000000E+00 0.  1.
         21    1    1    2  502  501  0.21796541224E+02 -0.69699714218E+01 -0.88947849792E+01  0.24551719100E+02  0.00000000000E+00 0.  1.
         21    1    1    2  503  502 -0.21796541224E+02  0.69699714218E+01  0.23556815898E+02  0.32841944007E+02  0.00000000000E+00 0. -1.
</event>
<event>
 4    1  0.5568520E+002  0.2081874E+02  0.7546771E-02  0.1521869E+00
          2   -1    0    0  502    0  0.00000000000E+00  0.00000000000E+00  0.62313958824E+01  0.62313958824E+01  0.00000000000E+00 0.  1.
         -2   -1    0    0    0  501 -0.00000000000E+00 -0.00000000000E+00 -0.18198677652E+03  0.18198677652E+03  0.00000000000E+00 0. -1.
         21    1    1    2  502  503 -0.54551221398E+01 -0.20091334594E+02 -0.13907349431E+02  0.25036662148E+02  0.00000000000E+00 0.  1.
         21    1    1    2  503  501  0.54551221398E+01  0.20091334594E+02 -0.16184803120E+03  0.16318151025E+03  0.00000000000E+00 0. -1.
</event>
<event>
 4    1  0.5568520E+002  0.2116352E+02  0.7546771E-02  0.1516943E+00
          2   -1    0    0  503    0  0.00000000000E+00  0.00000000000E+00  0.11028518698E+03  0.11028518698E+03  0.00000000000E+00 0.  1.
         -2   -1    0    0    0  501 -0.00000000000E+00 -0.00000000000E+00 -0.44576308799E+01  0.44576308799E+01  0.00000000000E+00 0. -1.
         21    1    1    2  502  501  0.10088405394E+02 -0.18604268674E+02  0.35805563926E+02  0.41592464995E+02  0.00000000000E+00 0. -1.
         21    1    1    2  503  502 -0.10088405394E+02  0.18604268674E+02  0.70021992173E+02  0.73150352864E+02  0.00000000000E+00 0.  1.
</event>
<event>
 4    1  0.5568520E+002  0.2649250E+02  0.7546771E-02  0.1452774E+00
          2   -1    0    0  502    0  0.00000000000E+00  0.00000000000E+00  0.30070048004E+03  0.30070048004E+03  0.00000000000E+00 0. -1.
         -2   -1    0    0    0  501 -0.00000000000E+00 -0.00000000000E+00 -0.29615864157E+01  0.29615864157E+01  0.00000000000E+00 0.  1.
         21    1    1    2  502  503  0.17235443404E+02 -0.20119448390E+02  0.21875938172E+03  0.22035770875E+03  0.00000000000E+00 0. -1.
         21    1    1    2  503  501 -0.17235443404E+02  0.20119448390E+02  0.78979511895E+02  0.83304357702E+02  0.00000000000E+00 0.  1.
</event>
<event>
 4    1  0.5568520E+002  0.2822865E+02  0.7546771E-02  0.1435642E+00
          2   -1    0    0  502    0  0.00000000000E+00  0.00000000000E+00  0.59918180464E+02  0.59918180464E+02  0.00000000000E+00 0.  1.
         -2   -1    0    0    0  501 -0.00000000000E+00 -0.00000000000E+00 -0.37924683559E+02  0.37924683559E+02  0.00000000000E+00 0. -1.
         21    1    1    2  502  503  0.23802979256E+01  0.28128112266E+02  0.50418112104E+02  0.57782718403E+02  0.00000000000E+00 0.  1.
         21    1    1    2  503  501 -0.23802979256E+01 -0.28128112266E+02 -0.28424615199E+02  0.40060145620E+02  0.00000000000E+00 0. -1.
</event>
<event>
 4    1  0.5568520E+002  0.2153798E+02  0.7546771E-02  0.1511721E+00
          2   -1    0    0  502    0  0.00000000000E+00  0.00000000000E+00  0.16884778364E+02  0.16884778364E+02  0.00000000000E+00 0. -1.
         -2   -1    0    0    0  501 -0.00000000000E+00 -0.00000000000E+00 -0.35504693800E+02  0.35504693800E+02  0.00000000000E+00 0.  1.
         21    1    1    2  502  503 -0.89734209008E+01 -0.19579639795E+02  0.31483829848E+01  0.21766876041E+02  0.00000000000E+00 0. -1.
         21    1    1    2  503  501  0.89734209008E+01  0.19579639795E+02 -0.21768298421E+02  0.30622596123E+02  0.00000000000E+00 0.  1.
</event>
<event>
 4    1  0.5568520E+002  0.4131968E+02  0.7546771E-02  0.1340921E+00
          2   -1    0    0  502    0  0.00000000000E+00  0.00000000000E+00  0.16681296481E+03  0.16681296481E+03  0.00000000000E+00 0. -1.
         -2   -1    0    0    0  501 -0.00000000000E+00 -0.00000000000E+00 -0.10386814741E+02  0.10386814741E+02  0.00000000000E+00 0.  1.
         21    1    1    2  502  503 -0.39293844209E+02  0.12779258674E+02  0.88927724494E+02  0.98058430687E+02  0.00000000000E+00 0. -1.
         21    1    1    2  503  501  0.39293844209E+02 -0.12779258674E+02  0.67498425576E+02  0.79141348865E+02  0.00000000000E+00 0.  1.
</event>
<event>
 4    1  0.5568520E+002  0.2043534E+02  0.7546771E-02  0.1527481E+00
          2   -1    0    0  502    0  0.00000000000E+00  0.00000000000E+00  0.46238220824E+01  0.46238220824E+01  0.00000000000E+00 0.  1.
         -2   -1    0    0    0  501 -0.00000000000E+00 -0.00000000000E+00 -0.94019059888E+02  0.94019059888E+02  0.00000000000E+00 0. -1.
         21    1    1    2  502  503 -0.16744759754E+02  0.11713936951E+02 -0.34908779228E+02  0.40450292524E+02  0.00000000000E+00 0.  1.
         21    1    1    2  503  501  0.16744759754E+02 -0.11713936951E+02 -0.54486458578E+02  0.58192589447E+02  0.00000000000E+00 0. -1.
</event>
<event>
 4    1  0.5568520E+002  0.2830123E+02  0.7546771E-02  0.1434957E+00
          2   -1    0    0  503    0  0.00000000000E+00  0.00000000000E+00  0.38536360720E+03  0.38536360720E+03  0.00000000000E+00 0.  1.
         -2   -1    0    0    0  501 -0.00000000000E+00 -0.00000000000E+00 -0.48237658947E+01  0.48237658947E+01  0.00000000000E+00 0. -1.
         21    1    1    2  502  501 -0.12715484848E+02  0.25283913841E+02  0.43090838967E+02  0.51553663856E+02  0.00000000000E+00 0. -1.
         21    1    1    2  503  502  0.12715484848E+02 -0.25283913841E+02  0.33744900234E+03  0.33863370924E+03  0.00000000000E+00 0.  1.
</event>
<event>
 4    1  0.5568520E+002  0.2113487E+02  0.7546771E-02  0.1517348E+00
          2   -1    0    0  503    0  0.00000000000E+00  0.00000000000E+00  0.65882680824E+02  0.65882680824E+02  0.00000000000E+00 0. -1.
         -2   -1    0    0    0  501 -0.00000000000E+00 -0.00000000000E+00 -0.18288550005E+02  0.18288550005E+02  0.00000000000E+00 0.  1.
         21    1    1    2  502  501 -0.20955540677E+02 -0.27473721408E+01 -0.95882032811E+01  0.23208110240E+02  0.00000000000E+00 0.  1.
         21    1    1    2  503  502  0.20955540677E+02  0.27473721408E+01  0.57182334100E+02  0.60963120589E+02  0.00000000000E+00 0. -1.
</event>
<event>
 4    1  0.5568520E+002  0.2982252E+02  0.7546771E-02  0.1421145E+00
          2   -1    0    0  503    0  0.00000000000E+00  0.00000000000E+00  0.49556443775E+03  0.49556443775E+03  0.00000000000E+00 0.  1.
         -2   -1    0    0    0  501 -0.00000000000E+00 -0.00000000000E+00 -0.97913343937E+01  0.97913343937E+01  0.00000000000E+00 0. -1.
         21    1    1    2  502  501  0.23860790801E+02 -0.17889811949E+02  0.14536935673E+02  0.33176877611E+02  0.00000000000E+00 0. -1.
         21    1    1    2  503  502 -0.23860790801E+02  0.17889811949E+02  0.47123616768E+03  0.47217889453E+03  0.00000000000E+00 0.  1.
</event>
<event>
 4    1  0.5568520E+002  0.2272201E+02  0.7546771E-02  0.1496019E+00
          2   -1    0    0  503    0  0.00000000000E+00  0.00000000000E+00  0.42062285442E+03  0.42062285442E+03  0.00000000000E+00 0.  1.
         -2   -1    0    0    0  501 -0.00000000000E+00 -0.00000000000E+00 -0.19576538476E+01  0.19576538476E+01  0.00000000000E+00 0. -1.
         21    1    1    2  502  501  0.22435939808E+02  0.35942063227E+01  0.80289061171E+02  0.83442333727E+02  0.00000000000E+00 0. -1.
         21    1    1    2  503  502 -0.22435939808E+02 -0.35942063227E+01  0.33837613940E+03  0.33913817454E+03  0.00000000000E+00 0.  1.
</event>
<event>
 4    1  0.5568520E+002  0.3413304E+02  0.7546771E-02  0.1386763E+00
          2   -1    0    0  503    0  0.00000000000E+00  0.00000000000E+00  0.20794169687E+04  0.20794169687E+04  0.00000000000E+00 0. -1.
         -2   -1    0    0    0  501 -0.00000000000E+00 -0.00000000000E+00 -0.72611481154E+00  0.72611481154E+00  0.00000000000E+00 0.  1.
         21    1    1    2  502  501  0.32743146431E+02  0.96410855736E+01  0.54230340436E+03  0.54337652373E+03  0.00000000000E+00 0.  1.
         21    1    1    2  503  502 -0.32743146431E+02 -0.96410855736E+01  0.15363874496E+04  0.15367665598E+04  0.00000000000E+00 0. -1.
</event>
<event>
 4    1  0.5568520E+002  0.2123675E+02  0.7546771E-02  0.1515911E+00
          2   -1    0    0  503    0  0.00000000000E+00  0.00000000000E+00  0.27352852401E+03  0.27352852401E+03  0.00000000000E+00 0.  1.
         -2   -1    0    0    0  501 -0.00000000000E+00 -0.00000000000E+00 -0.35668546316E+01  0.35668546316E+01  0.00000000000E+00 0. -1.
         21    1    1    2  502  501  0.17764088080E+01 -0.21162323460E+02  0.33382942923E+02  0.39565394484E+02  0.00000000000E+00 0. -1.
         21    1    1    2  503  502 -0.17764088080E+01  0.21162323460E+02  0.23657872645E+03  0.23752998416E+03  0.00000000000E+00 0.  1.
</event>
<event>
 4    1  0.5568520E+002  0.3048322E+02  0.7546771E-02  0.1415443E+00
          2   -1    0    0  503    0  0.00000000000E+00  0.00000000000E+00  0.80421279772E+02  0.80421279772E+02  0.00000000000E+00 0. -1.
         -2   -1    0    0    0  501 -0.00000000000E+00 -0.00000000000E+00 -0.12441866194E+02  0.12441866194E+02  0.00000000000E+00 0.  1.
         21    1    1    2  502  501 -0.13538881095E+02 -0.27311629910E+02  0.21589587327E+02  0.37354206063E+02  0.00000000000E+00 0. -1.
         21    1    1    2  503  502  0.13538881095E+02  0.27311629910E+02  0.46389826251E+02  0.55508939904E+02  0.00000000000E+00 0.  1.
</event>
<event>
 4    1  0.5568520E+002  0.4312551E+02  0.7546771E-02  0.1331083E+00
          2   -1    0    0  503    0  0.00000000000E+00  0.00000000000E+00  0.53987575492E+02  0.53987575492E+02  0.00000000000E+00 0.  1.
         -2   -1    0    0    0  501 -0.00000000000E+00 -0.00000000000E+00 -0.97850575711E+02  0.97850575711E+02  0.00000000000E+00 0. -1.
         21    1    1    2  502  501  0.24910741538E+02 -0.35203192890E+02 -0.83042552380E+02  0.93572834409E+02  0.00000000000E+00 0. -1.
         21    1    1    2  503  502 -0.24910741538E+02  0.35203192890E+02  0.39179552160E+02  0.58265316794E+02  0.00000000000E+00 0.  1.
</event>
<event>
 4    1  0.5568520E+002  0.2235799E+02  0.7546771E-02  0.1500721E+00
          2   -1    0    0  502    0  0.00000000000E+00  0.00000000000E+00  0.21492597229E+02  0.21492597229E+02  0.00000000000E+00 0. -1.
         -2   -1    0    0    0  501 -0.00000000000E+00 -0.00000000000E+00 -0.28232027692E+02  0.28232027692E+02  0.00000000000E+00 0.  1.
         21    1    1    2  502  503  0.12540524740E+02  0.18509865372E+02  0.70658103015E+01  0.23447932788E+02  0.00000000000E+00 0. -1.
         21    1    1    2  503  501 -0.12540524740E+02 -0.18509865372E+02 -0.13805240765E+02  0.26276692132E+02  0.00000000000E+00 0.  1.
</event>
<event>
 4    1  0.5568520E+002  0.2178079E+02  0.7546771E-02  0.1508403E+00
          2   -1    0    0  502    0  0.00000000000E+00  0.00000000000E+00  0.19342346998E+03  0.19342346998E+03  0.00000000000E+00 0. -1.
         -2   -1    0    0    0  501 -0.00000000000E+00 -0.00000000000E+00 -0.26794173293E+01  0.26794173293E+01  0.00000000000E+00 0.  1.
         21    1    1    2  502  503  0.15478518822E+02  0.15323787988E+02  0.12389596218E+03  0.12579591594E+03  0.00000000000E+00 0.  1.
         21    1    1    2  503  501 -0.15478518822E+02 -0.15323787988E+02  0.66848090473E+02  0.70306971370E+02  0.00000000000E+00 0. -1.
</event>
<event>
 4    1  0.5568520E+002  0.2164668E+02  0.7546771E-02  0.1510229E+00
          2   -1    0    0  503    0  0.00000000000E+00  0.00000000000E+00  0.25339894191E+04  0.25339894191E+04  0.00000000000E+00 0.  1.
         -2   -1    0    0    0  501 -0.00000000000E+00 -0.00000000000E+00 -0.18961644196E+00  0.18961644196E+00  0.00000000000E+00 0. -1.
         21    1    1    2  502  501 -0.17768077693E+02  0.12364236262E+02  0.10674331427E+04  0.10676526088E+04  0.00000000000E+00 0.  1.
         21    1    1    2  503  502  0.17768077693E+02 -0.12364236262E+02  0.14663666599E+04  0.14665264267E+04  0.00000000000E+00 0. -1.
</event>
<event>
 4    1  0.5568520E+002  0.4162371E+02  0.7546771E-02  0.1339225E+00
          2   -1    0    0  503    0  0.00000000000E+00  0.00000000000E+00  0.30396921460E+01  0.30396921460E+01  0.00000000000E+00 0.  1.
         -2   -1    0    0    0  501 -0.00000000000E+00 -0.00000000000E+00 -0.67326658817E+03  0.67326658817E+03  0.00000000000E+00 0. -1.
         21    1    1    2  502  501 -0.93573933838E+01  0.40558260482E+02 -0.46756678419E+03  0.46941584015E+03  0.00000000000E+00 0. -1.
         21    1    1    2  503  502  0.93573933838E+01 -0.40558260482E+02 -0.20266011184E+03  0.20689044017E+03  0.00000000000E+00 0.  1.
</event>
<event>
 4    1  0.5568520E+002  0.2836169E+02  0.7546771E-02  0.1434389E+00
          2   -1    0    0  503    0  0.00000000000E+00  0.00000000000E+00  0.20038292160E+03  0.20038292160E+03  0.00000000000E+00 0.  1.
         -2   -1    0    0    0  501 -0.00000000000E+00 -0.00000000000E+00 -0.44666959741E+01  0.44666959741E+01  0.00000000000E+00 0. -1.
         21    1    1    2  502  501  0.24446128027E+02  0.14379579677E+02  0.65359486826E+02  0.71247792986E+02  0.00000000000E+00 0.  1.
         21    1    1    2  503  502 -0.24446128027E+02 -0.14379579677E+02  0.13055673880E+03  0.13360182459E+03  0.00000000000E+00 0. -1.
</event>
<event>
 4    1  0.5568520E+002  0.2115101E+02  0.7546771E-02  0.1517120E+00
          2   -1    0    0  502    0  0.00000000000E+00  0.00000000000E+00  0.62346242685E+01  0.62346242685E+01  0.00000000000E+00 0. -1.
         -2   -1    0    0    0  501 -0.00000000000E+00 -0.00000000000E+00 -0.10083028082E+03  0.10083028082E+03  0.00000000000E+00 0.  1.
         21    1    1    2  502  503 -0.34875993108E+01  0.20861490611E+02 -0.18551392788E+02  0.28133953043E+02  0.00000000000E+00 0. -1.
         21    1    1    2  503  501  0.34875993108E+01 -0.20861490611E+02 -0.76044263765E+02  0.78930952047E+02  0.00000000000E+00 0.  1.
</event>
<event>
 4    1  0.5568520E+002  0.2302090E+02  0.7546771E-02  0.1492236E+00
          2   -1    0    0  502    0  0.00000000000E+00  0.00000000000E+00  0.63265384160E+03  0.63265384160E+03  0.00000000000E+00 0. -1.
         -2   -1    0    0    0  501 -0.00000000000E+00 -0.00000000000E+00 -0.17625605297E+01  0.17625605297E+01  0.00000000000E+00 0.  1.
         21    1    1    2  502  503  0.95089828362E+01 -0.20965239099E+02  0.54522711225E+03  0.54571289698E+03  0.00000000000E+00 0. -1.
         21    1    1    2  503  501 -0.95089828362E+01  0.20965239099E+02  0.85664168825E+02  0.88703505148E+02  0.00000000000E+00 0.  1.
</event>
<event>
 4    1  0.5568520E+002  0.2594293E+02  0.7546771E-02  0.1458526E+00
          2   -1    0    0  502    0  0.00000000000E+00  0.00000000000E+00  0.68017176524E+01  0.68017176524E+01  0.00000000000E+00 0.  1.
         -2   -1    0    0    0  501 -0.00000000000E+00 -0.00000000000E+00 -0.24877085520E+03  0.24877085520E+03  0.00000000000E+00 0. -1.
         21    1    1    2  502  503 -0.33355276485E+01 -0.25727609371E+02 -0.21817054333E+02  0.33897189979E+02  0.00000000000E+00 0.  1.
         21    1    1    2  503  501  0.33355276485E+01  0.25727609371E+02 -0.22015208321E+03  0.22167538287E+03  0.00000000000E+00 0. -1.
</event>
<event>
 4    1  0.5568520E+002  0.2219106E+02  0.7546771E-02  0.1502914E+00
          2   -1    0    0  503    0  0.00000000000E+00  0.00000000000E+00  0.14072684034E+03  0.14072684034E+03  0.00000000000E+00 0.  1.
         -2   -1    0    0    0  501 -0.00000000000E+00 -0.00000000000E+00 -0.44911323648E+02  0.44911323648E+02  0.00000000000E+00 0. -1.
         21    1    1    2  502  501  0.11219800375E+02  0.19145733521E+02 -0.41221985300E+02  0.46815543408E+02  0.00000000000E+00 0. -1.
         21    1    1    2  503  502 -0.11219800375E+02 -0.19145733521E+02  0.13703750199E+03  0.13882262058E+03  0.00000000000E+00 0.  1.
</event>
<event>
 4    1  0.5568520E+002  0.2568119E+02  0.7546771E-02  0.1461325E+00
          2   -1    0    0  503    0  0.00000000000E+00  0.00000000000E+00  0.32447153372E+02  0.32447153372E+02  0.00000000000E+00 0. -1.
         -2   -1    0    0    0  501 -0.00000000000E+00 -0.00000000000E+00 -0.21984912245E+02  0.21984912245E+02  0.00000000000E+00 0.  1.
         21    1    1    2  502  501  0.19928881395E+02  0.16197628420E+02  0.12707020930E+02  0.28652955537E+02  0.00000000000E+00 0.  1.
         21    1    1    2  503  502 -0.19928881395E+02 -0.16197628420E+02 -0.22447798024E+01  0.25779110079E+02  0.00000000000E+00 0. -1.
</event>
<event>
 4    1  0.5568520E+002  0.1016340E+03  0.7546771E-02  0.1161006E+00
          2   -1    0    0  502    0  0.00000000000E+00  0.00000000000E+00  0.36352697570E+03  0.36352697570E+03  0.00000000000E+00 0.  1.
         -2   -1    0    0    0  501 -0.00000000000E+00 -0.00000000000E+00 -0.29334380369E+02  0.29334380369E+02  0.00000000000E+00 0. -1.
         21    1    1    2  502  503  0.34262143667E+02  0.95684744349E+02  0.20187942673E+03  0.22601939680E+03  0.00000000000E+00 0. -1.
         21    1    1    2  503  501 -0.34262143667E+02 -0.95684744349E+02  0.13231316860E+03  0.16684195927E+03  0.00000000000E+00 0.  1.
</event>
<event>
 4    1  0.5568520E+002  0.2207710E+02  0.7546771E-02  0.1504424E+00
          2   -1    0    0  502    0  0.00000000000E+00  0.00000000000E+00  0.23780650771E+02  0.23780650771E+02  0.00000000000E+00 0.  1.
         -2   -1    0    0    0  501 -0.00000000000E+00 -0.00000000000E+00 -0.26189528219E+02  0.26189528219E+02  0.00000000000E+00 0. -1.
         21    1    1    2  502  503  0.19707709074E+02 -0.99501086089E+01  0.10445495222E+02  0.24423489282E+02  0.00000000000E+00 0.  1.
         21    1    1    2  503  501 -0.19707709074E+02  0.99501086089E+01 -0.12854372670E+02  0.25546689708E+02  0.00000000000E+00 0. -1.
</event>
<event>
 4    1  0.5568520E+002  0.2715296E+02  0.7546771E-02  0.1446078E+00
          2   -1    0    0  502    0  0.00000000000E+00  0.00000000000E+00  0.11136775328E+03  0.11136775328E+03  0.00000000000E+00 0. -1.
         -2   -1    0    0    0  501 -0.00000000000E+00 -0.00000000000E+00 -0.66461977403E+01  0.66461977403E+01  0.00000000000E+00 0.  1.
         21    1    1    2  502  503  0.26347892682E+02 -0.65628933599E+01  0.48674248421E+02  0.55735675087E+02  0.00000000000E+00 0.  1.
         21    1    1    2  503  501 -0.26347892682E+02  0.65628933599E+01  0.56047307119E+02  0.62278275934E+02  0.00000000000E+00 0. -1.
</event>
<event>
 4    1  0.5568520E+002  0.2847677E+02  0.7546771E-02  0.1433312E+00
          2   -1    0    0  503    0  0.00000000000E+00  0.00000000000E+00  0.16777198366E+02  0.16777198366E+02  0.00000000000E+00 0. -1.
         -2   -1    0    0    0  501 -0.00000000000E+00 -0.00000000000E+00 -0.12445476049E+03  0.12445476049E+03  0.00000000000E+00 0.  1.
         21    1    1    2  502  501 -0.27924319971E+02 -0.55820166958E+01 -0.10906506513E+03  0.11272140431E+03  0.00000000000E+00 0.  1.
         21    1    1    2  503  502  0.27924319971E+02  0.55820166958E+01  0.13875030076E+01  0.28510554552E+02  0.00000000000E+00 0. -1.
</event>
<event>
 4    1  0.5568520E+002  0.2358084E+02  0.7546771E-02  0.1485330E+00
          2   -1    0    0  502    0  0.00000000000E+00  0.00000000000E+00  0.15829823440E+03  0.15829823440E+03  0.00000000000E+00 0.  1.
         -2   -1    0    0    0  501 -0.00000000000E+00 -0.00000000000E+00 -0.48788561479E+01  0.48788561479E+01  0.00000000000E+00 0. -1.
         21    1    1    2  502  503 -0.15247536269E+02 -0.17988015917E+02  0.11988331014E+03  0.12218045723E+03  0.00000000000E+00 0.  1.
         21    1    1    2  503  501  0.15247536269E+02  0.17988015917E+02  0.33536068111E+02  0.40996633316E+02  0.00000000000E+00 0. -1.
</event>
<event>
 4    1  0.5568520E+002  0.7837168E+02  0.7546771E-02  0.1207679E+00
          2   -1    0    0  503    0  0.00000000000E+00  0.00000000000E+00  0.27125209116E+02  0.27125209116E+02  0.00000000000E+00 0. -1.
         -2   -1    0    0    0  501 -0.00000000000E+00 -0.00000000000E+00 -0.24092260931E+03  0.24092260931E+03  0.00000000000E+00 0.  1.
         21    1    1    2  502  501 -0.30042369599E+02 -0.72384922233E+02 -0.13976331034E+03  0.16023702398E+03  0.00000000000E+00 0.  1.
         21    1    1    2  503  502  0.30042369599E+02  0.72384922233E+02 -0.74034089856E+02  0.10781079444E+03  0.00000000000E+00 0. -1.
</event>
<event>
 4    1  0.5568520E+002  0.4391455E+02  0.7546771E-02  0.1326957E+00
          2   -1    0    0  503    0  0.00000000000E+00  0.00000000000E+00  0.64487688734E+03  0.64487688734E+03  0.00000000000E+00 0. -1.
         -2   -1    0    0    0  501 -0.00000000000E+00 -0.00000000000E+00 -0.59782817537E+01  0.59782817537E+01  0.00000000000E+00 0.  1.
         21    1    1    2  502  501  0.33026911217E+02  0.28943233004E+02  0.89388572563E+02  0.99593195080E+02  0.00000000000E+00 0.  1.
         21    1    1    2  503  502 -0.33026911217E+02 -0.28943233004E+02  0.54951003302E+03  0.55126197402E+03  0.00000000000E+00 0. -1.
</event>
<event>
 4    1  0.5568520E+002  0.2368681E+02  0.7546771E-02  0.1484049E+00
          2   -1    0    0  503    0  0.00000000000E+00  0.00000000000E+00  0.23321344494E+01  0.23321344494E+01  0.00000000000E+00 0. -1.
         -2   -1    0    0    0  501 -0.00000000000E+00 -0.00000000000E+00 -0.24089222614E+03  0.24089222614E+03  0.00000000000E+00 0.  1.
         21    1    1    2  502  501  0.39354919669E+01  0.23357585377E+02 -0.12365833599E+03  0.12590650877E+03  0.00000000000E+00 0. -1.
         21    1    1    2  503  502 -0.39354919669E+01 -0.23357585377E+02 -0.11490175570E+03  0.11731785181E+03  0.00000000000E+00 0.  1.
</event>
<event>
 4    1  0.5568520E+002  0.2812101E+02  0.7546771E-02  0.1436661E+00
          2   -1    0    0  503    0  0.00000000000E+00  0.00000000000E+00  0.18772394752E+03  0.18772394752E+03  0.00000000000E+00 0.  1.
         -2   -1    0    0    0  501 -0.00000000000E+00 -0.00000000000E+00 -0.82788845269E+01  0.82788845269E+01  0.00000000000E+00 0. -1.
         21    1    1    2  502  501  0.27964615654E+02  0.29616874630E+01  0.21039498070E+02  0.35120532462E+02  0.00000000000E+00 0. -1.
         21    1    1    2  503  502 -0.27964615654E+02 -0.29616874630E+01  0.15840556492E+03  0.16088229958E+03  0.00000000000E+00 0.  1.
</event>
<event>
 4    1  0.5568520E+002  0.3474203E+02  0.7546771E-02  0.1382386E+00
          2   -1    0    0  502    0  0.00000000000E+00  0.00000000000E+00  0.16858488852E+04  0.16858488852E+04  0.00000000000E+00 0. -1.
         -2   -1    0    0    0  501 -0.00000000000E+00 -0.00000000000E+00 -0.15884167955E+01  0.15884167955E+01  0.00000000000E+00 0.  1.
         21    1    1    2  502  503 -0.84255433069E+01 -0.33704874882E+02  0.14674270219E+04  0.14678382312E+04  0.00000000000E+00 0. -1.
         21    1    1    2  503  501  0.84255433069E+01  0.33704874882E+02  0.21683344645E+03  0.21959907074E+03  0.00000000000E+00 0.  1.
</event>
<event>
 4    1  0.5568520E+002  0.4855284E+02  0.7546771E-02  0.1304572E+00
          2   -1    0    0  503    0  0.00000000000E+00  0.00000000000E+00  0.40277312392E+03  0.40277312392E+03  0.00000000000E+00 0. -1.
         -2   -1    0    0    0  501 -0.00000000000E+00 -0.00000000000E+00 -0.65913916079E+01  0.65913916079E+01  0.00000000000E+00 0.  1.
         21    1    1    2  502  501 -0.99163023854E+01 -0.47529418063E+02  0.12957781366E+03  0.13837553407E+03  0.00000000000E+00 0.  1.
         21    1    1    2  503  502  0.99163023854E+01  0.47529418063E+02  0.26660391865E+03  0.27098898146E+03  0.00000000000E+00 0. -1.
</event>
<event>
 4    1  0.5568520E+002  0.2213110E+02  0.7546771E-02  0.1503707E+00
          2   -1    0    0  503    0  0.00000000000E+00  0.00000000000E+00  0.48635228436E+03  0.48635228436E+03  0.00000000000E+00 0.  1.
         -2   -1    0    0    0  501 -0.00000000000E+00 -0.00000000000E+00 -0.46961021785E+01  0.46961021785E+01  0.00000000000E+00 0. -1.
         21    1    1    2  502  501  0.21372992051E+02 -0.57428976012E+01  0.23216328403E+02  0.32074656142E+02  0.00000000000E+00 0. -1.
         21    1    1    2  503  502 -0.21372992051E+02  0.57428976012E+01  0.45843985377E+03  0.45897373039E+03  0.00000000000E+00 0.  1.
</event>
<event>
 4    1  0.5568520E+002  0.2141158E+02  0.7546771E-02  0.1513469E+00
          2   -1    0    0  503    0  0.00000000000E+00  0.00000000000E+00  0.88389849068E+02  0.88389849068E+02  0.00000000000E+00 0. -1.
         -2   -1    0    0    0  501 -0.00000000000E+00 -0.00000000000E+00 -0.12696481278E+02  0.12696481278E+02  0.00000000000E+00 0.  1.
         21    1    1    2  502  501 -0.17653196406E+02  0.12116951603E+02 -0.10249689671E+01  0.21436100879E+02  0.00000000000E+00 0. -1.
         21    1    1    2  503  502  0.17653196406E+02 -0.12116951603E+02  0.76718336757E+02  0.79650229467E+02  0.00000000000E+00 0.  1.
</event>
<event>
 4    1  0.5568520E+002  0.2338969E+02  0.7546771E-02  0.1487662E+00
          2   -1    0    0  503    0  0.00000000000E+00  0.00000000000E+00  0.33092189830E+01  0.33092189830E+01  0.00000000000E+00 0.  1.
         -2   -1    0    0    0  501 -0.00000000000E+00 -0.00000000000E+00 -0.80453230941E+03  0.80453230941E+03  0.00000000000E+00 0. -1.
         21    1    1    2  502  501  0.25189801393E+01  0.23253651908E+02 -0.76064864559E+03  0.76100817316E+03  0.00000000000E+00 0. -1.
         21    1    1    2  503  502 -0.25189801393E+01 -0.23253651908E+02 -0.40574444840E+02  0.46833355230E+02  0.00000000000E+00 0.  1.
</event>
<event>
 4    1  0.5568520E+002  0.2080745E+02  0.7546771E-02  0.1522032E+00
          2   -1    0    0  503    0  0.00000000000E+00  0.00000000000E+00  0.56522266107E+02  0.56522266107E+02  0.00000000000E+00 0.  1.
         -2   -1    0    0    0  501 -0.00000000000E+00 -0.00000000000E+00 -0.21040838574E+03  0.21040838574E+03  0.00000000000E+00 0. -1.
         21    1    1    2  502  501 -0.19482612080E+02 -0.73060093105E+01 -0.20795649462E+03  0.20899486500E+03  0.00000000000E+00 0. -1.
         21    1    1    2  503  502  0.19482612080E+02  0.73060093105E+01  0.54070374986E+02  0.57935786839E+02  0.00000000000E+00 0.  1.
</event>
<event>
 4    1  0.5568520E+002  0.2556459E+02  0.7546771E-02  0.1462585E+00
          2   -1    0    0  503    0  0.00000000000E+00  0.00000000000E+00  0.11899295097E+04  0.11899295097E+04  0.00000000000E+00 0. -1.
         -2   -1    0    0    0  501 -0.00000000000E+00 -0.00000000000E+00 -0.60547785497E+00  0.60547785497E+00  0.00000000000E+00 0.  1.
         21    1    1    2  502  501  0.42777175982E+01 -0.25204159199E+02  0.41323390264E+03  0.41402392057E+03  0.00000000000E+00 0. -1.
         21    1    1    2  503  502 -0.42777175982E+01  0.25204159199E+02  0.77609012923E+03  0.77651106701E+03  0.00000000000E+00 0.  1.
</event>
<event>
 4    1  0.5568520E+002  0.2067283E+02  0.7546771E-02  0.1523988E+00
          2   -1    0    0  503    0  0.00000000000E+00  0.00000000000E+00  0.12989780485E+04  0.12989780485E+04  0.00000000000E+00 0. -1.
         -2   -1    0    0    0  501 -0.00000000000E+00 -0.00000000000E+00 -0.38666468801E+00  0.38666468801E+00  0.00000000000E+00 0.  1.
         21    1    1    2  502  501 -0.14606791540E+02  0.14629001504E+02  0.39840634532E+03  0.39894232921E+03  0.00000000000E+00 0.  1.
         21    1    1    2  503  502  0.14606791540E+02 -0.14629001504E+02  0.90018503846E+03  0.90042238394E+03  0.00000000000E+00 0. -1.
</event>
<event>
 4    1  0.5568520E+002  0.2702071E+02  0.7546771E-02  0.1447400E+00
          2   -1    0    0  503    0  0.00000000000E+00  0.00000000000E+00  0.12074533059E+04  0.12074533059E+04  0.00000000000E+00 0.  1.
         -2   -1    0    0    0  501 -0.00000000000E+00 -0.00000000000E+00 -0.39881041091E+01  0.39881041091E+01  0.00000000000E+00 0. -1.
         21    1    1    2  502  501 -0.23247743481E+02  0.13771762255E+02  0.43818163184E+02  0.51479611861E+02  0.00000000000E+00 0. -1.
         21    1    1    2  503  502  0.23247743481E+02 -0.13771762255E+02  0.11596470386E+04  0.11599617981E+04  0.00000000000E+00 0.  1.
</event>
<event>
 4    1  0.5568520E+002  0.2301243E+02  0.7546771E-02  0.1492342E+00
          2   -1    0    0  502    0  0.00000000000E+00  0.00000000000E+00  0.12078631766E+04  0.12078631766E+04  0.00000000000E+00 0. -1.
         -2   -1    0    0    0  501 -0.00000000000E+00 -0.00000000000E+00 -0.65345103008E+00  0.65345103008E+00  0.00000000000E+00 0.  1.
         21    1    1    2  502  503  0.11923811706E+02  0.19682343738E+02  0.95022156267E+03  0.95050017890E+03  0.00000000000E+00 0. -1.
         21    1    1    2  503  501 -0.11923811706E+02 -0.19682343738E+02  0.25698816290E+03  0.25801644873E+03  0.00000000000E+00 0.  1.
</event>
<event>
 4    1  0.5568520E+002  0.2558148E+02  0.7546771E-02  0.1462402E+00
          2   -1    0    0  503    0  0.00000000000E+00  0.00000000000E+00  0.25981456103E+01  0.25981456103E+01  0.00000000000E+00 0.  1.
         -2   -1    0    0    0  501 -0.00000000000E+00 -0.00000000000E+00 -0.43332359625E+03  0.43332359625E+03  0.00000000000E+00 0. -1.
         21    1    1    2  502  501 -0.12861808388E+02  0.22113025892E+02 -0.35640434330E+03  0.35732123915E+03  0.00000000000E+00 0. -1.
         21    1    1    2  503  502  0.12861808388E+02 -0.22113025892E+02 -0.74321107339E+02  0.78600502703E+02  0.00000000000E+00 0.  1.
</event>
<event>
 4    1  0.5568520E+002  0.5176052E+02  0.7546771E-02  0.1290715E+00
          2   -1    0    0  503    0  0.00000000000E+00  0.00000000000E+00  0.11191891240E+03  0.11191891240E+03  0.00000000000E+00 0. -1.
         -2   -1    0    0    0  501 -0.00000000000E+00 -0.00000000000E+00 -0.23948264448E+02  0.23948264448E+02  0.00000000000E+00 0.  1.
         21    1    1    2  502  501  0.49278800929E+02  0.15835129306E+02  0.45369149518E+02  0.68829581352E+02  0.00000000000E+00 0. -1.
         21    1    1    2  503  502 -0.49278800929E+02 -0.15835129306E+02  0.42601498435E+02  0.67037595497E+02  0.00000000000E+00 0.  1.
</event>
<event>
 4    1  0.5568520E+002  0.2151667E+02  0.7546771E-02  0.1512014E+00
          2   -1    0    0  502    0  0.00000000000E+00  0.00000000000E+00  0.13013678962E+02  0.13013678962E+02  0.00000000000E+00 0.  1.
         -2   -1    0    0    0  501 -0.00000000000E+00 -0.00000000000E+00 -0.38101688175E+02  0.38101688175E+02  0.00000000000E+00 0. -1.
         21    1    1    2  502  503  0.11372903150E+02 -0.18265382610E+02 -0.59630501327E+01  0.22327675536E+02  0.00000000000E+00 0.  1.
         21    1    1    2  503  501 -0.11372903150E+02  0.18265382610E+02 -0.19124959080E+02  0.28787691602E+02  0.00000000000E+00 0. -1.
</event>
<event>
 4    1  0.5568520E+002  0.2882696E+02  0.7546771E-02  0.1430071E+00
          2   -1    0    0  502    0  0.00000000000E+00  0.00000000000E+00  0.19437543102E+03  0.19437543102E+03  0.00000000000E+00 0.  1.
         -2   -1    0    0    0  501 -0.00000000000E+00 -0.00000000000E+00 -0.28680184725E+02  0.28680184725E+02  0.00000000000E+00 0. -1.
         21    1    1    2  502  503 -0.67620873713E+01  0.28022633704E+02  0.18572774377E+03  0.18795155927E+03  0.00000000000E+00 0.  1.
         21    1    1    2  503  501  0.67620873713E+01 -0.28022633704E+02 -0.20032497481E+02  0.35104056470E+02  0.00000000000E+00 0. -1.
</event>
<event>
 4    1  0.5568520E+002  0.2488395E+02  0.7546771E-02  0.1470106E+00
          2   -1    0    0  502    0  0.00000000000E+00  0.00000000000E+00  0.38106502576E+03  0.38106502576E+03  0.00000000000E+00 0.  1.
         -2   -1    0    0    0  501 -0.00000000000E+00 -0.00000000000E+00 -0.26131308294E+01  0.26131308294E+01  0.00000000000E+00 0. -1.
         21    1    1    2  502  503  0.14015417177E+02  0.20561585769E+02  0.30719693780E+03  0.30820312996E+03  0.00000000000E+00 0.  1.
         21    1    1    2  503  501 -0.14015417177E+02 -0.20561585769E+02  0.71254957138E+02  0.75475026630E+02  0.00000000000E+00 0. -1.
</event>
<event>
 4    1  0.5568520E+002  0.2985601E+02  0.7546771E-02  0.1420852E+00
          2   -1    0    0  503    0  0.00000000000E+00  0.00000000000E+00  0.27650124423E+04  0.27650124423E+04  0.00000000000E+00 0.  1.
         -2   -1    0    0    0  501 -0.00000000000E+00 -0.00000000000E+00 -0.32540656600E+00  0.32540656600E+00  0.00000000000E+00 0. -1.
         21    1    1    2  502  501 -0.14082260803E+02 -0.26326250716E+02  0.12489722641E+04  0.12493290591E+04  0.00000000000E+00 0.  1.
         21    1    1    2  503  502  0.14082260803E+02  0.26326250716E+02  0.15157147717E+04  0.15160087898E+04  0.00000000000E+00 0. -1.
</event>
<event>
 4    1  0.5568520E+002  0.2293549E+02  0.7546771E-02  0.1493310E+00
          2   -1    0    0  502    0  0.00000000000E+00  0.00000000000E+00  0.46839766613E+01  0.46839766613E+01  0.00000000000E+00 0.  1.
         -2   -1    0    0    0  501 -0.00000000000E+00 -0.00000000000E+00 -0.11703864289E+03  0.11703864289E+03  0.00000000000E+00 0. -1.
         21    1    1    2  502  503  0.22302570628E+02  0.53508879217E+01 -0.43938264867E+02  0.49564178372E+02  0.00000000000E+00 0. -1.
         21    1    1    2  503  501 -0.22302570628E+02 -0.53508879217E+01 -0.68416401365E+02  0.72158441183E+02  0.00000000000E+00 0.  1.
</event>
<event>
 4    1  0.5568520E+002  0.2004528E+02  0.7546771E-02  0.1533345E+00
          2   -1    0    0  503    0  0.00000000000E+00  0.00000000000E+00  0.70250231052E+02  0.70250231052E+02  0.00000000000E+00 0. -1.
         -2   -1    0    0    0  501 -0.00000000000E+00 -0.00000000000E+00 -0.65717121041E+01  0.65717121041E+01  0.00000000000E+00 0.  1.
         21    1    1    2  502  501 -0.27594147033E+01  0.19854438747E+02  0.18009057242E+02  0.26946971076E+02  0.00000000000E+00 0. -1.
         21    1    1    2  503  502  0.27594147033E+01 -0.19854438747E+02  0.45669461706E+02  0.49874972080E+02  0.00000000000E+00 0.  1.
</event>
<event>
 4    1  0.5568520E+002  0.2643545E+02  0.7546771E-02  0.1453363E+00
          2   -1    0    0  502    0  0.00000000000E+00  0.00000000000E+00  0.96204965205E+01  0.96204965205E+01  0.00000000000E+00 0. -1.
         -2   -1    0    0    0  501 -0.00000000000E+00 -0.00000000000E+00 -0.75140370372E+02  0.75140370372E+02  0.00000000000E+00 0.  1.
         21    1    1    2  502  503  0.25619488850E+02  0.65172675265E+01 -0.40490833047E+02  0.48356390951E+02  0.00000000000E+00 0.  1.
         21    1    1    2  503  501 -0.25619488850E+02 -0.65172675265E+01 -0.25029040804E+02  0.36404475941E+02  0.00000000000E+00 0. -1.
</event>
<event>
 4    1  0.5568520E+002  0.2390932E+02  0.7546771E-02  0.1481385E+00
          2   -1    0    0  503    0  0.00000000000E+00  0.00000000000E+00  0.16578973303E+03  0.16578973303E+03  0.00000000000E+00 0.  1.
         -2   -1    0    0    0  501 -0.00000000000E+00 -0.00000000000E+00 -0.62495823276E+01  0.62495823276E+01  0.00000000000E+00 0. -1.
         21    1    1    2  502  501 -0.97004492419E-01  0.23909125761E+02  0.22177305231E+02  0.32611172500E+02  0.00000000000E+00 0. -1.
         21    1    1    2  503  502  0.97004492419E-01 -0.23909125761E+02  0.13736284547E+03  0.13942814286E+03  0.00000000000E+00 0.  1.
</event>
<event>
 4    1  0.5568520E+002  0.4804580E+02  0.7546771E-02  0.1306875E+00
          2   -1    0    0  503    0  0.00000000000E+00  0.00000000000E+00  0.95550787883E+02  0.95550787883E+02  0.00000000000E+00 0.  1.
         -2   -1    0    0    0  501 -0.00000000000E+00 -0.00000000000E+00 -0.26598678035E+02  0.26598678035E+02  0.00000000000E+00 0. -1.
         21    1    1    2  502  501 -0.48032075868E+02  0.11484744211E+01  0.15978720313E+02  0.50633178930E+02  0.00000000000E+00 0. -1.
         21    1    1    2  503  502  0.48032075868E+02 -0.11484744211E+01  0.52973389535E+02  0.71516286988E+02  0.00000000000E+00 0.  1.
</event>
<event>
 4    1  0.5568520E+002  0.2246692E+02  0.7546771E-02  0.1499303E+00
          2   -1    0    0  502    0  0.00000000000E+00  0.00000000000E+00  0.19508948259E+03  0.19508948259E+03  0.00000000000E+00 0.  1.
         -2   -1    0    0    0  501 -0.00000000000E+00 -0.00000000000E+00 -0.55585353479E+01  0.55585353479E+01  0.00000000000E+00 0. -1.
         21    1    1    2  502  503  0.16053264178E+02 -0.15717992731E+02  0.21417117665E+02  0.31039579819E+02  0.00000000000E+00 0.  1.
         21    1    1    2  503  501 -0.16053264178E+02  0.15717992731E+02  0.16811382958E+03  0.16960843812E+03  0.00000000000E+00 0. -1.
</event>
<event>
 4    1  0.5568520E+002  0.2642558E+02  0.7546771E-02  0.1453465E+00
          2   -1    0    0  502    0  0.00000000000E+00  0.00000000000E+00  0.52073297218E+03  0.52073297218E+03  0.00000000000E+00 0.  1.
         -2   -1    0    0    0  501 -0.00000000000E+00 -0.00000000000E+00 -0.88386751791E+01  0.88386751791E+01  0.00000000000E+00 0. -1.
         21    1    1    2  502  503 -0.13902580866E+02  0.22472860898E+02  0.49982030031E+03  0.50051837512E+03  0.00000000000E+00 0.  1.
         21    1    1    2  503  501  0.13902580866E+02 -0.22472860898E+02  0.12073996691E+02  0.29053272238E+02  0.00000000000E+00 0. -1.
</event>
<event>
 4    1  0.5568520E+002  0.2034077E+02  0.7546771E-02  0.1528889E+00
          2   -1    0    0  502    0  0.00000000000E+00  0.00000000000E+00  0.23863336849E+02  0.23863336849E+02  0.00000000000E+00 0. -1.
         -2   -1    0    0    0  501 -0.00000000000E+00 -0.00000000000E+00 -0.22340013567E+02  0.22340013567E+02  0.00000000000E+00 0.  1.
         21    1    1    2  502  503  0.81593739274E+01 -0.18632536935E+02  0.11692825428E+02  0.23462075398E+02  0.00000000000E+00 0. -1.
         21    1    1    2  503  501 -0.81593739274E+01  0.18632536935E+02 -0.10169502146E+02  0.22741275017E+02  0.00000000000E+00 0.  1.
</event>
<event>
 4    1  0.5568520E+002  0.2525449E+02  0.7546771E-02  0.1465976E+00
          2   -1    0    0  502    0  0.00000000000E+00  0.00000000000E+00  0.17237923408E+04  0.17237923408E+04  0.00000000000E+00 0. -1.
         -2   -1    0    0    0  501 -0.00000000000E+00 -0.00000000000E+00 -0.32862548912E+01  0.32862548912E+01  0.00000000000E+00 0.  1.
         21    1    1    2  502  503 -0.48081649953E+01 -0.24792554488E+02  0.16737291965E+04  0.16739197150E+04  0.00000000000E+00 0. -1.
         21    1    1    2  503  501  0.48081649953E+01  0.24792554488E+02  0.46776889421E+02  0.53158880656E+02  0.00000000000E+00 0.  1.
</event>
<event>
 4    1  0.5568520E+002  0.2909715E+02  0.7546771E-02  0.1427608E+00
          2   -1    0    0  502    0  0.00000000000E+00  0.00000000000E+00  0.50767915680E+02  0.50767915680E+02  0.00000000000E+00 0.  1.
         -2   -1    0    0    0  501 -0.00000000000E+00 -0.00000000000E+00 -0.27840805411E+02  0.27840805411E+02  0.00000000000E+00 0. -1.
         21    1    1    2  502  503  0.21959726114E+02  0.19089641957E+02  0.36352745343E+02  0.46563570471E+02  0.00000000000E+00 0.  1.
         21    1    1    2  503  501 -0.21959726114E+02 -0.19089641957E+02 -0.13425635074E+02  0.32045150619E+02  0.00000000000E+00 0. -1.
</event>
<event>
 4    1  0.5568520E+002  0.2366986E+02  0.7546771E-02  0.1484254E+00
          2   -1    0    0  503    0  0.00000000000E+00  0.00000000000E+00  0.23539519571E+03  0.23539519571E+03  0.00000000000E+00 0.  1.
         -2   -1    0    0    0  501 -0.00000000000E+00 -0.00000000000E+00 -0.11304724649E+02  0.11304724649E+02  0.00000000000E+00 0. -1.
         21    1    1    2  502  501 -0.23669595613E+02  0.11292542667E+00  0.24468481127E+01  0.23795999124E+02  0.00000000000E+00 0. -1.
         21    1    1    2  503  502  0.23669595613E+02 -0.11292542667E+00  0.22164362295E+03  0.22290392124E+03  0.00000000000E+00 0.  1.
</event>
<event>
 4    1  0.5568520E+002  0.2844052E+02  0.7546771E-02  0.1433651E+00
          2   -1    0    0  502    0  0.00000000000E+00  0.00000000000E+00  0.45969519935E+03  0.45969519935E+03  0.00000000000E+00 0.  1.
         -2   -1    0    0    0  501 -0.00000000000E+00 -0.00000000000E+00 -0.19833989260E+01  0.19833989260E+01  0.00000000000E+00 0. -1.
         21    1    1    2  502  503 -0.18179845402E+02 -0.21871363774E+02  0.15130832966E+03  0.15395802661E+03  0.00000000000E+00 0. -1.
         21    1    1    2  503  501  0.18179845402E+02  0.21871363774E+02  0.30640347076E+03  0.30772057167E+03  0.00000000000E+00 0.  1.
</event>
<event>
 4    1  0.5568520E+002  0.3331915E+02  0.7546771E-02  0.1392781E+00
          2   -1    0    0  502    0  0.00000000000E+00  0.00000000000E+00  0.40533830327E+02  0.40533830327E+02  0.00000000000E+00 0. -1.
         -2   -1    0    0    0  501 -0.00000000000E+00 -0.00000000000E+00 -0.79758159689E+02  0.79758159689E+02  0.00000000000E+00 0.  1.
         21    1    1    2  502  503  0.61899751574E+01 -0.32739124606E+02  0.29124801270E+02  0.44254040736E+02  0.00000000000E+00 0. -1.
         21    1    1    2  503  501 -0.61899751574E+01  0.32739124606E+02 -0.68349130633E+02  0.76037949280E+02  0.00000000000E+00 0.  1.
</event>
<event>
 4    1  0.5568520E+002  0.2067074E+02  0.7546771E-02  0.1524018E+00
          2   -1    0    0  502    0  0.00000000000E+00  0.00000000000E+00  0.12087069985E+03  0.12087069985E+03  0.00000000000E+00 0.  1.
         -2   -1    0    0    0  501 -0.00000000000E+00 -0.00000000000E+00 -0.39005540484E+01  0.39005540484E+01  0.00000000000E+00 0. -1.
         21    1    1    2  502  503  0.27313043162E+01 -0.20489492291E+02  0.77583180842E+02  0.80289658532E+02  0.00000000000E+00 0. -1.
         21    1    1    2  503  501 -0.27313043162E+01  0.20489492291E+02  0.39386964961E+02  0.44481595368E+02  0.00000000000E+00 0.  1.
</event>
<event>
 4    1  0.5568520E+002  0.2365807E+02  0.7546771E-02  0.1484396E+00
          2   -1    0    0  503    0  0.00000000000E+00  0.00000000000E+00  0.32495936137E+03  0.32495936137E+03  0.00000000000E+00 0. -1.
         -2   -1    0    0    0  501 -0.00000000000E+00 -0.00000000000E+00 -0.17270195883E+01  0.17270195883E+01  0.00000000000E+00 0.  1.
         21    1    1    2  502  501 -0.18647658662E+02  0.14559157061E+02  0.15315193109E+03  0.15496844267E+03  0.00000000000E+00 0. -1.
         21    1    1    2  503  502  0.18647658662E+02 -0.14559157061E+02  0.17008041069E+03  0.17171793829E+03  0.00000000000E+00 0.  1.
</event>
<event>
 4    1  0.5568520E+002  0.2155062E+02  0.7546771E-02  0.1511547E+00
          2   -1    0    0  502    0  0.00000000000E+00  0.00000000000E+00  0.76448468805E+03  0.76448468805E+03  0.00000000000E+00 0. -1.
         -2   -1    0    0    0  501 -0.00000000000E+00 -0.00000000000E+00 -0.76759202165E+00  0.76759202165E+00  0.00000000000E+00 0.  1.
         21    1    1    2  502  503  0.16005905362E+02  0.14430528458E+02  0.20712113645E+03  0.20823927181E+03  0.00000000000E+00 0.  1.
         21    1    1    2  503  501 -0.16005905362E+02 -0.14430528458E+02  0.55659595958E+03  0.55701300827E+03  0.00000000000E+00 0. -1.
</event>
<event>
 4    1  0.5568520E+002  0.2061109E+02  0.7546771E-02  0.1524891E+00
          2   -1    0    0  503    0  0.00000000000E+00  0.00000000000E+00  0.19360859024E+03  0.19360859024E+03  0.00000000000E+00 0.  1.
         -2   -1    0    0    0  501 -0.00000000000E+00 -0.00000000000E+00 -0.71284619220E+01  0.71284619220E+01  0.00000000000E+00 0. -1.
         21    1    1    2  502  501 -0.10247009974E+02  0.17883396325E+02  0.97354493532E+01  0.22794649627E+02  0.00000000000E+00 0.  1.
         21    1    1    2  503  502  0.10247009974E+02 -0.17883396325E+02  0.17674467896E+03  0.17794240253E+03  0.00000000000E+00 0. -1.
</event>
<event>
 4    1  0.5568520E+002  0.2607056E+02  0.7546771E-02  0.1457175E+00
          2   -1    0    0  502    0  0.00000000000E+00  0.00000000000E+00  0.42866535714E+03  0.42866535714E+03  0.00000000000E+00 0.  1.
         -2   -1    0    0    0  501 -0.00000000000E+00 -0.00000000000E+00 -0.17267798106E+01  0.17267798106E+01  0.00000000000E+00 0. -1.
         21    1    1    2  502  503  0.17786481108E+02 -0.19060826874E+02  0.15192810282E+03  0.15414870242E+03  0.00000000000E+00 0.  1.
         21    1    1    2  503  501 -0.17786481108E+02  0.19060826874E+02  0.27501047451E+03  0.27624343453E+03  0.00000000000E+00 0. -1.
</event>
<event>
 4    1  0.5568520E+002  0.2839783E+02  0.7546771E-02  0.1434050E+00
          2   -1    0    0  502    0  0.00000000000E+00  0.00000000000E+00  0.25552830612E+03  0.25552830612E+03  0.00000000000E+00 0.  1.
         -2   -1    0    0    0  501 -0.00000000000E+00 -0.00000000000E+00 -0.33241972859E+01  0.33241972859E+01  0.00000000000E+00 0. -1.
         21    1    1    2  502  503  0.27783764051E+02  0.58736174451E+01  0.15521868028E+03  0.15779504313E+03  0.00000000000E+00 0.  1.
         21    1    1    2  503  501 -0.27783764051E+02 -0.58736174451E+01  0.96985428553E+02  0.10105746028E+03  0.00000000000E+00 0. -1.
</event>
<event>
 4    1  0.5568520E+002  0.2798303E+02  0.7546771E-02  0.1437976E+00
          2   -1    0    0  503    0  0.00000000000E+00  0.00000000000E+00  0.62824684003E+03  0.62824684003E+03  0.00000000000E+00 0.  1.
         -2   -1    0    0    0  501 -0.00000000000E+00 -0.00000000000E+00 -0.13149277975E+01  0.13149277975E+01  0.00000000000E+00 0. -1.
         21    1    1    2  502  501  0.17139806834E+02 -0.22119600794E+02  0.24160774893E+03  0.24322284856E+03  0.00000000000E+00 0. -1.
         21    1    1    2  503  502 -0.17139806834E+02  0.22119600794E+02  0.38532416330E+03  0.38633891927E+03  0.00000000000E+00 0.  1.
</event>
<event>
 4    1  0.5568520E+002  0.3216768E+02  0.7546771E-02  0.1401649E+00
          2   -1    0    0  503    0  0.00000000000E+00  0.00000000000E+00  0.17659672627E+03  0.17659672627E+03  0.00000000000E+00 0.  1.
         -2   -1    0    0    0  501 -0.00000000000E+00 -0.00000000000E+00 -0.19653709361E+02  0.19653709361E+02  0.00000000000E+00 0. -1.
         21    1    1    2  502  501  0.35281044034E+01 -0.31973620783E+02 -0.37352530441E+01  0.32383824078E+02  0.00000000000E+00 0. -1.
         21    1    1    2  503  502 -0.35281044034E+01  0.31973620783E+02  0.16067826996E+03  0.16386661156E+03  0.00000000000E+00 0.  1.
</event>
<event>
 4    1  0.5568520E+002  0.2713628E+02  0.7546771E-02  0.1446244E+00
          2   -1    0    0  502    0  0.00000000000E+00  0.00000000000E+00  0.78294140910E+02  0.78294140910E+02  0.00000000000E+00 0.  1.
         -2   -1    0    0    0  501 -0.00000000000E+00 -0.00000000000E+00 -0.94824994169E+01  0.94824994169E+01  0.00000000000E+00 0. -1.
         21    1    1    2  502  503  0.16743211227E+02 -0.21355155117E+02  0.30445134942E+02  0.40783379137E+02  0.00000000000E+00 0. -1.
         21    1    1    2  503  501 -0.16743211227E+02  0.21355155117E+02  0.38366506551E+02  0.46993261189E+02  0.00000000000E+00 0.  1.
</event>
<event>
 4    1  0.5568520E+002  0.3216305E+02  0.7546771E-02  0.1401686E+00
          2   -1    0    0  503    0  0.00000000000E+00  0.00000000000E+00  0.83338619889E+02  0.83338619889E+02  0.00000000000E+00 0.  1.
         -2   -1    0    0    0  501 -0.00000000000E+00 -0.00000000000E+00 -0.12911393128E+02  0.12911393128E+02  0.00000000000E+00 0. -1.
         21    1    1    2  502  501  0.75221906025E+01  0.31271046536E+02  0.25756080334E+02  0.41204822256E+02  0.00000000000E+00 0. -1.
         21    1    1    2  503  502 -0.75221906025E+01 -0.31271046536E+02  0.44671146427E+02  0.55045190762E+02  0.00000000000E+00 0.  1.
</event>
<event>
 4    1  0.5568520E+002  0.3251939E+02  0.7546771E-02  0.1398895E+00
          2   -1    0    0  502    0  0.00000000000E+00  0.00000000000E+00  0.18559160636E+02  0.18559160636E+02  0.00000000000E+00 0. -1.
         -2   -1    0    0    0  501 -0.00000000000E+00 -0.00000000000E+00 -0.18301314012E+03  0.18301314012E+03  0.00000000000E+00 0.  1.
         21    1    1    2  502  503  0.19863399227E+02 -0.25747930128E+02  0.14105427622E+01  0.32549964141E+02  0.00000000000E+00 0. -1.
         21    1    1    2  503  501 -0.19863399227E+02  0.25747930128E+02 -0.16586452225E+03  0.16902233661E+03  0.00000000000E+00 0.  1.
</event>
<event>
 4    1  0.5568520E+002  0.2579043E+02  0.7546771E-02  0.1460152E+00
          2   -1    0    0  503    0  0.00000000000E+00  0.00000000000E+00  0.17461108743E+03  0.17461108743E+03  0.00000000000E+00 0. -1.
         -2   -1    0    0    0  501 -0.00000000000E+00 -0.00000000000E+00 -0.99775074090E+01  0.99775074090E+01  0.00000000000E+00 0.  1.
         21    1    1    2  502  501 -0.42478075357E+01  0.25438209681E+02  0.97491082570E+01  0.27571570366E+02  0.00000000000E+00 0.  1.
         21    1    1    2  503  502  0.42478075357E+01 -0.25438209681E+02  0.15488447176E+03  0.15701702447E+03  0.00000000000E+00 0. -1.
</event>
<event>
 4    1  0.5568520E+002  0.2638287E+02  0.7546771E-02  0.1453908E+00
          2   -1    0    0  503    0  0.00000000000E+00  0.00000000000E+00  0.10261574444E+04  0.10261574444E+04  0.00000000000E+00 0.  1.
         -2   -1    0    0    0  501 -0.00000000000E+00 -0.00000000000E+00 -0.88456933217E+00  0.88456933217E+00  0.00000000000E+00 0. -1.
         21    1    1    2  502  501  0.93201868450E+01  0.24681770163E+02  0.26466811694E+03  0.26597982590E+03  0.00000000000E+00 0. -1.
         21    1    1    2  503  502 -0.93201868450E+01 -0.24681770163E+02  0.76060475811E+03  0.76106218781E+03  0.00000000000E+00 0.  1.
</event>
<event>
 4    1  0.5568520E+002  0.2521788E+02  0.7546771E-02  0.1466381E+00
          2   -1    0    0  502    0  0.00000000000E+00  0.00000000000E+00  0.95205551244E+03  0.95205551244E+03  0.00000000000E+00 0. -1.
         -2   -1    0    0    0  501 -0.00000000000E+00 -0.00000000000E+00 -0.14170857168E+01  0.14170857168E+01  0.00000000000E+00 0.  1.
         21    1    1    2  502  503 -0.13569361133E+02  0.21255914992E+02  0.82194074698E+03  0.82232750959E+03  0.00000000000E+00 0. -1.
         21    1    1    2  503  501  0.13569361133E+02 -0.21255914992E+02  0.12869767975E+03  0.13114508857E+03  0.00000000000E+00 0.  1.
</event>
<event>
 4    1  0.5568520E+002  0.3054955E+02  0.7546771E-02  0.1414880E+00
          2   -1    0    0  502    0  0.00000000000E+00  0.00000000000E+00  0.28637148025E+01  0.28637148025E+01  0.00000000000E+00 0. -1.
         -2   -1    0    0    0  501 -0.00000000000E+00 -0.00000000000E+00 -0.12864730812E+04  0.12864730812E+04  0.00000000000E+00 0.  1.
         21    1    1    2  502  503 -0.12560587229E+02 -0.27847918687E+02 -0.84744646292E+02  0.90082906270E+02  0.00000000000E+00 0. -1.
         21    1    1    2  503  501  0.12560587229E+02  0.27847918687E+02 -0.11988647201E+04  0.11992538897E+04  0.00000000000E+00 0.  1.
</event>
<event>
 4    1  0.5568520E+002  0.3903499E+02  0.7546771E-02  0.1354235E+00
          2   -1    0    0  503    0  0.00000000000E+00  0.00000000000E+00  0.41015122358E+02  0.41015122358E+02  0.00000000000E+00 0.  1.
         -2   -1    0    0    0  501 -0.00000000000E+00 -0.00000000000E+00 -0.37150539484E+02  0.37150539484E+02  0.00000000000E+00 0. -1.
         21    1    1    2  502  501  0.29452488505E+02 -0.25617984043E+02  0.18710855236E+01  0.39079804844E+02  0.00000000000E+00 0. -1.
         21    1    1    2  503  502 -0.29452488505E+02  0.25617984043E+02  0.19934973510E+01  0.39085856998E+02  0.00000000000E+00 0.  1.
</event>
<event>
 4    1  0.5568520E+002  0.7601704E+02  0.7546771E-02  0.1213409E+00
          2   -1    0    0  503    0  0.00000000000E+00  0.00000000000E+00  0.12075475198E+04  0.12075475198E+04  0.00000000000E+00 0.  1.
         -2   -1    0    0    0  501 -0.00000000000E+00 -0.00000000000E+00 -0.49974419930E+01  0.49974419930E+01  0.00000000000E+00 0. -1.
         21    1    1    2  502  501 -0.46352897971E+02  0.60249476245E+02  0.72616029187E+03  0.73012831751E+03  0.00000000000E+00 0.  1.
         21    1    1    2  503  502  0.46352897971E+02 -0.60249476245E+02  0.47638978592E+03  0.48241664427E+03  0.00000000000E+00 0. -1.
</event>
<event>
 4    1  0.5568520E+002  0.2753917E+02  0.7546771E-02  0.1442266E+00
          2   -1    0    0  503    0  0.00000000000E+00  0.00000000000E+00  0.50126260518E+02  0.50126260518E+02  0.00000000000E+00 0.  1.
         -2   -1    0    0    0  501 -0.00000000000E+00 -0.00000000000E+00 -0.32314675478E+02  0.32314675478E+02  0.00000000000E+00 0. -1.
         21    1    1    2  502  501  0.96058767199E+01 -0.25809557865E+02 -0.21153914220E+02  0.34725987841E+02  0.00000000000E+00 0. -1.
         21    1    1    2  503  502 -0.96058767199E+01  0.25809557865E+02  0.38965499261E+02  0.47714948155E+02  0.00000000000E+00 0.  1.
</event>
<event>
 4    1  0.5568520E+002  0.2325188E+02  0.7546771E-02  0.1489359E+00
          2   -1    0    0  502    0  0.00000000000E+00  0.00000000000E+00  0.12658023818E+02  0.12658023818E+02  0.00000000000E+00 0.  1.
         -2   -1    0    0    0  501 -0.00000000000E+00 -0.00000000000E+00 -0.10150616708E+03  0.10150616708E+03  0.00000000000E+00 0. -1.
         21    1    1    2  502  503  0.21746889640E+02  0.82293870569E+01 -0.98098581685E+00  0.23272566544E+02  0.00000000000E+00 0.  1.
         21    1    1    2  503  501 -0.21746889640E+02 -0.82293870569E+01 -0.87867157444E+02  0.90891624353E+02  0.00000000000E+00 0. -1.
</event>
<event>
 4    1  0.5568520E+002  0.2035178E+02  0.7546771E-02  0.1528724E+00
          2   -1    0    0  503    0  0.00000000000E+00  0.00000000000E+00  0.13957109959E+03  0.13957109959E+03  0.00000000000E+00 0. -1.
         -2   -1    0    0    0  501 -0.00000000000E+00 -0.00000000000E+00 -0.54007873071E+01  0.54007873071E+01  0.00000000000E+00 0.  1.
         21    1    1    2  502  501 -0.12957201640E+02 -0.15694130805E+02  0.18432034025E+02  0.27457871264E+02  0.00000000000E+00 0.  1.
         21    1    1    2  503  502  0.12957201640E+02  0.15694130805E+02  0.11573827826E+03  0.11751401563E+03  0.00000000000E+00 0. -1.
</event>
<event>
 4    1  0.5568520E+002  0.2509361E+02  0.7546771E-02  0.1467759E+00
          2   -1    0    0  502    0  0.00000000000E+00  0.00000000000E+00  0.20311018693E+04  0.20311018693E+04  0.00000000000E+00 0.  1.
         -2   -1    0    0    0  501 -0.00000000000E+00 -0.00000000000E+00 -0.40388108226E+00  0.40388108226E+00  0.00000000000E+00 0. -1.
         21    1    1    2  502  503  0.33991476182E+00  0.25091303096E+02  0.15050108810E+04  0.15052200640E+04  0.00000000000E+00 0.  1.
         21    1    1    2  503  501 -0.33991476182E+00 -0.25091303096E+02  0.52568710716E+03  0.52628568636E+03  0.00000000000E+00 0. -1.
</event>
<event>
 4    1  0.5568520E+002  0.2514438E+02  0.7546771E-02  0.1467195E+00
          2   -1    0    0  503    0  0.00000000000E+00  0.00000000000E+00  0.60972758320E+03  0.60972758320E+03  0.00000000000E+00 0. -1.
         -2   -1    0    0    0  501 -0.00000000000E+00 -0.00000000000E+00 -0.25836418730E+02  0.25836418730E+02  0.00000000000E+00 0.  1.
         21    1    1    2  502  501 -0.13700528778E+01  0.25107022735E+02 -0.19394170574E+02  0.31754897068E+02  0.00000000000E+00 0.  1.
         21    1    1    2  503  502  0.13700528778E+01 -0.25107022735E+02  0.60328533505E+03  0.60380910487E+03  0.00000000000E+00 0. -1.
</event>
<event>
 4    1  0.5568520E+002  0.2571600E+02  0.7546771E-02  0.1460951E+00
          2   -1    0    0  502    0  0.00000000000E+00  0.00000000000E+00  0.86759340583E+02  0.86759340583E+02  0.00000000000E+00 0.  1.
         -2   -1    0    0    0  501 -0.00000000000E+00 -0.00000000000E+00 -0.47940122538E+02  0.47940122538E+02  0.00000000000E+00 0. -1.
         21    1    1    2  502  503  0.25258781166E+02 -0.48277133214E+01  0.81173463583E+02  0.85149539235E+02  0.00000000000E+00 0.  1.
         21    1    1    2  503  501 -0.25258781166E+02  0.48277133214E+01 -0.42354245539E+02  0.49549923886E+02  0.00000000000E+00 0. -1.
</event>
<event>
 4    1  0.5568520E+002  0.3704027E+02  0.7546771E-02  0.1366761E+00
          2   -1    0    0  502    0  0.00000000000E+00  0.00000000000E+00  0.53811228057E+01  0.53811228057E+01  0.00000000000E+00 0. -1.
         -2   -1    0    0    0  501 -0.00000000000E+00 -0.00000000000E+00 -0.56393308901E+03  0.56393308901E+03  0.00000000000E+00 0.  1.
         21    1    1    2  502  503 -0.18238018323E+02  0.32239049711E+02 -0.68574696335E+02  0.77938890267E+02  0.00000000000E+00 0. -1.
         21    1    1    2  503  501  0.18238018323E+02 -0.32239049711E+02 -0.48997726987E+03  0.49137532155E+03  0.00000000000E+00 0.  1.
</event>
<event>
 4    1  0.5568520E+002  0.2266457E+02  0.7546771E-02  0.1496754E+00
          2   -1    0    0  503    0  0.00000000000E+00  0.00000000000E+00  0.60784135847E+01  0.60784135847E+01  0.00000000000E+00 0.  1.
         -2   -1    0    0    0  501 -0.00000000000E+00 -0.00000000000E+00 -0.23736305069E+03  0.23736305069E+03  0.00000000000E+00 0. -1.
         21    1    1    2  502  501  0.18189814335E+02 -0.13520853421E+02 -0.21332014062E+03  0.21452078038E+03  0.00000000000E+00 0. -1.
         21    1    1    2  503  502 -0.18189814335E+02  0.13520853421E+02 -0.17964496489E+02  0.28920683894E+02  0.00000000000E+00 0.  1.
</event>
<event>
 4    1  0.5568520E+002  0.2716453E+02  0.7546771E-02  0.1445962E+00
          2   -1    0    0  503    0  0.00000000000E+00  0.00000000000E+00  0.21665578518E+04  0.21665578518E+04  0.00000000000E+00 0.  1.
         -2   -1    0    0    0  501 -0.00000000000E+00 -0.00000000000E+00 -0.90200265145E+00  0.90200265145E+00  0.00000000000E+00 0. -1.
         21    1    1    2  502  501  0.26858557388E+02  0.40656309555E+01  0.22784463137E+03  0.22945824784E+03  0.00000000000E+00 0. -1.
         21    1    1    2  503  502 -0.26858557388E+02 -0.40656309555E+01  0.19378112177E+04  0.19380016066E+04  0.00000000000E+00 0.  1.
</event>
<event>
 4    1  0.5568520E+002  0.7311104E+02  0.7546771E-02  0.1220812E+00
          2   -1    0    0  502    0  0.00000000000E+00  0.00000000000E+00  0.38576844689E+03  0.38576844689E+03  0.00000000000E+00 0.  1.
         -2   -1    0    0    0  501 -0.00000000000E+00 -0.00000000000E+00 -0.20420589582E+02  0.20420589582E+02  0.00000000000E+00 0. -1.
         21    1    1    2  502  503 -0.21113906028E+02  0.69995903275E+02  0.29782460389E+03  0.30666711298E+03  0.00000000000E+00 0. -1.
         21    1    1    2  503  501  0.21113906028E+02 -0.69995903275E+02  0.67523253420E+02  0.99521923492E+02  0.00000000000E+00 0.  1.
</event>
<event>
 4    1  0.5568520E+002  0.3321422E+02  0.7546771E-02  0.1393572E+00
          2   -1    0    0  503    0  0.00000000000E+00  0.00000000000E+00  0.34991365313E+03  0.34991365313E+03  0.00000000000E+00 0.  1.
         -2   -1    0    0    0  501 -0.00000000000E+00 -0.00000000000E+00 -0.40866825118E+03  0.40866825118E+03  0.00000000000E+00 0. -1.
         21    1    1    2  502  501  0.19023494057E+02 -0.27226661464E+02 -0.40720236969E+03  0.40855471396E+03  0.00000000000E+00 0. -1.
         21    1    1    2  503  502 -0.19023494057E+02  0.27226661464E+02  0.34844777164E+03  0.35002719035E+03  0.00000000000E+00 0.  1.
</event>
<event>
 4    1  0.5568520E+002  0.2770980E+02  0.7546771E-02  0.1440605E+00
          2   -1    0    0  503    0  0.00000000000E+00  0.00000000000E+00  0.78131357827E+02  0.78131357827E+02  0.00000000000E+00 0.  1.
         -2   -1    0    0    0  501 -0.00000000000E+00 -0.00000000000E+00 -0.77976776158E+02  0.77976776158E+02  0.00000000000E+00 0. -1.
         21    1    1    2  502  501  0.15655863073E+02  0.22863226476E+02 -0.72892589581E+02  0.77981810630E+02  0.00000000000E+00 0. -1.
         21    1    1    2  503  502 -0.15655863073E+02 -0.22863226476E+02  0.73047171250E+02  0.78126323355E+02  0.00000000000E+00 0.  1.
</event>
<event>
 4    1  0.5568520E+002  0.4900061E+02  0.7546771E-02  0.1302565E+00
          2   -1    0    0  502    0  0.00000000000E+00  0.00000000000E+00  0.14567441120E+04  0.14567441120E+04  0.00000000000E+00 0.  1.
         -2   -1    0    0    0  501 -0.00000000000E+00 -0.00000000000E+00 -0.40769010327E+01  0.40769010327E+01  0.00000000000E+00 0. -1.
         21    1    1    2  502  503  0.48996508093E+02  0.63439006141E+00  0.12900823712E+04  0.12910126199E+04  0.00000000000E+00 0.  1.
         21    1    1    2  503  501 -0.48996508093E+02 -0.63439006141E+00  0.16258483972E+03  0.16980839309E+03  0.00000000000E+00 0. -1.
</event>
<event>
 4    1  0.5568520E+002  0.2120148E+02  0.7546771E-02  0.1516408E+00
          2   -1    0    0  502    0  0.00000000000E+00  0.00000000000E+00  0.68183058549E+02  0.68183058549E+02  0.00000000000E+00 0.  1.
         -2   -1    0    0    0  501 -0.00000000000E+00 -0.00000000000E+00 -0.92931672978E+01  0.92931672978E+01  0.00000000000E+00 0. -1.
         21    1    1    2  502  503  0.20650766924E+02  0.48009040688E+01  0.50327566406E+02  0.54611050116E+02  0.00000000000E+00 0.  1.
         21    1    1    2  503  501 -0.20650766924E+02 -0.48009040688E+01  0.85623248455E+01  0.22865175731E+02  0.00000000000E+00 0. -1.
</event>
<event>
 4    1  0.5568520E+002  0.2337250E+02  0.7546771E-02  0.1487873E+00
          2   -1    0    0  503    0  0.00000000000E+00  0.00000000000E+00  0.47441343704E+02  0.47441343704E+02  0.00000000000E+00 0. -1.
         -2   -1    0    0    0  501 -0.00000000000E+00 -0.00000000000E+00 -0.11667285592E+02  0.11667285592E+02  0.00000000000E+00 0.  1.
         21    1    1    2  502  501 -0.21924735503E+02 -0.80981213756E+01  0.14507392082E+02  0.27508871691E+02  0.00000000000E+00 0. -1.
         21    1    1    2  503  502  0.21924735503E+02  0.80981213756E+01  0.21266666029E+02  0.31599757605E+02  0.00000000000E+00 0.  1.
</event>
<event>
 4    1  0.5568520E+002  0.2180460E+02  0.7546771E-02  0.1508080E+00
          2   -1    0    0  502    0  0.00000000000E+00  0.00000000000E+00  0.35651517418E+03  0.35651517418E+03  0.00000000000E+00 0. -1.
         -2   -1    0    0    0  501 -0.00000000000E+00 -0.00000000000E+00 -0.23289946324E+01  0.23289946324E+01  0.00000000000E+00 0.  1.
         21    1    1    2  502  503 -0.65221378919E+01 -0.20806305623E+02  0.29439205915E+03  0.29519845041E+03  0.00000000000E+00 0.  1.
         21    1    1    2  503  501  0.65221378919E+01  0.20806305623E+02  0.59794120406E+02  0.63645718406E+02  0.00000000000E+00 0. -1.
</event>
<event>
 4    1  0.5568520E+002  0.4143159E+02  0.7546771E-02  0.1340295E+00
          2   -1    0    0  503    0  0.00000000000E+00  0.00000000000E+00  0.30351111739E+03  0.30351111739E+03  0.00000000000E+00 0.  1.
         -2   -1    0    0    0  501 -0.00000000000E+00 -0.00000000000E+00 -0.95234205844E+01  0.95234205844E+01  0.00000000000E+00 0. -1.
         21    1    1    2  502  501  0.40347525350E+02 -0.94155997374E+01  0.47248706180E+02  0.62841201102E+02  0.00000000000E+00 0. -1.
         21    1    1    2  503  502 -0.40347525350E+02  0.94155997374E+01  0.24673899063E+03  0.25019333687E+03  0.00000000000E+00 0.  1.
</event>
<event>
 4    1  0.5568520E+002  0.5193751E+02  0.7546771E-02  0.1289984E+00
          2   -1    0    0  502    0  0.00000000000E+00  0.00000000000E+00  0.44549107873E+02  0.44549107873E+02  0.00000000000E+00 0.  1.
         -2   -1    0    0    0  501 -0.00000000000E+00 -0.00000000000E+00 -0.60728332266E+02  0.60728332266E+02  0.00000000000E+00 0. -1.
         21    1    1    2  502  503 -0.27224917556E+02 -0.44230175004E+02 -0.52471965822E+01  0.52201892578E+02  0.00000000000E+00 0. -1.
         21    1    1    2  503  501  0.27224917556E+02  0.44230175004E+02 -0.10932027812E+02  0.53075547561E+02  0.00000000000E+00 0.  1.
</event>
<event>
 4    1  0.5568520E+002  0.2030852E+02  0.7546771E-02  0.1529371E+00
          2   -1    0    0  502    0  0.00000000000E+00  0.00000000000E+00  0.89912390469E+03  0.89912390469E+03  0.00000000000E+00 0.  1.
         -2   -1    0    0    0  501 -0.00000000000E+00 -0.00000000000E+00 -0.12047167425E+01  0.12047167425E+01  0.00000000000E+00 0. -1.
         21    1    1    2  502  503  0.10885115510E+02  0.17144973402E+02  0.80320185944E+03  0.80345856325E+03  0.00000000000E+00 0.  1.
         21    1    1    2  503  501 -0.10885115510E+02 -0.17144973402E+02  0.94717328509E+02  0.96870058183E+02  0.00000000000E+00 0. -1.
</event>
<event>
 4    1  0.5568520E+002  0.2185012E+02  0.7546771E-02  0.1507465E+00
          2   -1    0    0  503    0  0.00000000000E+00  0.00000000000E+00  0.17245532888E+03  0.17245532888E+03  0.00000000000E+00 0.  1.
         -2   -1    0    0    0  501 -0.00000000000E+00 -0.00000000000E+00 -0.97021717843E+01  0.97021717843E+01  0.00000000000E+00 0. -1.
         21    1    1    2  502  501  0.12854329839E+02  0.17669016706E+02  0.43808061424E+01  0.22284959265E+02  0.00000000000E+00 0. -1.
         21    1    1    2  503  502 -0.12854329839E+02 -0.17669016706E+02  0.15837235095E+03  0.15987254140E+03  0.00000000000E+00 0.  1.
</event>
<event>
 4    1  0.5568520E+002  0.2825120E+02  0.7546771E-02  0.1435429E+00
          2   -1    0    0  502    0  0.00000000000E+00  0.00000000000E+00  0.12958152303E+04  0.12958152303E+04  0.00000000000E+00 0. -1.
         -2   -1    0    0    0  501 -0.00000000000E+00 -0.00000000000E+00 -0.23497471393E+01  0.23497471393E+01  0.00000000000E+00 0.  1.
         21    1    1    2  502  503 -0.23367451465E+02  0.15877415109E+02  0.12042920964E+04  0.12046234198E+04  0.00000000000E+00 0. -1.
         21    1    1    2  503  501  0.23367451465E+02 -0.15877415109E+02  0.89173386853E+02  0.93541557723E+02  0.00000000000E+00 0.  1.
</event>
<event>
 4    1  0.5568520E+002  0.3890681E+02  0.7546771E-02  0.1355014E+00
          2   -1    0    0  503    0  0.00000000000E+00  0.00000000000E+00  0.50547859073E+03  0.50547859073E+03  0.00000000000E+00 0. -1.
         -2   -1    0    0    0  501 -0.00000000000E+00 -0.00000000000E+00 -0.30386765785E+01  0.30386765785E+01  0.00000000000E+00 0.  1.
         21    1    1    2  502  501  0.32743534894E+02 -0.21014300540E+02  0.22062086496E+03  0.22402523510E+03  0.00000000000E+00 0. -1.
         21    1    1    2  503  502 -0.32743534894E+02  0.21014300540E+02  0.28181904919E+03  0.28449203221E+03  0.00000000000E+00 0.  1.
</event>
<event>
 4    1  0.5568520E+002  0.2554284E+02  0.7546771E-02  0.1462821E+00
          2   -1    0    0  502    0  0.00000000000E+00  0.00000000000E+00  0.81941466405E+02  0.81941466405E+02  0.00000000000E+00 0. -1.
         -2   -1    0    0    0  501 -0.00000000000E+00 -0.00000000000E+00 -0.85833093381E+01  0.85833093381E+01  0.00000000000E+00 0.  1.
         21    1    1    2  502  503  0.19994504618E+02 -0.15895167346E+02  0.48854518225E+02  0.55128944402E+02  0.00000000000E+00 0. -1.
         21    1    1    2  503  501 -0.19994504618E+02  0.15895167346E+02  0.24503638842E+02  0.35395831341E+02  0.00000000000E+00 0.  1.
</event>
<event>
 4    1  0.5568520E+002  0.3460597E+02  0.7546771E-02  0.1383355E+00
          2   -1    0    0  502    0  0.00000000000E+00  0.00000000000E+00  0.48002511772E+03  0.48002511772E+03  0.00000000000E+00 0.  1.
         -2   -1    0    0    0  501 -0.00000000000E+00 -0.00000000000E+00 -0.25010936095E+01  0.25010936095E+01  0.00000000000E+00 0. -1.
         21    1    1    2  502  503 -0.29273485684E+02 -0.18456339205E+02  0.25085099046E+03  0.25322676169E+03  0.00000000000E+00 0. -1.
         21    1    1    2  503  501  0.29273485684E+02  0.18456339205E+02  0.22667303365E+03  0.22929944964E+03  0.00000000000E+00 0.  1.
</event>
<event>
 4    1  0.5568520E+002  0.4407390E+02  0.7546771E-02  0.1326136E+00
          2   -1    0    0  503    0  0.00000000000E+00  0.00000000000E+00  0.18049976432E+02  0.18049976432E+02  0.00000000000E+00 0.  1.
         -2   -1    0    0    0  501 -0.00000000000E+00 -0.00000000000E+00 -0.25187682242E+03  0.25187682242E+03  0.00000000000E+00 0. -1.
         21    1    1    2  502  501  0.22897159928E+02 -0.37659379454E+02 -0.21905264862E+03  0.22344254666E+03  0.00000000000E+00 0. -1.
         21    1    1    2  503  502 -0.22897159928E+02  0.37659379454E+02 -0.14774197373E+02  0.46484252190E+02  0.00000000000E+00 0.  1.
</event>
<event>
 4    1  0.5568520E+002  0.2260009E+02  0.7546771E-02  0.1497582E+00
          2   -1    0    0  502    0  0.00000000000E+00  0.00000000000E+00  0.55550821444E+02  0.55550821444E+02  0.00000000000E+00 0.  1.
         -2   -1    0    0    0  501 -0.00000000000E+00 -0.00000000000E+00 -0.14722162606E+02  0.14722162606E+02  0.00000000000E+00 0. -1.
         21    1    1    2  502  503 -0.61727110320E+01 -0.21740786624E+02  0.41944221224E+02  0.47645376047E+02  0.00000000000E+00 0.  1.
         21    1    1    2  503  501  0.61727110320E+01  0.21740786624E+02 -0.11155623861E+01  0.22627608003E+02  0.00000000000E+00 0. -1.
</event>
<event>
 4    1  0.5568520E+002  0.2407906E+02  0.7546771E-02  0.1479375E+00
          2   -1    0    0  502    0  0.00000000000E+00  0.00000000000E+00  0.92267515840E+00  0.92267515840E+00  0.00000000000E+00 0. -1.
         -2   -1    0    0    0  501 -0.00000000000E+00 -0.00000000000E+00 -0.82324110348E+03  0.82324110348E+03  0.00000000000E+00 0.  1.
         21    1    1    2  502  503 -0.23894274160E+02  0.29773851894E+01 -0.61163865788E+03  0.61211244798E+03  0.00000000000E+00 0.  1.
         21    1    1    2  503  501  0.23894274160E+02 -0.29773851894E+01 -0.21067977044E+03  0.21205133066E+03  0.00000000000E+00 0. -1.
</event>
<event>
 4    1  0.5568520E+002  0.2711830E+02  0.7546771E-02  0.1446423E+00
          2   -1    0    0  502    0  0.00000000000E+00  0.00000000000E+00  0.62464348382E+02  0.62464348382E+02  0.00000000000E+00 0.  1.
         -2   -1    0    0    0  501 -0.00000000000E+00 -0.00000000000E+00 -0.21133497874E+02  0.21133497874E+02  0.00000000000E+00 0. -1.
         21    1    1    2  502  503 -0.25762165745E+02  0.84683635730E+01  0.48483387478E+02  0.55552148715E+02  0.00000000000E+00 0.  1.
         21    1    1    2  503  501  0.25762165745E+02 -0.84683635730E+01 -0.71525369695E+01  0.28045697541E+02  0.00000000000E+00 0. -1.
</event>
<event>
 4    1  0.5568520E+002  0.2366855E+02  0.7546771E-02  0.1484270E+00
          2   -1    0    0  503    0  0.00000000000E+00  0.00000000000E+00  0.25251552021E+02  0.25251552021E+02  0.00000000000E+00 0.  1.
         -2   -1    0    0    0  501 -0.00000000000E+00 -0.00000000000E+00 -0.31202204964E+02  0.31202204964E+02  0.00000000000E+00 0. -1.
         21    1    1    2  502  501  0.21364503837E+02 -0.10186171416E+02 -0.18149725247E+02  0.29826374887E+02  0.00000000000E+00 0. -1.
         21    1    1    2  503  502 -0.21364503837E+02  0.10186171416E+02  0.12199072304E+02  0.26627382098E+02  0.00000000000E+00 0.  1.
</event>
<event>
 4    1  0.5568520E+002  0.3536102E+02  0.7546771E-02  0.1378043E+00
          2   -1    0    0  503    0  0.00000000000E+00  0.00000000000E+00  0.38730767836E+03  0.38730767836E+03  0.00000000000E+00 0.  1.
         -2   -1    0    0    0  501 -0.00000000000E+00 -0.00000000000E+00 -0.33134932316E+01  0.33134932316E+01  0.00000000000E+00 0. -1.
         21    1    1    2  502  501  0.57326735676E+01 -0.34893239560E+02  0.16070646846E+03  0.16455081501E+03  0.00000000000E+00 0. -1.
         21    1    1    2  503  502 -0.57326735676E+01  0.34893239560E+02  0.22328771666E+03  0.22607035658E+03  0.00000000000E+00 0.  1.
</event>
<event>
 4    1  0.5568520E+002  0.2793962E+02  0.7546771E-02  0.1438391E+00
          2   -1    0    0  503    0  0.00000000000E+00  0.00000000000E+00  0.23276215088E+04  0.23276215088E+04  0.00000000000E+00 0. -1.
         -2   -1    0    0    0  501 -0.00000000000E+00 -0.00000000000E+00 -0.75865275979E+00  0.75865275979E+00  0.00000000000E+00 0.  1.
         21    1    1    2  502  501  0.40388122374E+01 -0.27646166373E+02  0.29383873909E+03  0.29516406813E+03  0.00000000000E+00 0.  1.
         21    1    1    2  503  502 -0.40388122374E+01  0.27646166373E+02  0.20330241169E+04  0.20332160934E+04  0.00000000000E+00 0. -1.
</event>
<event>
 4    1  0.5568520E+002  0.2385681E+02  0.7546771E-02  0.1482011E+00
          2   -1    0    0  502    0  0.00000000000E+00  0.00000000000E+00  0.37705789323E+02  0.37705789323E+02  0.00000000000E+00 0.  1.
         -2   -1    0    0    0  501 -0.00000000000E+00 -0.00000000000E+00 -0.12556424848E+03  0.12556424848E+03  0.00000000000E+00 0. -1.
         21    1    1    2  502  503 -0.24483979176E+01  0.23730838661E+02  0.32641946776E+02  0.40430731446E+02  0.00000000000E+00 0.  1.
         21    1    1    2  503  501  0.24483979176E+01 -0.23730838661E+02 -0.12050040593E+03  0.12283930635E+03  0.00000000000E+00 0. -1.
</event>
<event>
 4    1  0.5568520E+002  0.2602063E+02  0.7546771E-02  0.1457702E+00
          2   -1    0    0  503    0  0.00000000000E+00  0.00000000000E+00  0.16085982132E+04  0.16085982132E+04  0.00000000000E+00 0. -1.
         -2   -1    0    0    0  501 -0.00000000000E+00 -0.00000000000E+00 -0.63707700272E+00  0.63707700272E+00  0.00000000000E+00 0.  1.
         21    1    1    2  502  501  0.25836576253E+02 -0.30894241724E+01  0.33528650755E+03  0.33629468530E+03  0.00000000000E+00 0.  1.
         21    1    1    2  503  502 -0.25836576253E+02  0.30894241724E+01  0.12726746286E+04  0.12729406049E+04  0.00000000000E+00 0. -1.
</event>
<event>
 4    1  0.5568520E+002  0.2525556E+02  0.7546771E-02  0.1465965E+00
          2   -1    0    0  503    0  0.00000000000E+00  0.00000000000E+00  0.58491207824E+02  0.58491207824E+02  0.00000000000E+00 0. -1.
         -2   -1    0    0    0  501 -0.00000000000E+00 -0.00000000000E+00 -0.36462874852E+02  0.36462874852E+02  0.00000000000E+00 0.  1.
         21    1    1    2  502  501  0.10689120605E+02  0.22882004846E+02 -0.28734359161E+02  0.38255807944E+02  0.00000000000E+00 0.  1.
         21    1    1    2  503  502 -0.10689120605E+02 -0.22882004846E+02  0.50762692133E+02  0.56698274733E+02  0.00000000000E+00 0. -1.
</event>
<event>
 4    1  0.5568520E+002  0.2273056E+02  0.7546771E-02  0.1495910E+00
          2   -1    0    0  503    0  0.00000000000E+00  0.00000000000E+00  0.72223265371E+02  0.72223265371E+02  0.00000000000E+00 0.  1.
         -2   -1    0    0    0  501 -0.00000000000E+00 -0.00000000000E+00 -0.89695147503E+01  0.89695147503E+01  0.00000000000E+00 0. -1.
         21    1    1    2  502  501 -0.22316865289E+02 -0.43169086303E+01  0.13362091692E+02  0.26367094471E+02  0.00000000000E+00 0. -1.
         21    1    1    2  503  502  0.22316865289E+02  0.43169086303E+01  0.49891658928E+02  0.54825685650E+02  0.00000000000E+00 0.  1.
</event>
<event>
 4    1  0.5568520E+002  0.2615651E+02  0.7546771E-02  0.1456270E+00
          2   -1    0    0  502    0  0.00000000000E+00  0.00000000000E+00  0.22877548841E+04  0.22877548841E+04  0.00000000000E+00 0. -1.
         -2   -1    0    0    0  501 -0.00000000000E+00 -0.00000000000E+00 -0.49786480574E+00  0.49786480574E+00  0.00000000000E+00 0.  1.
         21    1    1    2  502  503 -0.11857798189E+01  0.26129616303E+02  0.18666279400E+04  0.18668111927E+04  0.00000000000E+00 0. -1.
         21    1    1    2  503  501  0.11857798189E+01 -0.26129616303E+02  0.42062907928E+03  0.42144155616E+03  0.00000000000E+00 0.  1.
</event>
<event>
 4    1  0.5568520E+002  0.3186352E+02  0.7546771E-02  0.1404065E+00
          2   -1    0    0  502    0  0.00000000000E+00  0.00000000000E+00  0.93726325679E+03  0.93726325679E+03  0.00000000000E+00 0. -1.
         -2   -1    0    0    0  501 -0.00000000000E+00 -0.00000000000E+00 -0.11136439367E+01  0.11136439367E+01  0.00000000000E+00 0.  1.
         21    1    1    2  502  503  0.24740345962E+02 -0.20079823153E+02  0.39055432832E+03  0.39185197127E+03  0.00000000000E+00 0.  1.
         21    1    1    2  503  501 -0.24740345962E+02  0.20079823153E+02  0.54559528454E+03  0.54652492946E+03  0.00000000000E+00 0. -1.
</event>
<event>
 4    1  0.5568520E+002  0.2078899E+02  0.7546771E-02  0.1522299E+00
          2   -1    0    0  502    0  0.00000000000E+00  0.00000000000E+00  0.56382522409E+03  0.56382522409E+03  0.00000000000E+00 0. -1.
         -2   -1    0    0    0  501 -0.00000000000E+00 -0.00000000000E+00 -0.84051922400E+00  0.84051922400E+00  0.00000000000E+00 0.  1.
         21    1    1    2  502  503 -0.13623442787E+02  0.15702987613E+02  0.36526610220E+03  0.36585722274E+03  0.00000000000E+00 0. -1.
         21    1    1    2  503  501  0.13623442787E+02 -0.15702987613E+02  0.19771860267E+03  0.19880852058E+03  0.00000000000E+00 0.  1.
</event>
<event>
 4    1  0.5568520E+002  0.3229249E+02  0.7546771E-02  0.1400667E+00
          2   -1    0    0  503    0  0.00000000000E+00  0.00000000000E+00  0.28391681397E+03  0.28391681397E+03  0.00000000000E+00 0.  1.
         -2   -1    0    0    0  501 -0.00000000000E+00 -0.00000000000E+00 -0.18830588494E+02  0.18830588494E+02  0.00000000000E+00 0. -1.
         21    1    1    2  502  501  0.30587857316E+02  0.10353162228E+02 -0.32677860475E+01  0.32457409153E+02  0.00000000000E+00 0. -1.
         21    1    1    2  503  502 -0.30587857316E+02 -0.10353162228E+02  0.26835401152E+03  0.27028999331E+03  0.00000000000E+00 0.  1.
</event>
<event>
 4    1  0.5568520E+002  0.4250508E+02  0.7546771E-02  0.1334400E+00
          2   -1    0    0  503    0  0.00000000000E+00  0.00000000000E+00  0.56019974880E+01  0.56019974880E+01  0.00000000000E+00 0. -1.
         -2   -1    0    0    0  501 -0.00000000000E+00 -0.00000000000E+00 -0.32494859640E+03  0.32494859640E+03  0.00000000000E+00 0.  1.
         21    1    1    2  502  501  0.24025108623E+02  0.35063882559E+02 -0.17400060521E+03  0.17911697943E+03  0.00000000000E+00 0.  1.
         21    1    1    2  503  502 -0.24025108623E+02 -0.35063882559E+02 -0.14534599370E+03  0.15143361446E+03  0.00000000000E+00 0. -1.
</event>
<event>
 4    1  0.5568520E+002  0.2277998E+02  0.7546771E-02  0.1495280E+00
          2   -1    0    0  503    0  0.00000000000E+00  0.00000000000E+00  0.24415728952E+04  0.24415728952E+04  0.00000000000E+00 0. -1.
         -2   -1    0    0    0  501 -0.00000000000E+00 -0.00000000000E+00 -0.22964850129E+00  0.22964850129E+00  0.00000000000E+00 0.  1.
         21    1    1    2  502  501  0.14004258161E+02  0.17966868528E+02  0.15539268976E+04  0.15540938616E+04  0.00000000000E+00 0. -1.
         21    1    1    2  503  502 -0.14004258161E+02 -0.17966868528E+02  0.88741634914E+03  0.88770868213E+03  0.00000000000E+00 0.  1.
</event>
<event>
 4    1  0.5568520E+002  0.2092419E+02  0.7546771E-02  0.1520350E+00
          2   -1    0    0  502    0  0.00000000000E+00  0.00000000000E+00  0.41715232642E+03  0.41715232642E+03  0.00000000000E+00 0. -1.
         -2   -1    0    0    0  501 -0.00000000000E+00 -0.00000000000E+00 -0.66839742087E+01  0.66839742087E+01  0.00000000000E+00 0.  1.
         21    1    1    2  502  503 -0.20901038057E+02  0.98405333516E+00  0.39980404496E+03  0.40035121596E+03  0.00000000000E+00 0. -1.
         21    1    1    2  503  501  0.20901038057E+02 -0.98405333516E+00  0.10664307251E+02  0.23485084671E+02  0.00000000000E+00 0.  1.
</event>
<event>
 4    1  0.5568520E+002  0.2416803E+02  0.7546771E-02  0.1478330E+00
          2   -1    0    0  503    0  0.00000000000E+00  0.00000000000E+00  0.87897092753E+03  0.87897092753E+03  0.00000000000E+00 0.  1.
         -2   -1    0    0    0  501 -0.00000000000E+00 -0.00000000000E+00 -0.16277657392E+01  0.16277657392E+01  0.00000000000E+00 0. -1.
         21    1    1    2  502  501  0.22719676782E+02 -0.82407404131E+01  0.99967288465E+02  0.10284722786E+03  0.00000000000E+00 0. -1.
         21    1    1    2  503  502 -0.22719676782E+02  0.82407404131E+01  0.77737587332E+03  0.77775146541E+03  0.00000000000E+00 0.  1.
</event>
<event>
 4    1  0.5568520E+002  0.2008408E+02  0.7546771E-02  0.1532754E+00
          2   -1    0    0  502    0  0.00000000000E+00  0.00000000000E+00  0.90700026207E+02  0.90700026207E+02  0.00000000000E+00 0. -1.
         -2   -1    0    0    0  501 -0.00000000000E+00 -0.00000000000E+00 -0.16428966260E+02  0.16428966260E+02  0.00000000000E+00 0.  1.
         21    1    1    2  502  503  0.10858401702E+02 -0.16895718385E+02  0.82879149210E+02  0.85277919540E+02  0.00000000000E+00 0. -1.
         21    1    1    2  503  501 -0.10858401702E+02  0.16895718385E+02 -0.86080892634E+01  0.21851072927E+02  0.00000000000E+00 0.  1.
</event>
<event>
 4    1  0.5568520E+002  0.4269205E+02  0.7546771E-02  0.1333394E+00
          2   -1    0    0  502    0  0.00000000000E+00  0.00000000000E+00  0.58076855447E+02  0.58076855447E+02  0.00000000000E+00 0. -1.
         -2   -1    0    0    0  501 -0.00000000000E+00 -0.00000000000E+00 -0.37391339891E+03  0.37391339891E+03  0.00000000000E+00 0.  1.
         21    1    1    2  502  503 -0.19690659489E+02 -0.37879929496E+02  0.48813945057E+02  0.64849150818E+02  0.00000000000E+00 0. -1.
         21    1    1    2  503  501  0.19690659489E+02  0.37879929496E+02 -0.36465048852E+03  0.36714110354E+03  0.00000000000E+00 0.  1.
</event>
<event>
 4    1  0.5568520E+002  0.3611247E+02  0.7546771E-02  0.1372906E+00
          2   -1    0    0  503    0  0.00000000000E+00  0.00000000000E+00  0.14366995375E+04  0.14366995375E+04  0.00000000000E+00 0. -1.
         -2   -1    0    0    0  501 -0.00000000000E+00 -0.00000000000E+00 -0.10683829015E+02  0.10683829015E+02  0.00000000000E+00 0.  1.
         21    1    1    2  502  501 -0.24930188931E+02 -0.26126548136E+02  0.20741394196E+02  0.41645123014E+02  0.00000000000E+00 0.  1.
         21    1    1    2  503  502  0.24930188931E+02  0.26126548136E+02  0.14052743143E+04  0.14057382435E+04  0.00000000000E+00 0. -1.
</event>
<event>
 4    1  0.5568520E+002  0.2470919E+02  0.7546771E-02  0.1472083E+00
          2   -1    0    0  503    0  0.00000000000E+00  0.00000000000E+00  0.13761473759E+04  0.13761473759E+04  0.00000000000E+00 0. -1.
         -2   -1    0    0    0  501 -0.00000000000E+00 -0.00000000000E+00 -0.47378894679E+00  0.47378894679E+00  0.00000000000E+00 0.  1.
         21    1    1    2  502  501 -0.23146790178E+02  0.86469714280E+01  0.51426823925E+03  0.51486150168E+03  0.00000000000E+00 0.  1.
         21    1    1    2  503  502  0.23146790178E+02 -0.86469714280E+01  0.86140534767E+03  0.86175966313E+03  0.00000000000E+00 0. -1.
</event>
<event>
 4    1  0.5568520E+002  0.2241894E+02  0.7546771E-02  0.1499926E+00
          2   -1    0    0  503    0  0.00000000000E+00  0.00000000000E+00  0.42844605816E+03  0.42844605816E+03  0.00000000000E+00 0. -1.
         -2   -1    0    0    0  501 -0.00000000000E+00 -0.00000000000E+00 -0.24585353976E+01  0.24585353976E+01  0.00000000000E+00 0.  1.
         21    1    1    2  502  501  0.85738413097E+01  0.20714686201E+02  0.57204164582E+02  0.61440421749E+02  0.00000000000E+00 0.  1.
         21    1    1    2  503  502 -0.85738413097E+01 -0.20714686201E+02  0.36878335818E+03  0.36946417180E+03  0.00000000000E+00 0. -1.
</event>
<event>
 4    1  0.5568520E+002  0.2095602E+02  0.7546771E-02  0.1519894E+00
          2   -1    0    0  503    0  0.00000000000E+00  0.00000000000E+00  0.70408005670E+03  0.70408005670E+03  0.00000000000E+00 0.  1.
         -2   -1    0    0    0  501 -0.00000000000E+00 -0.00000000000E+00 -0.88231521128E+00  0.88231521128E+00  0.00000000000E+00 0. -1.
         21    1    1    2  502  501  0.40292849467E+01  0.20565009038E+02  0.16077740162E+03  0.16213737263E+03  0.00000000000E+00 0. -1.
         21    1    1    2  503  502 -0.40292849467E+01 -0.20565009038E+02  0.54242033987E+03  0.54282499928E+03  0.00000000000E+00 0.  1.
</event>
<event>
 4    1  0.5568520E+002  0.2074026E+02  0.7546771E-02  0.1523006E+00
          2   -1    0    0  503    0  0.00000000000E+00  0.00000000000E+00  0.41253259481E+01  0.41253259481E+01  0.00000000000E+00 0.  1.
         -2   -1    0    0    0  501 -0.00000000000E+00 -0.00000000000E+00 -0.19176066412E+03  0.19176066412E+03  0.00000000000E+00 0. -1.
         21    1    1    2  502  501  0.66294113405E+01  0.19652207470E+02 -0.15997349366E+03  0.16131235857E+03  0.00000000000E+00 0. -1.
         21    1    1    2  503  502 -0.66294113405E+01 -0.19652207470E+02 -0.27661844503E+02  0.34573631490E+02  0.00000000000E+00 0.  1.
</event>
<event>
 4    1  0.5568520E+002  0.5258891E+02  0.7546771E-02  0.1287322E+00
          2   -1    0    0  503    0  0.00000000000E+00  0.00000000000E+00  0.31738812802E+04  0.31738812802E+04  0.00000000000E+00 0.  1.
         -2   -1    0    0    0  501 -0.00000000000E+00 -0.00000000000E+00 -0.11623538738E+01  0.11623538738E+01  0.00000000000E+00 0. -1.
         21    1    1    2  502  501  0.50563497505E+02 -0.14454265851E+02  0.79204500456E+03  0.79378894067E+03  0.00000000000E+00 0. -1.
         21    1    1    2  503  502 -0.50563497505E+02  0.14454265851E+02  0.23806739217E+04  0.23812546934E+04  0.00000000000E+00 0.  1.
</event>
<event>
 4    1  0.5568520E+002  0.2039891E+02  0.7546771E-02  0.1528022E+00
          2   -1    0    0  502    0  0.00000000000E+00  0.00000000000E+00  0.81788537014E+03  0.81788537014E+03  0.00000000000E+00 0. -1.
         -2   -1    0    0    0  501 -0.00000000000E+00 -0.00000000000E+00 -0.12243614183E+01  0.12243614183E+01  0.00000000000E+00 0.  1.
         21    1    1    2  502  503 -0.17340357323E+02 -0.10743730125E+02  0.72143533188E+03  0.72172366859E+03  0.00000000000E+00 0. -1.
         21    1    1    2  503  501  0.17340357323E+02  0.10743730125E+02  0.95225676844E+02  0.97386062963E+02  0.00000000000E+00 0.  1.
</event>
<event>
 4    1  0.5568520E+002  0.2221119E+02  0.7546771E-02  0.1502648E+00
          2   -1    0    0  503    0  0.00000000000E+00  0.00000000000E+00  0.52083757050E+03  0.52083757050E+03  0.00000000000E+00 0.  1.
         -2   -1    0    0    0  501 -0.00000000000E+00 -0.00000000000E+00 -0.15679502130E+01  0.15679502130E+01  0.00000000000E+00 0. -1.
         21    1    1    2  502  501  0.21550715886E+02  0.53762267289E+01  0.95284629417E+02  0.97839142331E+02  0.00000000000E+00 0. -1.
         21    1    1    2  503  502 -0.21550715886E+02 -0.53762267289E+01  0.42398499087E+03  0.42456637838E+03  0.00000000000E+00 0.  1.
</event>
<event>
 4    1  0.5568520E+002  0.3852898E+02  0.7546771E-02  0.1357328E+00
          2   -1    0    0  503    0  0.00000000000E+00  0.00000000000E+00  0.67046008109E+01  0.67046008109E+01  0.00000000000E+00 0. -1.
         -2   -1    0    0    0  501 -0.00000000000E+00 -0.00000000000E+00 -0.36034391361E+03  0.36034391361E+03  0.00000000000E+00 0.  1.
         21    1    1    2  502  501  0.27999431645E+02  0.26467232538E+02 -0.29077509928E+03  0.29331662232E+03  0.00000000000E+00 0.  1.
         21    1    1    2  503  502 -0.27999431645E+02 -0.26467232538E+02 -0.62864213519E+02  0.73731892096E+02  0.00000000000E+00 0. -1.
</event>
<event>
 4    1  0.5568520E+002  0.2531324E+02  0.7546771E-02  0.1465330E+00
          2   -1    0    0  503    0  0.00000000000E+00  0.00000000000E+00  0.39609352534E+03  0.39609352534E+03  0.00000000000E+00 0.  1.
         -2   -1    0    0    0  501 -0.00000000000E+00 -0.00000000000E+00 -0.16182846777E+01  0.16182846777E+01  0.00000000000E+00 0. -1.
         21    1    1    2  502  501 -0.21587388815E+02 -0.13219097962E+02  0.20102222940E+03  0.20260971502E+03  0.00000000000E+00 0. -1.
         21    1    1    2  503  502  0.21587388815E+02  0.13219097962E+02  0.19345301126E+03  0.19510209500E+03  0.00000000000E+00 0.  1.
</event>
<event>
 4    1  0.5568520E+002  0.2745690E+02  0.7546771E-02  0.1443072E+00
          2   -1    0    0  503    0  0.00000000000E+00  0.00000000000E+00  0.83587818691E+03  0.83587818691E+03  0.00000000000E+00 0. -1.
         -2   -1    0    0    0  501 -0.00000000000E+00 -0.00000000000E+00 -0.14631041657E+01  0.14631041657E+01  0.00000000000E+00 0.  1.
         21    1    1    2  502  501  0.16064939478E+02  0.22266543479E+02  0.15791257809E+03  0.16028182542E+03  0.00000000000E+00 0.  1.
         21    1    1    2  503  502 -0.16064939478E+02 -0.22266543479E+02  0.67650250465E+03  0.67705946566E+03  0.00000000000E+00 0. -1.
</event>
<event>
 4    1  0.5568520E+002  0.4372196E+02  0.7546771E-02  0.1327955E+00
          2   -1    0    0  503    0  0.00000000000E+00  0.00000000000E+00  0.22358836266E+02  0.22358836266E+02  0.00000000000E+00 0. -1.
         -2   -1    0    0    0  501 -0.00000000000E+00 -0.00000000000E+00 -0.24175041123E+03  0.24175041123E+03  0.00000000000E+00 0.  1.
         21    1    1    2  502  501  0.19015728741E+02 -0.39370184289E+02 -0.21586167833E+03  0.22024503064E+03  0.00000000000E+00 0.  1.
         21    1    1    2  503  502 -0.19015728741E+02  0.39370184289E+02 -0.35298966390E+01  0.43864216861E+02  0.00000000000E+00 0. -1.
</event>
<event>
 4    1  0.5568520E+002  0.2280026E+02  0.7546771E-02  0.1495022E+00
          2   -1    0    0  502    0  0.00000000000E+00  0.00000000000E+00  0.73814156911E+03  0.73814156911E+03  0.00000000000E+00 0.  1.
         -2   -1    0    0    0  501 -0.00000000000E+00 -0.00000000000E+00 -0.75443576520E+00  0.75443576520E+00  0.00000000000E+00 0. -1.
         21    1    1    2  502  503 -0.21845845554E+02 -0.65277047481E+01  0.46396011485E+03  0.46452001040E+03  0.00000000000E+00 0.  1.
         21    1    1    2  503  501  0.21845845554E+02  0.65277047481E+01  0.27342701850E+03  0.27437599447E+03  0.00000000000E+00 0. -1.
</event>
<event>
 4    1  0.5568520E+002  0.2614677E+02  0.7546771E-02  0.1456372E+00
          2   -1    0    0  503    0  0.00000000000E+00  0.00000000000E+00  0.14502488823E+02  0.14502488823E+02  0.00000000000E+00 0.  1.
         -2   -1    0    0    0  501 -0.00000000000E+00 -0.00000000000E+00 -0.10572884218E+03  0.10572884218E+03  0.00000000000E+00 0. -1.
         21    1    1    2  502  501  0.26054411479E+02  0.21957352229E+01 -0.90363561273E+02  0.94070329098E+02  0.00000000000E+00 0. -1.
         21    1    1    2  503  502 -0.26054411479E+02 -0.21957352229E+01 -0.86279208818E+00  0.26161001909E+02  0.00000000000E+00 0.  1.
</event>
<event>
 4    1  0.5568520E+002  0.3688265E+02  0.7546771E-02  0.1367790E+00
          2   -1    0    0  503    0  0.00000000000E+00  0.00000000000E+00  0.75813379046E+03  0.75813379046E+03  0.00000000000E+00 0. -1.
         -2   -1    0    0    0  501 -0.00000000000E+00 -0.00000000000E+00 -0.17995242524E+01  0.17995242524E+01  0.00000000000E+00 0.  1.
         21    1    1    2  502  501  0.27358338044E+01 -0.36781044717E+02  0.39861264813E+03  0.40031534231E+03  0.00000000000E+00 0.  1.
         21    1    1    2  503  502 -0.27358338044E+01  0.36781044717E+02  0.35772161808E+03  0.35961797241E+03  0.00000000000E+00 0. -1.
</event>
<event>
 4    1  0.5568520E+002  0.2094617E+02  0.7546771E-02  0.1520035E+00
          2   -1    0    0  503    0  0.00000000000E+00  0.00000000000E+00  0.25482114067E+02  0.25482114067E+02  0.00000000000E+00 0.  1.
         -2   -1    0    0    0  501 -0.00000000000E+00 -0.00000000000E+00 -0.19268832247E+02  0.19268832247E+02  0.00000000000E+00 0. -1.
         21    1    1    2  502  501  0.20887441206E+02 -0.15674761149E+01 -0.41937548503E+01  0.21361876351E+02  0.00000000000E+00 0. -1.
         21    1    1    2  503  502 -0.20887441206E+02  0.15674761149E+01  0.10407036670E+02  0.23389069963E+02  0.00000000000E+00 0.  1.
</event>
<event>
 4    1  0.5568520E+002  0.2025961E+02  0.7546771E-02  0.1530103E+00
          2   -1    0    0  502    0  0.00000000000E+00  0.00000000000E+00  0.41556762860E+01  0.41556762860E+01  0.00000000000E+00 0.  1.
         -2   -1    0    0    0  501 -0.00000000000E+00 -0.00000000000E+00 -0.13171779490E+03  0.13171779490E+03  0.00000000000E+00 0. -1.
         21    1    1    2  502  503 -0.89200326605E+01  0.18190244711E+02 -0.29802713988E+02  0.36036838740E+02  0.00000000000E+00 0.  1.
         21    1    1    2  503  501  0.89200326605E+01 -0.18190244711E+02 -0.97759404621E+02  0.99836632441E+02  0.00000000000E+00 0. -1.
</event>
<event>
 4    1  0.5568520E+002  0.2324702E+02  0.7546771E-02  0.1489419E+00
          2   -1    0    0  502    0  0.00000000000E+00  0.00000000000E+00  0.44201089712E+02  0.44201089712E+02  0.00000000000E+00 0.  1.
         -2   -1    0    0    0  501 -0.00000000000E+00 -0.00000000000E+00 -0.19524720135E+03  0.19524720135E+03  0.00000000000E+00 0. -1.
         21    1    1    2  502  503  0.75732508834E+01  0.21978850024E+02  0.40391896902E+02  0.46603962414E+02  0.00000000000E+00 0.  1.
         21    1    1    2  503  501 -0.75732508834E+01 -0.21978850024E+02 -0.19143800854E+03  0.19284432865E+03  0.00000000000E+00 0. -1.
</event>
<event>
 4    1  0.5568520E+002  0.2113889E+02  0.7546771E-02  0.1517291E+00
          2   -1    0    0  502    0  0.00000000000E+00  0.00000000000E+00  0.20758288823E+01  0.20758288823E+01  0.00000000000E+00 0.  1.
         -2   -1    0    0    0  501 -0.00000000000E+00 -0.00000000000E+00 -0.25113105767E+03  0.25113105767E+03  0.00000000000E+00 0. -1.
         21    1    1    2  502  503  0.15394511773E+02  0.14486598713E+02 -0.76682304730E+02  0.79542619983E+02  0.00000000000E+00 0.  1.
         21    1    1    2  503  501 -0.15394511773E+02 -0.14486598713E+02 -0.17237292405E+03  0.17366426657E+03  0.00000000000E+00 0. -1.
</event>
<event>
 4    1  0.5568520E+002  0.4363087E+02  0.7546771E-02  0.1328429E+00
          2   -1    0    0  503    0  0.00000000000E+00  0.00000000000E+00  0.62244997300E+03  0.62244997300E+03  0.00000000000E+00 0. -1.
         -2   -1    0    0    0  501 -0.00000000000E+00 -0.00000000000E+00 -0.32433085094E+01  0.32433085094E+01  0.00000000000E+00 0.  1.
         21    1    1    2  502  501  0.12260800039E+02 -0.41872726118E+02  0.23488839048E+03  0.23890627533E+03  0.00000000000E+00 0.  1.
         21    1    1    2  503  502 -0.12260800039E+02  0.41872726118E+02  0.38431827401E+03  0.38678700618E+03  0.00000000000E+00 0. -1.
</event>
<event>
 4    1  0.5568520E+002  0.2021390E+02  0.7546771E-02  0.1530791E+00
          2   -1    0    0  503    0  0.00000000000E+00  0.00000000000E+00  0.92826347871E+03  0.92826347871E+03  0.00000000000E+00 0. -1.
         -2   -1    0    0    0  501 -0.00000000000E+00 -0.00000000000E+00 -0.63256697443E+00  0.63256697443E+00  0.00000000000E+00 0.  1.
         21    1    1    2  502  501  0.19910454778E+02  0.34893755595E+01  0.20767805935E+03  0.20865947926E+03  0.00000000000E+00 0.  1.
         21    1    1    2  503  502 -0.19910454778E+02 -0.34893755595E+01  0.71995285239E+03  0.72023656642E+03  0.00000000000E+00 0. -1.
</event>
<event>
 4    1  0.5568520E+002  0.2632273E+02  0.7546771E-02  0.1454533E+00
          2   -1    0    0  503    0  0.00000000000E+00  0.00000000000E+00  0.91016090264E+02  0.91016090264E+02  0.00000000000E+00 0. -1.
         -2   -1    0    0    0  501 -0.00000000000E+00 -0.00000000000E+00 -0.93869821955E+01  0.93869821955E+01  0.00000000000E+00 0.  1.
         21    1    1    2  502  501  0.91922689858E+01 -0.24665531322E+02  0.18989540227E+02  0.32457493472E+02  0.00000000000E+00 0. -1.
         21    1    1    2  503  502 -0.91922689858E+01  0.24665531322E+02  0.62639567842E+02  0.67945578987E+02  0.00000000000E+00 0.  1.
</event>
<event>
 4    1  0.5568520E+002  0.4301263E+02  0.7546771E-02  0.1331682E+00
          2   -1    0    0  503    0  0.00000000000E+00  0.00000000000E+00  0.17559248425E+04  0.17559248425E+04  0.00000000000E+00 0. -1.
         -2   -1    0    0    0  501 -0.00000000000E+00 -0.00000000000E+00 -0.73142764489E+01  0.73142764489E+01  0.00000000000E+00 0.  1.
         21    1    1    2  502  501  0.19030275254E+02 -0.38573762963E+02  0.58652562029E+02  0.72733827054E+02  0.00000000000E+00 0.  1.
         21    1    1    2  503  502 -0.19030275254E+02  0.38573762963E+02  0.16899580040E+04  0.16905052919E+04  0.00000000000E+00 0. -1.
</event>
<event>
 4    1  0.5568520E+002  0.4514720E+02  0.7546771E-02  0.1320705E+00
          2   -1    0    0  503    0  0.00000000000E+00  0.00000000000E+00  0.11406329834E+04  0.11406329834E+04  0.00000000000E+00 0. -1.
         -2   -1    0    0    0  501 -0.00000000000E+00 -0.00000000000E+00 -0.68287372961E+01  0.68287372961E+01  0.00000000000E+00 0.  1.
         21    1    1    2  502  501  0.39997848665E+02 -0.20938991760E+02  0.73921675031E+02  0.86618031109E+02  0.00000000000E+00 0.  1.
         21    1    1    2  503  502 -0.39997848665E+02  0.20938991760E+02  0.10598825710E+04  0.10608436896E+04  0.00000000000E+00 0. -1.
</event>
<event>
 4    1  0.5568520E+002  0.2603615E+02  0.7546771E-02  0.1457538E+00
          2   -1    0    0  503    0  0.00000000000E+00  0.00000000000E+00  0.46799780041E+02  0.46799780041E+02  0.00000000000E+00 0.  1.
         -2   -1    0    0    0  501 -0.00000000000E+00 -0.00000000000E+00 -0.17428050085E+02  0.17428050085E+02  0.00000000000E+00 0. -1.
         21    1    1    2  502  501  0.16877029409E+02 -0.19825411832E+02  0.14884358371E+01  0.26078660188E+02  0.00000000000E+00 0.  1.
         21    1    1    2  503  502 -0.16877029409E+02  0.19825411832E+02  0.27883294119E+02  0.38149169937E+02  0.00000000000E+00 0. -1.
</event>
<event>
 4    1  0.5568520E+002  0.2135107E+02  0.7546771E-02  0.1514311E+00
          2   -1    0    0  503    0  0.00000000000E+00  0.00000000000E+00  0.29546075474E+03  0.29546075474E+03  0.00000000000E+00 0.  1.
         -2   -1    0    0    0  501 -0.00000000000E+00 -0.00000000000E+00 -0.16066559447E+01  0.16066559447E+01  0.00000000000E+00 0. -1.
         21    1    1    2  502  501 -0.17789076907E+02  0.11807493455E+02  0.17651423262E+03  0.17780085061E+03  0.00000000000E+00 0. -1.
         21    1    1    2  503  502  0.17789076907E+02 -0.11807493455E+02  0.11733986617E+03  0.11926656007E+03  0.00000000000E+00 0.  1.
</event>
<event>
 4    1  0.5568520E+002  0.2296882E+02  0.7546771E-02  0.1492890E+00
          2   -1    0    0  503    0  0.00000000000E+00  0.00000000000E+00  0.53674611667E+03  0.53674611667E+03  0.00000000000E+00 0. -1.
         -2   -1    0    0    0  501 -0.00000000000E+00 -0.00000000000E+00 -0.33501111310E+01  0.33501111310E+01  0.00000000000E+00 0.  1.
         21    1    1    2  502  501  0.20372682888E+02 -0.10607574538E+02  0.39695735683E+02  0.45861948029E+02  0.00000000000E+00 0.  1.
         21    1    1    2  503  502 -0.20372682888E+02  0.10607574538E+02  0.49370026986E+03  0.49423427977E+03  0.00000000000E+00 0. -1.
</event>
<event>
 4    1  0.5568520E+002  0.2876810E+02  0.7546771E-02  0.1430612E+00
          2   -1    0    0  503    0  0.00000000000E+00  0.00000000000E+00  0.12077834170E+04  0.12077834170E+04  0.00000000000E+00 0. -1.
         -2   -1    0    0    0  501 -0.00000000000E+00 -0.00000000000E+00 -0.13615444495E+01  0.13615444495E+01  0.00000000000E+00 0.  1.
         21    1    1    2  502  501 -0.45758239655E+01  0.28401855615E+02  0.17711405580E+03  0.17943520371E+03  0.00000000000E+00 0.  1.
         21    1    1    2  503  502  0.45758239655E+01 -0.28401855615E+02  0.10293078168E+04  0.10297097578E+04  0.00000000000E+00 0. -1.
</event>
<event>
 4    1  0.5568520E+002  0.3990715E+02  0.7546771E-02  0.1349031E+00
          2   -1    0    0  502    0  0.00000000000E+00  0.00000000000E+00  0.29301541297E+04  0.29301541297E+04  0.00000000000E+00 0. -1.
         -2   -1    0    0    0  501 -0.00000000000E+00 -0.00000000000E+00 -0.10468920303E+01  0.10468920303E+01  0.00000000000E+00 0.  1.
         21    1    1    2  502  503 -0.26333895267E+02  0.29985107574E+02  0.24808295808E+04  0.24811505375E+04  0.00000000000E+00 0. -1.
         21    1    1    2  503  501  0.26333895267E+02 -0.29985107574E+02  0.44827765691E+03  0.45005048428E+03  0.00000000000E+00 0.  1.
</event>
<event>
 4    1  0.5568520E+002  0.2478274E+02  0.7546771E-02  0.1471249E+00
          2   -1    0    0  502    0  0.00000000000E+00  0.00000000000E+00  0.66422312277E+03  0.66422312277E+03  0.00000000000E+00 0. -1.
         -2   -1    0    0    0  501 -0.00000000000E+00 -0.00000000000E+00 -0.23684320182E+02  0.23684320182E+02  0.00000000000E+00 0.  1.
         21    1    1    2  502  503 -0.22734509779E+02 -0.98654072365E+01  0.65744208708E+03  0.65790902263E+03  0.00000000000E+00 0. -1.
         21    1    1    2  503  501  0.22734509779E+02  0.98654072365E+01 -0.16903284495E+02  0.29998420317E+02  0.00000000000E+00 0.  1.
</event>
<event>
 4    1  0.5568520E+002  0.2101679E+02  0.7546771E-02  0.1519025E+00
          2   -1    0    0  502    0  0.00000000000E+00  0.00000000000E+00  0.14044078302E+04  0.14044078302E+04  0.00000000000E+00 0.  1.
         -2   -1    0    0    0  501 -0.00000000000E+00 -0.00000000000E+00 -0.31726292124E+01  0.31726292124E+01  0.00000000000E+00 0. -1.
         21    1    1    2  502  503 -0.11466478920E+02 -0.17613213349E+02  0.13686129931E+04  0.13687743533E+04  0.00000000000E+00 0.  1.
         21    1    1    2  503  501  0.11466478920E+02  0.17613213349E+02  0.32622207942E+02  0.38806106147E+02  0.00000000000E+00 0. -1.
</event>
<event>
 4    1  0.5568520E+002  0.4248051E+02  0.7546771E-02  0.1334533E+00
          2   -1    0    0  503    0  0.00000000000E+00  0.00000000000E+00  0.96015510862E+03  0.96015510862E+03  0.00000000000E+00 0. -1.
         -2   -1    0    0    0  501 -0.00000000000E+00 -0.00000000000E+00 -0.25124994738E+02  0.25124994738E+02  0.00000000000E+00 0.  1.
         21    1    1    2  502  501 -0.13477025744E+02 -0.40286018675E+02 -0.63408507112E+01  0.42951133993E+02  0.00000000000E+00 0.  1.
         21    1    1    2  503  502  0.13477025744E+02  0.40286018675E+02  0.94137096459E+03  0.94232896936E+03  0.00000000000E+00 0. -1.
</event>
<event>
 4    1  0.5568520E+002  0.2409351E+02  0.7546771E-02  0.1479205E+00
          2   -1    0    0  503    0  0.00000000000E+00  0.00000000000E+00  0.92489626630E+03  0.92489626630E+03  0.00000000000E+00 0. -1.
         -2   -1    0    0    0  501 -0.00000000000E+00 -0.00000000000E+00 -0.21333512306E+01  0.21333512306E+01  0.00000000000E+00 0.  1.
         21    1    1    2  502  501 -0.37452725225E+00  0.24090599670E+02  0.71974237770E+02  0.75899856164E+02  0.00000000000E+00 0.  1.
         21    1    1    2  503  502  0.37452725225E+00 -0.24090599670E+02  0.85078867730E+03  0.85112976137E+03  0.00000000000E+00 0. -1.
</event>
<event>
 4    1  0.5568520E+002  0.1058031E+03  0.7546771E-02  0.1154115E+00
          2   -1    0    0  503    0  0.00000000000E+00  0.00000000000E+00  0.11788231492E+04  0.11788231492E+04  0.00000000000E+00 0.  1.
         -2   -1    0    0    0  501 -0.00000000000E+00 -0.00000000000E+00 -0.15720275289E+02  0.15720275289E+02  0.00000000000E+00 0. -1.
         21    1    1    2  502  501  0.18119922214E+02 -0.10423991021E+03  0.20573067460E+03  0.23134260510E+03  0.00000000000E+00 0. -1.
         21    1    1    2  503  502 -0.18119922214E+02  0.10423991021E+03  0.95737219932E+03  0.96320081940E+03  0.00000000000E+00 0.  1.
</event>
<event>
 4    1  0.5568520E+002  0.3747598E+02  0.7546771E-02  0.1363947E+00
          2   -1    0    0  502    0  0.00000000000E+00  0.00000000000E+00  0.11805000993E+02  0.11805000993E+02  0.00000000000E+00 0.  1.
         -2   -1    0    0    0  501 -0.00000000000E+00 -0.00000000000E+00 -0.12183488666E+03  0.12183488666E+03  0.00000000000E+00 0. -1.
         21    1    1    2  502  503 -0.24580774906E+02 -0.28288412304E+02 -0.65260225058E+02  0.75255204074E+02  0.00000000000E+00 0. -1.
         21    1    1    2  503  501  0.24580774906E+02  0.28288412304E+02 -0.44769660610E+02  0.58384683580E+02  0.00000000000E+00 0.  1.
</event>
<event>
 4    1  0.5568520E+002  0.2128246E+02  0.7546771E-02  0.1515270E+00
          2   -1    0    0  502    0  0.00000000000E+00  0.00000000000E+00  0.17592308283E+02  0.17592308283E+02  0.00000000000E+00 0.  1.
         -2   -1    0    0    0  501 -0.00000000000E+00 -0.00000000000E+00 -0.33994553544E+02  0.33994553544E+02  0.00000000000E+00 0. -1.
         21    1    1    2  502  503 -0.16855257269E+02 -0.12993977271E+02  0.45039169274E+01  0.21753813703E+02  0.00000000000E+00 0.  1.
         21    1    1    2  503  501  0.16855257269E+02  0.12993977271E+02 -0.20906162189E+02  0.29833048124E+02  0.00000000000E+00 0. -1.
</event>
<event>
 4    1  0.5568520E+002  0.3824817E+02  0.7546771E-02  0.1359069E+00
          2   -1    0    0  503    0  0.00000000000E+00  0.00000000000E+00  0.13003701003E+04  0.13003701003E+04  0.00000000000E+00 0.  1.
         -2   -1    0    0    0  501 -0.00000000000E+00 -0.00000000000E+00 -0.21068223277E+01  0.21068223277E+01  0.00000000000E+00 0. -1.
         21    1    1    2  502  501  0.38171450020E+02 -0.24213302070E+01  0.20456025531E+03  0.20810531105E+03  0.00000000000E+00 0. -1.
         21    1    1    2  503  502 -0.38171450020E+02  0.24213302070E+01  0.10937030226E+04  0.10943716115E+04  0.00000000000E+00 0.  1.
</event>
<event>
 4    1  0.5568520E+002  0.2037683E+02  0.7546771E-02  0.1528351E+00
          2   -1    0    0  502    0  0.00000000000E+00  0.00000000000E+00  0.16190043310E+02  0.16190043310E+02  0.00000000000E+00 0. -1.
         -2   -1    0    0    0  501 -0.00000000000E+00 -0.00000000000E+00 -0.43311101742E+02  0.43311101742E+02  0.00000000000E+00 0.  1.
         21    1    1    2  502  503 -0.18175152674E+02 -0.92129764893E+01  0.54393040621E+01  0.21090309130E+02  0.00000000000E+00 0. -1.
         21    1    1    2  503  501  0.18175152674E+02  0.92129764893E+01 -0.32560362493E+02  0.38410835922E+02  0.00000000000E+00 0.  1.
</event>
<event>
 4    1  0.5568520E+002  0.2147191E+02  0.7546771E-02  0.1512633E+00
          2   -1    0    0  502    0  0.00000000000E+00  0.00000000000E+00  0.16202074411E+04  0.16202074411E+04  0.00000000000E+00 0. -1.
         -2   -1    0    0    0  501 -0.00000000000E+00 -0.00000000000E+00 -0.67340702623E+00  0.67340702623E+00  0.00000000000E+00 0.  1.
         21    1    1    2  502  503 -0.31757324745E+01  0.21235766350E+02  0.14256139183E+04  0.14257756090E+04  0.00000000000E+00 0. -1.
         21    1    1    2  503  501  0.31757324745E+01 -0.21235766350E+02  0.19392011581E+03  0.19510523920E+03  0.00000000000E+00 0.  1.
</event>
<event>
 4    1  0.5568520E+002  0.3517009E+02  0.7546771E-02  0.1379371E+00
          2   -1    0    0  503    0  0.00000000000E+00  0.00000000000E+00  0.19820844559E+03  0.19820844559E+03  0.00000000000E+00 0. -1.
         -2   -1    0    0    0  501 -0.00000000000E+00 -0.00000000000E+00 -0.73056259066E+01  0.73056259066E+01  0.00000000000E+00 0.  1.
         21    1    1    2  502  501  0.37014349051E+01 -0.34974766238E+02  0.56216938423E+02  0.66311982775E+02  0.00000000000E+00 0.  1.
         21    1    1    2  503  502 -0.37014349051E+01  0.34974766238E+02  0.13468588126E+03  0.13920208872E+03  0.00000000000E+00 0. -1.
</event>
<event>
 4    1  0.5568520E+002  0.2020597E+02  0.7546771E-02  0.1530910E+00
          2   -1    0    0  502    0  0.00000000000E+00  0.00000000000E+00  0.13951896997E+02  0.13951896997E+02  0.00000000000E+00 0. -1.
         -2   -1    0    0    0  501 -0.00000000000E+00 -0.00000000000E+00 -0.33555741601E+02  0.33555741601E+02  0.00000000000E+00 0.  1.
         21    1    1    2  502  503 -0.55368636406E+01 -0.19432556980E+02 -0.13063456716E+01  0.20248152231E+02  0.00000000000E+00 0. -1.
         21    1    1    2  503  501  0.55368636406E+01  0.19432556980E+02 -0.18297498933E+02  0.27259486367E+02  0.00000000000E+00 0.  1.
</event>
<event>
 4    1  0.5568520E+002  0.2065988E+02  0.7546771E-02  0.1524177E+00
          2   -1    0    0  503    0  0.00000000000E+00  0.00000000000E+00  0.55435238750E+02  0.55435238750E+02  0.00000000000E+00 0.  1.
         -2   -1    0    0    0  501 -0.00000000000E+00 -0.00000000000E+00 -0.77202944538E+01  0.77202944538E+01  0.00000000000E+00 0. -1.
         21    1    1    2  502  501 -0.57136261688E+00  0.20651977716E+02  0.22223622162E+02  0.30343368646E+02  0.00000000000E+00 0.  1.
         21    1    1    2  503  502  0.57136261688E+00 -0.20651977716E+02  0.25491322135E+02  0.32812164558E+02  0.00000000000E+00 0. -1.
</event>
<event>
 4    1  0.5568520E+002  0.4440030E+02  0.7546771E-02  0.1324465E+00
          2   -1    0    0  502    0  0.00000000000E+00  0.00000000000E+00  0.13757388478E+02  0.13757388478E+02  0.00000000000E+00 0.  1.
         -2   -1    0    0    0  501 -0.00000000000E+00 -0.00000000000E+00 -0.16987830594E+03  0.16987830594E+03  0.00000000000E+00 0. -1.
         21    1    1    2  502  503  0.32957491396E+02  0.29752154399E+02 -0.41740143651E+02  0.60939531690E+02  0.00000000000E+00 0.  1.
         21    1    1    2  503  501 -0.32957491396E+02 -0.29752154399E+02 -0.11438077381E+03  0.12269616273E+03  0.00000000000E+00 0. -1.
</event>
<event>
 4    1  0.5568520E+002  0.2875616E+02  0.7546771E-02  0.1430722E+00
          2   -1    0    0  503    0  0.00000000000E+00  0.00000000000E+00  0.26431981610E+01  0.26431981610E+01  0.00000000000E+00 0. -1.
         -2   -1    0    0    0  501 -0.00000000000E+00 -0.00000000000E+00 -0.70627960030E+03  0.70627960030E+03  0.00000000000E+00 0.  1.
         21    1    1    2  502  501 -0.38274600408E+01 -0.28500306620E+02 -0.61637304792E+03  0.61704347588E+03  0.00000000000E+00 0.  1.
         21    1    1    2  503  502  0.38274600408E+01  0.28500306620E+02 -0.87263354221E+02  0.91879322580E+02  0.00000000000E+00 0. -1.
</event>
<event>
 4    1  0.5568520E+002  0.3094924E+02  0.7546771E-02  0.1411523E+00
          2   -1    0    0  503    0  0.00000000000E+00  0.00000000000E+00  0.29044931686E+01  0.29044931686E+01  0.00000000000E+00 0.  1.
         -2   -1    0    0    0  501 -0.00000000000E+00 -0.00000000000E+00 -0.35601767557E+03  0.35601767557E+03  0.00000000000E+00 0. -1.
         21    1    1    2  502  501  0.26548334128E+02 -0.15907282590E+02 -0.22527164625E+03  0.22738770919E+03  0.00000000000E+00 0.  1.
         21    1    1    2  503  502 -0.26548334128E+02  0.15907282590E+02 -0.12784153615E+03  0.13153445955E+03  0.00000000000E+00 0. -1.
</event>
<event>
 4    1  0.5568520E+002  0.2199291E+02  0.7546771E-02  0.1505547E+00
          2   -1    0    0  503    0  0.00000000000E+00  0.00000000000E+00  0.13437044987E+01  0.13437044987E+01  0.00000000000E+00 0.  1.
         -2   -1    0    0    0  501 -0.00000000000E+00 -0.00000000000E+00 -0.56083536195E+03  0.56083536195E+03  0.00000000000E+00 0. -1.
         21    1    1    2  502  501 -0.47598661609E+01 -0.21471650808E+02 -0.11152348305E+03  0.11367134813E+03  0.00000000000E+00 0.  1.
         21    1    1    2  503  502  0.47598661609E+01  0.21471650808E+02 -0.44796817440E+03  0.44850771832E+03  0.00000000000E+00 0. -1.
</event>
<event>
 4    1  0.5568520E+002  0.2041365E+02  0.7546771E-02  0.1527803E+00
          2   -1    0    0  503    0  0.00000000000E+00  0.00000000000E+00  0.16954906250E+04  0.16954906250E+04  0.00000000000E+00 0. -1.
         -2   -1    0    0    0  501 -0.00000000000E+00 -0.00000000000E+00 -0.25209422581E+00  0.25209422581E+00  0.00000000000E+00 0.  1.
         21    1    1    2  502  501 -0.20312554850E+02  0.20291073158E+01  0.71342955511E+03  0.71372154743E+03  0.00000000000E+00 0. -1.
         21    1    1    2  503  502  0.20312554850E+02 -0.20291073158E+01  0.98180897570E+03  0.98202117184E+03  0.00000000000E+00 0.  1.
</event>
<event>
 4    1  0.5568520E+002  0.3615106E+02  0.7546771E-02  0.1372647E+00
          2   -1    0    0  503    0  0.00000000000E+00  0.00000000000E+00  0.61001027569E+03  0.61001027569E+03  0.00000000000E+00 0.  1.
         -2   -1    0    0    0  501 -0.00000000000E+00 -0.00000000000E+00 -0.42738470566E+01  0.42738470566E+01  0.00000000000E+00 0. -1.
         21    1    1    2  502  501 -0.18990683758E+02 -0.30761222576E+02  0.85965527406E+02  0.93257550827E+02  0.00000000000E+00 0. -1.
         21    1    1    2  503  502  0.18990683758E+02  0.30761222576E+02  0.51977090123E+03  0.52102657192E+03  0.00000000000E+00 0.  1.
</event>
<event>
 4    1  0.5568520E+002  0.2372104E+02  0.7546771E-02  0.1483637E+00
          2   -1    0    0  502    0  0.00000000000E+00  0.00000000000E+00  0.28021634730E+03  0.28021634730E+03  0.00000000000E+00 0.  1.
         -2   -1    0    0    0  501 -0.00000000000E+00 -0.00000000000E+00 -0.17642529036E+02  0.17642529036E+02  0.00000000000E+00 0. -1.
         21    1    1    2  502  503  0.15902368074E+02  0.17601204089E+02  0.27148492734E+03  0.27251927174E+03  0.00000000000E+00 0.  1.
         21    1    1    2  503  501 -0.15902368074E+02 -0.17601204089E+02 -0.89111090826E+01  0.25339604591E+02  0.00000000000E+00 0. -1.
</event>
<event>
 4    1  0.5568520E+002  0.2301914E+02  0.7546771E-02  0.1492258E+00
          2   -1    0    0  503    0  0.00000000000E+00  0.00000000000E+00  0.18512578553E+04  0.18512578553E+04  0.00000000000E+00 0.  1.
         -2   -1    0    0    0  501 -0.00000000000E+00 -0.00000000000E+00 -0.30595916124E+00  0.30595916124E+00  0.00000000000E+00 0. -1.
         21    1    1    2  502  501  0.21249286205E+02  0.88514687638E+01  0.69037183038E+03  0.69075548846E+03  0.00000000000E+00 0.  1.
         21    1    1    2  503  502 -0.21249286205E+02 -0.88514687638E+01  0.11605800658E+04  0.11608083260E+04  0.00000000000E+00 0. -1.
</event>
<event>
 4    1  0.5568520E+002  0.2217987E+02  0.7546771E-02  0.1503062E+00
          2   -1    0    0  502    0  0.00000000000E+00  0.00000000000E+00  0.14835591561E+03  0.14835591561E+03  0.00000000000E+00 0.  1.
         -2   -1    0    0    0  501 -0.00000000000E+00 -0.00000000000E+00 -0.98978641125E+01  0.98978641125E+01  0.00000000000E+00 0. -1.
         21    1    1    2  502  503  0.70466932813E+01  0.21030710225E+02  0.13375404674E+03  0.13558057264E+03  0.00000000000E+00 0.  1.
         21    1    1    2  503  501 -0.70466932813E+01 -0.21030710225E+02  0.47040047645E+01  0.22673207087E+02  0.00000000000E+00 0. -1.
</event>
<event>
 4    1  0.5568520E+002  0.3264315E+02  0.7546771E-02  0.1397935E+00
          2   -1    0    0  502    0  0.00000000000E+00  0.00000000000E+00  0.10498085277E+02  0.10498085277E+02  0.00000000000E+00 0.  1.
         -2   -1    0    0    0  501 -0.00000000000E+00 -0.00000000000E+00 -0.32816107388E+03  0.32816107388E+03  0.00000000000E+00 0. -1.
         21    1    1    2  502  503 -0.12178668575E+02  0.30286221472E+02 -0.18104961632E+02  0.37327802172E+02  0.00000000000E+00 0.  1.
         21    1    1    2  503  501  0.12178668575E+02 -0.30286221472E+02 -0.29955802697E+03  0.30133135698E+03  0.00000000000E+00 0. -1.
</event>
<event>
 4    1  0.5568520E+002  0.2323190E+02  0.7546771E-02  0.1489607E+00
          2   -1    0    0  502    0  0.00000000000E+00  0.00000000000E+00  0.17572654431E+02  0.17572654431E+02  0.00000000000E+00 0. -1.
         -2   -1    0    0    0  501 -0.00000000000E+00 -0.00000000000E+00 -0.46377503901E+02  0.46377503901E+02  0.00000000000E+00 0.  1.
         21    1    1    2  502  503 -0.72633871541E+01  0.22067265092E+02  0.41801874274E+01  0.23604977198E+02  0.00000000000E+00 0.  1.
         21    1    1    2  503  501  0.72633871541E+01 -0.22067265092E+02 -0.32985036897E+02  0.40345181134E+02  0.00000000000E+00 0. -1.
</event>
<event>
 4    1  0.5568520E+002  0.2749207E+02  0.7546771E-02  0.1442727E+00
          2   -1    0    0  502    0  0.00000000000E+00  0.00000000000E+00  0.15635013998E+04  0.15635013998E+04  0.00000000000E+00 0. -1.
         -2   -1    0    0    0  501 -0.00000000000E+00 -0.00000000000E+00 -0.58360906735E+00  0.58360906735E+00  0.00000000000E+00 0.  1.
         21    1    1    2  502  503 -0.17115604311E+02  0.21514418271E+02  0.11054988468E+04  0.11058406370E+04  0.00000000000E+00 0. -1.
         21    1    1    2  503  501  0.17115604311E+02 -0.21514418271E+02  0.45741894393E+03  0.45824437189E+03  0.00000000000E+00 0.  1.
</event>
<event>
 4    1  0.5568520E+002  0.2491301E+02  0.7546771E-02  0.1469779E+00
          2   -1    0    0  503    0  0.00000000000E+00  0.00000000000E+00  0.75414072011E+03  0.75414072011E+03  0.00000000000E+00 0.  1.
         -2   -1    0    0    0  501 -0.00000000000E+00 -0.00000000000E+00 -0.11427789230E+01  0.11427789230E+01  0.00000000000E+00 0. -1.
         21    1    1    2  502  501  0.58757502092E+01 -0.24210199402E+02  0.57626583965E+03  0.57680410552E+03  0.00000000000E+00 0.  1.
         21    1    1    2  503  502 -0.58757502092E+01  0.24210199402E+02  0.17673210154E+03  0.17847939351E+03  0.00000000000E+00 0. -1.
</event>
<event>
 4    1  0.5568520E+002  0.2380104E+02  0.7546771E-02  0.1482677E+00
          2   -1    0    0  503    0  0.00000000000E+00  0.00000000000E+00  0.10435310304E+04  0.10435310304E+04  0.00000000000E+00 0. -1.
         -2   -1    0    0    0  501 -0.00000000000E+00 -0.00000000000E+00 -0.69546589218E+00  0.69546589218E+00  0.00000000000E+00 0.  1.
         21    1    1    2  502  501 -0.94121223982E+01  0.21860955084E+02  0.27684114530E+03  0.27786239245E+03  0.00000000000E+00 0.  1.
         21    1    1    2  503  502  0.94121223982E+01 -0.21860955084E+02  0.76599441917E+03  0.76636410381E+03  0.00000000000E+00 0. -1.
</event>
<event>
 4    1  0.5568520E+002  0.2610882E+02  0.7546771E-02  0.1456772E+00
          2   -1    0    0  503    0  0.00000000000E+00  0.00000000000E+00  0.21865851801E+02  0.21865851801E+02  0.00000000000E+00 0. -1.
         -2   -1    0    0    0  501 -0.00000000000E+00 -0.00000000000E+00 -0.59575584449E+02  0.59575584449E+02  0.00000000000E+00 0.  1.
         21    1    1    2  502  501 -0.21919712297E+02  0.14184382196E+02 -0.46970250204E+02  0.53738951327E+02  0.00000000000E+00 0.  1.
         21    1    1    2  503  502  0.21919712297E+02 -0.14184382196E+02  0.92605175559E+01  0.27702484923E+02  0.00000000000E+00 0. -1.
</event>
<event>
 4    1  0.5568520E+002  0.2455400E+02  0.7546771E-02  0.1473855E+00
          2   -1    0    0  503    0  0.00000000000E+00  0.00000000000E+00  0.89221561047E+03  0.89221561047E+03  0.00000000000E+00 0.  1.
         -2   -1    0    0    0  501 -0.00000000000E+00 -0.00000000000E+00 -0.75081994183E+00  0.75081994183E+00  0.00000000000E+00 0. -1.
         21    1    1    2  502  501 -0.15165077621E+02 -0.19311124474E+02  0.30453690748E+03  0.30552516611E+03  0.00000000000E+00 0.  1.
         21    1    1    2  503  502  0.15165077621E+02  0.19311124474E+02  0.58692788305E+03  0.58744126431E+03  0.00000000000E+00 0. -1.
</event>
<event>
 4    1  0.5568520E+002  0.2813259E+02  0.7546771E-02  0.1436551E+00
          2   -1    0    0  503    0  0.00000000000E+00  0.00000000000E+00  0.18318252549E+01  0.18318252549E+01  0.00000000000E+00 0.  1.
         -2   -1    0    0    0  501 -0.00000000000E+00 -0.00000000000E+00 -0.43360761922E+03  0.43360761922E+03  0.00000000000E+00 0. -1.
         21    1    1    2  502  501 -0.39442202713E+01  0.27854722264E+02 -0.22893166261E+03  0.23065374173E+03  0.00000000000E+00 0.  1.
         21    1    1    2  503  502  0.39442202713E+01 -0.27854722264E+02 -0.20284413135E+03  0.20478570275E+03  0.00000000000E+00 0. -1.
</event>
<event>
 4    1  0.5568520E+002  0.4155539E+02  0.7546771E-02  0.1339605E+00
          2   -1    0    0  502    0  0.00000000000E+00  0.00000000000E+00  0.73577182819E+01  0.73577182819E+01  0.00000000000E+00 0.  1.
         -2   -1    0    0    0  501 -0.00000000000E+00 -0.00000000000E+00 -0.46704670850E+03  0.46704670850E+03  0.00000000000E+00 0. -1.
         21    1    1    2  502  503 -0.29110091829E+02 -0.29655578838E+02 -0.62540018037E+02  0.75087313566E+02  0.00000000000E+00 0.  1.
         21    1    1    2  503  501  0.29110091829E+02  0.29655578838E+02 -0.39714897218E+03  0.39931711321E+03  0.00000000000E+00 0. -1.
</event>
<event>
 4    1  0.5568520E+002  0.3646293E+02  0.7546771E-02  0.1370560E+00
          2   -1    0    0  502    0  0.00000000000E+00  0.00000000000E+00  0.12963826229E+03  0.12963826229E+03  0.00000000000E+00 0. -1.
         -2   -1    0    0    0  501 -0.00000000000E+00 -0.00000000000E+00 -0.20027174080E+02  0.20027174080E+02  0.00000000000E+00 0.  1.
         21    1    1    2  502  503 -0.33223494890E+02 -0.15024793169E+02  0.10707636785E+03  0.11311451532E+03  0.00000000000E+00 0. -1.
         21    1    1    2  503  501  0.33223494890E+02  0.15024793169E+02  0.25347203547E+01  0.36550921052E+02  0.00000000000E+00 0.  1.
</event>
<event>
 4    1  0.5568520E+002  0.2216684E+02  0.7546771E-02  0.1503234E+00
          2   -1    0    0  503    0  0.00000000000E+00  0.00000000000E+00  0.10511495805E+03  0.10511495805E+03  0.00000000000E+00 0. -1.
         -2   -1    0    0    0  501 -0.00000000000E+00 -0.00000000000E+00 -0.13205571794E+02  0.13205571794E+02  0.00000000000E+00 0.  1.
         21    1    1    2  502  501 -0.13797421617E+02  0.17349352246E+02 -0.15953729709E+01  0.22224177860E+02  0.00000000000E+00 0.  1.
         21    1    1    2  503  502  0.13797421617E+02 -0.17349352246E+02  0.93504759229E+02  0.96096351986E+02  0.00000000000E+00 0. -1.
</event>
<event>
 4    1  0.5568520E+002  0.3974424E+02  0.7546771E-02  0.1349991E+00
          2   -1    0    0  502    0  0.00000000000E+00  0.00000000000E+00  0.76079391657E+03  0.76079391657E+03  0.00000000000E+00 0.  1.
         -2   -1    0    0    0  501 -0.00000000000E+00 -0.00000000000E+00 -0.29652646488E+01  0.29652646488E+01  0.00000000000E+00 0. -1.
         21    1    1    2  502  503  0.32874088974E+02 -0.22336041818E+02  0.58801104185E+03  0.58935268713E+03  0.00000000000E+00 0.  1.
         21    1    1    2  503  501 -0.32874088974E+02  0.22336041818E+02  0.16981761007E+03  0.17440649409E+03  0.00000000000E+00 0. -1.
</event>
<event>
 4    1  0.5568520E+002  0.2259373E+02  0.7546771E-02  0.1497664E+00
          2   -1    0    0  503    0  0.00000000000E+00  0.00000000000E+00  0.17052748380E+03  0.17052748380E+03  0.00000000000E+00 0.  1.
         -2   -1    0    0    0  501 -0.00000000000E+00 -0.00000000000E+00 -0.57755162048E+01  0.57755162048E+01  0.00000000000E+00 0. -1.
         21    1    1    2  502  501 -0.18004984492E+02  0.13649065739E+02  0.21195484847E+02  0.30979429304E+02  0.00000000000E+00 0. -1.
         21    1    1    2  503  502  0.18004984492E+02 -0.13649065739E+02  0.14355648275E+03  0.14532357070E+03  0.00000000000E+00 0.  1.
</event>
<event>
 4    1  0.5568520E+002  0.2119501E+02  0.7546771E-02  0.1516499E+00
          2   -1    0    0  503    0  0.00000000000E+00  0.00000000000E+00  0.16429273704E+04  0.16429273704E+04  0.00000000000E+00 0.  1.
         -2   -1    0    0    0  501 -0.00000000000E+00 -0.00000000000E+00 -0.51083397462E+00  0.51083397462E+00  0.00000000000E+00 0. -1.
         21    1    1    2  502  501 -0.15064176964E+02  0.14909702054E+02  0.26103057345E+03  0.26188965027E+03  0.00000000000E+00 0. -1.
         21    1    1    2  503  502  0.15064176964E+02 -0.14909702054E+02  0.13813859630E+04  0.13815485541E+04  0.00000000000E+00 0.  1.
</event>
<event>
 4    1  0.5568520E+002  0.2288287E+02  0.7546771E-02  0.1493974E+00
          2   -1    0    0  502    0  0.00000000000E+00  0.00000000000E+00  0.62168055929E+03  0.62168055929E+03  0.00000000000E+00 0. -1.
         -2   -1    0    0    0  501 -0.00000000000E+00 -0.00000000000E+00 -0.84984981416E+00  0.84984981416E+00  0.00000000000E+00 0.  1.
         21    1    1    2  502  503 -0.82489795329E+01 -0.21344318754E+02  0.28102780998E+03  0.28195789684E+03  0.00000000000E+00 0.  1.
         21    1    1    2  503  501  0.82489795329E+01  0.21344318754E+02  0.33980289950E+03  0.34057251227E+03  0.00000000000E+00 0. -1.
</event>
<event>
 4    1  0.5568520E+002  0.5279227E+02  0.7546771E-02  0.1286500E+00
          2   -1    0    0  502    0  0.00000000000E+00  0.00000000000E+00  0.75829689713E+03  0.75829689713E+03  0.00000000000E+00 0. -1.
         -2   -1    0    0    0  501 -0.00000000000E+00 -0.00000000000E+00 -0.52024830855E+01  0.52024830855E+01  0.00000000000E+00 0.  1.
         21    1    1    2  502  503 -0.52768413600E+02 -0.15869771116E+01  0.16971959293E+03  0.17774072183E+03  0.00000000000E+00 0.  1.
         21    1    1    2  503  501  0.52768413600E+02  0.15869771116E+01  0.58337482111E+03  0.58575865839E+03  0.00000000000E+00 0. -1.
</event>
<event>
 4    1  0.5568520E+002  0.2612087E+02  0.7546771E-02  0.1456645E+00
          2   -1    0    0  503    0  0.00000000000E+00  0.00000000000E+00  0.18569260465E+02  0.18569260465E+02  0.00000000000E+00 0.  1.
         -2   -1    0    0    0  501 -0.00000000000E+00 -0.00000000000E+00 -0.65544479123E+02  0.65544479123E+02  0.00000000000E+00 0. -1.
         21    1    1    2  502  501 -0.22537957422E+02 -0.13203806861E+02 -0.51366298123E+02  0.57626353548E+02  0.00000000000E+00 0. -1.
         21    1    1    2  503  502  0.22537957422E+02  0.13203806861E+02  0.43910794651E+01  0.26487386040E+02  0.00000000000E+00 0.  1.
</event>
<event>
 4    1  0.5568520E+002  0.2290997E+02  0.7546771E-02  0.1493632E+00
          2   -1    0    0  503    0  0.00000000000E+00  0.00000000000E+00  0.10171507514E+04  0.10171507514E+04  0.00000000000E+00 0. -1.
         -2   -1    0    0    0  501 -0.00000000000E+00 -0.00000000000E+00 -0.22474566508E+01  0.22474566508E+01  0.00000000000E+00 0.  1.
         21    1    1    2  502  501  0.60748339479E+01 -0.22089889601E+02  0.60076434103E+02  0.64296537734E+02  0.00000000000E+00 0.  1.
         21    1    1    2  503  502 -0.60748339479E+01  0.22089889601E+02  0.95482686062E+03  0.95510167029E+03  0.00000000000E+00 0. -1.
</event>
<event>
 4    1  0.5568520E+002  0.8479333E+02  0.7546771E-02  0.1193136E+00
          2   -1    0    0  503    0  0.00000000000E+00  0.00000000000E+00  0.87898099033E+03  0.87898099033E+03  0.00000000000E+00 0.  1.
         -2   -1    0    0    0  501 -0.00000000000E+00 -0.00000000000E+00 -0.11632038786E+02  0.11632038786E+02  0.00000000000E+00 0. -1.
         21    1    1    2  502  501  0.57881400848E+02  0.61964932963E+02  0.19108047610E+03  0.20904941480E+03  0.00000000000E+00 0. -1.
         21    1    1    2  503  502 -0.57881400848E+02 -0.61964932963E+02  0.67626847544E+03  0.68156361431E+03  0.00000000000E+00 0.  1.
</event>
<event>
 4    1  0.5568520E+002  0.2761019E+02  0.7546771E-02  0.1441573E+00
          2   -1    0    0  502    0  0.00000000000E+00  0.00000000000E+00  0.17828509308E+04  0.17828509308E+04  0.00000000000E+00 0. -1.
         -2   -1    0    0    0  501 -0.00000000000E+00 -0.00000000000E+00 -0.45037665365E+00  0.45037665365E+00  0.00000000000E+00 0.  1.
         21    1    1    2  502  503 -0.16108708301E+02 -0.22423920784E+02  0.10917776491E+04  0.10921267132E+04  0.00000000000E+00 0.  1.
         21    1    1    2  503  501  0.16108708301E+02  0.22423920784E+02  0.69062290504E+03  0.69117459421E+03  0.00000000000E+00 0. -1.
</event>
<event>
 4    1  0.5568520E+002  0.6412344E+02  0.7546771E-02  0.1246431E+00
          2   -1    0    0  503    0  0.00000000000E+00  0.00000000000E+00  0.15756208493E+04  0.15756208493E+04  0.00000000000E+00 0.  1.
         -2   -1    0    0    0  501 -0.00000000000E+00 -0.00000000000E+00 -0.47986015860E+01  0.47986015860E+01  0.00000000000E+00 0. -1.
         21    1    1    2  502  501 -0.21409282125E+02  0.60443846520E+02  0.25170364186E+03  0.25974321795E+03  0.00000000000E+00 0. -1.
         21    1    1    2  503  502  0.21409282125E+02 -0.60443846520E+02  0.13191186058E+04  0.13206762329E+04  0.00000000000E+00 0.  1.
</event>
<event>
 4    1  0.5568520E+002  0.2007414E+02  0.7546771E-02  0.1532905E+00
          2   -1    0    0  502    0  0.00000000000E+00  0.00000000000E+00  0.16513802117E+04  0.16513802117E+04  0.00000000000E+00 0.  1.
         -2   -1    0    0    0  501 -0.00000000000E+00 -0.00000000000E+00 -0.58915569136E+00  0.58915569136E+00  0.00000000000E+00 0. -1.
         21    1    1    2  502  503  0.15296769197E+02 -0.12999226239E+02  0.14575910610E+04  0.14577292864E+04  0.00000000000E+00 0.  1.
         21    1    1    2  503  501 -0.15296769197E+02  0.12999226239E+02  0.19319999491E+03  0.19424008099E+03  0.00000000000E+00 0. -1.
</event>
<event>
 4    1  0.5568520E+002  0.2295938E+02  0.7546771E-02  0.1493009E+00
          2   -1    0    0  502    0  0.00000000000E+00  0.00000000000E+00  0.13289615437E+02  0.13289615437E+02  0.00000000000E+00 0.  1.
         -2   -1    0    0    0  501 -0.00000000000E+00 -0.00000000000E+00 -0.40430944751E+02  0.40430944751E+02  0.00000000000E+00 0. -1.
         21    1    1    2  502  503 -0.54989363661E+01  0.22291139622E+02 -0.17267578169E+02  0.28728077949E+02  0.00000000000E+00 0. -1.
         21    1    1    2  503  501  0.54989363661E+01 -0.22291139622E+02 -0.98737511443E+01  0.24992482239E+02  0.00000000000E+00 0.  1.
</event>
<event>
 4    1  0.5568520E+002  0.2504445E+02  0.7546771E-02  0.1468307E+00
          2   -1    0    0  503    0  0.00000000000E+00  0.00000000000E+00  0.10489422849E+04  0.10489422849E+04  0.00000000000E+00 0.  1.
         -2   -1    0    0    0  501 -0.00000000000E+00 -0.00000000000E+00 -0.76885374624E+00  0.76885374624E+00  0.00000000000E+00 0. -1.
         21    1    1    2  502  501 -0.17871981543E+02  0.17544709108E+02  0.77153373266E+03  0.77194010465E+03  0.00000000000E+00 0.  1.
         21    1    1    2  503  502  0.17871981543E+02 -0.17544709108E+02  0.27663969846E+03  0.27777103396E+03  0.00000000000E+00 0. -1.
</event>
<event>
 4    1  0.5568520E+002  0.2924956E+02  0.7546771E-02  0.1426232E+00
          2   -1    0    0  502    0  0.00000000000E+00  0.00000000000E+00  0.43373002587E+02  0.43373002587E+02  0.00000000000E+00 0. -1.
         -2   -1    0    0    0  501 -0.00000000000E+00 -0.00000000000E+00 -0.22193073435E+02  0.22193073435E+02  0.00000000000E+00 0.  1.
         21    1    1    2  502  503  0.66443228098E+00  0.29242016431E+02  0.21522234435E+02  0.36314509088E+02  0.00000000000E+00 0. -1.
         21    1    1    2  503  501 -0.66443228098E+00 -0.29242016431E+02 -0.34230528313E+00  0.29251566934E+02  0.00000000000E+00 0.  1.
</event>
<event>
 4    1  0.5568520E+002  0.2158935E+02  0.7546771E-02  0.1511014E+00
          2   -1    0    0  503    0  0.00000000000E+00  0.00000000000E+00  0.97766756107E+02  0.97766756107E+02  0.00000000000E+00 0. -1.
         -2   -1    0    0    0  501 -0.00000000000E+00 -0.00000000000E+00 -0.14472878393E+02  0.14472878393E+02  0.00000000000E+00 0.  1.
         21    1    1    2  502  501 -0.20764358737E+02  0.59111193774E+01  0.87603310564E+02  0.90224386658E+02  0.00000000000E+00 0. -1.
         21    1    1    2  503  502  0.20764358737E+02 -0.59111193774E+01 -0.43094328492E+01  0.22015247842E+02  0.00000000000E+00 0.  1.
</event>
<event>
 4    1  0.5568520E+002  0.2103881E+02  0.7546771E-02  0.1518711E+00
          2   -1    0    0  502    0  0.00000000000E+00  0.00000000000E+00  0.43073416306E+01  0.43073416306E+01  0.00000000000E+00 0. -1.
         -2   -1    0    0    0  501 -0.00000000000E+00 -0.00000000000E+00 -0.10573271548E+03  0.10573271548E+03  0.00000000000E+00 0.  1.
         21    1    1    2  502  503 -0.17100976065E+02 -0.12255135565E+02 -0.59934895662E+02  0.63520260139E+02  0.00000000000E+00 0.  1.
         21    1    1    2  503  501  0.17100976065E+02  0.12255135565E+02 -0.41490478189E+02  0.46519796973E+02  0.00000000000E+00 0. -1.
</event>
<event>
 4    1  0.5568520E+002  0.2938746E+02  0.7546771E-02  0.1424995E+00
          2   -1    0    0  502    0  0.00000000000E+00  0.00000000000E+00  0.89344983745E+02  0.89344983745E+02  0.00000000000E+00 0. -1.
         -2   -1    0    0    0  501 -0.00000000000E+00 -0.00000000000E+00 -0.96689022350E+01  0.96689022350E+01  0.00000000000E+00 0.  1.
         21    1    1    2  502  503 -0.29386492719E+02 -0.23806345455E+00  0.40672254736E+02  0.50178231673E+02  0.00000000000E+00 0. -1.
         21    1    1    2  503  501  0.29386492719E+02  0.23806345455E+00  0.39003826774E+02  0.48835654307E+02  0.00000000000E+00 0.  1.
</event>
<event>
 4    1  0.5568520E+002  0.3164151E+02  0.7546771E-02  0.1405849E+00
          2   -1    0    0  503    0  0.00000000000E+00  0.00000000000E+00  0.47775086992E+01  0.47775086992E+01  0.00000000000E+00 0. -1.
         -2   -1    0    0    0  501 -0.00000000000E+00 -0.00000000000E+00 -0.30375374461E+03  0.30375374461E+03  0.00000000000E+00 0.  1.
         21    1    1    2  502  501 -0.27722486868E+02 -0.15252829072E+02 -0.23539231531E+03  0.23750942546E+03  0.00000000000E+00 0.  1.
         21    1    1    2  503  502  0.27722486868E+02  0.15252829072E+02 -0.63583920602E+02  0.71021827855E+02  0.00000000000E+00 0. -1.
</event>
<event>
 4    1  0.5568520E+002  0.3795114E+02  0.7546771E-02  0.1360929E+00
          2   -1    0    0  502    0  0.00000000000E+00  0.00000000000E+00  0.30668359532E+04  0.30668359532E+04  0.00000000000E+00 0. -1.
         -2   -1    0    0    0  501 -0.00000000000E+00 -0.00000000000E+00 -0.10717477774E+01  0.10717477774E+01  0.00000000000E+00 0.  1.
         21    1    1    2  502  503 -0.22017764094E+02  0.30911280783E+02  0.26826374129E+04  0.26829058460E+04  0.00000000000E+00 0. -1.
         21    1    1    2  503  501  0.22017764094E+02 -0.30911280783E+02  0.38312679251E+03  0.38500185500E+03  0.00000000000E+00 0.  1.
</event>
<event>
 4    1  0.5568520E+002  0.4252115E+02  0.7546771E-02  0.1334313E+00
          2   -1    0    0  502    0  0.00000000000E+00  0.00000000000E+00  0.80895720818E+01  0.80895720818E+01  0.00000000000E+00 0. -1.
         -2   -1    0    0    0  501 -0.00000000000E+00 -0.00000000000E+00 -0.37331861590E+03  0.37331861590E+03  0.00000000000E+00 0.  1.
         21    1    1    2  502  503 -0.42497586220E+02  0.14152912653E+01 -0.61805888212E+02  0.75020101983E+02  0.00000000000E+00 0. -1.
         21    1    1    2  503  501  0.42497586220E+02 -0.14152912653E+01 -0.30342315561E+03  0.30638808600E+03  0.00000000000E+00 0.  1.
</event>
<event>
 4    1  0.5568520E+002  0.3826390E+02  0.7546771E-02  0.1358971E+00
          2   -1    0    0  503    0  0.00000000000E+00  0.00000000000E+00  0.13085348824E+03  0.13085348824E+03  0.00000000000E+00 0.  1.
         -2   -1    0    0    0  501 -0.00000000000E+00 -0.00000000000E+00 -0.25007599604E+02  0.25007599604E+02  0.00000000000E+00 0. -1.
         21    1    1    2  502  501 -0.14745389390E+02  0.35308633473E+02 -0.50069783494E+01  0.38590101557E+02  0.00000000000E+00 0. -1.
         21    1    1    2  503  502  0.14745389390E+02 -0.35308633473E+02  0.11085286698E+03  0.11727098628E+03  0.00000000000E+00 0.  1.
</event>
<event>
 4    1  0.5568520E+002  0.2033797E+02  0.7546771E-02  0.1528930E+00
          2   -1    0    0  502    0  0.00000000000E+00  0.00000000000E+00  0.91620901032E+03  0.91620901032E+03  0.00000000000E+00 0.  1.
         -2   -1    0    0    0  501 -0.00000000000E+00 -0.00000000000E+00 -0.49215907334E+01  0.49215907334E+01  0.00000000000E+00 0. -1.
         21    1    1    2  502  503  0.10790662396E+02  0.17239338029E+02  0.89457698137E+03  0.89480814076E+03  0.00000000000E+00 0.  1.
         21    1    1    2  503  501 -0.10790662396E+02 -0.17239338029E+02  0.16710438218E+02  0.26322460296E+02  0.00000000000E+00 0. -1.
</event>
<event>
 4    1  0.5568520E+002  0.2471324E+02  0.7546771E-02  0.1472037E+00
          2   -1    0    0  503    0  0.00000000000E+00  0.00000000000E+00  0.11080270002E+04  0.11080270002E+04  0.00000000000E+00 0.  1.
         -2   -1    0    0    0  501 -0.00000000000E+00 -0.00000000000E+00 -0.14271072074E+01  0.14271072074E+01  0.00000000000E+00 0. -1.
         21    1    1    2  502  501 -0.24557524539E+02 -0.27699003648E+01  0.11870955070E+03  0.12125469800E+03  0.00000000000E+00 0. -1.
         21    1    1    2  503  502  0.24557524539E+02  0.27699003648E+01  0.98789034228E+03  0.98819940939E+03  0.00000000000E+00 0.  1.
</event>
<event>
 4    1  0.5568520E+002  0.2539951E+02  0.7546771E-02  0.1464383E+00
          2   -1    0    0  503    0  0.00000000000E+00  0.00000000000E+00  0.14225741011E+03  0.14225741011E+03  0.00000000000E+00 0.  1.
         -2   -1    0    0    0  501 -0.00000000000E+00 -0.00000000000E+00 -0.74565768650E+01  0.74565768650E+01  0.00000000000E+00 0. -1.
         21    1    1    2  502  501  0.20332980053E+02  0.15221861017E+02  0.20543635460E+02  0.32667661204E+02  0.00000000000E+00 0. -1.
         21    1    1    2  503  502 -0.20332980053E+02 -0.15221861017E+02  0.11425719778E+03  0.11704632577E+03  0.00000000000E+00 0.  1.
</event>
<event>
 4    1  0.5568520E+002  0.2514577E+02  0.7546771E-02  0.1467179E+00
          2   -1    0    0  502    0  0.00000000000E+00  0.00000000000E+00  0.37596799527E+02  0.37596799527E+02  0.00000000000E+00 0. -1.
         -2   -1    0    0    0  501 -0.00000000000E+00 -0.00000000000E+00 -0.23013684692E+02  0.23013684692E+02  0.00000000000E+00 0.  1.
         21    1    1    2  502  503  0.23120685590E+02  0.98865505536E+01  0.23015548834E+02  0.34088494718E+02  0.00000000000E+00 0. -1.
         21    1    1    2  503  501 -0.23120685590E+02 -0.98865505536E+01 -0.84324339991E+01  0.26521989502E+02  0.00000000000E+00 0.  1.
</event>
<event>
 4    1  0.5568520E+002  0.2095262E+02  0.7546771E-02  0.1519942E+00
          2   -1    0    0  502    0  0.00000000000E+00  0.00000000000E+00  0.36321070660E+03  0.36321070660E+03  0.00000000000E+00 0.  1.
         -2   -1    0    0    0  501 -0.00000000000E+00 -0.00000000000E+00 -0.16520173789E+02  0.16520173789E+02  0.00000000000E+00 0. -1.
         21    1    1    2  502  503 -0.20748583876E+02 -0.29169546690E+01  0.35613303401E+03  0.35674886162E+03  0.00000000000E+00 0.  1.
         21    1    1    2  503  501  0.20748583876E+02  0.29169546690E+01 -0.94425012022E+01  0.22982018762E+02  0.00000000000E+00 0. -1.
</event>
<event>
 4    1  0.5568520E+002  0.2013512E+02  0.7546771E-02  0.1531980E+00
          2   -1    0    0  502    0  0.00000000000E+00  0.00000000000E+00  0.90995576379E+01  0.90995576379E+01  0.00000000000E+00 0. -1.
         -2   -1    0    0    0  501 -0.00000000000E+00 -0.00000000000E+00 -0.47180135277E+02  0.47180135277E+02  0.00000000000E+00 0.  1.
         21    1    1    2  502  503 -0.11472798618E+02  0.16546838794E+02 -0.25679079047E+02  0.32631856872E+02  0.00000000000E+00 0.  1.
         21    1    1    2  503  501  0.11472798618E+02 -0.16546838794E+02 -0.12401498592E+02  0.23647836043E+02  0.00000000000E+00 0. -1.
</event>
<event>
 4    1  0.5568520E+002  0.2671793E+02  0.7546771E-02  0.1450462E+00
          2   -1    0    0  503    0  0.00000000000E+00  0.00000000000E+00  0.41120919054E+03  0.41120919054E+03  0.00000000000E+00 0.  1.
         -2   -1    0    0    0  501 -0.00000000000E+00 -0.00000000000E+00 -0.19722240323E+01  0.19722240323E+01  0.00000000000E+00 0. -1.
         21    1    1    2  502  501  0.26151638013E+02 -0.54716969307E+01  0.27612085410E+03  0.27741047872E+03  0.00000000000E+00 0.  1.
         21    1    1    2  503  502 -0.26151638013E+02  0.54716969307E+01  0.13311611241E+03  0.13577093585E+03  0.00000000000E+00 0. -1.
</event>
<event>
 4    1  0.5568520E+002  0.4887214E+02  0.7546771E-02  0.1303138E+00
          2   -1    0    0  502    0  0.00000000000E+00  0.00000000000E+00  0.75989310139E+03  0.75989310139E+03  0.00000000000E+00 0.  1.
         -2   -1    0    0    0  501 -0.00000000000E+00 -0.00000000000E+00 -0.43465324837E+01  0.43465324837E+01  0.00000000000E+00 0. -1.
         21    1    1    2  502  503  0.42009640835E+02  0.24973509852E+02  0.57883216605E+03  0.58089169608E+03  0.00000000000E+00 0.  1.
         21    1    1    2  503  501 -0.42009640835E+02 -0.24973509852E+02  0.17671440286E+03  0.18334793780E+03  0.00000000000E+00 0. -1.
</event>
<event>
 4    1  0.5568520E+002  0.2045674E+02  0.7546771E-02  0.1527164E+00
          2   -1    0    0  503    0  0.00000000000E+00  0.00000000000E+00  0.15302970205E+04  0.15302970205E+04  0.00000000000E+00 0. -1.
         -2   -1    0    0    0  501 -0.00000000000E+00 -0.00000000000E+00 -0.49119196228E+00  0.49119196228E+00  0.00000000000E+00 0.  1.
         21    1    1    2  502  501  0.19845915776E+02 -0.49616297403E+01  0.25531567020E+03  0.25613388997E+03  0.00000000000E+00 0.  1.
         21    1    1    2  503  502 -0.19845915776E+02  0.49616297403E+01  0.12744901583E+04  0.12746543225E+04  0.00000000000E+00 0. -1.
</event>
<event>
 4    1  0.5568520E+002  0.2054674E+02  0.7546771E-02  0.1525836E+00
          2   -1    0    0  502    0  0.00000000000E+00  0.00000000000E+00  0.15478872464E+02  0.15478872464E+02  0.00000000000E+00 0. -1.
         -2   -1    0    0    0  501 -0.00000000000E+00 -0.00000000000E+00 -0.91369351267E+02  0.91369351267E+02  0.00000000000E+00 0.  1.
         21    1    1    2  502  503  0.80319156589E+01  0.18911820667E+02  0.68004057511E+01  0.21642877546E+02  0.00000000000E+00 0.  1.
         21    1    1    2  503  501 -0.80319156589E+01 -0.18911820667E+02 -0.82690884554E+02  0.85205346185E+02  0.00000000000E+00 0. -1.
</event>
<event>
 4    1  0.5568520E+002  0.3329217E+02  0.7546771E-02  0.1392984E+00
          2   -1    0    0  503    0  0.00000000000E+00  0.00000000000E+00  0.13771010069E+03  0.13771010069E+03  0.00000000000E+00 0. -1.
         -2   -1    0    0    0  501 -0.00000000000E+00 -0.00000000000E+00 -0.16419785496E+02  0.16419785496E+02  0.00000000000E+00 0.  1.
         21    1    1    2  502  501 -0.12599325308E+02 -0.30815995666E+02  0.56192095672E+01  0.33763058263E+02  0.00000000000E+00 0.  1.
         21    1    1    2  503  502  0.12599325308E+02  0.30815995666E+02  0.11567110562E+03  0.12036682792E+03  0.00000000000E+00 0. -1.
</event>
<event>
 4    1  0.5568520E+002  0.2629172E+02  0.7546771E-02  0.1454856E+00
          2   -1    0    0  503    0  0.00000000000E+00  0.00000000000E+00  0.18020831806E+02  0.18020831806E+02  0.00000000000E+00 0.  1.
         -2   -1    0    0    0  501 -0.00000000000E+00 -0.00000000000E+00 -0.55461096486E+02  0.55461096486E+02  0.00000000000E+00 0. -1.
         21    1    1    2  502  501  0.25615939586E+02 -0.59226914261E+01 -0.39122733767E+02  0.47136428927E+02  0.00000000000E+00 0. -1.
         21    1    1    2  503  502 -0.25615939586E+02  0.59226914261E+01  0.16824690870E+01  0.26345499366E+02  0.00000000000E+00 0.  1.
</event>
<event>
 4    1  0.5568520E+002  0.2118684E+02  0.7546771E-02  0.1516614E+00
          2   -1    0    0  503    0  0.00000000000E+00  0.00000000000E+00  0.80612211931E+03  0.80612211931E+03  0.00000000000E+00 0.  1.
         -2   -1    0    0    0  501 -0.00000000000E+00 -0.00000000000E+00 -0.76738883144E+00  0.76738883144E+00  0.00000000000E+00 0. -1.
         21    1    1    2  502  501 -0.20823288056E+02  0.39080698369E+01  0.19135225834E+03  0.19252160686E+03  0.00000000000E+00 0. -1.
         21    1    1    2  503  502  0.20823288056E+02 -0.39080698369E+01  0.61400247214E+03  0.61436790128E+03  0.00000000000E+00 0.  1.
</event>
<event>
 4    1  0.5568520E+002  0.2169477E+02  0.7546771E-02  0.1509572E+00
          2   -1    0    0  502    0  0.00000000000E+00  0.00000000000E+00  0.15842127795E+01  0.15842127795E+01  0.00000000000E+00 0.  1.
         -2   -1    0    0    0  501 -0.00000000000E+00 -0.00000000000E+00 -0.29740887645E+03  0.29740887645E+03  0.00000000000E+00 0. -1.
         21    1    1    2  502  503 -0.21229300213E+02  0.44698923137E+01 -0.15276196148E+03  0.15429478280E+03  0.00000000000E+00 0.  1.
         21    1    1    2  503  501  0.21229300213E+02 -0.44698923137E+01 -0.14306270219E+03  0.14469830643E+03  0.00000000000E+00 0. -1.
</event>
<event>
 4    1  0.5568520E+002  0.2993605E+02  0.7546771E-02  0.1420153E+00
          2   -1    0    0  503    0  0.00000000000E+00  0.00000000000E+00  0.13625213868E+04  0.13625213868E+04  0.00000000000E+00 0.  1.
         -2   -1    0    0    0  501 -0.00000000000E+00 -0.00000000000E+00 -0.19235052426E+01  0.19235052426E+01  0.00000000000E+00 0. -1.
         21    1    1    2  502  501  0.10500562281E+02 -0.28034003054E+02  0.12687476589E+03  0.13035863361E+03  0.00000000000E+00 0. -1.
         21    1    1    2  503  502 -0.10500562281E+02  0.28034003054E+02  0.12337231156E+04  0.12340862584E+04  0.00000000000E+00 0.  1.
</event>
<event>
 4    1  0.5568520E+002  0.2402640E+02  0.7546771E-02  0.1479997E+00
          2   -1    0    0  502    0  0.00000000000E+00  0.00000000000E+00  0.62634832214E+01  0.62634832214E+01  0.00000000000E+00 0. -1.
         -2   -1    0    0    0  501 -0.00000000000E+00 -0.00000000000E+00 -0.98479333096E+02  0.98479333096E+02  0.00000000000E+00 0.  1.
         21    1    1    2  502  503 -0.23337640366E+02 -0.57116044036E+01 -0.32845630909E+02  0.40695249754E+02  0.00000000000E+00 0.  1.
         21    1    1    2  503  501  0.23337640366E+02  0.57116044036E+01 -0.59370218965E+02  0.64047566563E+02  0.00000000000E+00 0. -1.
</event>
<event>
 4    1  0.5568520E+002  0.2326370E+02  0.7546771E-02  0.1489213E+00
          2   -1    0    0  502    0  0.00000000000E+00  0.00000000000E+00  0.12120980397E+02  0.12120980397E+02  0.00000000000E+00 0.  1.
         -2   -1    0    0    0  501 -0.00000000000E+00 -0.00000000000E+00 -0.45836707427E+02  0.45836707427E+02  0.00000000000E+00 0. -1.
         21    1    1    2  502  503 -0.21473156866E+02 -0.89500477133E+01 -0.12194753216E+02  0.26266172654E+02  0.00000000000E+00 0.  1.
         21    1    1    2  503  501  0.21473156866E+02  0.89500477133E+01 -0.21520973814E+02  0.31691515170E+02  0.00000000000E+00 0. -1.
</event>
<event>
 4    1  0.5568520E+002  0.4948402E+02  0.7546771E-02  0.1300425E+00
          2   -1    0    0  502    0  0.00000000000E+00  0.00000000000E+00  0.32933701845E+03  0.32933701845E+03  0.00000000000E+00 0.  1.
         -2   -1    0    0    0  501 -0.00000000000E+00 -0.00000000000E+00 -0.18056060807E+02  0.18056060807E+02  0.00000000000E+00 0. -1.
         21    1    1    2  502  503  0.39308964677E+02  0.30057832399E+02  0.28885779375E+03  0.29306568036E+03  0.00000000000E+00 0.  1.
         21    1    1    2  503  501 -0.39308964677E+02 -0.30057832399E+02  0.22423163893E+02  0.54327398902E+02  0.00000000000E+00 0. -1.
</event>
<event>
 4    1  0.5568520E+002  0.2278651E+02  0.7546771E-02  0.1495197E+00
          2   -1    0    0  503    0  0.00000000000E+00  0.00000000000E+00  0.69290818079E+03  0.69290818079E+03  0.00000000000E+00 0. -1.
         -2   -1    0    0    0  501 -0.00000000000E+00 -0.00000000000E+00 -0.11327624041E+01  0.11327624041E+01  0.00000000000E+00 0.  1.
         21    1    1    2  502  501  0.13803175635E+02  0.18130012121E+02  0.14399368706E+03  0.14578548251E+03  0.00000000000E+00 0.  1.
         21    1    1    2  503  502 -0.13803175635E+02 -0.18130012121E+02  0.54778173132E+03  0.54825546068E+03  0.00000000000E+00 0. -1.
</event>
<event>
 4    1  0.5568520E+002  0.2359969E+02  0.7546771E-02  0.1485102E+00
          2   -1    0    0  502    0  0.00000000000E+00  0.00000000000E+00  0.52435101623E+02  0.52435101623E+02  0.00000000000E+00 0.  1.
         -2   -1    0    0    0  501 -0.00000000000E+00 -0.00000000000E+00 -0.12654126490E+02  0.12654126490E+02  0.00000000000E+00 0. -1.
         21    1    1    2  502  503 -0.22244955397E+02 -0.78808180012E+01  0.32933557034E+02  0.40516225292E+02  0.00000000000E+00 0.  1.
         21    1    1    2  503  501  0.22244955397E+02  0.78808180012E+01  0.68474180991E+01  0.24573002821E+02  0.00000000000E+00 0. -1.
</event>
<event>
 4    1  0.5568520E+002  0.2024831E+02  0.7546771E-02  0.1530273E+00
          2   -1    0    0  502    0  0.00000000000E+00  0.00000000000E+00  0.98499139869E+03  0.98499139869E+03  0.00000000000E+00 0.  1.
         -2   -1    0    0    0  501 -0.00000000000E+00 -0.00000000000E+00 -0.44828119058E+00  0.44828119058E+00  0.00000000000E+00 0. -1.
         21    1    1    2  502  503  0.10865110547E+02 -0.17086346497E+02  0.62399768811E+03  0.62432612362E+03  0.00000000000E+00 0.  1.
         21    1    1    2  503  501 -0.10865110547E+02  0.17086346497E+02  0.36054542939E+03  0.36111355626E+03  0.00000000000E+00 0. -1.
</event>
<event>
 4    1  0.5568520E+002  0.4156615E+02  0.7546771E-02  0.1339545E+00
          2   -1    0    0  502    0  0.00000000000E+00  0.00000000000E+00  0.14542315022E+03  0.14542315022E+03  0.00000000000E+00 0. -1.
         -2   -1    0    0    0  501 -0.00000000000E+00 -0.00000000000E+00 -0.12944041859E+02  0.12944041859E+02  0.00000000000E+00 0.  1.
         21    1    1    2  502  503  0.41563973174E+02  0.42543408597E+00  0.88933718614E+02  0.98167974241E+02  0.00000000000E+00 0. -1.
         21    1    1    2  503  501 -0.41563973174E+02 -0.42543408597E+00  0.43545389752E+02  0.60199217842E+02  0.00000000000E+00 0.  1.
</event>
<event>
 4    1  0.5568520E+002  0.2293523E+02  0.7546771E-02  0.1493313E+00
          2   -1    0    0  503    0  0.00000000000E+00  0.00000000000E+00  0.48348175911E+03  0.48348175911E+03  0.00000000000E+00 0. -1.
         -2   -1    0    0    0  501 -0.00000000000E+00 -0.00000000000E+00 -0.18905848237E+01  0.18905848237E+01  0.00000000000E+00 0.  1.
         21    1    1    2  502  501  0.21517593796E+02  0.79383735889E+01  0.82672822868E+02  0.85795222821E+02  0.00000000000E+00 0.  1.
         21    1    1    2  503  502 -0.21517593796E+02 -0.79383735889E+01  0.39891835142E+03  0.39957712112E+03  0.00000000000E+00 0. -1.
</event>
<event>
 4    1  0.5568520E+002  0.4352974E+02  0.7546771E-02  0.1328957E+00
          2   -1    0    0  502    0  0.00000000000E+00  0.00000000000E+00  0.11659441623E+03  0.11659441623E+03  0.00000000000E+00 0.  1.
         -2   -1    0    0    0  501 -0.00000000000E+00 -0.00000000000E+00 -0.19223835062E+02  0.19223835062E+02  0.00000000000E+00 0. -1.
         21    1    1    2  502  503  0.38579204208E+02 -0.20161423937E+02  0.75387954424E+02  0.87052752310E+02  0.00000000000E+00 0.  1.
         21    1    1    2  503  501 -0.38579204208E+02  0.20161423937E+02  0.21982626746E+02  0.48765498984E+02  0.00000000000E+00 0. -1.
</event>
<event>
 4    1  0.5568520E+002  0.2958274E+02  0.7546771E-02  0.1423258E+00
          2   -1    0    0  502    0  0.00000000000E+00  0.00000000000E+00  0.14409700856E+04  0.14409700856E+04  0.00000000000E+00 0.  1.
         -2   -1    0    0    0  501 -0.00000000000E+00 -0.00000000000E+00 -0.13445999123E+01  0.13445999123E+01  0.00000000000E+00 0. -1.
         21    1    1    2  502  503 -0.16786235502E+02  0.24358994446E+02  0.12538210123E+04  0.12541699523E+04  0.00000000000E+00 0.  1.
         21    1    1    2  503  501  0.16786235502E+02 -0.24358994446E+02  0.18580447338E+03  0.18814473323E+03  0.00000000000E+00 0. -1.
</event>
<event>
 4    1  0.5568520E+002  0.2378156E+02  0.7546771E-02  0.1482911E+00
          2   -1    0    0  503    0  0.00000000000E+00  0.00000000000E+00  0.91918503307E+03  0.91918503307E+03  0.00000000000E+00 0.  1.
         -2   -1    0    0    0  501 -0.00000000000E+00 -0.00000000000E+00 -0.30849633866E+01  0.30849633866E+01  0.00000000000E+00 0. -1.
         21    1    1    2  502  501 -0.19645874872E+02 -0.13401572770E+02  0.45455845922E+02  0.51301037813E+02  0.00000000000E+00 0. -1.
         21    1    1    2  503  502  0.19645874872E+02  0.13401572770E+02  0.87064422376E+03  0.87096895865E+03  0.00000000000E+00 0.  1.
</event>
<event>
 4    1  0.5568520E+002  0.2896498E+02  0.7546771E-02  0.1428809E+00
          2   -1    0    0  503    0  0.00000000000E+00  0.00000000000E+00  0.10417138774E+04  0.10417138774E+04  0.00000000000E+00 0. -1.
         -2   -1    0    0    0  501 -0.00000000000E+00 -0.00000000000E+00 -0.97416942390E+00  0.97416942390E+00  0.00000000000E+00 0.  1.
         21    1    1    2  502  501  0.10190192032E+02 -0.27113280444E+02  0.30335642962E+03  0.30473610450E+03  0.00000000000E+00 0.  1.
         21    1    1    2  503  502 -0.10190192032E+02  0.27113280444E+02  0.73738327832E+03  0.73795194230E+03  0.00000000000E+00 0. -1.
</event>
<event>
 4    1  0.5568520E+002  0.2926090E+02  0.7546771E-02  0.1426130E+00
          2   -1    0    0  503    0  0.00000000000E+00  0.00000000000E+00  0.61809908795E+03  0.61809908795E+03  0.00000000000E+00 0.  1.
         -2   -1    0    0    0  501 -0.00000000000E+00 -0.00000000000E+00 -0.16255106556E+01  0.16255106556E+01  0.00000000000E+00 0. -1.
         21    1    1    2  502  501 -0.23136772673E+02 -0.17913410095E+02  0.18909990693E+03  0.19135039929E+03  0.00000000000E+00 0. -1.
         21    1    1    2  503  502  0.23136772673E+02  0.17913410095E+02  0.42737367037E+03  0.42837419931E+03  0.00000000000E+00 0.  1.
</event>
<event>
 4    1  0.5568520E+002  0.2134641E+02  0.7546771E-02  0.1514376E+00
          2   -1    0    0  503    0  0.00000000000E+00  0.00000000000E+00  0.56394935115E+03  0.56394935115E+03  0.00000000000E+00 0.  1.
         -2   -1    0    0    0  501 -0.00000000000E+00 -0.00000000000E+00 -0.25794367729E+01  0.25794367729E+01  0.00000000000E+00 0. -1.
         21    1    1    2  502  501  0.17599595606E+02  0.12079882358E+02  0.45941901815E+02  0.50658934707E+02  0.00000000000E+00 0. -1.
         21    1    1    2  503  502 -0.17599595606E+02 -0.12079882358E+02  0.51542801256E+03  0.51586985322E+03  0.00000000000E+00 0.  1.
</event>
<event>
 4    1  0.5568520E+002  0.2717019E+02  0.7546771E-02  0.1445906E+00
          2   -1    0    0  503    0  0.00000000000E+00  0.00000000000E+00  0.10684751518E+04  0.10684751518E+04  0.00000000000E+00 0. -1.
         -2   -1    0    0    0  501 -0.00000000000E+00 -0.00000000000E+00 -0.23693939263E+01  0.23693939263E+01  0.00000000000E+00 0.  1.
         21    1    1    2  502  501  0.61259310125E+01 -0.26470594916E+02  0.98369987549E+03  0.98407502989E+03  0.00000000000E+00 0. -1.
         21    1    1    2  503  502 -0.61259310125E+01  0.26470594916E+02  0.82405882387E+02  0.86769515833E+02  0.00000000000E+00 0.  1.
</event>
<event>
 4    1  0.5568520E+002  0.2276849E+02  0.7546771E-02  0.1495426E+00
          2   -1    0    0  502    0  0.00000000000E+00  0.00000000000E+00  0.15014178966E+01  0.15014178966E+01  0.00000000000E+00 0. -1.
         -2   -1    0    0    0  501 -0.00000000000E+00 -0.00000000000E+00 -0.49206202916E+03  0.49206202916E+03  0.00000000000E+00 0.  1.
         21    1    1    2  502  503  0.61007129851E+01 -0.21935940219E+02 -0.11049429174E+03  0.11281574659E+03  0.00000000000E+00 0. -1.
         21    1    1    2  503  501 -0.61007129851E+01  0.21935940219E+02 -0.38006631952E+03  0.38074770046E+03  0.00000000000E+00 0.  1.
</event>
<event>
 4    1  0.5568520E+002  0.4032302E+02  0.7546771E-02  0.1346603E+00
          2   -1    0    0  503    0  0.00000000000E+00  0.00000000000E+00  0.88369335471E+03  0.88369335471E+03  0.00000000000E+00 0. -1.
         -2   -1    0    0    0  501 -0.00000000000E+00 -0.00000000000E+00 -0.27717728149E+01  0.27717728149E+01  0.00000000000E+00 0.  1.
         21    1    1    2  502  501  0.36857076891E+02  0.16355477774E+02  0.18346793632E+03  0.18784682437E+03  0.00000000000E+00 0.  1.
         21    1    1    2  503  502 -0.36857076891E+02 -0.16355477774E+02  0.69745364558E+03  0.69861830315E+03  0.00000000000E+00 0. -1.
</event>
<event>
 4    1  0.5568520E+002  0.6981299E+02  0.7546771E-02  0.1229703E+00
          2   -1    0    0  503    0  0.00000000000E+00  0.00000000000E+00  0.45346446065E+02  0.45346446065E+02  0.00000000000E+00 0. -1.
         -2   -1    0    0    0  501 -0.00000000000E+00 -0.00000000000E+00 -0.12550902979E+03  0.12550902979E+03  0.00000000000E+00 0.  1.
         21    1    1    2  502  501  0.67969555727E+02  0.15937144508E+02 -0.72458773656E+02  0.10061872073E+03  0.00000000000E+00 0. -1.
         21    1    1    2  503  502 -0.67969555727E+02 -0.15937144508E+02 -0.77038100640E+01  0.70236755124E+02  0.00000000000E+00 0.  1.
</event>
<event>
 4    1  0.5568520E+002  0.2435549E+02  0.7546771E-02  0.1476144E+00
          2   -1    0    0  503    0  0.00000000000E+00  0.00000000000E+00  0.70665815661E+03  0.70665815661E+03  0.00000000000E+00 0.  1.
         -2   -1    0    0    0  501 -0.00000000000E+00 -0.00000000000E+00 -0.10610365897E+01  0.10610365897E+01  0.00000000000E+00 0. -1.
         21    1    1    2  502  501  0.74710531726E+00 -0.24344028150E+02  0.19108092282E+03  0.19262686453E+03  0.00000000000E+00 0. -1.
         21    1    1    2  503  502 -0.74710531726E+00  0.24344028150E+02  0.51451619720E+03  0.51509232867E+03  0.00000000000E+00 0.  1.
</event>
<event>
 4    1  0.5568520E+002  0.4127051E+02  0.7546771E-02  0.1341197E+00
          2   -1    0    0  503    0  0.00000000000E+00  0.00000000000E+00  0.22735722125E+04  0.22735722125E+04  0.00000000000E+00 0. -1.
         -2   -1    0    0    0  501 -0.00000000000E+00 -0.00000000000E+00 -0.75420176552E+00  0.75420176552E+00  0.00000000000E+00 0.  1.
         21    1    1    2  502  501  0.33408180777E+02 -0.24231150400E+02  0.10433756805E+04  0.10441915849E+04  0.00000000000E+00 0.  1.
         21    1    1    2  503  502 -0.33408180777E+02  0.24231150400E+02  0.12294423302E+04  0.12301348294E+04  0.00000000000E+00 0. -1.
</event>
<event>
 4    1  0.5568520E+002  0.3668017E+02  0.7546771E-02  0.1369121E+00
          2   -1    0    0  503    0  0.00000000000E+00  0.00000000000E+00  0.15654815881E+04  0.15654815881E+04  0.00000000000E+00 0. -1.
         -2   -1    0    0    0  501 -0.00000000000E+00 -0.00000000000E+00 -0.86335196883E+00  0.86335196883E+00  0.00000000000E+00 0.  1.
         21    1    1    2  502  501  0.16309253471E+02  0.32854876965E+02  0.72957876647E+03  0.73050024721E+03  0.00000000000E+00 0.  1.
         21    1    1    2  503  502 -0.16309253471E+02 -0.32854876965E+02  0.83503946965E+03  0.83584469285E+03  0.00000000000E+00 0. -1.
</event>
<event>
 4    1  0.5568520E+002  0.2229250E+02  0.7546771E-02  0.1501579E+00
          2   -1    0    0  503    0  0.00000000000E+00  0.00000000000E+00  0.24294424873E+03  0.24294424873E+03  0.00000000000E+00 0. -1.
         -2   -1    0    0    0  501 -0.00000000000E+00 -0.00000000000E+00 -0.68659939769E+01  0.68659939769E+01  0.00000000000E+00 0.  1.
         21    1    1    2  502  501 -0.65509619220E+01  0.21308229491E+02  0.13381268516E+02  0.26000271023E+02  0.00000000000E+00 0.  1.
         21    1    1    2  503  502  0.65509619220E+01 -0.21308229491E+02  0.22269698624E+03  0.22380997168E+03  0.00000000000E+00 0. -1.
</event>
<event>
 4    1  0.5568520E+002  0.2565268E+02  0.7546771E-02  0.1461633E+00
          2   -1    0    0  503    0  0.00000000000E+00  0.00000000000E+00  0.67507455165E+02  0.67507455165E+02  0.00000000000E+00 0. -1.
         -2   -1    0    0    0  501 -0.00000000000E+00 -0.00000000000E+00 -0.97564807372E+01  0.97564807372E+01  0.00000000000E+00 0.  1.
         21    1    1    2  502  501  0.10833331356E+02 -0.23252933301E+02  0.30017149885E+02  0.39485304388E+02  0.00000000000E+00 0. -1.
         21    1    1    2  503  502 -0.10833331356E+02  0.23252933301E+02  0.27733824543E+02  0.37778631515E+02  0.00000000000E+00 0.  1.
</event>
<event>
 4    1  0.5568520E+002  0.3778864E+02  0.7546771E-02  0.1361955E+00
          2   -1    0    0  503    0  0.00000000000E+00  0.00000000000E+00  0.29633570008E+03  0.29633570008E+03  0.00000000000E+00 0. -1.
         -2   -1    0    0    0  501 -0.00000000000E+00 -0.00000000000E+00 -0.12472054113E+02  0.12472054113E+02  0.00000000000E+00 0.  1.
         21    1    1    2  502  501  0.32740491064E+02 -0.18869066072E+02  0.20980011666E+02  0.43222011742E+02  0.00000000000E+00 0.  1.
         21    1    1    2  503  502 -0.32740491064E+02  0.18869066072E+02  0.26288363431E+03  0.26558574245E+03  0.00000000000E+00 0. -1.
</event>
<event>
 4    1  0.5568520E+002  0.3084518E+02  0.7546771E-02  0.1412391E+00
          2   -1    0    0  502    0  0.00000000000E+00  0.00000000000E+00  0.68844479584E+03  0.68844479584E+03  0.00000000000E+00 0.  1.
         -2   -1    0    0    0  501 -0.00000000000E+00 -0.00000000000E+00 -0.17239018355E+01  0.17239018355E+01  0.00000000000E+00 0. -1.
         21    1    1    2  502  503  0.27562532955E+02 -0.13846738454E+02  0.49704301881E+03  0.49799918467E+03  0.00000000000E+00 0.  1.
         21    1    1    2  503  501 -0.27562532955E+02  0.13846738454E+02  0.18967787519E+03  0.19216951300E+03  0.00000000000E+00 0. -1.
</event>
<event>
 4    1  0.5568520E+002  0.2917683E+02  0.7546771E-02  0.1426887E+00
          2   -1    0    0  503    0  0.00000000000E+00  0.00000000000E+00  0.62827687816E+03  0.62827687816E+03  0.00000000000E+00 0.  1.
         -2   -1    0    0    0  501 -0.00000000000E+00 -0.00000000000E+00 -0.15923418038E+01  0.15923418038E+01  0.00000000000E+00 0. -1.
         21    1    1    2  502  501  0.72868614200E+01 -0.28252239113E+02  0.19174331144E+03  0.19395047009E+03  0.00000000000E+00 0. -1.
         21    1    1    2  503  502 -0.72868614200E+01  0.28252239113E+02  0.43494122491E+03  0.43591874988E+03  0.00000000000E+00 0.  1.
</event>
<event>
 4    1  0.5568520E+002  0.2175443E+02  0.7546771E-02  0.1508760E+00
          2   -1    0    0  503    0  0.00000000000E+00  0.00000000000E+00  0.92262492611E+03  0.92262492611E+03  0.00000000000E+00 0. -1.
         -2   -1    0    0    0  501 -0.00000000000E+00 -0.00000000000E+00 -0.80609756933E+00  0.80609756933E+00  0.00000000000E+00 0.  1.
         21    1    1    2  502  501 -0.16935251355E+01 -0.21688408895E+02  0.18247167297E+03  0.18376388803E+03  0.00000000000E+00 0.  1.
         21    1    1    2  503  502  0.16935251355E+01  0.21688408895E+02  0.73934715557E+03  0.73966713565E+03  0.00000000000E+00 0. -1.
</event>
<event>
 4    1  0.5568520E+002  0.2649244E+02  0.7546771E-02  0.1452774E+00
          2   -1    0    0  502    0  0.00000000000E+00  0.00000000000E+00  0.64966800735E+01  0.64966800735E+01  0.00000000000E+00 0.  1.
         -2   -1    0    0    0  501 -0.00000000000E+00 -0.00000000000E+00 -0.10917552076E+03  0.10917552076E+03  0.00000000000E+00 0. -1.
         21    1    1    2  502  503  0.15567884376E+02 -0.21435723892E+02 -0.45420259840E+02  0.52581834189E+02  0.00000000000E+00 0.  1.
         21    1    1    2  503  501 -0.15567884376E+02  0.21435723892E+02 -0.57258580841E+02  0.63090366640E+02  0.00000000000E+00 0. -1.
</event>
<event>
 4    1  0.5568520E+002  0.2178962E+02  0.7546771E-02  0.1508283E+00
          2   -1    0    0  502    0  0.00000000000E+00  0.00000000000E+00  0.19222331043E+03  0.19222331043E+03  0.00000000000E+00 0. -1.
         -2   -1    0    0    0  501 -0.00000000000E+00 -0.00000000000E+00 -0.31573301177E+01  0.31573301177E+01  0.00000000000E+00 0.  1.
         21    1    1    2  502  503 -0.12598178846E+02 -0.17778453277E+02  0.14011368132E+03  0.14179785331E+03  0.00000000000E+00 0. -1.
         21    1    1    2  503  501  0.12598178846E+02  0.17778453277E+02  0.48952298988E+02  0.53582787230E+02  0.00000000000E+00 0.  1.
</event>
<event>
 4    1  0.5568520E+002  0.3810349E+02  0.7546771E-02  0.1359972E+00
          2   -1    0    0  503    0  0.00000000000E+00  0.00000000000E+00  0.20514771492E+03  0.20514771492E+03  0.00000000000E+00 0.  1.
         -2   -1    0    0    0  501 -0.00000000000E+00 -0.00000000000E+00 -0.20259235633E+02  0.20259235633E+02  0.00000000000E+00 0. -1.
         21    1    1    2  502  501  0.34194835049E+02 -0.16810399033E+02  0.15331985631E+01  0.38134327810E+02  0.00000000000E+00 0. -1.
         21    1    1    2  503  502 -0.34194835049E+02  0.16810399033E+02  0.18335528073E+03  0.18727262275E+03  0.00000000000E+00 0.  1.
</event>
<event>
 4    1  0.5568520E+002  0.2395924E+02  0.7546771E-02  0.1480792E+00
          2   -1    0    0  502    0  0.00000000000E+00  0.00000000000E+00  0.87734451557E+02  0.87734451557E+02  0.00000000000E+00 0.  1.
         -2   -1    0    0    0  501 -0.00000000000E+00 -0.00000000000E+00 -0.10642119309E+02  0.10642119309E+02  0.00000000000E+00 0. -1.
         21    1    1    2  502  503  0.23846730494E+02 -0.23192115651E+01  0.69073834716E+02  0.73111147849E+02  0.00000000000E+00 0.  1.
         21    1    1    2  503  501 -0.23846730494E+02  0.23192115651E+01  0.80184975320E+01  0.25265423017E+02  0.00000000000E+00 0. -1.
</event>
<event>
 4    1  0.5568520E+002  0.2293459E+02  0.7546771E-02  0.1493321E+00
          2   -1    0    0  503    0  0.00000000000E+00  0.00000000000E+00  0.27047459079E+03  0.27047459079E+03  0.00000000000E+00 0.  1.
         -2   -1    0    0    0  501 -0.00000000000E+00 -0.00000000000E+00 -0.11527863997E+02  0.11527863997E+02  0.00000000000E+00 0. -1.
         21    1    1    2  502  501  0.15435617050E+02  0.16962817828E+02  0.91431891647E+00  0.22952809010E+02  0.00000000000E+00 0. -1.
         21    1    1    2  503  502 -0.15435617050E+02 -0.16962817828E+02  0.25803240788E+03  0.25904964578E+03  0.00000000000E+00 0.  1.
</event>
<event>
 4    1  0.5568520E+002  0.4077105E+02  0.7546771E-02  0.1344026E+00
          2   -1    0    0  502    0  0.00000000000E+00  0.00000000000E+00  0.95802206327E+01  0.95802206327E+01  0.00000000000E+00 0. -1.
         -2   -1    0    0    0  501 -0.00000000000E+00 -0.00000000000E+00 -0.17664601386E+03  0.17664601386E+03  0.00000000000E+00 0.  1.
         21    1    1    2  502  503 -0.30611848482E+02 -0.26929418962E+02 -0.71129489475E+02  0.81985871625E+02  0.00000000000E+00 0.  1.
         21    1    1    2  503  501  0.30611848482E+02  0.26929418962E+02 -0.95936303751E+02  0.10424036287E+03  0.00000000000E+00 0. -1.
</event>
<event>
 4    1  0.5568520E+002  0.2462932E+02  0.7546771E-02  0.1472993E+00
          2   -1    0    0  502    0  0.00000000000E+00  0.00000000000E+00  0.74419485729E+03  0.74419485729E+03  0.00000000000E+00 0.  1.
         -2   -1    0    0    0  501 -0.00000000000E+00 -0.00000000000E+00 -0.84178030091E+00  0.84178030091E+00  0.00000000000E+00 0. -1.
         21    1    1    2  502  503 -0.10656244311E+02  0.22204682930E+02  0.43797926597E+03  0.43867122188E+03  0.00000000000E+00 0.  1.
         21    1    1    2  503  501  0.10656244311E+02 -0.22204682930E+02  0.30537381102E+03  0.30636541571E+03  0.00000000000E+00 0. -1.
</event>
<event>
 4    1  0.5568520E+002  0.2653045E+02  0.7546771E-02  0.1452383E+00
          2   -1    0    0  502    0  0.00000000000E+00  0.00000000000E+00  0.50789341045E+00  0.50789341045E+00  0.00000000000E+00 0. -1.
         -2   -1    0    0    0  501 -0.00000000000E+00 -0.00000000000E+00 -0.14055413570E+04  0.14055413570E+04  0.00000000000E+00 0.  1.
         21    1    1    2  502  503 -0.25615575991E+02 -0.69070381198E+01 -0.78572540742E+03  0.78617318752E+03  0.00000000000E+00 0. -1.
         21    1    1    2  503  501  0.25615575991E+02  0.69070381198E+01 -0.61930805616E+03  0.61987606288E+03  0.00000000000E+00 0.  1.
</event>
<event>
 4    1  0.5568520E+002  0.3642346E+02  0.7546771E-02  0.1370823E+00
          2   -1    0    0  502    0  0.00000000000E+00  0.00000000000E+00  0.21479799840E+03  0.21479799840E+03  0.00000000000E+00 0. -1.
         -2   -1    0    0    0  501 -0.00000000000E+00 -0.00000000000E+00 -0.70500755954E+01  0.70500755954E+01  0.00000000000E+00 0.  1.
         21    1    1    2  502  503 -0.21841851814E+02  0.29147937724E+02  0.14292341689E+03  0.14749159928E+03  0.00000000000E+00 0. -1.
         21    1    1    2  503  501  0.21841851814E+02 -0.29147937724E+02  0.64824505915E+02  0.74356474711E+02  0.00000000000E+00 0.  1.
</event>
<event>
 4    1  0.5568520E+002  0.2124403E+02  0.7546771E-02  0.1515809E+00
          2   -1    0    0  503    0  0.00000000000E+00  0.00000000000E+00  0.42840985256E+02  0.42840985256E+02  0.00000000000E+00 0.  1.
         -2   -1    0    0    0  501 -0.00000000000E+00 -0.00000000000E+00 -0.13988625246E+02  0.13988625246E+02  0.00000000000E+00 0. -1.
         21    1    1    2  502  501  0.67048056821E+01 -0.20158236654E+02  0.28545877012E+02  0.35583367163E+02  0.00000000000E+00 0.  1.
         21    1    1    2  503  502 -0.67048056821E+01  0.20158236654E+02  0.30648299764E+00  0.21246243340E+02  0.00000000000E+00 0. -1.
</event>
<event>
 4    1  0.5568520E+002  0.2048858E+02  0.7546771E-02  0.1526693E+00
          2   -1    0    0  503    0  0.00000000000E+00  0.00000000000E+00  0.53954723298E+01  0.53954723298E+01  0.00000000000E+00 0.  1.
         -2   -1    0    0    0  501 -0.00000000000E+00 -0.00000000000E+00 -0.17972281380E+03  0.17972281380E+03  0.00000000000E+00 0. -1.
         21    1    1    2  502  501 -0.16398320161E+02  0.12283195090E+02 -0.15686609439E+03  0.15819846192E+03  0.00000000000E+00 0. -1.
         21    1    1    2  503  502  0.16398320161E+02 -0.12283195090E+02 -0.17461247080E+02  0.26919824206E+02  0.00000000000E+00 0.  1.
</event>
<event>
 4    1  0.5568520E+002  0.2741669E+02  0.7546771E-02  0.1443467E+00
          2   -1    0    0  502    0  0.00000000000E+00  0.00000000000E+00  0.18867084447E+04  0.18867084447E+04  0.00000000000E+00 0. -1.
         -2   -1    0    0    0  501 -0.00000000000E+00 -0.00000000000E+00 -0.69543346991E+00  0.69543346991E+00  0.00000000000E+00 0.  1.
         21    1    1    2  502  503 -0.31317975018E+01 -0.27237228527E+02  0.15597517688E+04  0.15599927099E+04  0.00000000000E+00 0. -1.
         21    1    1    2  503  501  0.31317975018E+01  0.27237228527E+02  0.32626124244E+03  0.32741116825E+03  0.00000000000E+00 0.  1.
</event>
<event>
 4    1  0.5568520E+002  0.3121990E+02  0.7546771E-02  0.1409284E+00
          2   -1    0    0  502    0  0.00000000000E+00  0.00000000000E+00  0.23561087327E+04  0.23561087327E+04  0.00000000000E+00 0. -1.
         -2   -1    0    0    0  501 -0.00000000000E+00 -0.00000000000E+00 -0.45710317637E+00  0.45710317637E+00  0.00000000000E+00 0.  1.
         21    1    1    2  502  503 -0.15155458066E+02 -0.27294583697E+02  0.15409775175E+04  0.15412937396E+04  0.00000000000E+00 0. -1.
         21    1    1    2  503  501  0.15155458066E+02  0.27294583697E+02  0.81467411198E+03  0.81527209626E+03  0.00000000000E+00 0.  1.
</event>
<event>
 4    1  0.5568520E+002  0.3331504E+02  0.7546771E-02  0.1392812E+00
          2   -1    0    0  503    0  0.00000000000E+00  0.00000000000E+00  0.44737989058E+02  0.44737989058E+02  0.00000000000E+00 0. -1.
         -2   -1    0    0    0  501 -0.00000000000E+00 -0.00000000000E+00 -0.25010439564E+02  0.25010439564E+02  0.00000000000E+00 0.  1.
         21    1    1    2  502  501 -0.32629076272E+02  0.67257138337E+01  0.67317341708E+01  0.33988352268E+02  0.00000000000E+00 0.  1.
         21    1    1    2  503  502  0.32629076272E+02 -0.67257138337E+01  0.12995815323E+02  0.35760076354E+02  0.00000000000E+00 0. -1.
</event>
<event>
 4    1  0.5568520E+002  0.2226487E+02  0.7546771E-02  0.1501941E+00
          2   -1    0    0  503    0  0.00000000000E+00  0.00000000000E+00  0.18376287923E+02  0.18376287923E+02  0.00000000000E+00 0.  1.
         -2   -1    0    0    0  501 -0.00000000000E+00 -0.00000000000E+00 -0.29710390172E+02  0.29710390172E+02  0.00000000000E+00 0. -1.
         21    1    1    2  502  501  0.10447401936E+02  0.19661544207E+02 -0.12960716671E+02  0.25762466971E+02  0.00000000000E+00 0. -1.
         21    1    1    2  503  502 -0.10447401936E+02 -0.19661544207E+02  0.16266144218E+01  0.22324211124E+02  0.00000000000E+00 0.  1.
</event>
<event>
 4    1  0.5568520E+002  0.2795731E+02  0.7546771E-02  0.1438222E+00
          2   -1    0    0  503    0  0.00000000000E+00  0.00000000000E+00  0.12876839515E+04  0.12876839515E+04  0.00000000000E+00 0.  1.
         -2   -1    0    0    0  501 -0.00000000000E+00 -0.00000000000E+00 -0.11535971748E+01  0.11535971748E+01  0.00000000000E+00 0. -1.
         21    1    1    2  502  501 -0.61710452923E+01  0.27267738784E+02  0.19967826210E+03  0.20162594013E+03  0.00000000000E+00 0. -1.
         21    1    1    2  503  502  0.61710452923E+01 -0.27267738784E+02  0.10868520922E+04  0.10872116085E+04  0.00000000000E+00 0.  1.
</event>
<event>
 4    1  0.5568520E+002  0.2075423E+02  0.7546771E-02  0.1522803E+00
          2   -1    0    0  503    0  0.00000000000E+00  0.00000000000E+00  0.64685066961E+02  0.64685066961E+02  0.00000000000E+00 0.  1.
         -2   -1    0    0    0  501 -0.00000000000E+00 -0.00000000000E+00 -0.11619518405E+02  0.11619518405E+02  0.00000000000E+00 0. -1.
         21    1    1    2  502  501 -0.62235701521E+00  0.20744895128E+02  0.16046262989E+01  0.20816167460E+02  0.00000000000E+00 0. -1.
         21    1    1    2  503  502  0.62235701521E+00 -0.20744895128E+02  0.51460922257E+02  0.55488417906E+02  0.00000000000E+00 0.  1.
</event>
<event>
 4    1  0.5568520E+002  0.4365522E+02  0.7546771E-02  0.1328302E+00
          2   -1    0    0  502    0  0.00000000000E+00  0.00000000000E+00  0.32099993641E+03  0.32099993641E+03  0.00000000000E+00 0. -1.
         -2   -1    0    0    0  501 -0.00000000000E+00 -0.00000000000E+00 -0.59854918795E+01  0.59854918795E+01  0.00000000000E+00 0.  1.
         21    1    1    2  502  503  0.12087532448E+02 -0.41948421057E+02  0.17222211892E+03  0.17766889631E+03  0.00000000000E+00 0.  1.
         21    1    1    2  503  501 -0.12087532448E+02  0.41948421057E+02  0.14279232561E+03  0.14931653198E+03  0.00000000000E+00 0. -1.
</event>
<event>
 4    1  0.5568520E+002  0.2504031E+02  0.7546771E-02  0.1468353E+00
          2   -1    0    0  503    0  0.00000000000E+00  0.00000000000E+00  0.40399101428E+02  0.40399101428E+02  0.00000000000E+00 0.  1.
         -2   -1    0    0    0  501 -0.00000000000E+00 -0.00000000000E+00 -0.89056087031E+02  0.89056087031E+02  0.00000000000E+00 0. -1.
         21    1    1    2  502  501  0.24689934912E+02  0.41742583260E+01 -0.83145946453E+02  0.86834703490E+02  0.00000000000E+00 0. -1.
         21    1    1    2  503  502 -0.24689934912E+02 -0.41742583260E+01  0.34488960851E+02  0.42620484970E+02  0.00000000000E+00 0.  1.
</event>
<event>
 4    1  0.5568520E+002  0.4064828E+02  0.7546771E-02  0.1344728E+00
          2   -1    0    0  503    0  0.00000000000E+00  0.00000000000E+00  0.78223352731E+03  0.78223352731E+03  0.00000000000E+00 0. -1.
         -2   -1    0    0    0  501 -0.00000000000E+00 -0.00000000000E+00 -0.30050974617E+01  0.30050974617E+01  0.00000000000E+00 0.  1.
         21    1    1    2  502  501 -0.31750454264E+02  0.25380926537E+02  0.17560725425E+03  0.18025035512E+03  0.00000000000E+00 0.  1.
         21    1    1    2  503  502  0.31750454264E+02 -0.25380926537E+02  0.60362117560E+03  0.60498826965E+03  0.00000000000E+00 0. -1.
</event>
<event>
 4    1  0.5568520E+002  0.2435784E+02  0.7546771E-02  0.1476117E+00
          2   -1    0    0  503    0  0.00000000000E+00  0.00000000000E+00  0.31552061966E+02  0.31552061966E+02  0.00000000000E+00 0. -1.
         -2   -1    0    0    0  501 -0.00000000000E+00 -0.00000000000E+00 -0.20471596107E+02  0.20471596107E+02  0.00000000000E+00 0.  1.
         21    1    1    2  502  501  0.18966722078E+02 -0.15282925101E+02 -0.18838542541E+01  0.24430580281E+02  0.00000000000E+00 0.  1.
         21    1    1    2  503  502 -0.18966722078E+02  0.15282925101E+02  0.12964320114E+02  0.27593077792E+02  0.00000000000E+00 0. -1.
</event>
<event>
 4    1  0.5568520E+002  0.2446266E+02  0.7546771E-02  0.1474905E+00
          2   -1    0    0  502    0  0.00000000000E+00  0.00000000000E+00  0.82378954188E+03  0.82378954188E+03  0.00000000000E+00 0.  1.
         -2   -1    0    0    0  501 -0.00000000000E+00 -0.00000000000E+00 -0.73854021647E+00  0.73854021647E+00  0.00000000000E+00 0. -1.
         21    1    1    2  502  503  0.69760002543E+01 -0.23446896700E+02  0.35872366243E+03  0.35955679319E+03  0.00000000000E+00 0. -1.
         21    1    1    2  503  501 -0.69760002543E+01  0.23446896700E+02  0.46432733924E+03  0.46497128891E+03  0.00000000000E+00 0.  1.
</event>
<event>
 4    1  0.5568520E+002  0.2978978E+02  0.7546771E-02  0.1421432E+00
          2   -1    0    0  502    0  0.00000000000E+00  0.00000000000E+00  0.26647358370E+04  0.26647358370E+04  0.00000000000E+00 0. -1.
         -2   -1    0    0    0  501 -0.00000000000E+00 -0.00000000000E+00 -0.43346953676E+00  0.43346953676E+00  0.00000000000E+00 0.  1.
         21    1    1    2  502  503 -0.29635362243E+02 -0.30292048188E+01  0.19736160818E+04  0.19738408926E+04  0.00000000000E+00 0. -1.
         21    1    1    2  503  501  0.29635362243E+02  0.30292048188E+01  0.69068628558E+03  0.69132841390E+03  0.00000000000E+00 0.  1.
</event>
<event>
 4    1  0.5568520E+002  0.4424451E+02  0.7546771E-02  0.1325261E+00
          2   -1    0    0  502    0  0.00000000000E+00  0.00000000000E+00  0.23988467381E+03  0.23988467381E+03  0.00000000000E+00 0. -1.
         -2   -1    0    0    0  501 -0.00000000000E+00 -0.00000000000E+00 -0.16152469584E+02  0.16152469584E+02  0.00000000000E+00 0.  1.
         21    1    1    2  502  503 -0.43716968679E+02 -0.68120205999E+01  0.20191546377E+03  0.20670614767E+03  0.00000000000E+00 0. -1.
         21    1    1    2  503  501  0.43716968679E+02  0.68120205999E+01  0.21816740460E+02  0.49330995727E+02  0.00000000000E+00 0.  1.
</event>
<event>
 4    1  0.5568520E+002  0.2395696E+02  0.7546771E-02  0.1480819E+00
          2   -1    0    0  502    0  0.00000000000E+00  0.00000000000E+00  0.46732347435E+03  0.46732347435E+03  0.00000000000E+00 0.  1.
         -2   -1    0    0    0  501 -0.00000000000E+00 -0.00000000000E+00 -0.20225680430E+01  0.20225680430E+01  0.00000000000E+00 0. -1.
         21    1    1    2  502  503 -0.10933744920E+02  0.21316407224E+02  0.37972598620E+03  0.38048095956E+03  0.00000000000E+00 0.  1.
         21    1    1    2  503  501  0.10933744920E+02 -0.21316407224E+02  0.85574920107E+02  0.88865082830E+02  0.00000000000E+00 0. -1.
</event>
<event>
 4    1  0.5568520E+002  0.3893440E+02  0.7546771E-02  0.1354846E+00
          2   -1    0    0  503    0  0.00000000000E+00  0.00000000000E+00  0.11391946375E+03  0.11391946375E+03  0.00000000000E+00 0. -1.
         -2   -1    0    0    0  501 -0.00000000000E+00 -0.00000000000E+00 -0.18925727079E+02  0.18925727079E+02  0.00000000000E+00 0.  1.
         21    1    1    2  502  501 -0.22755032938E+02  0.31592660398E+02  0.11304115711E+02  0.40542209449E+02  0.00000000000E+00 0.  1.
         21    1    1    2  503  502  0.22755032938E+02 -0.31592660398E+02  0.83689620958E+02  0.92302981377E+02  0.00000000000E+00 0. -1.
</event>
<event>
 4    1  0.5568520E+002  0.7041747E+02  0.7546771E-02  0.1228032E+00
          2   -1    0    0  503    0  0.00000000000E+00  0.00000000000E+00  0.24710455727E+03  0.24710455727E+03  0.00000000000E+00 0.  1.
         -2   -1    0    0    0  501 -0.00000000000E+00 -0.00000000000E+00 -0.79146971966E+02  0.79146971966E+02  0.00000000000E+00 0. -1.
         21    1    1    2  502  501 -0.13937732344E+02  0.69024339591E+02 -0.56958509799E+02  0.90569816591E+02  0.00000000000E+00 0. -1.
         21    1    1    2  503  502  0.13937732344E+02 -0.69024339591E+02  0.22491609510E+03  0.23568171264E+03  0.00000000000E+00 0.  1.
</event>
<event>
 4    1  0.5568520E+002  0.2041466E+02  0.7546771E-02  0.1527788E+00
          2   -1    0    0  503    0  0.00000000000E+00  0.00000000000E+00  0.21221716565E+03  0.21221716565E+03  0.00000000000E+00 0. -1.
         -2   -1    0    0    0  501 -0.00000000000E+00 -0.00000000000E+00 -0.95088754455E+01  0.95088754455E+01  0.00000000000E+00 0.  1.
         21    1    1    2  502  501  0.12757896619E+02  0.15937201362E+02  0.26005137455E+01  0.20579625486E+02  0.00000000000E+00 0.  1.
         21    1    1    2  503  502 -0.12757896619E+02 -0.15937201362E+02  0.20010777646E+03  0.20114641561E+03  0.00000000000E+00 0. -1.
</event>
<event>
 4    1  0.5568520E+002  0.2126844E+02  0.7546771E-02  0.1515467E+00
          2   -1    0    0  502    0  0.00000000000E+00  0.00000000000E+00  0.87618415803E+03  0.87618415803E+03  0.00000000000E+00 0. -1.
         -2   -1    0    0    0  501 -0.00000000000E+00 -0.00000000000E+00 -0.56957845026E+00  0.56957845026E+00  0.00000000000E+00 0.  1.
         21    1    1    2  502  503  0.12576158517E+02 -0.17151876114E+02  0.57192107810E+03  0.57231640392E+03  0.00000000000E+00 0. -1.
         21    1    1    2  503  501 -0.12576158517E+02  0.17151876114E+02  0.30369350148E+03  0.30443733256E+03  0.00000000000E+00 0.  1.
</event>
<event>
 4    1  0.5568520E+002  0.2516121E+02  0.7546771E-02  0.1467008E+00
          2   -1    0    0  502    0  0.00000000000E+00  0.00000000000E+00  0.11813690064E+04  0.11813690064E+04  0.00000000000E+00 0.  1.
         -2   -1    0    0    0  501 -0.00000000000E+00 -0.00000000000E+00 -0.32126461327E+01  0.32126461327E+01  0.00000000000E+00 0. -1.
         21    1    1    2  502  503  0.19335166838E+02 -0.16100868486E+02  0.11297176778E+04  0.11299978399E+04  0.00000000000E+00 0.  1.
         21    1    1    2  503  501 -0.19335166838E+02  0.16100868486E+02  0.48438682485E+02  0.54583812652E+02  0.00000000000E+00 0. -1.
</event>
<event>
 4    1  0.5568520E+002  0.3205161E+02  0.7546771E-02  0.1402567E+00
          2   -1    0    0  503    0  0.00000000000E+00  0.00000000000E+00  0.13836442992E+04  0.13836442992E+04  0.00000000000E+00 0.  1.
         -2   -1    0    0    0  501 -0.00000000000E+00 -0.00000000000E+00 -0.77602500874E+00  0.77602500874E+00  0.00000000000E+00 0. -1.
         21    1    1    2  502  501  0.32001339624E+02 -0.17944890470E+01  0.54748193029E+03  0.54841933766E+03  0.00000000000E+00 0. -1.
         21    1    1    2  503  502 -0.32001339624E+02  0.17944890470E+01  0.83538634387E+03  0.83600098651E+03  0.00000000000E+00 0.  1.
</event>
<event>
 4    1  0.5568520E+002  0.2821366E+02  0.7546771E-02  0.1435783E+00
          2   -1    0    0  502    0  0.00000000000E+00  0.00000000000E+00  0.13944172502E+02  0.13944172502E+02  0.00000000000E+00 0.  1.
         -2   -1    0    0    0  501 -0.00000000000E+00 -0.00000000000E+00 -0.10955038724E+03  0.10955038724E+03  0.00000000000E+00 0. -1.
         21    1    1    2  502  503 -0.59013711106E+01  0.27589570489E+02 -0.50719073610E+01  0.28665917481E+02  0.00000000000E+00 0.  1.
         21    1    1    2  503  501  0.59013711106E+01 -0.27589570489E+02 -0.90534307374E+02  0.94828642258E+02  0.00000000000E+00 0. -1.
</event>
<event>
 4    1  0.5568520E+002  0.3865154E+02  0.7546771E-02  0.1356574E+00
          2   -1    0    0  502    0  0.00000000000E+00  0.00000000000E+00  0.13095684878E+02  0.13095684878E+02  0.00000000000E+00 0.  1.
         -2   -1    0    0    0  501 -0.00000000000E+00 -0.00000000000E+00 -0.13644550725E+03  0.13644550725E+03  0.00000000000E+00 0. -1.
         21    1    1    2  502  503 -0.32284046960E+02 -0.21252814226E+02 -0.31402227261E+02  0.49800016843E+02  0.00000000000E+00 0.  1.
         21    1    1    2  503  501  0.32284046960E+02  0.21252814226E+02 -0.91947595113E+02  0.99741175287E+02  0.00000000000E+00 0. -1.
</event>
<event>
 4    1  0.5568520E+002  0.2109098E+02  0.7546771E-02  0.1517970E+00
          2   -1    0    0  502    0  0.00000000000E+00  0.00000000000E+00  0.31060646764E+02  0.31060646764E+02  0.00000000000E+00 0. -1.
         -2   -1    0    0    0  501 -0.00000000000E+00 -0.00000000000E+00 -0.14583443485E+02  0.14583443485E+02  0.00000000000E+00 0.  1.
         21    1    1    2  502  503 -0.20712096432E+02 -0.39797505365E+01  0.51788907967E+01  0.21717510512E+02  0.00000000000E+00 0.  1.
         21    1    1    2  503  501  0.20712096432E+02  0.39797505365E+01  0.11298312483E+02  0.23926579737E+02  0.00000000000E+00 0. -1.
</event>
<event>
 4    1  0.5568520E+002  0.2616620E+02  0.7546771E-02  0.1456168E+00
          2   -1    0    0  502    0  0.00000000000E+00  0.00000000000E+00  0.43884476513E+02  0.43884476513E+02  0.00000000000E+00 0. -1.
         -2   -1    0    0    0  501 -0.00000000000E+00 -0.00000000000E+00 -0.17228578479E+02  0.17228578479E+02  0.00000000000E+00 0.  1.
         21    1    1    2  502  503  0.15533594118E+02 -0.21056525412E+02  0.22717932485E+02  0.34652189902E+02  0.00000000000E+00 0. -1.
         21    1    1    2  503  501 -0.15533594118E+02  0.21056525412E+02  0.39379655492E+01  0.26460865090E+02  0.00000000000E+00 0.  1.
</event>
<event>
 4    1  0.5568520E+002  0.2518699E+02  0.7546771E-02  0.1466722E+00
          2   -1    0    0  502    0  0.00000000000E+00  0.00000000000E+00  0.14507738040E+04  0.14507738040E+04  0.00000000000E+00 0.  1.
         -2   -1    0    0    0  501 -0.00000000000E+00 -0.00000000000E+00 -0.73259471807E+00  0.73259471807E+00  0.00000000000E+00 0. -1.
         21    1    1    2  502  503  0.21676844686E+02  0.12825709484E+02  0.11858123138E+04  0.11860797730E+04  0.00000000000E+00 0.  1.
         21    1    1    2  503  501 -0.21676844686E+02 -0.12825709484E+02  0.26422889551E+03  0.26542662572E+03  0.00000000000E+00 0. -1.
</event>
<event>
 4    1  0.5568520E+002  0.2590981E+02  0.7546771E-02  0.1458878E+00
          2   -1    0    0  503    0  0.00000000000E+00  0.00000000000E+00  0.59871597632E+01  0.59871597632E+01  0.00000000000E+00 0. -1.
         -2   -1    0    0    0  501 -0.00000000000E+00 -0.00000000000E+00 -0.12953406373E+03  0.12953406373E+03  0.00000000000E+00 0.  1.
         21    1    1    2  502  501  0.21323669883E+02 -0.14718002485E+02 -0.36933203600E+02  0.45115186163E+02  0.00000000000E+00 0. -1.
         21    1    1    2  503  502 -0.21323669883E+02  0.14718002485E+02 -0.86613700365E+02  0.90406037328E+02  0.00000000000E+00 0.  1.
</event>
<event>
 4    1  0.5568520E+002  0.2101511E+02  0.7546771E-02  0.1519049E+00
          2   -1    0    0  502    0  0.00000000000E+00  0.00000000000E+00  0.48732036572E+03  0.48732036572E+03  0.00000000000E+00 0. -1.
         -2   -1    0    0    0  501 -0.00000000000E+00 -0.00000000000E+00 -0.12762820743E+01  0.12762820743E+01  0.00000000000E+00 0.  1.
         21    1    1    2  502  503  0.10527707858E+02 -0.18187968083E+02  0.37456450002E+03  0.37515356788E+03  0.00000000000E+00 0. -1.
         21    1    1    2  503  501 -0.10527707858E+02  0.18187968083E+02  0.11147958363E+03  0.11344307992E+03  0.00000000000E+00 0.  1.
</event>
<event>
 4    1  0.5568520E+002  0.2267202E+02  0.7546771E-02  0.1496658E+00
          2   -1    0    0  502    0  0.00000000000E+00  0.00000000000E+00  0.18218047260E+02  0.18218047260E+02  0.00000000000E+00 0. -1.
         -2   -1    0    0    0  501 -0.00000000000E+00 -0.00000000000E+00 -0.14721557334E+03  0.14721557334E+03  0.00000000000E+00 0.  1.
         21    1    1    2  502  503  0.12551423274E+02  0.18880732999E+02  0.98701816278E+01  0.24727328811E+02  0.00000000000E+00 0. -1.
         21    1    1    2  503  501 -0.12551423274E+02 -0.18880732999E+02 -0.13886770771E+03  0.14070629179E+03  0.00000000000E+00 0.  1.
</event>
<event>
 4    1  0.5568520E+002  0.2046282E+02  0.7546771E-02  0.1527074E+00
          2   -1    0    0  503    0  0.00000000000E+00  0.00000000000E+00  0.10215918191E+04  0.10215918191E+04  0.00000000000E+00 0.  1.
         -2   -1    0    0    0  501 -0.00000000000E+00 -0.00000000000E+00 -0.50174706361E+00  0.50174706361E+00  0.00000000000E+00 0. -1.
         21    1    1    2  502  501 -0.18292553592E+02 -0.91711138955E+01  0.29186679163E+03  0.29258323757E+03  0.00000000000E+00 0. -1.
         21    1    1    2  503  502  0.18292553592E+02  0.91711138955E+01  0.72922328040E+03  0.72951032860E+03  0.00000000000E+00 0.  1.
</event>
<event>
 4    1  0.5568520E+002  0.2053823E+02  0.7546771E-02  0.1525961E+00
          2   -1    0    0  502    0  0.00000000000E+00  0.00000000000E+00  0.29734177062E+03  0.29734177062E+03  0.00000000000E+00 0.  1.
         -2   -1    0    0    0  501 -0.00000000000E+00 -0.00000000000E+00 -0.23826399875E+01  0.23826399875E+01  0.00000000000E+00 0. -1.
         21    1    1    2  502  503 -0.14436829870E+02  0.14608103814E+02  0.24280374321E+03  0.24367083632E+03  0.00000000000E+00 0. -1.
         21    1    1    2  503  501  0.14436829870E+02 -0.14608103814E+02  0.52155387420E+02  0.56053574290E+02  0.00000000000E+00 0.  1.
</event>
<event>
 4    1  0.5568520E+002  0.2627384E+02  0.7546771E-02  0.1455042E+00
          2   -1    0    0  502    0  0.00000000000E+00  0.00000000000E+00  0.64230576734E+01  0.64230576734E+01  0.00000000000E+00 0. -1.
         -2   -1    0    0    0  501 -0.00000000000E+00 -0.00000000000E+00 -0.35950890301E+03  0.35950890301E+03  0.00000000000E+00 0.  1.
         21    1    1    2  502  503 -0.11547568392E+01 -0.26248451281E+02 -0.23347612810E+02  0.35148622760E+02  0.00000000000E+00 0. -1.
         21    1    1    2  503  501  0.11547568392E+01  0.26248451281E+02 -0.32973823253E+03  0.33078333792E+03  0.00000000000E+00 0.  1.
</event>
<event>
 4    1  0.5568520E+002  0.2619311E+02  0.7546771E-02  0.1455886E+00
          2   -1    0    0  503    0  0.00000000000E+00  0.00000000000E+00  0.11608379306E+02  0.11608379306E+02  0.00000000000E+00 0. -1.
         -2   -1    0    0    0  501 -0.00000000000E+00 -0.00000000000E+00 -0.69694020196E+02  0.69694020196E+02  0.00000000000E+00 0.  1.
         21    1    1    2  502  501  0.25949805005E+02  0.35618622207E+01 -0.44890423377E+02  0.51973352338E+02  0.00000000000E+00 0.  1.
         21    1    1    2  503  502 -0.25949805005E+02 -0.35618622207E+01 -0.13195217513E+02  0.29329047163E+02  0.00000000000E+00 0. -1.
</event>
<event>
 4    1  0.5568520E+002  0.2096544E+02  0.7546771E-02  0.1519759E+00
          2   -1    0    0  503    0  0.00000000000E+00  0.00000000000E+00  0.17970676046E+04  0.17970676046E+04  0.00000000000E+00 0. -1.
         -2   -1    0    0    0  501 -0.00000000000E+00 -0.00000000000E+00 -0.27156785490E+00  0.27156785490E+00  0.00000000000E+00 0.  1.
         21    1    1    2  502  501  0.20685727350E+02 -0.34132852163E+01  0.61516630729E+03  0.61552346459E+03  0.00000000000E+00 0.  1.
         21    1    1    2  503  502 -0.20685727350E+02  0.34132852163E+01  0.11816297294E+04  0.11818157078E+04  0.00000000000E+00 0. -1.
</event>
<event>
 4    1  0.5568520E+002  0.2208313E+02  0.7546771E-02  0.1504344E+00
          2   -1    0    0  503    0  0.00000000000E+00  0.00000000000E+00  0.12023230409E+04  0.12023230409E+04  0.00000000000E+00 0. -1.
         -2   -1    0    0    0  501 -0.00000000000E+00 -0.00000000000E+00 -0.64181550444E+00  0.64181550444E+00  0.00000000000E+00 0.  1.
         21    1    1    2  502  501 -0.21882040630E+02  0.29733596504E+01  0.23594364893E+03  0.23697482997E+03  0.00000000000E+00 0.  1.
         21    1    1    2  503  502  0.21882040630E+02 -0.29733596504E+01  0.96573757649E+03  0.96599002646E+03  0.00000000000E+00 0. -1.
</event>
<event>
 4    1  0.5568520E+002  0.2971198E+02  0.7546771E-02  0.1422116E+00
          2   -1    0    0  502    0  0.00000000000E+00  0.00000000000E+00  0.10046950010E+04  0.10046950010E+04  0.00000000000E+00 0. -1.
         -2   -1    0    0    0  501 -0.00000000000E+00 -0.00000000000E+00 -0.12375743534E+01  0.12375743534E+01  0.00000000000E+00 0.  1.
         21    1    1    2  502  503 -0.29625892611E+02  0.22601173361E+01  0.77258492712E+03  0.77315604586E+03  0.00000000000E+00 0. -1.
         21    1    1    2  503  501  0.29625892611E+02 -0.22601173361E+01  0.23087249952E+03  0.23277652948E+03  0.00000000000E+00 0.  1.
</event>
<event>
 4    1  0.5568520E+002  0.2043885E+02  0.7546771E-02  0.1527429E+00
          2   -1    0    0  503    0  0.00000000000E+00  0.00000000000E+00  0.56016747072E+02  0.56016747072E+02  0.00000000000E+00 0.  1.
         -2   -1    0    0    0  501 -0.00000000000E+00 -0.00000000000E+00 -0.85771886206E+01  0.85771886206E+01  0.00000000000E+00 0. -1.
         21    1    1    2  502  501 -0.14331177260E+02  0.14572712586E+02  0.12050823052E+02  0.23726966304E+02  0.00000000000E+00 0. -1.
         21    1    1    2  503  502  0.14331177260E+02 -0.14572712586E+02  0.35388735400E+02  0.40866969388E+02  0.00000000000E+00 0.  1.
</event>
<event>
 4    1  0.5568520E+002  0.3985695E+02  0.7546771E-02  0.1349326E+00
          2   -1    0    0  503    0  0.00000000000E+00  0.00000000000E+00  0.34580573839E+03  0.34580573839E+03  0.00000000000E+00 0.  1.
         -2   -1    0    0    0  501 -0.00000000000E+00 -0.00000000000E+00 -0.78224932799E+01  0.78224932799E+01  0.00000000000E+00 0. -1.
         21    1    1    2  502  501  0.36102163987E+02  0.16888173017E+02  0.55397735382E+02  0.68245774359E+02  0.00000000000E+00 0. -1.
         21    1    1    2  503  502 -0.36102163987E+02 -0.16888173017E+02  0.28258550972E+03  0.28538245731E+03  0.00000000000E+00 0.  1.
</event>
<event>
 4    1  0.5568520E+002  0.2299785E+02  0.7546771E-02  0.1492525E+00
          2   -1    0    0  503    0  0.00000000000E+00  0.00000000000E+00  0.65869578118E+01  0.65869578118E+01  0.00000000000E+00 0. -1.
         -2   -1    0    0    0  501 -0.00000000000E+00 -0.00000000000E+00 -0.80876604704E+02  0.80876604704E+02  0.00000000000E+00 0.  1.
         21    1    1    2  502  501  0.14866888869E+02 -0.17546415380E+02 -0.40852706066E+02  0.46881176076E+02  0.00000000000E+00 0.  1.
         21    1    1    2  503  502 -0.14866888869E+02  0.17546415380E+02 -0.33436940827E+02  0.40582386441E+02  0.00000000000E+00 0. -1.
</event>
<event>
 4    1  0.5568520E+002  0.2678373E+02  0.7546771E-02  0.1449793E+00
          2   -1    0    0  503    0  0.00000000000E+00  0.00000000000E+00  0.64952143212E+03  0.64952143212E+03  0.00000000000E+00 0. -1.
         -2   -1    0    0    0  501 -0.00000000000E+00 -0.00000000000E+00 -0.67508113350E+02  0.67508113350E+02  0.00000000000E+00 0.  1.
         21    1    1    2  502  501  0.12034649412E+02  0.23927710079E+02 -0.64563305503E+02  0.69898415673E+02  0.00000000000E+00 0.  1.
         21    1    1    2  503  502 -0.12034649412E+02 -0.23927710079E+02  0.64657662428E+03  0.64713112980E+03  0.00000000000E+00 0. -1.
</event>
<event>
 4    1  0.5568520E+002  0.3632097E+02  0.7546771E-02  0.1371507E+00
          2   -1    0    0  502    0  0.00000000000E+00  0.00000000000E+00  0.60973425708E+03  0.60973425708E+03  0.00000000000E+00 0.  1.
         -2   -1    0    0    0  501 -0.00000000000E+00 -0.00000000000E+00 -0.26486137842E+01  0.26486137842E+01  0.00000000000E+00 0. -1.
         21    1    1    2  502  503  0.17454840263E+02  0.31851862510E+02  0.43457168170E+03  0.43608687108E+03  0.00000000000E+00 0.  1.
         21    1    1    2  503  501 -0.17454840263E+02 -0.31851862510E+02  0.17251396160E+03  0.17629599978E+03  0.00000000000E+00 0. -1.
</event>
<event>
 4    1  0.5568520E+002  0.6815965E+02  0.7546771E-02  0.1234374E+00
          2   -1    0    0  502    0  0.00000000000E+00  0.00000000000E+00  0.20383697584E+04  0.20383697584E+04  0.00000000000E+00 0. -1.
         -2   -1    0    0    0  501 -0.00000000000E+00 -0.00000000000E+00 -0.43917926308E+02  0.43917926308E+02  0.00000000000E+00 0.  1.
         21    1    1    2  502  503 -0.60911909774E+02 -0.30585570637E+02  0.20109945106E+04  0.20121492637E+04  0.00000000000E+00 0. -1.
         21    1    1    2  503  501  0.60911909774E+02  0.30585570637E+02 -0.16542678514E+02  0.70138420968E+02  0.00000000000E+00 0.  1.
</event>
<event>
 4    1  0.5568520E+002  0.2491575E+02  0.7546771E-02  0.1469748E+00
          2   -1    0    0  502    0  0.00000000000E+00  0.00000000000E+00  0.15563615444E+04  0.15563615444E+04  0.00000000000E+00 0.  1.
         -2   -1    0    0    0  501 -0.00000000000E+00 -0.00000000000E+00 -0.19550026236E+01  0.19550026236E+01  0.00000000000E+00 0. -1.
         21    1    1    2  502  503  0.17542717525E+02 -0.17693159623E+02  0.14723468563E+04  0.14725576593E+04  0.00000000000E+00 0.  1.
         21    1    1    2  503  501 -0.17542717525E+02  0.17693159623E+02  0.82059685478E+02  0.85758887682E+02  0.00000000000E+00 0. -1.
</event>
<event>
 4    1  0.5568520E+002  0.2030786E+02  0.7546771E-02  0.1529380E+00
          2   -1    0    0  502    0  0.00000000000E+00  0.00000000000E+00  0.56695292685E+03  0.56695292685E+03  0.00000000000E+00 0. -1.
         -2   -1    0    0    0  501 -0.00000000000E+00 -0.00000000000E+00 -0.76913030454E+01  0.76913030454E+01  0.00000000000E+00 0.  1.
         21    1    1    2  502  503  0.76336928838E+01  0.18818500500E+02  0.55302862046E+03  0.55340135912E+03  0.00000000000E+00 0. -1.
         21    1    1    2  503  501 -0.76336928838E+01 -0.18818500500E+02  0.62330033457E+01  0.21242870776E+02  0.00000000000E+00 0.  1.
</event>
<event>
 4    1  0.5568520E+002  0.3610080E+02  0.7546771E-02  0.1372985E+00
          2   -1    0    0  503    0  0.00000000000E+00  0.00000000000E+00  0.14938412597E+04  0.14938412597E+04  0.00000000000E+00 0. -1.
         -2   -1    0    0    0  501 -0.00000000000E+00 -0.00000000000E+00 -0.25899339731E+01  0.25899339731E+01  0.00000000000E+00 0.  1.
         21    1    1    2  502  501  0.17314273313E+02  0.31677805465E+02  0.13632497597E+03  0.14102399262E+03  0.00000000000E+00 0.  1.
         21    1    1    2  503  502 -0.17314273313E+02 -0.31677805465E+02  0.13549263497E+04  0.13554072010E+04  0.00000000000E+00 0. -1.
</event>
<event>
 4    1  0.5568520E+002  0.4570543E+02  0.7546771E-02  0.1317949E+00
          2   -1    0    0  503    0  0.00000000000E+00  0.00000000000E+00  0.22402056949E+03  0.22402056949E+03  0.00000000000E+00 0.  1.
         -2   -1    0    0    0  501 -0.00000000000E+00 -0.00000000000E+00 -0.93271121292E+01  0.93271121292E+01  0.00000000000E+00 0. -1.
         21    1    1    2  502  501  0.25201432720E+02  0.38129699159E+02  0.10558055338E+03  0.11504885667E+03  0.00000000000E+00 0.  1.
         21    1    1    2  503  502 -0.25201432720E+02 -0.38129699159E+02  0.10911290398E+03  0.11829882495E+03  0.00000000000E+00 0. -1.
</event>
<event>
 4    1  0.5568520E+002  0.4043150E+02  0.7546771E-02  0.1345976E+00
          2   -1    0    0  502    0  0.00000000000E+00  0.00000000000E+00  0.57618878134E+03  0.57618878134E+03  0.00000000000E+00 0.  1.
         -2   -1    0    0    0  501 -0.00000000000E+00 -0.00000000000E+00 -0.14551154096E+02  0.14551154096E+02  0.00000000000E+00 0. -1.
         21    1    1    2  502  503  0.40129033197E+02 -0.49362720394E+01  0.54583426730E+03  0.54732965702E+03  0.00000000000E+00 0.  1.
         21    1    1    2  503  501 -0.40129033197E+02  0.49362720394E+01  0.15803359938E+02  0.43410278417E+02  0.00000000000E+00 0. -1.
</event>
<event>
 4    1  0.5568520E+002  0.2610863E+02  0.7546771E-02  0.1456774E+00
          2   -1    0    0  503    0  0.00000000000E+00  0.00000000000E+00  0.21071285493E+02  0.21071285493E+02  0.00000000000E+00 0.  1.
         -2   -1    0    0    0  501 -0.00000000000E+00 -0.00000000000E+00 -0.39441709671E+02  0.39441709671E+02  0.00000000000E+00 0. -1.
         21    1    1    2  502  501  0.19648404226E+01  0.26034591352E+02 -0.22014713584E+02  0.34151254135E+02  0.00000000000E+00 0. -1.
         21    1    1    2  503  502 -0.19648404226E+01 -0.26034591352E+02  0.36442894065E+01  0.26361741028E+02  0.00000000000E+00 0.  1.
</event>
<event>
 4    1  0.5568520E+002  0.4067091E+02  0.7546771E-02  0.1344599E+00
          2   -1    0    0  503    0  0.00000000000E+00  0.00000000000E+00  0.70103862315E+02  0.70103862315E+02  0.00000000000E+00 0.  1.
         -2   -1    0    0    0  501 -0.00000000000E+00 -0.00000000000E+00 -0.85460939410E+02  0.85460939410E+02  0.00000000000E+00 0. -1.
         21    1    1    2  502  501  0.30869153170E+01  0.40553588905E+02 -0.73857845985E+02  0.84315502921E+02  0.00000000000E+00 0. -1.
         21    1    1    2  503  502 -0.30869153170E+01 -0.40553588905E+02  0.58500768891E+02  0.71249298804E+02  0.00000000000E+00 0.  1.
</event>
<event>
 4    1  0.5568520E+002  0.2237655E+02  0.7546771E-02  0.1500479E+00
          2   -1    0    0  503    0  0.00000000000E+00  0.00000000000E+00  0.47745448674E+02  0.47745448674E+02  0.00000000000E+00 0. -1.
         -2   -1    0    0    0  501 -0.00000000000E+00 -0.00000000000E+00 -0.11021649631E+02  0.11021649631E+02  0.00000000000E+00 0.  1.
         21    1    1    2  502  501  0.13583158731E+02  0.17782230200E+02  0.24833127986E+02  0.33427446172E+02  0.00000000000E+00 0. -1.
         21    1    1    2  503  502 -0.13583158731E+02 -0.17782230200E+02  0.11890671057E+02  0.25339652133E+02  0.00000000000E+00 0.  1.
</event>
<event>
 4    1  0.5568520E+002  0.3559725E+02  0.7546771E-02  0.1376412E+00
          2   -1    0    0  503    0  0.00000000000E+00  0.00000000000E+00  0.15472370941E+03  0.15472370941E+03  0.00000000000E+00 0.  1.
         -2   -1    0    0    0  501 -0.00000000000E+00 -0.00000000000E+00 -0.82888272704E+01  0.82888272704E+01  0.00000000000E+00 0. -1.
         21    1    1    2  502  501 -0.90638672624E+01  0.34423982955E+02  0.64310929137E+02  0.73505509309E+02  0.00000000000E+00 0.  1.
         21    1    1    2  503  502  0.90638672624E+01 -0.34423982955E+02  0.82123953007E+02  0.89507027376E+02  0.00000000000E+00 0. -1.
</event>
<event>
 4    1  0.5568520E+002  0.2628479E+02  0.7546771E-02  0.1454928E+00
          2   -1    0    0  502    0  0.00000000000E+00  0.00000000000E+00  0.12617863505E+04  0.12617863505E+04  0.00000000000E+00 0. -1.
         -2   -1    0    0    0  501 -0.00000000000E+00 -0.00000000000E+00 -0.79592043814E+00  0.79592043814E+00  0.00000000000E+00 0.  1.
         21    1    1    2  502  503 -0.24293549563E+02 -0.10035616972E+02  0.98314650595E+03  0.98349781003E+03  0.00000000000E+00 0.  1.
         21    1    1    2  503  501  0.24293549563E+02  0.10035616972E+02  0.27784392410E+03  0.27908446091E+03  0.00000000000E+00 0. -1.
</event>
<event>
 4    1  0.5568520E+002  0.2502207E+02  0.7546771E-02  0.1468557E+00
          2   -1    0    0  502    0  0.00000000000E+00  0.00000000000E+00  0.31730942708E+02  0.31730942708E+02  0.00000000000E+00 0.  1.
         -2   -1    0    0    0  501 -0.00000000000E+00 -0.00000000000E+00 -0.75275236343E+02  0.75275236343E+02  0.00000000000E+00 0. -1.
         21    1    1    2  502  503  0.21287508207E+02 -0.13150886669E+02  0.24186767383E+02  0.34800912952E+02  0.00000000000E+00 0.  1.
         21    1    1    2  503  501 -0.21287508207E+02  0.13150886669E+02 -0.67731061018E+02  0.72205266099E+02  0.00000000000E+00 0. -1.
</event>
<event>
 4    1  0.5568520E+002  0.2621969E+02  0.7546771E-02  0.1455608E+00
          2   -1    0    0  502    0  0.00000000000E+00  0.00000000000E+00  0.56648769192E+02  0.56648769192E+02  0.00000000000E+00 0. -1.
         -2   -1    0    0    0  501 -0.00000000000E+00 -0.00000000000E+00 -0.12138437861E+02  0.12138437861E+02  0.00000000000E+00 0.  1.
         21    1    1    2  502  503  0.61285243008E+01  0.25493400597E+02  0.22772009933E+02  0.34728039399E+02  0.00000000000E+00 0. -1.
         21    1    1    2  503  501 -0.61285243008E+01 -0.25493400597E+02  0.21738321398E+02  0.34059167655E+02  0.00000000000E+00 0.  1.
</event>
<event>
 4    1  0.5568520E+002  0.2113720E+02  0.7546771E-02  0.1517315E+00
          2   -1    0    0  502    0  0.00000000000E+00  0.00000000000E+00  0.28636843487E+03  0.28636843487E+03  0.00000000000E+00 0.  1.
         -2   -1    0    0    0  501 -0.00000000000E+00 -0.00000000000E+00 -0.33365711560E+01  0.33365711560E+01  0.00000000000E+00 0. -1.
         21    1    1    2  502  503  0.18692016570E+02  0.98686173186E+01  0.24720920200E+03  0.24811120620E+03  0.00000000000E+00 0.  1.
         21    1    1    2  503  501 -0.18692016570E+02 -0.98686173186E+01  0.35822661711E+02  0.41593799818E+02  0.00000000000E+00 0. -1.
</event>
<event>
 4    1  0.5568520E+002  0.2096068E+02  0.7546771E-02  0.1519827E+00
          2   -1    0    0  503    0  0.00000000000E+00  0.00000000000E+00  0.22795680120E+03  0.22795680120E+03  0.00000000000E+00 0. -1.
         -2   -1    0    0    0  501 -0.00000000000E+00 -0.00000000000E+00 -0.35041895843E+01  0.35041895843E+01  0.00000000000E+00 0.  1.
         21    1    1    2  502  501  0.20897106108E+02 -0.16312279142E+01  0.34592775086E+02  0.40447620898E+02  0.00000000000E+00 0.  1.
         21    1    1    2  503  502 -0.20897106108E+02  0.16312279142E+01  0.18985983653E+03  0.19101336988E+03  0.00000000000E+00 0. -1.
</event>
<event>
 4    1  0.5568520E+002  0.3276492E+02  0.7546771E-02  0.1396996E+00
          2   -1    0    0  502    0  0.00000000000E+00  0.00000000000E+00  0.19031805009E+02  0.19031805009E+02  0.00000000000E+00 0. -1.
         -2   -1    0    0    0  501 -0.00000000000E+00 -0.00000000000E+00 -0.75917135591E+03  0.75917135591E+03  0.00000000000E+00 0.  1.
         21    1    1    2  502  503 -0.10361747584E+02  0.31083339588E+02  0.42973833987E+01  0.33045533995E+02  0.00000000000E+00 0. -1.
         21    1    1    2  503  501  0.10361747584E+02 -0.31083339588E+02 -0.74443693430E+03  0.74515762693E+03  0.00000000000E+00 0.  1.
</event>
<event>
 4    1  0.5568520E+002  0.2128293E+02  0.7546771E-02  0.1515263E+00
          2   -1    0    0  502    0  0.00000000000E+00  0.00000000000E+00  0.38998986850E+03  0.38998986850E+03  0.00000000000E+00 0. -1.
         -2   -1    0    0    0  501 -0.00000000000E+00 -0.00000000000E+00 -0.27740395701E+01  0.27740395701E+01  0.00000000000E+00 0.  1.
         21    1    1    2  502  503 -0.87386254536E+01 -0.19406177042E+02  0.34333620876E+03  0.34399522602E+03  0.00000000000E+00 0. -1.
         21    1    1    2  503  501  0.87386254536E+01  0.19406177042E+02  0.43879620176E+02  0.48768682051E+02  0.00000000000E+00 0.  1.
</event>
<event>
 4    1  0.5568520E+002  0.2512733E+02  0.7546771E-02  0.1467384E+00
          2   -1    0    0  502    0  0.00000000000E+00  0.00000000000E+00  0.13238987322E+02  0.13238987322E+02  0.00000000000E+00 0.  1.
         -2   -1    0    0    0  501 -0.00000000000E+00 -0.00000000000E+00 -0.21777186058E+03  0.21777186058E+03  0.00000000000E+00 0. -1.
         21    1    1    2  502  503 -0.68046726539E+01  0.24188405676E+02 -0.18917108040E+00  0.25128038618E+02  0.00000000000E+00 0.  1.
         21    1    1    2  503  501  0.68046726539E+01 -0.24188405676E+02 -0.20434370218E+03  0.20588280929E+03  0.00000000000E+00 0. -1.
</event>
<event>
 4    1  0.5568520E+002  0.3895385E+02  0.7546771E-02  0.1354728E+00
          2   -1    0    0  503    0  0.00000000000E+00  0.00000000000E+00  0.42737839069E+02  0.42737839069E+02  0.00000000000E+00 0.  1.
         -2   -1    0    0    0  501 -0.00000000000E+00 -0.00000000000E+00 -0.35808704145E+02  0.35808704145E+02  0.00000000000E+00 0. -1.
         21    1    1    2  502  501  0.27303047172E+02 -0.27783923460E+02 -0.15284640669E+00  0.38954154460E+02  0.00000000000E+00 0.  1.
         21    1    1    2  503  502 -0.27303047172E+02  0.27783923460E+02  0.70819813314E+01  0.39592388754E+02  0.00000000000E+00 0. -1.
</event>
<event>
 4    1  0.5568520E+002  0.2059085E+02  0.7546771E-02  0.1525187E+00
          2   -1    0    0  503    0  0.00000000000E+00  0.00000000000E+00  0.31516224372E+03  0.31516224372E+03  0.00000000000E+00 0. -1.
         -2   -1    0    0    0  501 -0.00000000000E+00 -0.00000000000E+00 -0.21139096848E+01  0.21139096848E+01  0.00000000000E+00 0.  1.
         21    1    1    2  502  501 -0.16732457825E+02  0.12000336773E+02  0.60866184583E+02  0.64254771443E+02  0.00000000000E+00 0.  1.
         21    1    1    2  503  502  0.16732457825E+02 -0.12000336773E+02  0.25218214945E+03  0.25302138196E+03  0.00000000000E+00 0. -1.
</event>
<event>
 4    1  0.5568520E+002  0.2761242E+02  0.7546771E-02  0.1441551E+00
          2   -1    0    0  502    0  0.00000000000E+00  0.00000000000E+00  0.65632698868E+02  0.65632698868E+02  0.00000000000E+00 0.  1.
         -2   -1    0    0    0  501 -0.00000000000E+00 -0.00000000000E+00 -0.22590866545E+02  0.22590866545E+02  0.00000000000E+00 0. -1.
         21    1    1    2  502  503 -0.31751433828E+01 -0.27429256622E+02  0.52265657116E+02  0.59111289684E+02  0.00000000000E+00 0.  1.
         21    1    1    2  503  501  0.31751433828E+01  0.27429256622E+02 -0.92238247927E+01  0.29112275729E+02  0.00000000000E+00 0. -1.
</event>
<event>
 4    1  0.5568520E+002  0.2081010E+02  0.7546771E-02  0.1521993E+00
          2   -1    0    0  502    0  0.00000000000E+00  0.00000000000E+00  0.13138905167E+04  0.13138905167E+04  0.00000000000E+00 0. -1.
         -2   -1    0    0    0  501 -0.00000000000E+00 -0.00000000000E+00 -0.33431158735E+00  0.33431158735E+00  0.00000000000E+00 0.  1.
         21    1    1    2  502  503  0.89081301552E+00  0.20791027044E+02  0.57878143571E+03  0.57915542877E+03  0.00000000000E+00 0. -1.
         21    1    1    2  503  501 -0.89081301552E+00 -0.20791027044E+02  0.73477476940E+03  0.73506939951E+03  0.00000000000E+00 0.  1.
</event>
<event>
 4    1  0.5568520E+002  0.5523238E+02  0.7546771E-02  0.1276952E+00
          2   -1    0    0  502    0  0.00000000000E+00  0.00000000000E+00  0.22681754872E+03  0.22681754872E+03  0.00000000000E+00 0. -1.
         -2   -1    0    0    0  501 -0.00000000000E+00 -0.00000000000E+00 -0.27907481179E+02  0.27907481179E+02  0.00000000000E+00 0.  1.
         21    1    1    2  502  503 -0.52310976821E+02  0.17725060643E+02  0.19112623422E+03  0.19894686094E+03  0.00000000000E+00 0. -1.
         21    1    1    2  503  501  0.52310976821E+02 -0.17725060643E+02  0.77838333150E+01  0.55778168954E+02  0.00000000000E+00 0.  1.
</event>
<event>
 4    1  0.5568520E+002  0.3540698E+02  0.7546771E-02  0.1377724E+00
          2   -1    0    0  503    0  0.00000000000E+00  0.00000000000E+00  0.76895689900E+02  0.76895689900E+02  0.00000000000E+00 0. -1.
         -2   -1    0    0    0  501 -0.00000000000E+00 -0.00000000000E+00 -0.29114714601E+02  0.29114714601E+02  0.00000000000E+00 0.  1.
         21    1    1    2  502  501 -0.11155730721E+02  0.33603632281E+02 -0.11270459510E+02  0.37157471496E+02  0.00000000000E+00 0.  1.
         21    1    1    2  503  502  0.11155730721E+02 -0.33603632281E+02  0.59051434809E+02  0.68852933005E+02  0.00000000000E+00 0. -1.
</event>
<event>
 4    1  0.5568520E+002  0.4540247E+02  0.7546771E-02  0.1319439E+00
          2   -1    0    0  502    0  0.00000000000E+00  0.00000000000E+00  0.62191930911E+03  0.62191930911E+03  0.00000000000E+00 0.  1.
         -2   -1    0    0    0  501 -0.00000000000E+00 -0.00000000000E+00 -0.12611465275E+02  0.12611465275E+02  0.00000000000E+00 0. -1.
         21    1    1    2  502  503  0.39487784890E+02 -0.22407562997E+02  0.57705530262E+03  0.57883867037E+03  0.00000000000E+00 0.  1.
         21    1    1    2  503  501 -0.39487784890E+02  0.22407562997E+02  0.32252541219E+02  0.55692104019E+02  0.00000000000E+00 0. -1.
</event>
<event>
 4    1  0.5568520E+002  0.2076102E+02  0.7546771E-02  0.1522704E+00
          2   -1    0    0  502    0  0.00000000000E+00  0.00000000000E+00  0.12252360633E+04  0.12252360633E+04  0.00000000000E+00 0. -1.
         -2   -1    0    0    0  501 -0.00000000000E+00 -0.00000000000E+00 -0.92494660788E+00  0.92494660788E+00  0.00000000000E+00 0.  1.
         21    1    1    2  502  503 -0.51634580101E+00 -0.20754602126E+02  0.10947669626E+04  0.10949637997E+04  0.00000000000E+00 0. -1.
         21    1    1    2  503  501  0.51634580101E+00  0.20754602126E+02  0.12954415405E+03  0.13119721022E+03  0.00000000000E+00 0.  1.
</event>
<event>
 4    1  0.5568520E+002  0.3002095E+02  0.7546771E-02  0.1419415E+00
          2   -1    0    0  502    0  0.00000000000E+00  0.00000000000E+00  0.26720339138E+03  0.26720339138E+03  0.00000000000E+00 0.  1.
         -2   -1    0    0    0  501 -0.00000000000E+00 -0.00000000000E+00 -0.61773504172E+01  0.61773504172E+01  0.00000000000E+00 0. -1.
         21    1    1    2  502  503  0.30017980195E+02 -0.42232029438E+00  0.22261280374E+03  0.22462795435E+03  0.00000000000E+00 0.  1.
         21    1    1    2  503  501 -0.30017980195E+02  0.42232029438E+00  0.38413237228E+02  0.48752787446E+02  0.00000000000E+00 0. -1.
</event>
<event>
 4    1  0.5568520E+002  0.2385353E+02  0.7546771E-02  0.1482050E+00
          2   -1    0    0  503    0  0.00000000000E+00  0.00000000000E+00  0.77882543058E+00  0.77882543058E+00  0.00000000000E+00 0.  1.
         -2   -1    0    0    0  501 -0.00000000000E+00 -0.00000000000E+00 -0.73247442808E+03  0.73247442808E+03  0.00000000000E+00 0. -1.
         21    1    1    2  502  501  0.23323304119E+02  0.50014224949E+01 -0.34718024943E+03  0.34799873037E+03  0.00000000000E+00 0.  1.
         21    1    1    2  503  502 -0.23323304119E+02 -0.50014224949E+01 -0.38451535322E+03  0.38525452314E+03  0.00000000000E+00 0. -1.
</event>
<event>
 4    1  0.5568520E+002  0.2109656E+02  0.7546771E-02  0.1517891E+00
          2   -1    0    0  502    0  0.00000000000E+00  0.00000000000E+00  0.20047540248E+04  0.20047540248E+04  0.00000000000E+00 0. -1.
         -2   -1    0    0    0  501 -0.00000000000E+00 -0.00000000000E+00 -0.25768641449E+00  0.25768641449E+00  0.00000000000E+00 0.  1.
         21    1    1    2  502  503  0.12460214101E+02  0.17023748018E+02  0.13752952630E+04  0.13754570605E+04  0.00000000000E+00 0.  1.
         21    1    1    2  503  501 -0.12460214101E+02 -0.17023748018E+02  0.62920107545E+03  0.62955465075E+03  0.00000000000E+00 0. -1.
</event>
<event>
 4    1  0.5568520E+002  0.5018111E+02  0.7546771E-02  0.1297389E+00
          2   -1    0    0  502    0  0.00000000000E+00  0.00000000000E+00  0.11649372339E+04  0.11649372339E+04  0.00000000000E+00 0.  1.
         -2   -1    0    0    0  501 -0.00000000000E+00 -0.00000000000E+00 -0.92262515601E+01  0.92262515601E+01  0.00000000000E+00 0. -1.
         21    1    1    2  502  503 -0.29627389059E+02 -0.40501372747E+02  0.10915807327E+04  0.10927335628E+04  0.00000000000E+00 0.  1.
         21    1    1    2  503  501  0.29627389059E+02  0.40501372747E+02  0.64130249623E+02  0.81429922593E+02  0.00000000000E+00 0. -1.
</event>
<event>
 4    1  0.5568520E+002  0.2478717E+02  0.7546771E-02  0.1471198E+00
          2   -1    0    0  503    0  0.00000000000E+00  0.00000000000E+00  0.18771186449E+03  0.18771186449E+03  0.00000000000E+00 0. -1.
         -2   -1    0    0    0  501 -0.00000000000E+00 -0.00000000000E+00 -0.50043713514E+01  0.50043713514E+01  0.00000000000E+00 0.  1.
         21    1    1    2  502  501  0.20074497799E+02 -0.14540239694E+02  0.34678525473E+02  0.42626331783E+02  0.00000000000E+00 0.  1.
         21    1    1    2  503  502 -0.20074497799E+02  0.14540239694E+02  0.14802896766E+03  0.15008990405E+03  0.00000000000E+00 0. -1.
</event>
<event>
 4    1  0.5568520E+002  0.3129762E+02  0.7546771E-02  0.1408646E+00
          2   -1    0    0  503    0  0.00000000000E+00  0.00000000000E+00  0.47877125353E+01  0.47877125353E+01  0.00000000000E+00 0.  1.
         -2   -1    0    0    0  501 -0.00000000000E+00 -0.00000000000E+00 -0.23817166789E+03  0.23817166789E+03  0.00000000000E+00 0. -1.
         21    1    1    2  502  501  0.31295197672E+02  0.38956074278E+00 -0.16230392648E+03  0.16529399779E+03  0.00000000000E+00 0. -1.
         21    1    1    2  503  502 -0.31295197672E+02 -0.38956074278E+00 -0.71080028876E+02  0.77665382635E+02  0.00000000000E+00 0.  1.
</event>
<event>
 4    1  0.5568520E+002  0.2823873E+02  0.7546771E-02  0.1435547E+00
          2   -1    0    0  502    0  0.00000000000E+00  0.00000000000E+00  0.25160560984E+03  0.25160560984E+03  0.00000000000E+00 0. -1.
         -2   -1    0    0    0  501 -0.00000000000E+00 -0.00000000000E+00 -0.34934935107E+01  0.34934935107E+01  0.00000000000E+00 0.  1.
         21    1    1    2  502  503 -0.19786235124E+02  0.20147721071E+02  0.16290855163E+03  0.16533790236E+03  0.00000000000E+00 0. -1.
         21    1    1    2  503  501  0.19786235124E+02 -0.20147721071E+02  0.85203564708E+02  0.89761200993E+02  0.00000000000E+00 0.  1.
</event>
<event>
 4    1  0.5568520E+002  0.2085006E+02  0.7546771E-02  0.1521416E+00
          2   -1    0    0  503    0  0.00000000000E+00  0.00000000000E+00  0.87406340515E+02  0.87406340515E+02  0.00000000000E+00 0.  1.
         -2   -1    0    0    0  501 -0.00000000000E+00 -0.00000000000E+00 -0.14450600938E+02  0.14450600938E+02  0.00000000000E+00 0. -1.
         21    1    1    2  502  501 -0.20229242618E+02  0.50500395261E+01 -0.47653807287E+01  0.21387706974E+02  0.00000000000E+00 0. -1.
         21    1    1    2  503  502  0.20229242618E+02 -0.50500395261E+01  0.77721120305E+02  0.80469234479E+02  0.00000000000E+00 0.  1.
</event>
<event>
 4    1  0.5568520E+002  0.2317608E+02  0.7546771E-02  0.1490299E+00
          2   -1    0    0  503    0  0.00000000000E+00  0.00000000000E+00  0.11779403220E+02  0.11779403220E+02  0.00000000000E+00 0.  1.
         -2   -1    0    0    0  501 -0.00000000000E+00 -0.00000000000E+00 -0.50134243690E+02  0.50134243690E+02  0.00000000000E+00 0. -1.
         21    1    1    2  502  501 -0.11778008395E+02 -0.19960192913E+02 -0.28488118524E+02  0.36724701223E+02  0.00000000000E+00 0. -1.
         21    1    1    2  503  502  0.11778008395E+02  0.19960192913E+02 -0.98667219458E+01  0.25188945687E+02  0.00000000000E+00 0.  1.
</event>
<event>
 4    1  0.5568520E+002  0.3840669E+02  0.7546771E-02  0.1358084E+00
          2   -1    0    0  503    0  0.00000000000E+00  0.00000000000E+00  0.70863301479E+01  0.70863301479E+01  0.00000000000E+00 0. -1.
         -2   -1    0    0    0  501 -0.00000000000E+00 -0.00000000000E+00 -0.21396653629E+03  0.21396653629E+03  0.00000000000E+00 0.  1.
         21    1    1    2  502  501  0.33602312029E+02  0.18599963799E+02 -0.12165130579E+03  0.12757003656E+03  0.00000000000E+00 0.  1.
         21    1    1    2  503  502 -0.33602312029E+02 -0.18599963799E+02 -0.85228900348E+02  0.93482829876E+02  0.00000000000E+00 0. -1.
</event>
<event>
 4    1  0.5568520E+002  0.3171753E+02  0.7546771E-02  0.1405236E+00
          2   -1    0    0  502    0  0.00000000000E+00  0.00000000000E+00  0.17822930524E+03  0.17822930524E+03  0.00000000000E+00 0. -1.
         -2   -1    0    0    0  501 -0.00000000000E+00 -0.00000000000E+00 -0.63200378908E+01  0.63200378908E+01  0.00000000000E+00 0.  1.
         21    1    1    2  502  503  0.11164169486E+02 -0.29687757086E+02  0.55784846045E+02  0.64171260307E+02  0.00000000000E+00 0. -1.
         21    1    1    2  503  501 -0.11164169486E+02  0.29687757086E+02  0.11612442131E+03  0.12037808283E+03  0.00000000000E+00 0.  1.
</event>
<event>
 4    1  0.5568520E+002  0.3141138E+02  0.7546771E-02  0.1407716E+00
          2   -1    0    0  503    0  0.00000000000E+00  0.00000000000E+00  0.49466546436E+03  0.49466546436E+03  0.00000000000E+00 0.  1.
         -2   -1    0    0    0  501 -0.00000000000E+00 -0.00000000000E+00 -0.20484849105E+01  0.20484849105E+01  0.00000000000E+00 0. -1.
         21    1    1    2  502  501 -0.17132507061E+02 -0.26327775145E+02  0.20603929931E+03  0.20841993043E+03  0.00000000000E+00 0.  1.
         21    1    1    2  503  502  0.17132507061E+02  0.26327775145E+02  0.28657768014E+03  0.28829401884E+03  0.00000000000E+00 0. -1.
</event>
<event>
 4    1  0.5568520E+002  0.3321518E+02  0.7546771E-02  0.1393565E+00
          2   -1    0    0  503    0  0.00000000000E+00  0.00000000000E+00  0.31283558148E+03  0.31283558148E+03  0.00000000000E+00 0.  1.
         -2   -1    0    0    0  501 -0.00000000000E+00 -0.00000000000E+00 -0.71019492585E+01  0.71019492585E+01  0.00000000000E+00 0. -1.
         21    1    1    2  502  501  0.21133923394E+02 -0.25624318347E+02  0.39364382984E+02  0.51505369201E+02  0.00000000000E+00 0. -1.
         21    1    1    2  503  502 -0.21133923394E+02  0.25624318347E+02  0.26636924924E+03  0.26843216154E+03  0.00000000000E+00 0.  1.
</event>
<event>
 4    1  0.5568520E+002  0.3558397E+02  0.7546771E-02  0.1376504E+00
          2   -1    0    0  502    0  0.00000000000E+00  0.00000000000E+00  0.80962199660E+02  0.80962199660E+02  0.00000000000E+00 0.  1.
         -2   -1    0    0    0  501 -0.00000000000E+00 -0.00000000000E+00 -0.25896937302E+02  0.25896937302E+02  0.00000000000E+00 0. -1.
         21    1    1    2  502  503  0.32332741328E+02 -0.14859758061E+02  0.61158554585E+02  0.70757242529E+02  0.00000000000E+00 0.  1.
         21    1    1    2  503  501 -0.32332741328E+02  0.14859758061E+02 -0.60932922269E+01  0.36101894432E+02  0.00000000000E+00 0. -1.
</event>
<event>
 4    1  0.5568520E+002  0.3861607E+02  0.7546771E-02  0.1356792E+00
          2   -1    0    0  502    0  0.00000000000E+00  0.00000000000E+00  0.63130817872E+01  0.63130817872E+01  0.00000000000E+00 0. -1.
         -2   -1    0    0    0  501 -0.00000000000E+00 -0.00000000000E+00 -0.24211807108E+03  0.24211807108E+03  0.00000000000E+00 0.  1.
         21    1    1    2  502  503 -0.37982012422E+02  0.69690438423E+01 -0.98495585083E+02  0.10579499573E+03  0.00000000000E+00 0. -1.
         21    1    1    2  503  501  0.37982012422E+02 -0.69690438423E+01 -0.13730940421E+03  0.14263615714E+03  0.00000000000E+00 0.  1.
</event>
<event>
 4    1  0.5568520E+002  0.3775141E+02  0.7546771E-02  0.1362191E+00
          2   -1    0    0  503    0  0.00000000000E+00  0.00000000000E+00  0.18413036401E+03  0.18413036401E+03  0.00000000000E+00 0.  1.
         -2   -1    0    0    0  501 -0.00000000000E+00 -0.00000000000E+00 -0.79038182769E+01  0.79038182769E+01  0.00000000000E+00 0. -1.
         21    1    1    2  502  501  0.18038062211E+02 -0.33163193501E+02  0.74290005285E+02  0.83331710511E+02  0.00000000000E+00 0. -1.
         21    1    1    2  503  502 -0.18038062211E+02  0.33163193501E+02  0.10193654045E+03  0.10870247178E+03  0.00000000000E+00 0.  1.
</event>
<event>
 4    1  0.5568520E+002  0.2430776E+02  0.7546771E-02  0.1476698E+00
          2   -1    0    0  503    0  0.00000000000E+00  0.00000000000E+00  0.59518621248E+02  0.59518621248E+02  0.00000000000E+00 0. -1.
         -2   -1    0    0    0  501 -0.00000000000E+00 -0.00000000000E+00 -0.13233558343E+02  0.13233558343E+02  0.00000000000E+00 0.  1.
         21    1    1    2  502  501  0.13715795425E+02 -0.20068490204E+02  0.49607216122E+01  0.24808790824E+02  0.00000000000E+00 0.  1.
         21    1    1    2  503  502 -0.13715795425E+02  0.20068490204E+02  0.41324341293E+02  0.47943388768E+02  0.00000000000E+00 0. -1.
</event>
<event>
 4    1  0.5568520E+002  0.2741325E+02  0.7546771E-02  0.1443501E+00
          2   -1    0    0  502    0  0.00000000000E+00  0.00000000000E+00  0.15722371365E+04  0.15722371365E+04  0.00000000000E+00 0. -1.
         -2   -1    0    0    0  501 -0.00000000000E+00 -0.00000000000E+00 -0.25871407354E+01  0.25871407354E+01  0.00000000000E+00 0.  1.
         21    1    1    2  502  503  0.12738553514E+02  0.24273760844E+02  0.14957891168E+04  0.14960402963E+04  0.00000000000E+00 0. -1.
         21    1    1    2  503  501 -0.12738553514E+02 -0.24273760844E+02  0.73860878991E+02  0.78783980963E+02  0.00000000000E+00 0.  1.
</event>
<event>
 4    1  0.5568520E+002  0.3436300E+02  0.7546771E-02  0.1385098E+00
          2   -1    0    0  503    0  0.00000000000E+00  0.00000000000E+00  0.45131368370E+03  0.45131368370E+03  0.00000000000E+00 0. -1.
         -2   -1    0    0    0  501 -0.00000000000E+00 -0.00000000000E+00 -0.26569347958E+01  0.26569347958E+01  0.00000000000E+00 0.  1.
         21    1    1    2  502  501  0.29738006208E+02 -0.17218216227E+02  0.25236558567E+03  0.25469433604E+03  0.00000000000E+00 0. -1.
         21    1    1    2  503  502 -0.29738006208E+02  0.17218216227E+02  0.19629116324E+03  0.19927628245E+03  0.00000000000E+00 0.  1.
</event>
<event>
 4    1  0.5568520E+002  0.3377580E+02  0.7546771E-02  0.1389380E+00
          2   -1    0    0  502    0  0.00000000000E+00  0.00000000000E+00  0.66259867028E+03  0.66259867028E+03  0.00000000000E+00 0.  1.
         -2   -1    0    0    0  501 -0.00000000000E+00 -0.00000000000E+00 -0.36097693540E+01  0.36097693540E+01  0.00000000000E+00 0. -1.
         21    1    1    2  502  503 -0.14199029245E+02 -0.30646238580E+02  0.57040063478E+03  0.57139976245E+03  0.00000000000E+00 0.  1.
         21    1    1    2  503  501  0.14199029245E+02  0.30646238580E+02  0.88588266143E+02  0.94808677181E+02  0.00000000000E+00 0. -1.
</event>
<event>
 4    1  0.5568520E+002  0.3252087E+02  0.7546771E-02  0.1398883E+00
          2   -1    0    0  502    0  0.00000000000E+00  0.00000000000E+00  0.12733007543E+04  0.12733007543E+04  0.00000000000E+00 0.  1.
         -2   -1    0    0    0  501 -0.00000000000E+00 -0.00000000000E+00 -0.20835151335E+01  0.20835151335E+01  0.00000000000E+00 0. -1.
         21    1    1    2  502  503  0.31787033671E+02 -0.68696143680E+01  0.11301163456E+04  0.11305841683E+04  0.00000000000E+00 0.  1.
         21    1    1    2  503  501 -0.31787033671E+02  0.68696143680E+01  0.14110089358E+03  0.14480010110E+03  0.00000000000E+00 0. -1.
</event>
<event>
 4    1  0.5568520E+002  0.2057091E+02  0.7546771E-02  0.1525480E+00
          2   -1    0    0  503    0  0.00000000000E+00  0.00000000000E+00  0.11052494742E+02  0.11052494742E+02  0.00000000000E+00 0.  1.
         -2   -1    0    0    0  501 -0.00000000000E+00 -0.00000000000E+00 -0.13417285876E+03  0.13417285876E+03  0.00000000000E+00 0. -1.
         21    1    1    2  502  501  0.18972049442E+02 -0.79513260130E+01 -0.12294462763E+03  0.12465369512E+03  0.00000000000E+00 0. -1.
         21    1    1    2  503  502 -0.18972049442E+02  0.79513260130E+01 -0.17573639524E+00  0.20571658384E+02  0.00000000000E+00 0.  1.
</event>
<event>
 4    1  0.5568520E+002  0.2634200E+02  0.7546771E-02  0.1454332E+00
          2   -1    0    0  502    0  0.00000000000E+00  0.00000000000E+00  0.12114767483E+04  0.12114767483E+04  0.00000000000E+00 0.  1.
         -2   -1    0    0    0  501 -0.00000000000E+00 -0.00000000000E+00 -0.40331866277E+01  0.40331866277E+01  0.00000000000E+00 0. -1.
         21    1    1    2  502  503 -0.23761381877E+02  0.11370913526E+02  0.11666699053E+04  0.11669672527E+04  0.00000000000E+00 0.  1.
         21    1    1    2  503  501  0.23761381877E+02 -0.11370913526E+02  0.40773656327E+02  0.48542682182E+02  0.00000000000E+00 0. -1.
</event>
<event>
 4    1  0.5568520E+002  0.3337257E+02  0.7546771E-02  0.1392380E+00
          2   -1    0    0  502    0  0.00000000000E+00  0.00000000000E+00  0.96049208694E+01  0.96049208694E+01  0.00000000000E+00 0. -1.
         -2   -1    0    0    0  501 -0.00000000000E+00 -0.00000000000E+00 -0.11674234445E+03  0.11674234445E+03  0.00000000000E+00 0.  1.
         21    1    1    2  502  503  0.15175185102E+02  0.29722753292E+02 -0.58760289892E+02  0.67575883082E+02  0.00000000000E+00 0.  1.
         21    1    1    2  503  501 -0.15175185102E+02 -0.29722753292E+02 -0.48377133690E+02  0.58771382239E+02  0.00000000000E+00 0. -1.
</event>
<event>
 4    1  0.5568520E+002  0.2922427E+02  0.7546771E-02  0.1426459E+00
          2   -1    0    0  503    0  0.00000000000E+00  0.00000000000E+00  0.20292698852E+04  0.20292698852E+04  0.00000000000E+00 0.  1.
         -2   -1    0    0    0  501 -0.00000000000E+00 -0.00000000000E+00 -0.42242620002E+00  0.42242620002E+00  0.00000000000E+00 0. -1.
         21    1    1    2  502  501 -0.27766483471E+02  0.91148511575E+01  0.10760272691E+04  0.10764240530E+04  0.00000000000E+00 0. -1.
         21    1    1    2  503  502  0.27766483471E+02 -0.91148511575E+01  0.95282018995E+03  0.95326825841E+03  0.00000000000E+00 0.  1.
</event>
<event>
 4    1  0.5568520E+002  0.2889092E+02  0.7546771E-02  0.1429485E+00
          2   -1    0    0  503    0  0.00000000000E+00  0.00000000000E+00  0.38315579632E+03  0.38315579632E+03  0.00000000000E+00 0.  1.
         -2   -1    0    0    0  501 -0.00000000000E+00 -0.00000000000E+00 -0.21874543752E+01  0.21874543752E+01  0.00000000000E+00 0. -1.
         21    1    1    2  502  501  0.10280709447E+02 -0.26999859809E+02  0.17812197284E+03  0.18044977868E+03  0.00000000000E+00 0. -1.
         21    1    1    2  503  502 -0.10280709447E+02  0.26999859809E+02  0.20284636910E+03  0.20489347201E+03  0.00000000000E+00 0.  1.
</event>
<event>
 4    1  0.5568520E+002  0.3231941E+02  0.7546771E-02  0.1400456E+00
          2   -1    0    0  502    0  0.00000000000E+00  0.00000000000E+00  0.13646311714E+04  0.13646311714E+04  0.00000000000E+00 0. -1.
         -2   -1    0    0    0  501 -0.00000000000E+00 -0.00000000000E+00 -0.10149355723E+01  0.10149355723E+01  0.00000000000E+00 0.  1.
         21    1    1    2  502  503  0.12217890850E+02 -0.29921021494E+02  0.10203556543E+04  0.10208673791E+04  0.00000000000E+00 0. -1.
         21    1    1    2  503  501 -0.12217890850E+02  0.29921021494E+02  0.34326058147E+03  0.34477872785E+03  0.00000000000E+00 0.  1.
</event>
<event>
 4    1  0.5568520E+002  0.6231282E+02  0.7546771E-02  0.1252171E+00
          2   -1    0    0  503    0  0.00000000000E+00  0.00000000000E+00  0.37217450426E+04  0.37217450426E+04  0.00000000000E+00 0. -1.
         -2   -1    0    0    0  501 -0.00000000000E+00 -0.00000000000E+00 -0.10432995478E+01  0.10432995478E+01  0.00000000000E+00 0.  1.
         21    1    1    2  502  501 -0.29511328942E+02 -0.54881410750E+02  0.18578271107E+04  0.18588718248E+04  0.00000000000E+00 0.  1.
         21    1    1    2  503  502  0.29511328942E+02  0.54881410750E+02  0.18628746323E+04  0.18639165173E+04  0.00000000000E+00 0. -1.
</event>
<event>
 4    1  0.5568520E+002  0.2277311E+02  0.7546771E-02  0.1495367E+00
          2   -1    0    0  503    0  0.00000000000E+00  0.00000000000E+00  0.12341152929E+04  0.12341152929E+04  0.00000000000E+00 0. -1.
         -2   -1    0    0    0  501 -0.00000000000E+00 -0.00000000000E+00 -0.57327416339E+00  0.57327416339E+00  0.00000000000E+00 0.  1.
         21    1    1    2  502  501 -0.42278154772E+01 -0.22377218877E+02  0.29779924387E+03  0.29866871948E+03  0.00000000000E+00 0.  1.
         21    1    1    2  503  502  0.42278154772E+01  0.22377218877E+02  0.93574277487E+03  0.93601984759E+03  0.00000000000E+00 0. -1.
</event>
<event>
 4    1  0.5568520E+002  0.2090262E+02  0.7546771E-02  0.1520660E+00
          2   -1    0    0  502    0  0.00000000000E+00  0.00000000000E+00  0.52744221888E+03  0.52744221888E+03  0.00000000000E+00 0.  1.
         -2   -1    0    0    0  501 -0.00000000000E+00 -0.00000000000E+00 -0.64310993820E+01  0.64310993820E+01  0.00000000000E+00 0. -1.
         21    1    1    2  502  503 -0.15677205552E+02 -0.13825516832E+02  0.50965806505E+03  0.51008652498E+03  0.00000000000E+00 0.  1.
         21    1    1    2  503  501  0.15677205552E+02  0.13825516832E+02  0.11353054447E+02  0.23786793287E+02  0.00000000000E+00 0. -1.
</event>
<event>
 4    1  0.5568520E+002  0.2267532E+02  0.7546771E-02  0.1496616E+00
          2   -1    0    0  503    0  0.00000000000E+00  0.00000000000E+00  0.93825384237E+03  0.93825384237E+03  0.00000000000E+00 0. -1.
         -2   -1    0    0    0  501 -0.00000000000E+00 -0.00000000000E+00 -0.86432404460E+00  0.86432404460E+00  0.00000000000E+00 0.  1.
         21    1    1    2  502  501 -0.19290965653E+02 -0.11917577636E+02  0.18463285258E+03  0.18602005339E+03  0.00000000000E+00 0.  1.
         21    1    1    2  503  502  0.19290965653E+02  0.11917577636E+02  0.75275666575E+03  0.75309811302E+03  0.00000000000E+00 0. -1.
</event>
<event>
 4    1  0.5568520E+002  0.2035239E+02  0.7546771E-02  0.1528715E+00
          2   -1    0    0  502    0  0.00000000000E+00  0.00000000000E+00  0.76622607609E+01  0.76622607609E+01  0.00000000000E+00 0.  1.
         -2   -1    0    0    0  501 -0.00000000000E+00 -0.00000000000E+00 -0.42848541432E+03  0.42848541432E+03  0.00000000000E+00 0. -1.
         21    1    1    2  502  503 -0.19297217421E+02  0.64681637596E+01 -0.65579881900E+01  0.21382865845E+02  0.00000000000E+00 0.  1.
         21    1    1    2  503  501  0.19297217421E+02 -0.64681637596E+01 -0.41426516537E+03  0.41476480924E+03  0.00000000000E+00 0. -1.
</event>
<event>
 4    1  0.5568520E+002  0.3900114E+02  0.7546771E-02  0.1354441E+00
          2   -1    0    0  503    0  0.00000000000E+00  0.00000000000E+00  0.16890627209E+02  0.16890627209E+02  0.00000000000E+00 0.  1.
         -2   -1    0    0    0  501 -0.00000000000E+00 -0.00000000000E+00 -0.10327732741E+03  0.10327732741E+03  0.00000000000E+00 0. -1.
         21    1    1    2  502  501 -0.35536149114E+01 -0.38838911390E+02 -0.64691765623E+02  0.75538822842E+02  0.00000000000E+00 0.  1.
         21    1    1    2  503  502  0.35536149114E+01  0.38838911390E+02 -0.21694934579E+02  0.44629131778E+02  0.00000000000E+00 0. -1.
</event>
<event>
 4    1  0.5568520E+002  0.4429205E+02  0.7546771E-02  0.1325018E+00
          2   -1    0    0  503    0  0.00000000000E+00  0.00000000000E+00  0.48194363647E+03  0.48194363647E+03  0.00000000000E+00 0.  1.
         -2   -1    0    0    0  501 -0.00000000000E+00 -0.00000000000E+00 -0.50129448437E+01  0.50129448437E+01  0.00000000000E+00 0. -1.
         21    1    1    2  502  501 -0.43412286368E+02  0.87840483323E+01  0.13289906081E+03  0.14008549702E+03  0.00000000000E+00 0. -1.
         21    1    1    2  503  502  0.43412286368E+02 -0.87840483323E+01  0.34403163082E+03  0.34687108429E+03  0.00000000000E+00 0.  1.
</event>
<event>
 4    1  0.5568520E+002  0.3361951E+02  0.7546771E-02  0.1390537E+00
          2   -1    0    0  502    0  0.00000000000E+00  0.00000000000E+00  0.77194197871E+02  0.77194197871E+02  0.00000000000E+00 0. -1.
         -2   -1    0    0    0  501 -0.00000000000E+00 -0.00000000000E+00 -0.71278039415E+02  0.71278039415E+02  0.00000000000E+00 0.  1.
         21    1    1    2  502  503  0.33501697699E+02 -0.28120632988E+01  0.69131581411E+02  0.76872927595E+02  0.00000000000E+00 0. -1.
         21    1    1    2  503  501 -0.33501697699E+02  0.28120632988E+01 -0.63215422955E+02  0.71599309690E+02  0.00000000000E+00 0.  1.
</event>
<event>
 4    1  0.5568520E+002  0.2576888E+02  0.7546771E-02  0.1460383E+00
          2   -1    0    0  503    0  0.00000000000E+00  0.00000000000E+00  0.76952452504E+03  0.76952452504E+03  0.00000000000E+00 0.  1.
         -2   -1    0    0    0  501 -0.00000000000E+00 -0.00000000000E+00 -0.17718940960E+01  0.17718940960E+01  0.00000000000E+00 0. -1.
         21    1    1    2  502  501 -0.25727040701E+02  0.14678332305E+01  0.10766014060E+03  0.11070113383E+03  0.00000000000E+00 0. -1.
         21    1    1    2  503  502  0.25727040701E+02 -0.14678332305E+01  0.66009249034E+03  0.66059528530E+03  0.00000000000E+00 0.  1.
</event>
<event>
 4    1  0.5568520E+002  0.2077309E+02  0.7546771E-02  0.1522529E+00
          2   -1    0    0  502    0  0.00000000000E+00  0.00000000000E+00  0.30209247772E+01  0.30209247772E+01  0.00000000000E+00 0. -1.
         -2   -1    0    0    0  501 -0.00000000000E+00 -0.00000000000E+00 -0.26513889592E+03  0.26513889592E+03  0.00000000000E+00 0.  1.
         21    1    1    2  502  503 -0.20644864548E+02 -0.23045096400E+01 -0.39998276677E+02  0.45070870127E+02  0.00000000000E+00 0. -1.
         21    1    1    2  503  501  0.20644864548E+02  0.23045096400E+01 -0.22211969447E+03  0.22308895057E+03  0.00000000000E+00 0.  1.
</event>
<event>
 4    1  0.5568520E+002  0.3660901E+02  0.7546771E-02  0.1369591E+00
          2   -1    0    0  502    0  0.00000000000E+00  0.00000000000E+00  0.13526116324E+04  0.13526116324E+04  0.00000000000E+00 0. -1.
         -2   -1    0    0    0  501 -0.00000000000E+00 -0.00000000000E+00 -0.20099519249E+01  0.20099519249E+01  0.00000000000E+00 0.  1.
         21    1    1    2  502  503 -0.35378253795E+02 -0.94126873544E+01  0.11575888296E+04  0.11581675690E+04  0.00000000000E+00 0. -1.
         21    1    1    2  503  501  0.35378253795E+02  0.94126873544E+01  0.19301285088E+03  0.19645401531E+03  0.00000000000E+00 0.  1.
</event>
<event>
 4    1  0.5568520E+002  0.3627281E+02  0.7546771E-02  0.1371829E+00
          2   -1    0    0  503    0  0.00000000000E+00  0.00000000000E+00  0.25399820344E+03  0.25399820344E+03  0.00000000000E+00 0. -1.
         -2   -1    0    0    0  501 -0.00000000000E+00 -0.00000000000E+00 -0.55479996761E+02  0.55479996761E+02  0.00000000000E+00 0.  1.
         21    1    1    2  502  501 -0.26020847020E+02 -0.25271171193E+02 -0.48079222892E+02  0.60227304829E+02  0.00000000000E+00 0.  1.
         21    1    1    2  503  502  0.26020847020E+02  0.25271171193E+02  0.24659742957E+03  0.24925089537E+03  0.00000000000E+00 0. -1.
</event>
<event>
 4    1  0.5568520E+002  0.3337829E+02  0.7546771E-02  0.1392337E+00
          2   -1    0    0  502    0  0.00000000000E+00  0.00000000000E+00  0.22310795554E+03  0.22310795554E+03  0.00000000000E+00 0.  1.
         -2   -1    0    0    0  501 -0.00000000000E+00 -0.00000000000E+00 -0.69539235620E+01  0.69539235620E+01  0.00000000000E+00 0. -1.
         21    1    1    2  502  503 -0.32917579289E+02 -0.55265978131E+01  0.16915214229E+03  0.17241391345E+03  0.00000000000E+00 0.  1.
         21    1    1    2  503  501  0.32917579289E+02  0.55265978131E+01  0.47001889686E+02  0.57647965651E+02  0.00000000000E+00 0. -1.
</event>
<event>
 4    1  0.5568520E+002  0.2896850E+02  0.7546771E-02  0.1428777E+00
          2   -1    0    0  503    0  0.00000000000E+00  0.00000000000E+00  0.27206475530E+03  0.27206475530E+03  0.00000000000E+00 0. -1.
         -2   -1    0    0    0  501 -0.00000000000E+00 -0.00000000000E+00 -0.91759081419E+01  0.91759081419E+01  0.00000000000E+00 0.  1.
         21    1    1    2  502  501  0.14828359098E+02  0.24885612700E+02  0.16871044645E+02  0.33523217334E+02  0.00000000000E+00 0.  1.
         21    1    1    2  503  502 -0.14828359098E+02 -0.24885612700E+02  0.24601780251E+03  0.24771744611E+03  0.00000000000E+00 0. -1.
</event>
<event>
 4    1  0.5568520E+002  0.2392377E+02  0.7546771E-02  0.1481213E+00
          2   -1    0    0  503    0  0.00000000000E+00  0.00000000000E+00  0.75207699944E+01  0.75207699944E+01  0.00000000000E+00 0.  1.
         -2   -1    0    0    0  501 -0.00000000000E+00 -0.00000000000E+00 -0.86012928983E+02  0.86012928983E+02  0.00000000000E+00 0. -1.
         21    1    1    2  502  501  0.20866132437E+02 -0.11702621240E+02 -0.55120941723E+02  0.60088809634E+02  0.00000000000E+00 0.  1.
         21    1    1    2  503  502 -0.20866132437E+02  0.11702621240E+02 -0.23371217266E+02  0.33444889344E+02  0.00000000000E+00 0. -1.
</event>
<event>
 4    1  0.5568520E+002  0.4616629E+02  0.7546771E-02  0.1315708E+00
          2   -1    0    0  503    0  0.00000000000E+00  0.00000000000E+00  0.21215209388E+02  0.21215209388E+02  0.00000000000E+00 0.  1.
         -2   -1    0    0    0  501 -0.00000000000E+00 -0.00000000000E+00 -0.20187821180E+03  0.20187821180E+03  0.00000000000E+00 0. -1.
         21    1    1    2  502  501 -0.36040466612E+02 -0.28851537458E+02 -0.16939305103E+03  0.17557144468E+03  0.00000000000E+00 0. -1.
         21    1    1    2  503  502  0.36040466612E+02  0.28851537458E+02 -0.11269951376E+02  0.47521976509E+02  0.00000000000E+00 0.  1.
</event>
<event>
 4    1  0.5568520E+002  0.3518749E+02  0.7546771E-02  0.1379250E+00
          2   -1    0    0  502    0  0.00000000000E+00  0.00000000000E+00  0.93969790371E+02  0.93969790371E+02  0.00000000000E+00 0. -1.
         -2   -1    0    0    0  501 -0.00000000000E+00 -0.00000000000E+00 -0.24054085670E+02  0.24054085670E+02  0.00000000000E+00 0.  1.
         21    1    1    2  502  503  0.22173601021E+02  0.27321991210E+02  0.74642154791E+02  0.82520367533E+02  0.00000000000E+00 0. -1.
         21    1    1    2  503  501 -0.22173601021E+02 -0.27321991210E+02 -0.47264500908E+01  0.35503508508E+02  0.00000000000E+00 0.  1.
</event>
<event>
 4    1  0.5568520E+002  0.2100333E+02  0.7546771E-02  0.1519217E+00
          2   -1    0    0  503    0  0.00000000000E+00  0.00000000000E+00  0.96849303071E+01  0.96849303071E+01  0.00000000000E+00 0.  1.
         -2   -1    0    0    0  501 -0.00000000000E+00 -0.00000000000E+00 -0.12594799075E+03  0.12594799075E+03  0.00000000000E+00 0. -1.
         21    1    1    2  502  501  0.46157431484E+01  0.20489874361E+02 -0.11231470854E+03  0.11426168995E+03  0.00000000000E+00 0. -1.
         21    1    1    2  503  502 -0.46157431484E+01 -0.20489874361E+02 -0.39483519009E+01  0.21371231104E+02  0.00000000000E+00 0.  1.
</event>
<event>
 4    1  0.5568520E+002  0.2797100E+02  0.7546771E-02  0.1438091E+00
          2   -1    0    0  502    0  0.00000000000E+00  0.00000000000E+00  0.19826126838E+02  0.19826126838E+02  0.00000000000E+00 0. -1.
         -2   -1    0    0    0  501 -0.00000000000E+00 -0.00000000000E+00 -0.16938827539E+03  0.16938827539E+03  0.00000000000E+00 0.  1.
         21    1    1    2  502  503  0.15329893928E+02  0.23395970511E+02  0.80762958576E+01  0.29113633211E+02  0.00000000000E+00 0. -1.
         21    1    1    2  503  501 -0.15329893928E+02 -0.23395970511E+02 -0.15763844441E+03  0.16010076902E+03  0.00000000000E+00 0.  1.
</event>
<event>
 4    1  0.5568520E+002  0.2096838E+02  0.7546771E-02  0.1519717E+00
          2   -1    0    0  502    0  0.00000000000E+00  0.00000000000E+00  0.68710556084E+02  0.68710556084E+02  0.00000000000E+00 0. -1.
         -2   -1    0    0    0  501 -0.00000000000E+00 -0.00000000000E+00 -0.13895115337E+02  0.13895115337E+02  0.00000000000E+00 0.  1.
         21    1    1    2  502  503 -0.93013056022E+01 -0.18792515484E+02  0.57744496001E+02  0.61433702009E+02  0.00000000000E+00 0. -1.
         21    1    1    2  503  501  0.93013056022E+01  0.18792515484E+02 -0.29290552533E+01  0.21171969412E+02  0.00000000000E+00 0.  1.
</event>
<event>
 4    1  0.5568520E+002  0.5284531E+02  0.7546771E-02  0.1286286E+00
          2   -1    0    0  502    0  0.00000000000E+00  0.00000000000E+00  0.16285786853E+04  0.16285786853E+04  0.00000000000E+00 0. -1.
         -2   -1    0    0    0  501 -0.00000000000E+00 -0.00000000000E+00 -0.26252548328E+01  0.26252548328E+01  0.00000000000E+00 0.  1.
         21    1    1    2  502  503 -0.52290786611E+02  0.76354412014E+01  0.12932966165E+04  0.12943758205E+04  0.00000000000E+00 0. -1.
         21    1    1    2  503  501  0.52290786611E+02 -0.76354412014E+01  0.33265681391E+03  0.33682811962E+03  0.00000000000E+00 0.  1.
</event>
<event>
 4    1  0.5568520E+002  0.6337547E+02  0.7546771E-02  0.1248776E+00
          2   -1    0    0  503    0  0.00000000000E+00  0.00000000000E+00  0.19995965587E+03  0.19995965587E+03  0.00000000000E+00 0.  1.
         -2   -1    0    0    0  501 -0.00000000000E+00 -0.00000000000E+00 -0.51288431417E+02  0.51288431417E+02  0.00000000000E+00 0. -1.
         21    1    1    2  502  501 -0.59329433659E+02 -0.22281562029E+02 -0.23648393147E+02  0.67643892579E+02  0.00000000000E+00 0. -1.
         21    1    1    2  503  502  0.59329433659E+02  0.22281562029E+02  0.17231961760E+03  0.18360419471E+03  0.00000000000E+00 0.  1.
</event>
<event>
 4    1  0.5568520E+002  0.2270574E+02  0.7546771E-02  0.1496227E+00
          2   -1    0    0  503    0  0.00000000000E+00  0.00000000000E+00  0.67083700737E+01  0.67083700737E+01  0.00000000000E+00 0. -1.
         -2   -1    0    0    0  501 -0.00000000000E+00 -0.00000000000E+00 -0.77067100317E+02  0.77067100317E+02  0.00000000000E+00 0.  1.
         21    1    1    2  502  501  0.11298692162E+02 -0.19694932051E+02 -0.37392984006E+02  0.43746840411E+02  0.00000000000E+00 0.  1.
         21    1    1    2  503  502 -0.11298692162E+02  0.19694932051E+02 -0.32965746237E+02  0.40028629980E+02  0.00000000000E+00 0. -1.
</event>
<event>
 4    1  0.5568520E+002  0.2157696E+02  0.7546771E-02  0.1511185E+00
          2   -1    0    0  503    0  0.00000000000E+00  0.00000000000E+00  0.32134580844E+02  0.32134580844E+02  0.00000000000E+00 0.  1.
         -2   -1    0    0    0  501 -0.00000000000E+00 -0.00000000000E+00 -0.89469700530E+02  0.89469700530E+02  0.00000000000E+00 0. -1.
         21    1    1    2  502  501 -0.21440500434E+02 -0.24227945525E+01 -0.84329532593E+02  0.87046166255E+02  0.00000000000E+00 0. -1.
         21    1    1    2  503  502  0.21440500434E+02  0.24227945525E+01  0.26994412907E+02  0.34558115118E+02  0.00000000000E+00 0.  1.
</event>
<event>
 4    1  0.5568520E+002  0.2221589E+02  0.7546771E-02  0.1502586E+00
          2   -1    0    0  502    0  0.00000000000E+00  0.00000000000E+00  0.72016088570E+03  0.72016088570E+03  0.00000000000E+00 0. -1.
         -2   -1    0    0    0  501 -0.00000000000E+00 -0.00000000000E+00 -0.88231779059E+00  0.88231779059E+00  0.00000000000E+00 0.  1.
         21    1    1    2  502  503 -0.20030500864E+02  0.96085704374E+01  0.52998919128E+03  0.53045460547E+03  0.00000000000E+00 0. -1.
         21    1    1    2  503  501  0.20030500864E+02 -0.96085704374E+01  0.18928937663E+03  0.19058859802E+03  0.00000000000E+00 0.  1.
</event>
<event>
 4    1  0.5568520E+002  0.2343713E+02  0.7546771E-02  0.1487081E+00
          2   -1    0    0  502    0  0.00000000000E+00  0.00000000000E+00  0.16094427277E+04  0.16094427277E+04  0.00000000000E+00 0.  1.
         -2   -1    0    0    0  501 -0.00000000000E+00 -0.00000000000E+00 -0.66578305007E+00  0.66578305007E+00  0.00000000000E+00 0. -1.
         21    1    1    2  502  503 -0.73696510720E+01 -0.22248306322E+02  0.13664144853E+04  0.13666154706E+04  0.00000000000E+00 0.  1.
         21    1    1    2  503  501  0.73696510720E+01  0.22248306322E+02  0.24236245928E+03  0.24349304007E+03  0.00000000000E+00 0. -1.
</event>
<event>
 4    1  0.5568520E+002  0.2186553E+02  0.7546771E-02  0.1507257E+00
          2   -1    0    0  502    0  0.00000000000E+00  0.00000000000E+00  0.40575848438E+03  0.40575848438E+03  0.00000000000E+00 0. -1.
         -2   -1    0    0    0  501 -0.00000000000E+00 -0.00000000000E+00 -0.12769195741E+01  0.12769195741E+01  0.00000000000E+00 0.  1.
         21    1    1    2  502  503  0.94872451074E+01  0.19700096285E+02  0.25880236618E+03  0.25972440462E+03  0.00000000000E+00 0.  1.
         21    1    1    2  503  501 -0.94872451074E+01 -0.19700096285E+02  0.14567919862E+03  0.14731099933E+03  0.00000000000E+00 0. -1.
</event>
<event>
 4    1  0.5568520E+002  0.2352165E+02  0.7546771E-02  0.1486050E+00
          2   -1    0    0  502    0  0.00000000000E+00  0.00000000000E+00  0.90538313427E+03  0.90538313427E+03  0.00000000000E+00 0.  1.
         -2   -1    0    0    0  501 -0.00000000000E+00 -0.00000000000E+00 -0.77604848432E+00  0.77604848432E+00  0.00000000000E+00 0. -1.
         21    1    1    2  502  503  0.12869259107E+02 -0.19688831107E+02  0.66119529700E+03  0.66161354934E+03  0.00000000000E+00 0.  1.
         21    1    1    2  503  501 -0.12869259107E+02  0.19688831107E+02  0.24341178879E+03  0.24454563341E+03  0.00000000000E+00 0. -1.
</event>
<event>
 4    1  0.5568520E+002  0.2118851E+02  0.7546771E-02  0.1516590E+00
          2   -1    0    0  502    0  0.00000000000E+00  0.00000000000E+00  0.55297303711E+02  0.55297303711E+02  0.00000000000E+00 0. -1.
         -2   -1    0    0    0  501 -0.00000000000E+00 -0.00000000000E+00 -0.81338694652E+01  0.81338694652E+01  0.00000000000E+00 0.  1.
         21    1    1    2  502  503  0.11968404041E+02 -0.17484567266E+02  0.22220723322E+02  0.30703637125E+02  0.00000000000E+00 0.  1.
         21    1    1    2  503  501 -0.11968404041E+02  0.17484567266E+02  0.24942710925E+02  0.32727536052E+02  0.00000000000E+00 0. -1.
</event>
<event>
 4    1  0.5568520E+002  0.2600292E+02  0.7546771E-02  0.1457889E+00
          2   -1    0    0  503    0  0.00000000000E+00  0.00000000000E+00  0.14744674342E+03  0.14744674342E+03  0.00000000000E+00 0. -1.
         -2   -1    0    0    0  501 -0.00000000000E+00 -0.00000000000E+00 -0.51885933482E+01  0.51885933482E+01  0.00000000000E+00 0.  1.
         21    1    1    2  502  501  0.22829211385E+02 -0.12449064492E+02  0.45115087907E+02  0.52072288754E+02  0.00000000000E+00 0. -1.
         21    1    1    2  503  502 -0.22829211385E+02  0.12449064492E+02  0.97143062163E+02  0.10056304801E+03  0.00000000000E+00 0.  1.
</event>
<event>
 4    1  0.5568520E+002  0.2633882E+02  0.7546771E-02  0.1454365E+00
          2   -1    0    0  502    0  0.00000000000E+00  0.00000000000E+00  0.18518900589E+04  0.18518900589E+04  0.00000000000E+00 0. -1.
         -2   -1    0    0    0  501 -0.00000000000E+00 -0.00000000000E+00 -0.47459237395E+00  0.47459237395E+00  0.00000000000E+00 0.  1.
         21    1    1    2  502  503  0.89833556916E+00 -0.26323496878E+02  0.13508178096E+04  0.13510745680E+04  0.00000000000E+00 0. -1.
         21    1    1    2  503  501 -0.89833556916E+00  0.26323496878E+02  0.50059765698E+03  0.50129008335E+03  0.00000000000E+00 0.  1.
</event>
<event>
 4    1  0.5568520E+002  0.2406421E+02  0.7546771E-02  0.1479550E+00
          2   -1    0    0  502    0  0.00000000000E+00  0.00000000000E+00  0.52250434278E+00  0.52250434278E+00  0.00000000000E+00 0. -1.
         -2   -1    0    0    0  501 -0.00000000000E+00 -0.00000000000E+00 -0.13333821597E+04  0.13333821597E+04  0.00000000000E+00 0.  1.
         21    1    1    2  502  503  0.22815816874E+02  0.76501377323E+01 -0.39239984316E+03  0.39313702830E+03  0.00000000000E+00 0. -1.
         21    1    1    2  503  501 -0.22815816874E+02 -0.76501377323E+01 -0.94045981219E+03  0.94076763574E+03  0.00000000000E+00 0.  1.
</event>
<event>
 4    1  0.5568520E+002  0.3422482E+02  0.7546771E-02  0.1386096E+00
          2   -1    0    0  502    0  0.00000000000E+00  0.00000000000E+00  0.30267511234E+03  0.30267511234E+03  0.00000000000E+00 0.  1.
         -2   -1    0    0    0  501 -0.00000000000E+00 -0.00000000000E+00 -0.52991888926E+01  0.52991888926E+01  0.00000000000E+00 0. -1.
         21    1    1    2  502  503 -0.57149948038E+01 -0.33744285553E+02  0.22865886172E+03  0.23120599693E+03  0.00000000000E+00 0.  1.
         21    1    1    2  503  501  0.57149948038E+01  0.33744285553E+02  0.68717061728E+02  0.76768304304E+02  0.00000000000E+00 0. -1.
</event>
<event>
 4    1  0.5568520E+002  0.2506553E+02  0.7546771E-02  0.1468072E+00
          2   -1    0    0  502    0  0.00000000000E+00  0.00000000000E+00  0.19915350998E+02  0.19915350998E+02  0.00000000000E+00 0.  1.
         -2   -1    0    0    0  501 -0.00000000000E+00 -0.00000000000E+00 -0.15780196438E+03  0.15780196438E+03  0.00000000000E+00 0. -1.
         21    1    1    2  502  503  0.23464309364E+02 -0.88151700823E+01  0.10538327528E+02  0.27190759177E+02  0.00000000000E+00 0.  1.
         21    1    1    2  503  501 -0.23464309364E+02  0.88151700823E+01 -0.14842494091E+03  0.15052655620E+03  0.00000000000E+00 0. -1.
</event>
<event>
 4    1  0.5568520E+002  0.2118205E+02  0.7546771E-02  0.1516681E+00
          2   -1    0    0  502    0  0.00000000000E+00  0.00000000000E+00  0.21970012286E+04  0.21970012286E+04  0.00000000000E+00 0.  1.
         -2   -1    0    0    0  501 -0.00000000000E+00 -0.00000000000E+00 -0.22450623342E+00  0.22450623342E+00  0.00000000000E+00 0. -1.
         21    1    1    2  502  503  0.20395278815E+02 -0.57194322666E+01  0.76817578540E+03  0.76846777198E+03  0.00000000000E+00 0. -1.
         21    1    1    2  503  501 -0.20395278815E+02  0.57194322666E+01  0.14286009370E+04  0.14287579629E+04  0.00000000000E+00 0.  1.
</event>
<event>
 4    1  0.5568520E+002  0.2171189E+02  0.7546771E-02  0.1509339E+00
          2   -1    0    0  503    0  0.00000000000E+00  0.00000000000E+00  0.17266726318E+03  0.17266726318E+03  0.00000000000E+00 0.  1.
         -2   -1    0    0    0  501 -0.00000000000E+00 -0.00000000000E+00 -0.51427696209E+01  0.51427696209E+01  0.00000000000E+00 0. -1.
         21    1    1    2  502  501  0.20958912929E+02  0.56683297930E+01  0.22868463220E+02  0.31533674126E+02  0.00000000000E+00 0. -1.
         21    1    1    2  503  502 -0.20958912929E+02 -0.56683297930E+01  0.14465603033E+03  0.14627635867E+03  0.00000000000E+00 0.  1.
</event>
<event>
 4    1  0.5568520E+002  0.3894931E+02  0.7546771E-02  0.1354755E+00
          2   -1    0    0  502    0  0.00000000000E+00  0.00000000000E+00  0.14520125057E+04  0.14520125057E+04  0.00000000000E+00 0. -1.
         -2   -1    0    0    0  501 -0.00000000000E+00 -0.00000000000E+00 -0.17109556264E+01  0.17109556264E+01  0.00000000000E+00 0.  1.
         21    1    1    2  502  503  0.25535792004E+02  0.29410408653E+02  0.11786989162E+04  0.11793422674E+04  0.00000000000E+00 0. -1.
         21    1    1    2  503  501 -0.25535792004E+02 -0.29410408653E+02  0.27160263390E+03  0.27438119387E+03  0.00000000000E+00 0.  1.
</event>
<event>
 4    1  0.5568520E+002  0.3310051E+02  0.7546771E-02  0.1394432E+00
          2   -1    0    0  503    0  0.00000000000E+00  0.00000000000E+00  0.93460849441E+03  0.93460849441E+03  0.00000000000E+00 0.  1.
         -2   -1    0    0    0  501 -0.00000000000E+00 -0.00000000000E+00 -0.40478289648E+01  0.40478289648E+01  0.00000000000E+00 0. -1.
         21    1    1    2  502  501  0.10456770183E+02  0.31405411289E+02  0.69709537848E+02  0.77169058357E+02  0.00000000000E+00 0. -1.
         21    1    1    2  503  502 -0.10456770183E+02 -0.31405411289E+02  0.86085112759E+03  0.86148726501E+03  0.00000000000E+00 0.  1.
</event>
<event>
 4    1  0.5568520E+002  0.2030038E+02  0.7546771E-02  0.1529492E+00
          2   -1    0    0  503    0  0.00000000000E+00  0.00000000000E+00  0.24762222549E+03  0.24762222549E+03  0.00000000000E+00 0. -1.
         -2   -1    0    0    0  501 -0.00000000000E+00 -0.00000000000E+00 -0.16733169870E+01  0.16733169870E+01  0.00000000000E+00 0.  1.
         21    1    1    2  502  501 -0.95908429755E+00  0.20277716072E+02  0.11379967423E+03  0.11559615680E+03  0.00000000000E+00 0. -1.
         21    1    1    2  503  502  0.95908429755E+00 -0.20277716072E+02  0.13214923427E+03  0.13369938568E+03  0.00000000000E+00 0.  1.
</event>
<event>
 4    1  0.5568520E+002  0.2263487E+02  0.7546771E-02  0.1497135E+00
          2   -1    0    0  503    0  0.00000000000E+00  0.00000000000E+00  0.53984179621E+03  0.53984179621E+03  0.00000000000E+00 0.  1.
         -2   -1    0    0    0  501 -0.00000000000E+00 -0.00000000000E+00 -0.72174104420E+01  0.72174104420E+01  0.00000000000E+00 0. -1.
         21    1    1    2  502  501 -0.20214002012E+02  0.10184867427E+02  0.11400017324E+02  0.25343594789E+02  0.00000000000E+00 0. -1.
         21    1    1    2  503  502  0.20214002012E+02 -0.10184867427E+02  0.52122436844E+03  0.52171561186E+03  0.00000000000E+00 0.  1.
</event>
<event>
 4    1  0.5568520E+002  0.3630347E+02  0.7546771E-02  0.1371624E+00
          2   -1    0    0  502    0  0.00000000000E+00  0.00000000000E+00  0.38817926326E+01  0.38817926326E+01  0.00000000000E+00 0.  1.
         -2   -1    0    0    0  501 -0.00000000000E+00 -0.00000000000E+00 -0.36946247771E+03  0.36946247771E+03  0.00000000000E+00 0. -1.
         21    1    1    2  502  503 -0.35570751252E+02 -0.72569645517E+01 -0.12964731037E+03  0.13463419686E+03  0.00000000000E+00 0. -1.
         21    1    1    2  503  501  0.35570751252E+02  0.72569645517E+01 -0.23593337472E+03  0.23871007349E+03  0.00000000000E+00 0.  1.
</event>
<event>
 4    1  0.5568520E+002  0.2558220E+02  0.7546771E-02  0.1462395E+00
          2   -1    0    0  503    0  0.00000000000E+00  0.00000000000E+00  0.28542401653E+04  0.28542401653E+04  0.00000000000E+00 0. -1.
         -2   -1    0    0    0  501 -0.00000000000E+00 -0.00000000000E+00 -0.24029705024E+00  0.24029705024E+00  0.00000000000E+00 0.  1.
         21    1    1    2  502  501  0.37373107652E+01  0.25307734414E+02  0.11215380319E+04  0.11218297580E+04  0.00000000000E+00 0. -1.
         21    1    1    2  503  502 -0.37373107652E+01 -0.25307734414E+02  0.17324618364E+04  0.17326507044E+04  0.00000000000E+00 0.  1.
</event>
<event>
 4    1  0.5568520E+002  0.2009620E+02  0.7546771E-02  0.1532570E+00
          2   -1    0    0  503    0  0.00000000000E+00  0.00000000000E+00  0.20749506656E+03  0.20749506656E+03  0.00000000000E+00 0.  1.
         -2   -1    0    0    0  501 -0.00000000000E+00 -0.00000000000E+00 -0.32484694585E+01  0.32484694585E+01  0.00000000000E+00 0. -1.
         21    1    1    2  502  501 -0.68563447638E+01  0.18890410948E+02  0.35410211449E+02  0.40715355386E+02  0.00000000000E+00 0. -1.
         21    1    1    2  503  502  0.68563447638E+01 -0.18890410948E+02  0.16883638566E+03  0.17002818064E+03  0.00000000000E+00 0.  1.
</event>
<event>
 4    1  0.5568520E+002  0.3140356E+02  0.7546771E-02  0.1407779E+00
          2   -1    0    0  502    0  0.00000000000E+00  0.00000000000E+00  0.61293861042E+01  0.61293861042E+01  0.00000000000E+00 0.  1.
         -2   -1    0    0    0  501 -0.00000000000E+00 -0.00000000000E+00 -0.26018505856E+03  0.26018505856E+03  0.00000000000E+00 0. -1.
         21    1    1    2  502  503 -0.22543272004E+02  0.21862862139E+02 -0.44769908825E+02  0.54685725649E+02  0.00000000000E+00 0. -1.
         21    1    1    2  503  501  0.22543272004E+02 -0.21862862139E+02 -0.20928576364E+03  0.21162871902E+03  0.00000000000E+00 0.  1.
</event>
<event>
 4    1  0.5568520E+002  0.2159176E+02  0.7546771E-02  0.1510981E+00
          2   -1    0    0  503    0  0.00000000000E+00  0.00000000000E+00  0.43514959028E+01  0.43514959028E+01  0.00000000000E+00 0. -1.
         -2   -1    0    0    0  501 -0.00000000000E+00 -0.00000000000E+00 -0.29299340446E+03  0.29299340446E+03  0.00000000000E+00 0.  1.
         21    1    1    2  502  501 -0.19175028398E+02 -0.99258376200E+01 -0.26273165372E+03  0.26361738530E+03  0.00000000000E+00 0.  1.
         21    1    1    2  503  502  0.19175028398E+02  0.99258376200E+01 -0.25910254837E+02  0.33727515061E+02  0.00000000000E+00 0. -1.
</event>
<event>
 4    1  0.5568520E+002  0.2400330E+02  0.7546771E-02  0.1480270E+00
          2   -1    0    0  503    0  0.00000000000E+00  0.00000000000E+00  0.17437078685E+02  0.17437078685E+02  0.00000000000E+00 0.  1.
         -2   -1    0    0    0  501 -0.00000000000E+00 -0.00000000000E+00 -0.36543796640E+02  0.36543796640E+02  0.00000000000E+00 0. -1.
         21    1    1    2  502  501 -0.11906070406E+02  0.20842359677E+02 -0.17908227290E+02  0.29947672265E+02  0.00000000000E+00 0. -1.
         21    1    1    2  503  502  0.11906070406E+02 -0.20842359677E+02 -0.11984906643E+01  0.24033203059E+02  0.00000000000E+00 0.  1.
</event>
<event>
 4    1  0.5568520E+002  0.2417430E+02  0.7546771E-02  0.1478256E+00
          2   -1    0    0  503    0  0.00000000000E+00  0.00000000000E+00  0.71333021507E+03  0.71333021507E+03  0.00000000000E+00 0. -1.
         -2   -1    0    0    0  501 -0.00000000000E+00 -0.00000000000E+00 -0.87573340678E+00  0.87573340678E+00  0.00000000000E+00 0.  1.
         21    1    1    2  502  501 -0.21541027563E+02 -0.10971812948E+02  0.44691816029E+03  0.44757148987E+03  0.00000000000E+00 0.  1.
         21    1    1    2  503  502  0.21541027563E+02  0.10971812948E+02  0.26553632137E+03  0.26663445860E+03  0.00000000000E+00 0. -1.
</event>
<event>
 4    1  0.5568520E+002  0.3341050E+02  0.7546771E-02  0.1392096E+00
          2   -1    0    0  502    0  0.00000000000E+00  0.00000000000E+00  0.12299939914E+02  0.12299939914E+02  0.00000000000E+00 0. -1.
         -2   -1    0    0    0  501 -0.00000000000E+00 -0.00000000000E+00 -0.59980609238E+03  0.59980609238E+03  0.00000000000E+00 0.  1.
         21    1    1    2  502  503 -0.86429708561E+01  0.32273217142E+02 -0.11802755729E+02  0.35433974272E+02  0.00000000000E+00 0. -1.
         21    1    1    2  503  501  0.86429708561E+01 -0.32273217142E+02 -0.57570339674E+03  0.57667205803E+03  0.00000000000E+00 0.  1.
</event>
<event>
 4    1  0.5568520E+002  0.2048450E+02  0.7546771E-02  0.1526754E+00
          2   -1    0    0  503    0  0.00000000000E+00  0.00000000000E+00  0.30821196972E+03  0.30821196972E+03  0.00000000000E+00 0. -1.
         -2   -1    0    0    0  501 -0.00000000000E+00 -0.00000000000E+00 -0.14425467659E+01  0.14425467659E+01  0.00000000000E+00 0.  1.
         21    1    1    2  502  501  0.18526657952E+02 -0.87394373626E+01  0.11667445501E+03  0.11845903626E+03  0.00000000000E+00 0.  1.
         21    1    1    2  503  502 -0.18526657952E+02  0.87394373626E+01  0.19009496794E+03  0.19119548022E+03  0.00000000000E+00 0. -1.
</event>
<event>
 4    1  0.5568520E+002  0.3602419E+02  0.7546771E-02  0.1373502E+00
          2   -1    0    0  502    0  0.00000000000E+00  0.00000000000E+00  0.74301016094E+03  0.74301016094E+03  0.00000000000E+00 0.  1.
         -2   -1    0    0    0  501 -0.00000000000E+00 -0.00000000000E+00 -0.19547024517E+01  0.19547024517E+01  0.00000000000E+00 0. -1.
         21    1    1    2  502  503  0.20204625150E+02  0.29824750401E+02  0.49206306501E+03  0.49337997787E+03  0.00000000000E+00 0. -1.
         21    1    1    2  503  501 -0.20204625150E+02 -0.29824750401E+02  0.24899239348E+03  0.25158488553E+03  0.00000000000E+00 0.  1.
</event>
<event>
 4    1  0.5568520E+002  0.2443096E+02  0.7546771E-02  0.1475271E+00
          2   -1    0    0  503    0  0.00000000000E+00  0.00000000000E+00  0.38747603474E+02  0.38747603474E+02  0.00000000000E+00 0.  1.
         -2   -1    0    0    0  501 -0.00000000000E+00 -0.00000000000E+00 -0.85819474226E+02  0.85819474226E+02  0.00000000000E+00 0. -1.
         21    1    1    2  502  501 -0.23317185862E+02 -0.72925029214E+01 -0.79953471778E+02  0.83602807398E+02  0.00000000000E+00 0. -1.
         21    1    1    2  503  502  0.23317185862E+02  0.72925029214E+01  0.32881601026E+02  0.40964270303E+02  0.00000000000E+00 0.  1.
</event>
<event>
 4    1  0.5568520E+002  0.2374603E+02  0.7546771E-02  0.1483337E+00
          2   -1    0    0  503    0  0.00000000000E+00  0.00000000000E+00  0.32882977246E+01  0.32882977246E+01  0.00000000000E+00 0.  1.
         -2   -1    0    0    0  501 -0.00000000000E+00 -0.00000000000E+00 -0.34965102406E+03  0.34965102406E+03  0.00000000000E+00 0. -1.
         21    1    1    2  502  501 -0.15307398696E+02 -0.18153717610E+02 -0.29915290304E+03  0.30009387417E+03  0.00000000000E+00 0. -1.
         21    1    1    2  503  502  0.15307398696E+02  0.18153717610E+02 -0.47209823297E+02  0.52845447615E+02  0.00000000000E+00 0.  1.
</event>
<event>
 4    1  0.5568520E+002  0.2068717E+02  0.7546771E-02  0.1523778E+00
          2   -1    0    0  503    0  0.00000000000E+00  0.00000000000E+00  0.17387841604E+04  0.17387841604E+04  0.00000000000E+00 0. -1.
         -2   -1    0    0    0  501 -0.00000000000E+00 -0.00000000000E+00 -0.56876693440E+00  0.56876693440E+00  0.00000000000E+00 0.  1.
         21    1    1    2  502  501  0.20222097954E+02  0.43618731879E+01  0.21409368207E+03  0.21509082706E+03  0.00000000000E+00 0.  1.
         21    1    1    2  503  502 -0.20222097954E+02 -0.43618731879E+01  0.15241217113E+04  0.15242621002E+04  0.00000000000E+00 0. -1.
</event>
<event>
 4    1  0.5568520E+002  0.2865423E+02  0.7546771E-02  0.1431663E+00
          2   -1    0    0  503    0  0.00000000000E+00  0.00000000000E+00  0.77091750118E+03  0.77091750118E+03  0.00000000000E+00 0. -1.
         -2   -1    0    0    0  501 -0.00000000000E+00 -0.00000000000E+00 -0.13605822614E+01  0.13605822614E+01  0.00000000000E+00 0.  1.
         21    1    1    2  502  501  0.26324686305E+02 -0.11317047601E+02  0.56474208029E+03  0.56546855079E+03  0.00000000000E+00 0. -1.
         21    1    1    2  503  502 -0.26324686305E+02  0.11317047601E+02  0.20481483863E+03  0.20680953266E+03  0.00000000000E+00 0.  1.
</event>
<event>
 4    1  0.5568520E+002  0.2616204E+02  0.7546771E-02  0.1456212E+00
          2   -1    0    0  503    0  0.00000000000E+00  0.00000000000E+00  0.58376832796E+03  0.58376832796E+03  0.00000000000E+00 0. -1.
         -2   -1    0    0    0  501 -0.00000000000E+00 -0.00000000000E+00 -0.18210540915E+01  0.18210540915E+01  0.00000000000E+00 0.  1.
         21    1    1    2  502  501  0.76795731207E+00 -0.26150761655E+02  0.11623690518E+03  0.11914474483E+03  0.00000000000E+00 0.  1.
         21    1    1    2  503  502 -0.76795731207E+00  0.26150761655E+02  0.46571036868E+03  0.46644463722E+03  0.00000000000E+00 0. -1.
</event>
<event>
 4    1  0.5568520E+002  0.2874170E+02  0.7546771E-02  0.1430855E+00
          2   -1    0    0  502    0  0.00000000000E+00  0.00000000000E+00  0.75654747801E+02  0.75654747801E+02  0.00000000000E+00 0. -1.
         -2   -1    0    0    0  501 -0.00000000000E+00 -0.00000000000E+00 -0.17215046440E+02  0.17215046440E+02  0.00000000000E+00 0.  1.
         21    1    1    2  502  503 -0.28740621964E+02  0.24869116621E+00  0.57301287929E+02  0.64105559794E+02  0.00000000000E+00 0. -1.
         21    1    1    2  503  501  0.28740621964E+02 -0.24869116621E+00  0.11384134331E+01  0.28764234447E+02  0.00000000000E+00 0.  1.
</event>
<event>
 4    1  0.5568520E+002  0.3350933E+02  0.7546771E-02  0.1391357E+00
          2   -1    0    0  502    0  0.00000000000E+00  0.00000000000E+00  0.10474246484E+02  0.10474246484E+02  0.00000000000E+00 0.  1.
         -2   -1    0    0    0  501 -0.00000000000E+00 -0.00000000000E+00 -0.16874921438E+04  0.16874921438E+04  0.00000000000E+00 0. -1.
         21    1    1    2  502  503  0.32458477578E+02 -0.83260009846E+01 -0.16935426166E+02  0.37545755000E+02  0.00000000000E+00 0.  1.
         21    1    1    2  503  501 -0.32458477578E+02  0.83260009846E+01 -0.16600824711E+04  0.16604206353E+04  0.00000000000E+00 0. -1.
</event>
<event>
 4    1  0.5568520E+002  0.3936833E+02  0.7546771E-02  0.1352228E+00
          2   -1    0    0  503    0  0.00000000000E+00  0.00000000000E+00  0.20149861749E+03  0.20149861749E+03  0.00000000000E+00 0. -1.
         -2   -1    0    0    0  501 -0.00000000000E+00 -0.00000000000E+00 -0.83357951056E+01  0.83357951056E+01  0.00000000000E+00 0.  1.
         21    1    1    2  502  501 -0.37546187098E+02  0.11838450577E+02  0.67417129944E+02  0.78070061403E+02  0.00000000000E+00 0.  1.
         21    1    1    2  503  502  0.37546187098E+02 -0.11838450577E+02  0.12574569244E+03  0.13176435119E+03  0.00000000000E+00 0. -1.
</event>
<event>
 4    1  0.5568520E+002  0.2845012E+02  0.7546771E-02  0.1433561E+00
          2   -1    0    0  502    0  0.00000000000E+00  0.00000000000E+00  0.93898965516E+01  0.93898965516E+01  0.00000000000E+00 0.  1.
         -2   -1    0    0    0  501 -0.00000000000E+00 -0.00000000000E+00 -0.43810016135E+03  0.43810016135E+03  0.00000000000E+00 0. -1.
         21    1    1    2  502  503  0.20607884680E+02 -0.19614392854E+02 -0.13826493451E+02  0.31631965464E+02  0.00000000000E+00 0.  1.
         21    1    1    2  503  501 -0.20607884680E+02  0.19614392854E+02 -0.41488377134E+03  0.41585809243E+03  0.00000000000E+00 0. -1.
</event>
<event>
 4    1  0.5568520E+002  0.2825163E+02  0.7546771E-02  0.1435425E+00
          2   -1    0    0  503    0  0.00000000000E+00  0.00000000000E+00  0.55932678643E+03  0.55932678643E+03  0.00000000000E+00 0.  1.
         -2   -1    0    0    0  501 -0.00000000000E+00 -0.00000000000E+00 -0.27503451025E+01  0.27503451025E+01  0.00000000000E+00 0. -1.
         21    1    1    2  502  501 -0.17504682811E+02  0.22175231216E+02  0.83344069568E+02  0.88002208677E+02  0.00000000000E+00 0. -1.
         21    1    1    2  503  502  0.17504682811E+02 -0.22175231216E+02  0.47323237176E+03  0.47407492286E+03  0.00000000000E+00 0.  1.
</event>
<event>
 4    1  0.5568520E+002  0.2014859E+02  0.7546771E-02  0.1531776E+00
          2   -1    0    0  502    0  0.00000000000E+00  0.00000000000E+00  0.46494776869E+03  0.46494776869E+03  0.00000000000E+00 0. -1.
         -2   -1    0    0    0  501 -0.00000000000E+00 -0.00000000000E+00 -0.23167406250E+01  0.23167406250E+01  0.00000000000E+00 0.  1.
         21    1    1    2  502  503 -0.18106453658E+02  0.88386562528E+01  0.41573945394E+03  0.41622741268E+03  0.00000000000E+00 0. -1.
         21    1    1    2  503  501  0.18106453658E+02 -0.88386562528E+01  0.46891574123E+02  0.51037096628E+02  0.00000000000E+00 0.  1.
</event>
<event>
 4    1  0.5568520E+002  0.2335930E+02  0.7546771E-02  0.1488035E+00
          2   -1    0    0  502    0  0.00000000000E+00  0.00000000000E+00  0.25248490361E+02  0.25248490361E+02  0.00000000000E+00 0.  1.
         -2   -1    0    0    0  501 -0.00000000000E+00 -0.00000000000E+00 -0.52534043088E+02  0.52534043088E+02  0.00000000000E+00 0. -1.
         21    1    1    2  502  503 -0.14126291028E+02 -0.18603893127E+02  0.16195209455E+02  0.28424316122E+02  0.00000000000E+00 0.  1.
         21    1    1    2  503  501  0.14126291028E+02  0.18603893127E+02 -0.43480762183E+02  0.49358217327E+02  0.00000000000E+00 0. -1.
</event>
<event>
 4    1  0.5568520E+002  0.2446954E+02  0.7546771E-02  0.1474826E+00
          2   -1    0    0  503    0  0.00000000000E+00  0.00000000000E+00  0.51056213216E+03  0.51056213216E+03  0.00000000000E+00 0. -1.
         -2   -1    0    0    0  501 -0.00000000000E+00 -0.00000000000E+00 -0.11728681836E+01  0.11728681836E+01  0.00000000000E+00 0.  1.
         21    1    1    2  502  501  0.31248336591E+01 -0.24269194649E+02  0.25205593757E+03  0.25324090123E+03  0.00000000000E+00 0. -1.
         21    1    1    2  503  502 -0.31248336591E+01  0.24269194649E+02  0.25733332641E+03  0.25849409911E+03  0.00000000000E+00 0.  1.
</event>
<event>
 4    1  0.5568520E+002  0.2123498E+02  0.7546771E-02  0.1515936E+00
          2   -1    0    0  503    0  0.00000000000E+00  0.00000000000E+00  0.16870889854E+04  0.16870889854E+04  0.00000000000E+00 0. -1.
         -2   -1    0    0    0  501 -0.00000000000E+00 -0.00000000000E+00 -0.65160015567E+00  0.65160015567E+00  0.00000000000E+00 0.  1.
         21    1    1    2  502  501 -0.17738484780E+02  0.11673500341E+02  0.19513376516E+03  0.19628578848E+03  0.00000000000E+00 0.  1.
         21    1    1    2  503  502  0.17738484780E+02 -0.11673500341E+02  0.14913036200E+04  0.14914547970E+04  0.00000000000E+00 0. -1.
</event>
<event>
 4    1  0.5568520E+002  0.2646646E+02  0.7546771E-02  0.1453042E+00
          2   -1    0    0  502    0  0.00000000000E+00  0.00000000000E+00  0.25373051707E+02  0.25373051707E+02  0.00000000000E+00 0.  1.
         -2   -1    0    0    0  501 -0.00000000000E+00 -0.00000000000E+00 -0.10008480402E+03  0.10008480402E+03  0.00000000000E+00 0. -1.
         21    1    1    2  502  503  0.16572365325E+02 -0.20635659438E+02  0.16025076352E+02  0.30939890190E+02  0.00000000000E+00 0.  1.
         21    1    1    2  503  501 -0.16572365325E+02  0.20635659438E+02 -0.90736828670E+02  0.94517965540E+02  0.00000000000E+00 0. -1.
</event>
<event>
 4    1  0.5568520E+002  0.2684836E+02  0.7546771E-02  0.1449137E+00
          2   -1    0    0  502    0  0.00000000000E+00  0.00000000000E+00  0.89764574846E+02  0.89764574846E+02  0.00000000000E+00 0.  1.
         -2   -1    0    0    0  501 -0.00000000000E+00 -0.00000000000E+00 -0.84035181565E+01  0.84035181565E+01  0.00000000000E+00 0. -1.
         21    1    1    2  502  503 -0.52741785388E+01 -0.26325225973E+02  0.51024897862E+02  0.57657390537E+02  0.00000000000E+00 0.  1.
         21    1    1    2  503  501  0.52741785388E+01  0.26325225973E+02  0.30336158828E+02  0.40510702465E+02  0.00000000000E+00 0. -1.
</event>
<event>
 4    1  0.5568520E+002  0.2147657E+02  0.7546771E-02  0.1512568E+00
          2   -1    0    0  502    0  0.00000000000E+00  0.00000000000E+00  0.15399016709E+04  0.15399016709E+04  0.00000000000E+00 0. -1.
         -2   -1    0    0    0  501 -0.00000000000E+00 -0.00000000000E+00 -0.76725342859E+00  0.76725342859E+00  0.00000000000E+00 0.  1.
         21    1    1    2  502  503 -0.20145805230E+02  0.74424101848E+01  0.13710256426E+04  0.13711938432E+04  0.00000000000E+00 0. -1.
         21    1    1    2  503  501  0.20145805230E+02 -0.74424101848E+01  0.16810877481E+03  0.16947508108E+03  0.00000000000E+00 0.  1.
</event>
<event>
 4    1  0.5568520E+002  0.2400755E+02  0.7546771E-02  0.1480219E+00
          2   -1    0    0  503    0  0.00000000000E+00  0.00000000000E+00  0.28095555923E+03  0.28095555923E+03  0.00000000000E+00 0. -1.
         -2   -1    0    0    0  501 -0.00000000000E+00 -0.00000000000E+00 -0.33272329697E+02  0.33272329697E+02  0.00000000000E+00 0.  1.
         21    1    1    2  502  501 -0.23420714944E+02  0.52756716706E+01 -0.28351773464E+02  0.37150850038E+02  0.00000000000E+00 0.  1.
         21    1    1    2  503  502  0.23420714944E+02 -0.52756716706E+01  0.27603500300E+03  0.27707703889E+03  0.00000000000E+00 0. -1.
</event>
<event>
 4    1  0.5568520E+002  0.2666665E+02  0.7546771E-02  0.1450986E+00
          2   -1    0    0  502    0  0.00000000000E+00  0.00000000000E+00  0.29334887460E+03  0.29334887460E+03  0.00000000000E+00 0. -1.
         -2   -1    0    0    0  501 -0.00000000000E+00 -0.00000000000E+00 -0.10475394302E+02  0.10475394302E+02  0.00000000000E+00 0.  1.
         21    1    1    2  502  503  0.10120897722E+02  0.24671388817E+02  0.27461699829E+03  0.27590869096E+03  0.00000000000E+00 0. -1.
         21    1    1    2  503  501 -0.10120897722E+02 -0.24671388817E+02  0.82564820122E+01  0.27915577946E+02  0.00000000000E+00 0.  1.
</event>
<event>
 4    1  0.5568520E+002  0.2428787E+02  0.7546771E-02  0.1476930E+00
          2   -1    0    0  503    0  0.00000000000E+00  0.00000000000E+00  0.65047871825E+02  0.65047871825E+02  0.00000000000E+00 0.  1.
         -2   -1    0    0    0  501 -0.00000000000E+00 -0.00000000000E+00 -0.27973075619E+02  0.27973075619E+02  0.00000000000E+00 0. -1.
         21    1    1    2  502  501  0.21456072794E+02 -0.11381452721E+02 -0.19697652117E+02  0.31271361095E+02  0.00000000000E+00 0. -1.
         21    1    1    2  503  502 -0.21456072794E+02  0.11381452721E+02  0.56772448323E+02  0.61749586350E+02  0.00000000000E+00 0.  1.
</event>
<event>
 4    1  0.5568520E+002  0.3184914E+02  0.7546771E-02  0.1404180E+00
          2   -1    0    0  502    0  0.00000000000E+00  0.00000000000E+00  0.13411530935E+03  0.13411530935E+03  0.00000000000E+00 0. -1.
         -2   -1    0    0    0  501 -0.00000000000E+00 -0.00000000000E+00 -0.86859614683E+01  0.86859614683E+01  0.00000000000E+00 0.  1.
         21    1    1    2  502  503  0.13630770949E+02  0.28784893057E+02  0.37046331400E+02  0.48854873402E+02  0.00000000000E+00 0.  1.
         21    1    1    2  503  501 -0.13630770949E+02 -0.28784893057E+02  0.88383016480E+02  0.93946397414E+02  0.00000000000E+00 0. -1.
</event>
<event>
 4    1  0.5568520E+002  0.2416627E+02  0.7546771E-02  0.1478350E+00
          2   -1    0    0  503    0  0.00000000000E+00  0.00000000000E+00  0.47411772347E+00  0.47411772347E+00  0.00000000000E+00 0. -1.
         -2   -1    0    0    0  501 -0.00000000000E+00 -0.00000000000E+00 -0.14878514011E+04  0.14878514011E+04  0.00000000000E+00 0.  1.
         21    1    1    2  502  501  0.35457786675E+01  0.23904728819E+02 -0.10524115896E+04  0.10526890151E+04  0.00000000000E+00 0. -1.
         21    1    1    2  503  502 -0.35457786675E+01 -0.23904728819E+02 -0.43496569380E+03  0.43563650374E+03  0.00000000000E+00 0.  1.
</event>
<event>
 4    1  0.5568520E+002  0.2118174E+02  0.7546771E-02  0.1516686E+00
          2   -1    0    0  503    0  0.00000000000E+00  0.00000000000E+00  0.57792918892E+03  0.57792918892E+03  0.00000000000E+00 0. -1.
         -2   -1    0    0    0  501 -0.00000000000E+00 -0.00000000000E+00 -0.20517767478E+01  0.20517767478E+01  0.00000000000E+00 0.  1.
         21    1    1    2  502  501  0.21086089296E+02 -0.20107113135E+01  0.59300309957E+02  0.62969777535E+02  0.00000000000E+00 0.  1.
         21    1    1    2  503  502 -0.21086089296E+02  0.20107113135E+01  0.51657710221E+03  0.51701118813E+03  0.00000000000E+00 0. -1.
</event>
<event>
 4    1  0.5568520E+002  0.3935119E+02  0.7546771E-02  0.1352330E+00
          2   -1    0    0  502    0  0.00000000000E+00  0.00000000000E+00  0.14409066683E+03  0.14409066683E+03  0.00000000000E+00 0. -1.
         -2   -1    0    0    0  501 -0.00000000000E+00 -0.00000000000E+00 -0.35351268356E+02  0.35351268356E+02  0.00000000000E+00 0.  1.
         21    1    1    2  502  503 -0.25874075860E+02  0.29648751397E+02  0.12922081471E+03  0.13507973651E+03  0.00000000000E+00 0. -1.
         21    1    1    2  503  501  0.25874075860E+02 -0.29648751397E+02 -0.20481416231E+02  0.44362198681E+02  0.00000000000E+00 0.  1.
</event>
<event>
 4    1  0.5568520E+002  0.3642483E+02  0.7546771E-02  0.1370814E+00
          2   -1    0    0  503    0  0.00000000000E+00  0.00000000000E+00  0.11634049661E+04  0.11634049661E+04  0.00000000000E+00 0.  1.
         -2   -1    0    0    0  501 -0.00000000000E+00 -0.00000000000E+00 -0.11447467844E+01  0.11447467844E+01  0.00000000000E+00 0. -1.
         21    1    1    2  502  501  0.82404959354E+01  0.35480448390E+02  0.61693605589E+03  0.61801040853E+03  0.00000000000E+00 0. -1.
         21    1    1    2  503  502 -0.82404959354E+01 -0.35480448390E+02  0.54532416347E+03  0.54653930440E+03  0.00000000000E+00 0.  1.
</event>
<event>
 4    1  0.5568520E+002  0.3855480E+02  0.7546771E-02  0.1357169E+00
          2   -1    0    0  503    0  0.00000000000E+00  0.00000000000E+00  0.10258044498E+04  0.10258044498E+04  0.00000000000E+00 0. -1.
         -2   -1    0    0    0  501 -0.00000000000E+00 -0.00000000000E+00 -0.19486893576E+01  0.19486893576E+01  0.00000000000E+00 0.  1.
         21    1    1    2  502  501  0.92373211442E+01  0.37431859905E+02  0.25173045625E+03  0.25466584938E+03  0.00000000000E+00 0.  1.
         21    1    1    2  503  502 -0.92373211442E+01 -0.37431859905E+02  0.77212530420E+03  0.77308728978E+03  0.00000000000E+00 0. -1.
</event>
<event>
 4    1  0.5568520E+002  0.2013989E+02  0.7546771E-02  0.1531908E+00
          2   -1    0    0  503    0  0.00000000000E+00  0.00000000000E+00  0.48787157411E+01  0.48787157411E+01  0.00000000000E+00 0. -1.
         -2   -1    0    0    0  501 -0.00000000000E+00 -0.00000000000E+00 -0.84276294315E+02  0.84276294315E+02  0.00000000000E+00 0.  1.
         21    1    1    2  502  501  0.16945055554E+02  0.10884870037E+02 -0.44875482805E+02  0.49187643371E+02  0.00000000000E+00 0.  1.
         21    1    1    2  503  502 -0.16945055554E+02 -0.10884870037E+02 -0.34522095769E+02  0.39967366685E+02  0.00000000000E+00 0. -1.
</event>
<event>
 4    1  0.5568520E+002  0.3958540E+02  0.7546771E-02  0.1350933E+00
          2   -1    0    0  503    0  0.00000000000E+00  0.00000000000E+00  0.15592969902E+03  0.15592969902E+03  0.00000000000E+00 0.  1.
         -2   -1    0    0    0  501 -0.00000000000E+00 -0.00000000000E+00 -0.10518300029E+02  0.10518300029E+02  0.00000000000E+00 0. -1.
         21    1    1    2  502  501  0.34854829976E+02 -0.18765520818E+02  0.90277002807E+02  0.98574546309E+02  0.00000000000E+00 0. -1.
         21    1    1    2  503  502 -0.34854829976E+02  0.18765520818E+02  0.55134396185E+02  0.67873452740E+02  0.00000000000E+00 0.  1.
</event>
<event>
 4    1  0.5568520E+002  0.2399721E+02  0.7546771E-02  0.1480342E+00
          2   -1    0    0  502    0  0.00000000000E+00  0.00000000000E+00  0.70275519578E+02  0.70275519578E+02  0.00000000000E+00 0. -1.
         -2   -1    0    0    0  501 -0.00000000000E+00 -0.00000000000E+00 -0.34505065081E+02  0.34505065081E+02  0.00000000000E+00 0.  1.
         21    1    1    2  502  503  0.15704139041E+02  0.18145139549E+02  0.63633559633E+02  0.68008058228E+02  0.00000000000E+00 0. -1.
         21    1    1    2  503  501 -0.15704139041E+02 -0.18145139549E+02 -0.27863105137E+02  0.36772526431E+02  0.00000000000E+00 0.  1.
</event>
<event>
 4    1  0.5568520E+002  0.2026799E+02  0.7546771E-02  0.1529978E+00
          2   -1    0    0  503    0  0.00000000000E+00  0.00000000000E+00  0.97078604480E+03  0.97078604480E+03  0.00000000000E+00 0.  1.
         -2   -1    0    0    0  501 -0.00000000000E+00 -0.00000000000E+00 -0.14788506976E+01  0.14788506976E+01  0.00000000000E+00 0. -1.
         21    1    1    2  502  501 -0.84363657373E+01  0.18428760992E+02  0.73918199992E+02  0.76646538008E+02  0.00000000000E+00 0. -1.
         21    1    1    2  503  502  0.84363657373E+01 -0.18428760992E+02  0.89538899411E+03  0.89561835749E+03  0.00000000000E+00 0.  1.
</event>
<event>
 4    1  0.5568520E+002  0.2541755E+02  0.7546771E-02  0.1464186E+00
          2   -1    0    0  502    0  0.00000000000E+00  0.00000000000E+00  0.19222851271E+04  0.19222851271E+04  0.00000000000E+00 0.  1.
         -2   -1    0    0    0  501 -0.00000000000E+00 -0.00000000000E+00 -0.59800157069E+00  0.59800157069E+00  0.00000000000E+00 0. -1.
         21    1    1    2  502  503  0.72860344579E+01  0.24350887539E+02  0.15971302884E+04  0.15973325297E+04  0.00000000000E+00 0.  1.
         21    1    1    2  503  501 -0.72860344579E+01 -0.24350887539E+02  0.32455683711E+03  0.32555059904E+03  0.00000000000E+00 0. -1.
</event>
<event>
 4    1  0.5568520E+002  0.2094986E+02  0.7546771E-02  0.1519982E+00
          2   -1    0    0  502    0  0.00000000000E+00  0.00000000000E+00  0.36028909163E+02  0.36028909163E+02  0.00000000000E+00 0. -1.
         -2   -1    0    0    0  501 -0.00000000000E+00 -0.00000000000E+00 -0.16848326562E+02  0.16848326562E+02  0.00000000000E+00 0.  1.
         21    1    1    2  502  503 -0.80898132937E+01 -0.19324892371E+02  0.23504476423E+02  0.31485821511E+02  0.00000000000E+00 0. -1.
         21    1    1    2  503  501  0.80898132937E+01  0.19324892371E+02 -0.43238938223E+01  0.21391414214E+02  0.00000000000E+00 0.  1.
</event>
<event>
 4    1  0.5568520E+002  0.2531212E+02  0.7546771E-02  0.1465342E+00
          2   -1    0    0  502    0  0.00000000000E+00  0.00000000000E+00  0.50748828098E+03  0.50748828098E+03  0.00000000000E+00 0. -1.
         -2   -1    0    0    0  501 -0.00000000000E+00 -0.00000000000E+00 -0.56722743805E+01  0.56722743805E+01  0.00000000000E+00 0.  1.
         21    1    1    2  502  503 -0.25251124822E+02 -0.17561462686E+01  0.47713941150E+03  0.47781034037E+03  0.00000000000E+00 0. -1.
         21    1    1    2  503  501  0.25251124822E+02  0.17561462686E+01  0.24676595102E+02  0.35350214996E+02  0.00000000000E+00 0.  1.
</event>
<event>
 4    1  0.5568520E+002  0.3430487E+02  0.7546771E-02  0.1385517E+00
          2   -1    0    0  503    0  0.00000000000E+00  0.00000000000E+00  0.25571262572E+03  0.25571262572E+03  0.00000000000E+00 0.  1.
         -2   -1    0    0    0  501 -0.00000000000E+00 -0.00000000000E+00 -0.25239005043E+02  0.25239005043E+02  0.00000000000E+00 0. -1.
         21    1    1    2  502  501 -0.33699122922E+02  0.64182098419E+01 -0.11787647394E+02  0.36273584526E+02  0.00000000000E+00 0. -1.
         21    1    1    2  503  502  0.33699122922E+02 -0.64182098419E+01  0.24226126807E+03  0.24467804624E+03  0.00000000000E+00 0.  1.
</event>
<event>
 4    1  0.5568520E+002  0.2526629E+02  0.7546771E-02  0.1465846E+00
          2   -1    0    0  503    0  0.00000000000E+00  0.00000000000E+00  0.13124131928E+04  0.13124131928E+04  0.00000000000E+00 0. -1.
         -2   -1    0    0    0  501 -0.00000000000E+00 -0.00000000000E+00 -0.11698755523E+01  0.11698755523E+01  0.00000000000E+00 0.  1.
         21    1    1    2  502  501 -0.14744086774E+02  0.20518218625E+02  0.15361148203E+03  0.15567553694E+03  0.00000000000E+00 0.  1.
         21    1    1    2  503  502  0.14744086774E+02 -0.20518218625E+02  0.11576318352E+04  0.11579075314E+04  0.00000000000E+00 0. -1.
</event>
<event>
 4    1  0.5568520E+002  0.2356287E+02  0.7546771E-02  0.1485549E+00
          2   -1    0    0  503    0  0.00000000000E+00  0.00000000000E+00  0.11914379490E+04  0.11914379490E+04  0.00000000000E+00 0. -1.
         -2   -1    0    0    0  501 -0.00000000000E+00 -0.00000000000E+00 -0.18514380445E+01  0.18514380445E+01  0.00000000000E+00 0.  1.
         21    1    1    2  502  501 -0.23328177147E+02 -0.33173534781E+01  0.78668215434E+02  0.82121232349E+02  0.00000000000E+00 0.  1.
         21    1    1    2  503  502  0.23328177147E+02  0.33173534781E+01  0.11109182956E+04  0.11111681547E+04  0.00000000000E+00 0. -1.
</event>
<event>
 4    1  0.5568520E+002  0.2595611E+02  0.7546771E-02  0.1458386E+00
          2   -1    0    0  503    0  0.00000000000E+00  0.00000000000E+00  0.43389294262E+03  0.43389294262E+03  0.00000000000E+00 0.  1.
         -2   -1    0    0    0  501 -0.00000000000E+00 -0.00000000000E+00 -0.16651886017E+01  0.16651886017E+01  0.00000000000E+00 0. -1.
         21    1    1    2  502  501  0.19499621505E+02  0.17131381768E+02  0.15951904327E+03  0.16161696893E+03  0.00000000000E+00 0.  1.
         21    1    1    2  503  502 -0.19499621505E+02 -0.17131381768E+02  0.27270871075E+03  0.27394116229E+03  0.00000000000E+00 0. -1.
</event>
<event>
 4    1  0.5568520E+002  0.2212381E+02  0.7546771E-02  0.1503804E+00
          2   -1    0    0  503    0  0.00000000000E+00  0.00000000000E+00  0.12368779266E+04  0.12368779266E+04  0.00000000000E+00 0.  1.
         -2   -1    0    0    0  501 -0.00000000000E+00 -0.00000000000E+00 -0.40528981786E+00  0.40528981786E+00  0.00000000000E+00 0. -1.
         21    1    1    2  502  501 -0.11553997844E+02 -0.18867111466E+02  0.52319586231E+03  0.52366341585E+03  0.00000000000E+00 0.  1.
         21    1    1    2  503  502  0.11553997844E+02  0.18867111466E+02  0.71327677444E+03  0.71361980054E+03  0.00000000000E+00 0. -1.
</event>
<event>
 4    1  0.5568520E+002  0.2158376E+02  0.7546771E-02  0.1511091E+00
          2   -1    0    0  502    0  0.00000000000E+00  0.00000000000E+00  0.14982600727E+03  0.14982600727E+03  0.00000000000E+00 0. -1.
         -2   -1    0    0    0  501 -0.00000000000E+00 -0.00000000000E+00 -0.13395975358E+02  0.13395975358E+02  0.00000000000E+00 0.  1.
         21    1    1    2  502  503  0.86565556490E+01 -0.19771764040E+02  0.13973021495E+03  0.14138738126E+03  0.00000000000E+00 0. -1.
         21    1    1    2  503  501 -0.86565556490E+01  0.19771764040E+02 -0.33001830370E+01  0.21834601371E+02  0.00000000000E+00 0.  1.
</event>
<event>
 4    1  0.5568520E+002  0.3284577E+02  0.7546771E-02  0.1396375E+00
          2   -1    0    0  503    0  0.00000000000E+00  0.00000000000E+00  0.30056953087E+03  0.30056953087E+03  0.00000000000E+00 0. -1.
         -2   -1    0    0    0  501 -0.00000000000E+00 -0.00000000000E+00 -0.63047263099E+01  0.63047263099E+01  0.00000000000E+00 0.  1.
         21    1    1    2  502  501  0.26922489599E+02  0.18815532320E+02  0.46436090386E+02  0.56878424671E+02  0.00000000000E+00 0.  1.
         21    1    1    2  503  502 -0.26922489599E+02 -0.18815532320E+02  0.24782871417E+03  0.24999583250E+03  0.00000000000E+00 0. -1.
</event>
<event>
 4    1  0.5568520E+002  0.2596125E+02  0.7546771E-02  0.1458331E+00
          2   -1    0    0  502    0  0.00000000000E+00  0.00000000000E+00  0.34732255734E+02  0.34732255734E+02  0.00000000000E+00 0. -1.
         -2   -1    0    0    0  501 -0.00000000000E+00 -0.00000000000E+00 -0.32671321742E+02  0.32671321742E+02  0.00000000000E+00 0.  1.
         21    1    1    2  502  503 -0.25574566498E+02  0.44640593680E+01 -0.20444951307E+02  0.33045155644E+02  0.00000000000E+00 0.  1.
         21    1    1    2  503  501  0.25574566498E+02 -0.44640593680E+01  0.22505885300E+02  0.34358421831E+02  0.00000000000E+00 0. -1.
</event>
<event>
 4    1  0.5568520E+002  0.2318468E+02  0.7546771E-02  0.1490192E+00
          2   -1    0    0  502    0  0.00000000000E+00  0.00000000000E+00  0.35994364374E+03  0.35994364374E+03  0.00000000000E+00 0.  1.
         -2   -1    0    0    0  501 -0.00000000000E+00 -0.00000000000E+00 -0.16721148981E+01  0.16721148981E+01  0.00000000000E+00 0. -1.
         21    1    1    2  502  503 -0.11887518529E+02 -0.19905178071E+02  0.23825115215E+03  0.23937656675E+03  0.00000000000E+00 0.  1.
         21    1    1    2  503  501  0.11887518529E+02  0.19905178071E+02  0.12002037669E+03  0.12223919188E+03  0.00000000000E+00 0. -1.
</event>
<event>
 4    1  0.5568520E+002  0.2675031E+02  0.7546771E-02  0.1450132E+00
          2   -1    0    0  502    0  0.00000000000E+00  0.00000000000E+00  0.65487806110E+03  0.65487806110E+03  0.00000000000E+00 0. -1.
         -2   -1    0    0    0  501 -0.00000000000E+00 -0.00000000000E+00 -0.13898927675E+01  0.13898927675E+01  0.00000000000E+00 0.  1.
         21    1    1    2  502  503  0.23994847049E+02  0.11824831288E+02  0.47847926870E+03  0.47922644950E+03  0.00000000000E+00 0. -1.
         21    1    1    2  503  501 -0.23994847049E+02 -0.11824831288E+02  0.17500889963E+03  0.17704150437E+03  0.00000000000E+00 0.  1.
</event>
<event>
 4    1  0.5568520E+002  0.5052389E+02  0.7546771E-02  0.1295917E+00
          2   -1    0    0  503    0  0.00000000000E+00  0.00000000000E+00  0.74016022128E+03  0.74016022128E+03  0.00000000000E+00 0. -1.
         -2   -1    0    0    0  501 -0.00000000000E+00 -0.00000000000E+00 -0.49861396790E+01  0.49861396790E+01  0.00000000000E+00 0.  1.
         21    1    1    2  502  501 -0.41588078970E+02 -0.28689627782E+02  0.16070891332E+03  0.16846369898E+03  0.00000000000E+00 0.  1.
         21    1    1    2  503  502  0.41588078970E+02  0.28689627782E+02  0.57446516829E+03  0.57668266198E+03  0.00000000000E+00 0. -1.
</event>
<event>
 4    1  0.5568520E+002  0.2786143E+02  0.7546771E-02  0.1439142E+00
          2   -1    0    0  502    0  0.00000000000E+00  0.00000000000E+00  0.29583524731E+02  0.29583524731E+02  0.00000000000E+00 0.  1.
         -2   -1    0    0    0  501 -0.00000000000E+00 -0.00000000000E+00 -0.27068325247E+02  0.27068325247E+02  0.00000000000E+00 0. -1.
         21    1    1    2  502  503  0.24103792340E+02 -0.13973779310E+02 -0.36987676883E+01  0.28105874756E+02  0.00000000000E+00 0. -1.
         21    1    1    2  503  501 -0.24103792340E+02  0.13973779310E+02  0.62139671727E+01  0.28545975222E+02  0.00000000000E+00 0.  1.
</event>
<event>
 4    1  0.5568520E+002  0.2078965E+02  0.7546771E-02  0.1522289E+00
          2   -1    0    0  502    0  0.00000000000E+00  0.00000000000E+00  0.14722330478E+04  0.14722330478E+04  0.00000000000E+00 0.  1.
         -2   -1    0    0    0  501 -0.00000000000E+00 -0.00000000000E+00 -0.14733689255E+01  0.14733689255E+01  0.00000000000E+00 0. -1.
         21    1    1    2  502  503  0.17535657271E+02 -0.11167368863E+02  0.13947487716E+04  0.13949037047E+04  0.00000000000E+00 0.  1.
         21    1    1    2  503  501 -0.17535657271E+02  0.11167368863E+02  0.76010907197E+02  0.78802711985E+02  0.00000000000E+00 0. -1.
</event>
<event>
 4    1  0.5568520E+002  0.4889933E+02  0.7546771E-02  0.1303016E+00
          2   -1    0    0  502    0  0.00000000000E+00  0.00000000000E+00  0.19655039904E+04  0.19655039904E+04  0.00000000000E+00 0.  1.
         -2   -1    0    0    0  501 -0.00000000000E+00 -0.00000000000E+00 -0.12179585942E+01  0.12179585942E+01  0.00000000000E+00 0. -1.
         21    1    1    2  502  503 -0.48715004863E+02 -0.42417823336E+01  0.10155211203E+04  0.10166977379E+04  0.00000000000E+00 0. -1.
         21    1    1    2  503  501  0.48715004863E+02  0.42417823336E+01  0.94876491154E+03  0.95002421115E+03  0.00000000000E+00 0.  1.
</event>
<event>
 4    1  0.5568520E+002  0.3104026E+02  0.7546771E-02  0.1410767E+00
          2   -1    0    0  503    0  0.00000000000E+00  0.00000000000E+00  0.20185856796E+03  0.20185856796E+03  0.00000000000E+00 0.  1.
         -2   -1    0    0    0  501 -0.00000000000E+00 -0.00000000000E+00 -0.22223067199E+02  0.22223067199E+02  0.00000000000E+00 0. -1.
         21    1    1    2  502  501  0.29389459218E+02  0.99878748748E+01 -0.94643956655E+01  0.32451082308E+02  0.00000000000E+00 0. -1.
         21    1    1    2  503  502 -0.29389459218E+02 -0.99878748748E+01  0.18909989642E+03  0.19163055285E+03  0.00000000000E+00 0.  1.
</event>
<event>
 4    1  0.5568520E+002  0.3976393E+02  0.7546771E-02  0.1349875E+00
          2   -1    0    0  502    0  0.00000000000E+00  0.00000000000E+00  0.54908569280E+03  0.54908569280E+03  0.00000000000E+00 0. -1.
         -2   -1    0    0    0  501 -0.00000000000E+00 -0.00000000000E+00 -0.10232486292E+02  0.10232486292E+02  0.00000000000E+00 0.  1.
         21    1    1    2  502  503  0.17760397983E+02 -0.35577216070E+02  0.50649084349E+03  0.50804935250E+03  0.00000000000E+00 0. -1.
         21    1    1    2  503  501 -0.17760397983E+02  0.35577216070E+02  0.32362363019E+02  0.51268826591E+02  0.00000000000E+00 0.  1.
</event>
<event>
 4    1  0.5568520E+002  0.6267069E+02  0.7546771E-02  0.1251019E+00
          2   -1    0    0  502    0  0.00000000000E+00  0.00000000000E+00  0.29893677202E+02  0.29893677202E+02  0.00000000000E+00 0.  1.
         -2   -1    0    0    0  501 -0.00000000000E+00 -0.00000000000E+00 -0.52089589491E+03  0.52089589491E+03  0.00000000000E+00 0. -1.
         21    1    1    2  502  503  0.78886385481E+00 -0.62665723384E+02 -0.73572375467E+01  0.63101062889E+02  0.00000000000E+00 0.  1.
         21    1    1    2  503  501 -0.78886385481E+00  0.62665723384E+02 -0.48364498016E+03  0.48768850922E+03  0.00000000000E+00 0. -1.
</event>
<event>
 4    1  0.5568520E+002  0.2160973E+02  0.7546771E-02  0.1510735E+00
          2   -1    0    0  502    0  0.00000000000E+00  0.00000000000E+00  0.30188585273E+03  0.30188585273E+03  0.00000000000E+00 0. -1.
         -2   -1    0    0    0  501 -0.00000000000E+00 -0.00000000000E+00 -0.29479511780E+01  0.29479511780E+01  0.00000000000E+00 0.  1.
         21    1    1    2  502  503 -0.16190441266E+02 -0.14312581026E+02  0.25454494525E+03  0.25546058310E+03  0.00000000000E+00 0. -1.
         21    1    1    2  503  501  0.16190441266E+02  0.14312581026E+02  0.44392956300E+02  0.49373220809E+02  0.00000000000E+00 0.  1.
</event>
<event>
 4    1  0.5568520E+002  0.2328248E+02  0.7546771E-02  0.1488981E+00
          2   -1    0    0  502    0  0.00000000000E+00  0.00000000000E+00  0.72031222087E+00  0.72031222087E+00  0.00000000000E+00 0.  1.
         -2   -1    0    0    0  501 -0.00000000000E+00 -0.00000000000E+00 -0.75350191008E+03  0.75350191008E+03  0.00000000000E+00 0. -1.
         21    1    1    2  502  503  0.11875426157E+01 -0.23252175601E+02 -0.38976549189E+03  0.39046025739E+03  0.00000000000E+00 0.  1.
         21    1    1    2  503  501 -0.11875426157E+01  0.23252175601E+02 -0.36301610597E+03  0.36376196492E+03  0.00000000000E+00 0. -1.
</event>
<event>
 4    1  0.5568520E+002  0.2028790E+02  0.7546771E-02  0.1529679E+00
          2   -1    0    0  502    0  0.00000000000E+00  0.00000000000E+00  0.15222846458E+03  0.15222846458E+03  0.00000000000E+00 0.  1.
         -2   -1    0    0    0  501 -0.00000000000E+00 -0.00000000000E+00 -0.30438334084E+01  0.30438334084E+01  0.00000000000E+00 0. -1.
         21    1    1    2  502  503  0.14558588266E+02 -0.14129634064E+02  0.48644625781E+02  0.52705774527E+02  0.00000000000E+00 0. -1.
         21    1    1    2  503  501 -0.14558588266E+02  0.14129634064E+02  0.10054000539E+03  0.10256652346E+03  0.00000000000E+00 0.  1.
</event>
<event>
 4    1  0.5568520E+002  0.2326835E+02  0.7546771E-02  0.1489156E+00
          2   -1    0    0  502    0  0.00000000000E+00  0.00000000000E+00  0.45989935338E+03  0.45989935338E+03  0.00000000000E+00 0.  1.
         -2   -1    0    0    0  501 -0.00000000000E+00 -0.00000000000E+00 -0.12009867050E+01  0.12009867050E+01  0.00000000000E+00 0. -1.
         21    1    1    2  502  503  0.12312312194E+01  0.23235752810E+02  0.26176179446E+03  0.26279393672E+03  0.00000000000E+00 0. -1.
         21    1    1    2  503  501 -0.12312312194E+01 -0.23235752810E+02  0.19693657222E+03  0.19830640336E+03  0.00000000000E+00 0.  1.
</event>
<event>
 4    1  0.5568520E+002  0.2586297E+02  0.7546771E-02  0.1459377E+00
          2   -1    0    0  502    0  0.00000000000E+00  0.00000000000E+00  0.20461484235E+04  0.20461484235E+04  0.00000000000E+00 0. -1.
         -2   -1    0    0    0  501 -0.00000000000E+00 -0.00000000000E+00 -0.12760685464E+01  0.12760685464E+01  0.00000000000E+00 0.  1.
         21    1    1    2  502  503  0.24627631335E+02 -0.78976524757E+01  0.19053366684E+04  0.19055121918E+04  0.00000000000E+00 0. -1.
         21    1    1    2  503  501 -0.24627631335E+02  0.78976524757E+01  0.13953568653E+03  0.14191230023E+03  0.00000000000E+00 0.  1.
</event>
<event>
 4    1  0.5568520E+002  0.2623718E+02  0.7546771E-02  0.1455425E+00
          2   -1    0    0  503    0  0.00000000000E+00  0.00000000000E+00  0.21370076001E+03  0.21370076001E+03  0.00000000000E+00 0.  1.
         -2   -1    0    0    0  501 -0.00000000000E+00 -0.00000000000E+00 -0.32232812564E+01  0.32232812564E+01  0.00000000000E+00 0. -1.
         21    1    1    2  502  501 -0.25671845016E+02  0.54171984190E+01  0.10794233582E+03  0.11108527143E+03  0.00000000000E+00 0. -1.
         21    1    1    2  503  502  0.25671845016E+02 -0.54171984190E+01  0.10253514294E+03  0.10583876984E+03  0.00000000000E+00 0.  1.
</event>
<event>
 4    1  0.5568520E+002  0.3121238E+02  0.7546771E-02  0.1409345E+00
          2   -1    0    0  502    0  0.00000000000E+00  0.00000000000E+00  0.23648467144E+04  0.23648467144E+04  0.00000000000E+00 0. -1.
         -2   -1    0    0    0  501 -0.00000000000E+00 -0.00000000000E+00 -0.14021269766E+01  0.14021269766E+01  0.00000000000E+00 0.  1.
         21    1    1    2  502  503 -0.71465666501E+01  0.30383207479E+02  0.21759637091E+04  0.21761875553E+04  0.00000000000E+00 0. -1.
         21    1    1    2  503  501  0.71465666501E+01 -0.30383207479E+02  0.18748087832E+03  0.19006128603E+03  0.00000000000E+00 0.  1.
</event>
<event>
 4    1  0.5568520E+002  0.3041725E+02  0.7546771E-02  0.1416005E+00
          2   -1    0    0  503    0  0.00000000000E+00  0.00000000000E+00  0.81007968266E+02  0.81007968266E+02  0.00000000000E+00 0. -1.
         -2   -1    0    0    0  501 -0.00000000000E+00 -0.00000000000E+00 -0.14661176612E+03  0.14661176612E+03  0.00000000000E+00 0.  1.
         21    1    1    2  502  501 -0.33681529711E+01 -0.30230191395E+02 -0.14208894384E+03  0.14530821342E+03  0.00000000000E+00 0.  1.
         21    1    1    2  503  502  0.33681529711E+01  0.30230191395E+02  0.76485145988E+02  0.82311520962E+02  0.00000000000E+00 0. -1.
</event>
<event>
 4    1  0.5568520E+002  0.2057098E+02  0.7546771E-02  0.1525479E+00
          2   -1    0    0  502    0  0.00000000000E+00  0.00000000000E+00  0.91701127225E+03  0.91701127225E+03  0.00000000000E+00 0.  1.
         -2   -1    0    0    0  501 -0.00000000000E+00 -0.00000000000E+00 -0.65794771274E+00  0.65794771274E+00  0.00000000000E+00 0. -1.
         21    1    1    2  502  503  0.14001575730E+02  0.15070530738E+02  0.20743472641E+03  0.20845222652E+03  0.00000000000E+00 0. -1.
         21    1    1    2  503  501 -0.14001575730E+02 -0.15070530738E+02  0.70891859813E+03  0.70921699345E+03  0.00000000000E+00 0.  1.
</event>
<event>
 4    1  0.5568520E+002  0.2553101E+02  0.7546771E-02  0.1462950E+00
          2   -1    0    0  503    0  0.00000000000E+00  0.00000000000E+00  0.18870499969E+03  0.18870499969E+03  0.00000000000E+00 0. -1.
         -2   -1    0    0    0  501 -0.00000000000E+00 -0.00000000000E+00 -0.60726552887E+01  0.60726552887E+01  0.00000000000E+00 0.  1.
         21    1    1    2  502  501  0.51912203912E+01 -0.24997673845E+02  0.27366394546E+02  0.37426621771E+02  0.00000000000E+00 0.  1.
         21    1    1    2  503  502 -0.51912203912E+01  0.24997673845E+02  0.15526594986E+03  0.15735103321E+03  0.00000000000E+00 0. -1.
</event>
<event>
 4    1  0.5568520E+002  0.2154176E+02  0.7546771E-02  0.1511669E+00
          2   -1    0    0  503    0  0.00000000000E+00  0.00000000000E+00  0.70375426296E+02  0.70375426296E+02  0.00000000000E+00 0.  1.
         -2   -1    0    0    0  501 -0.00000000000E+00 -0.00000000000E+00 -0.17141326348E+02  0.17141326348E+02  0.00000000000E+00 0. -1.
         21    1    1    2  502  501 -0.20777596877E+02  0.56867230249E+01 -0.77081108711E+01  0.22879299026E+02  0.00000000000E+00 0. -1.
         21    1    1    2  503  502  0.20777596877E+02 -0.56867230249E+01  0.60942210819E+02  0.64637453618E+02  0.00000000000E+00 0.  1.
</event>
<event>
 4    1  0.5568520E+002  0.3955018E+02  0.7546771E-02  0.1351142E+00
          2   -1    0    0  503    0  0.00000000000E+00  0.00000000000E+00  0.11644545299E+04  0.11644545299E+04  0.00000000000E+00 0.  1.
         -2   -1    0    0    0  501 -0.00000000000E+00 -0.00000000000E+00 -0.14202181290E+01  0.14202181290E+01  0.00000000000E+00 0. -1.
         21    1    1    2  502  501  0.18799348172E+01 -0.39505470569E+02  0.71717584077E+03  0.71826555183E+03  0.00000000000E+00 0.  1.
         21    1    1    2  503  502 -0.18799348172E+01  0.39505470569E+02  0.44585847103E+03  0.44760919623E+03  0.00000000000E+00 0. -1.
</event>
<event>
 4    1  0.5568520E+002  0.3071916E+02  0.7546771E-02  0.1413448E+00
          2   -1    0    0  503    0  0.00000000000E+00  0.00000000000E+00  0.86953155124E+03  0.86953155124E+03  0.00000000000E+00 0. -1.
         -2   -1    0    0    0  501 -0.00000000000E+00 -0.00000000000E+00 -0.40141557812E+01  0.40141557812E+01  0.00000000000E+00 0.  1.
         21    1    1    2  502  501  0.19562621716E+02 -0.23684815278E+02  0.59671294764E+02  0.67114305941E+02  0.00000000000E+00 0.  1.
         21    1    1    2  503  502 -0.19562621716E+02  0.23684815278E+02  0.80584610070E+03  0.80643140108E+03  0.00000000000E+00 0. -1.
</event>
<event>
 4    1  0.5568520E+002  0.2037375E+02  0.7546771E-02  0.1528397E+00
          2   -1    0    0  503    0  0.00000000000E+00  0.00000000000E+00  0.81026537077E+01  0.81026537077E+01  0.00000000000E+00 0.  1.
         -2   -1    0    0    0  501 -0.00000000000E+00 -0.00000000000E+00 -0.51263232535E+02  0.51263232535E+02  0.00000000000E+00 0. -1.
         21    1    1    2  502  501  0.17135832511E+02  0.11020564819E+02 -0.22349054504E+02  0.30241855797E+02  0.00000000000E+00 0.  1.
         21    1    1    2  503  502 -0.17135832511E+02 -0.11020564819E+02 -0.20811524322E+02  0.29124030446E+02  0.00000000000E+00 0. -1.
</event>
<event>
 4    1  0.5568520E+002  0.2099230E+02  0.7546771E-02  0.1519375E+00
          2   -1    0    0  503    0  0.00000000000E+00  0.00000000000E+00  0.19773346415E+03  0.19773346415E+03  0.00000000000E+00 0.  1.
         -2   -1    0    0    0  501 -0.00000000000E+00 -0.00000000000E+00 -0.42570661795E+02  0.42570661795E+02  0.00000000000E+00 0. -1.
         21    1    1    2  502  501 -0.49546881165E+01 -0.20399211590E+02 -0.39383311753E+02  0.44628712870E+02  0.00000000000E+00 0. -1.
         21    1    1    2  503  502  0.49546881165E+01  0.20399211590E+02  0.19454611411E+03  0.19567541308E+03  0.00000000000E+00 0.  1.
</event>
<event>
 4    1  0.5568520E+002  0.2005518E+02  0.7546771E-02  0.1533194E+00
          2   -1    0    0  502    0  0.00000000000E+00  0.00000000000E+00  0.87225187716E+02  0.87225187716E+02  0.00000000000E+00 0. -1.
         -2   -1    0    0    0  501 -0.00000000000E+00 -0.00000000000E+00 -0.61789951573E+01  0.61789951573E+01  0.00000000000E+00 0.  1.
         21    1    1    2  502  503 -0.14261035047E+02  0.14100813770E+02  0.64047919815E+02  0.67114425441E+02  0.00000000000E+00 0. -1.
         21    1    1    2  503  501  0.14261035047E+02 -0.14100813770E+02  0.16998272743E+02  0.26289757432E+02  0.00000000000E+00 0.  1.
</event>
<event>
 4    1  0.5568520E+002  0.2195427E+02  0.7546771E-02  0.1506064E+00
          2   -1    0    0  503    0  0.00000000000E+00  0.00000000000E+00  0.45245398634E+03  0.45245398634E+03  0.00000000000E+00 0. -1.
         -2   -1    0    0    0  501 -0.00000000000E+00 -0.00000000000E+00 -0.43206944195E+01  0.43206944195E+01  0.00000000000E+00 0.  1.
         21    1    1    2  502  501  0.20312425823E+02  0.83303887509E+01  0.25823392482E+02  0.33894507207E+02  0.00000000000E+00 0.  1.
         21    1    1    2  503  502 -0.20312425823E+02 -0.83303887509E+01  0.42230989944E+03  0.42288017356E+03  0.00000000000E+00 0. -1.
</event>
<event>
 4    1  0.5568520E+002  0.2097820E+02  0.7546771E-02  0.1519576E+00
          2   -1    0    0  503    0  0.00000000000E+00  0.00000000000E+00  0.67969312398E+00  0.67969312398E+00  0.00000000000E+00 0. -1.
         -2   -1    0    0    0  501 -0.00000000000E+00 -0.00000000000E+00 -0.79145503431E+03  0.79145503431E+03  0.00000000000E+00 0.  1.
         21    1    1    2  502  501  0.12787984437E+02  0.16629865886E+02 -0.56431719618E+03  0.56470698853E+03  0.00000000000E+00 0.  1.
         21    1    1    2  503  502 -0.12787984437E+02 -0.16629865886E+02 -0.22645814500E+03  0.22742773891E+03  0.00000000000E+00 0. -1.
</event>
<event>
 4    1  0.5568520E+002  0.2083172E+02  0.7546771E-02  0.1521681E+00
          2   -1    0    0  502    0  0.00000000000E+00  0.00000000000E+00  0.74676967125E+02  0.74676967125E+02  0.00000000000E+00 0.  1.
         -2   -1    0    0    0  501 -0.00000000000E+00 -0.00000000000E+00 -0.61066025843E+01  0.61066025843E+01  0.00000000000E+00 0. -1.
         21    1    1    2  502  503 -0.20128245201E+02  0.53678818193E+01  0.25400870311E+02  0.32850641130E+02  0.00000000000E+00 0. -1.
         21    1    1    2  503  501  0.20128245201E+02 -0.53678818193E+01  0.43169494229E+02  0.47932928579E+02  0.00000000000E+00 0.  1.
</event>
<event>
 4    1  0.5568520E+002  0.2605108E+02  0.7546771E-02  0.1457380E+00
          2   -1    0    0  503    0  0.00000000000E+00  0.00000000000E+00  0.30470173105E+03  0.30470173105E+03  0.00000000000E+00 0. -1.
         -2   -1    0    0    0  501 -0.00000000000E+00 -0.00000000000E+00 -0.70411584777E+01  0.70411584777E+01  0.00000000000E+00 0.  1.
         21    1    1    2  502  501  0.26048927900E+02 -0.33505293289E+00  0.19948471400E+02  0.32811589666E+02  0.00000000000E+00 0.  1.
         21    1    1    2  503  502 -0.26048927900E+02  0.33505293289E+00  0.27771210117E+03  0.27893129986E+03  0.00000000000E+00 0. -1.
</event>
<event>
 4    1  0.5568520E+002  0.2677324E+02  0.7546771E-02  0.1449899E+00
          2   -1    0    0  502    0  0.00000000000E+00  0.00000000000E+00  0.82064659614E+03  0.82064659614E+03  0.00000000000E+00 0.  1.
         -2   -1    0    0    0  501 -0.00000000000E+00 -0.00000000000E+00 -0.15351452331E+01  0.15351452331E+01  0.00000000000E+00 0. -1.
         21    1    1    2  502  503  0.21801187104E+02 -0.15540732782E+02  0.67944595104E+03  0.67997323956E+03  0.00000000000E+00 0. -1.
         21    1    1    2  503  501 -0.21801187104E+02  0.15540732782E+02  0.13966549987E+03  0.14220850181E+03  0.00000000000E+00 0.  1.
</event>
<event>
 4    1  0.5568520E+002  0.2157009E+02  0.7546771E-02  0.1511279E+00
          2   -1    0    0  502    0  0.00000000000E+00  0.00000000000E+00  0.15257544309E+02  0.15257544309E+02  0.00000000000E+00 0. -1.
         -2   -1    0    0    0  501 -0.00000000000E+00 -0.00000000000E+00 -0.30683146444E+02  0.30683146444E+02  0.00000000000E+00 0.  1.
         21    1    1    2  502  503 -0.36691890147E+01  0.21255728315E+02 -0.59109801470E+01  0.22365344185E+02  0.00000000000E+00 0.  1.
         21    1    1    2  503  501  0.36691890147E+01 -0.21255728315E+02 -0.95146219887E+01  0.23575346568E+02  0.00000000000E+00 0. -1.
</event>
<event>
 4    1  0.5568520E+002  0.2190973E+02  0.7546771E-02  0.1506662E+00
          2   -1    0    0  502    0  0.00000000000E+00  0.00000000000E+00  0.10837874655E+04  0.10837874655E+04  0.00000000000E+00 0. -1.
         -2   -1    0    0    0  501 -0.00000000000E+00 -0.00000000000E+00 -0.72192474041E+00  0.72192474041E+00  0.00000000000E+00 0.  1.
         21    1    1    2  502  503  0.16338243633E+02 -0.14597883348E+02  0.87863325188E+03  0.87890638166E+03  0.00000000000E+00 0. -1.
         21    1    1    2  503  501 -0.16338243633E+02  0.14597883348E+02  0.20443228892E+03  0.20560300863E+03  0.00000000000E+00 0.  1.
</event>
<event>
 4    1  0.5568520E+002  0.4557065E+02  0.7546771E-02  0.1318610E+00
          2   -1    0    0  502    0  0.00000000000E+00  0.00000000000E+00  0.12496422812E+03  0.12496422812E+03  0.00000000000E+00 0. -1.
         -2   -1    0    0    0  501 -0.00000000000E+00 -0.00000000000E+00 -0.85638695471E+02  0.85638695471E+02  0.00000000000E+00 0.  1.
         21    1    1    2  502  503  0.36867100585E+02 -0.26786201922E+02  0.11419683167E+03  0.12295365014E+03  0.00000000000E+00 0.  1.
         21    1    1    2  503  501 -0.36867100585E+02  0.26786201922E+02 -0.74871299023E+02  0.87649273450E+02  0.00000000000E+00 0. -1.
</event>
<event>
 4    1  0.5568520E+002  0.2241431E+02  0.7546771E-02  0.1499987E+00
          2   -1    0    0  503    0  0.00000000000E+00  0.00000000000E+00  0.25668200130E+02  0.25668200130E+02  0.00000000000E+00 0. -1.
         -2   -1    0    0    0  501 -0.00000000000E+00 -0.00000000000E+00 -0.53101008867E+02  0.53101008867E+02  0.00000000000E+00 0.  1.
         21    1    1    2  502  501 -0.17914595600E+02  0.13471027476E+02 -0.45011737609E+02  0.50283773121E+02  0.00000000000E+00 0.  1.
         21    1    1    2  503  502  0.17914595600E+02 -0.13471027476E+02  0.17578928871E+02  0.28485435876E+02  0.00000000000E+00 0. -1.
</event>
<event>
 4    1  0.5568520E+002  0.2323772E+02  0.7546771E-02  0.1489534E+00
          2   -1    0    0  503    0  0.00000000000E+00  0.00000000000E+00  0.80296143149E+03  0.80296143149E+03  0.00000000000E+00 0. -1.
         -2   -1    0    0    0  501 -0.00000000000E+00 -0.00000000000E+00 -0.22344453282E+01  0.22344453282E+01  0.00000000000E+00 0.  1.
         21    1    1    2  502  501  0.69931933079E+01  0.22160478431E+02  0.63759242847E+02  0.67861864146E+02  0.00000000000E+00 0.  1.
         21    1    1    2  503  502 -0.69931933079E+01 -0.22160478431E+02  0.73696774331E+03  0.73733401267E+03  0.00000000000E+00 0. -1.
</event>
<event>
 4    1  0.5568520E+002  0.2277177E+02  0.7546771E-02  0.1495384E+00
          2   -1    0    0  502    0  0.00000000000E+00  0.00000000000E+00  0.22590496484E+04  0.22590496484E+04  0.00000000000E+00 0. -1.
         -2   -1    0    0    0  501 -0.00000000000E+00 -0.00000000000E+00 -0.23391780230E+00  0.23391780230E+00  0.00000000000E+00 0.  1.
         21    1    1    2  502  503  0.40905185646E+01 -0.22401368794E+02  0.12838573686E+04  0.12840593041E+04  0.00000000000E+00 0. -1.
         21    1    1    2  503  501 -0.40905185646E+01  0.22401368794E+02  0.97495836205E+03  0.97522426210E+03  0.00000000000E+00 0.  1.
</event>
<event>
 4    1  0.5568520E+002  0.2482168E+02  0.7546771E-02  0.1470808E+00
          2   -1    0    0  502    0  0.00000000000E+00  0.00000000000E+00  0.17794068450E+03  0.17794068450E+03  0.00000000000E+00 0. -1.
         -2   -1    0    0    0  501 -0.00000000000E+00 -0.00000000000E+00 -0.39921971954E+01  0.39921971954E+01  0.00000000000E+00 0.  1.
         21    1    1    2  502  503  0.22735692774E+02 -0.99601331445E+01  0.53838445412E+02  0.59284856267E+02  0.00000000000E+00 0.  1.
         21    1    1    2  503  501 -0.22735692774E+02  0.99601331445E+01  0.12011004189E+03  0.12264802543E+03  0.00000000000E+00 0. -1.
</event>
<event>
 4    1  0.5568520E+002  0.2086353E+02  0.7546771E-02  0.1521222E+00
          2   -1    0    0  502    0  0.00000000000E+00  0.00000000000E+00  0.56547618165E+02  0.56547618165E+02  0.00000000000E+00 0. -1.
         -2   -1    0    0    0  501 -0.00000000000E+00 -0.00000000000E+00 -0.11312660263E+02  0.11312660263E+02  0.00000000000E+00 0.  1.
         21    1    1    2  502  503  0.17132927322E+02  0.11905864218E+02  0.41797753501E+02  0.46715511333E+02  0.00000000000E+00 0. -1.
         21    1    1    2  503  501 -0.17132927322E+02 -0.11905864218E+02  0.34372044007E+01  0.21144767095E+02  0.00000000000E+00 0.  1.
</event>
<event>
 4    1  0.5568520E+002  0.2228993E+02  0.7546771E-02  0.1501612E+00
          2   -1    0    0  503    0  0.00000000000E+00  0.00000000000E+00  0.15276896453E+03  0.15276896453E+03  0.00000000000E+00 0. -1.
         -2   -1    0    0    0  501 -0.00000000000E+00 -0.00000000000E+00 -0.13054146576E+03  0.13054146576E+03  0.00000000000E+00 0.  1.
         21    1    1    2  502  501  0.11036319050E+02  0.19365971213E+02 -0.12876577593E+03  0.13068077988E+03  0.00000000000E+00 0.  1.
         21    1    1    2  503  502 -0.11036319050E+02 -0.19365971213E+02  0.15099327470E+03  0.15262965041E+03  0.00000000000E+00 0. -1.
</event>
<event>
 4    1  0.5568520E+002  0.3012252E+02  0.7546771E-02  0.1418535E+00
          2   -1    0    0  502    0  0.00000000000E+00  0.00000000000E+00  0.34890417196E+02  0.34890417196E+02  0.00000000000E+00 0. -1.
         -2   -1    0    0    0  501 -0.00000000000E+00 -0.00000000000E+00 -0.31359608718E+02  0.31359608718E+02  0.00000000000E+00 0.  1.
         21    1    1    2  502  503 -0.30111331286E+02 -0.82098696446E+00  0.15451732712E+02  0.33854428590E+02  0.00000000000E+00 0. -1.
         21    1    1    2  503  501  0.30111331286E+02  0.82098696446E+00 -0.11920924234E+02  0.32395597324E+02  0.00000000000E+00 0.  1.
</event>
<event>
 4    1  0.5568520E+002  0.3641736E+02  0.7546771E-02  0.1370863E+00
          2   -1    0    0  502    0  0.00000000000E+00  0.00000000000E+00  0.18535205267E+04  0.18535205267E+04  0.00000000000E+00 0.  1.
         -2   -1    0    0    0  501 -0.00000000000E+00 -0.00000000000E+00 -0.71823795969E+00  0.71823795969E+00  0.00000000000E+00 0. -1.
         21    1    1    2  502  503  0.13522845530E+02 -0.33813560691E+02  0.86933026287E+03  0.87009271355E+03  0.00000000000E+00 0. -1.
         21    1    1    2  503  501 -0.13522845530E+02  0.33813560691E+02  0.98347202583E+03  0.98414605107E+03  0.00000000000E+00 0.  1.
</event>
<event>
 4    1  0.5568520E+002  0.1425411E+03  0.7546771E-02  0.1105517E+00
          2   -1    0    0  503    0  0.00000000000E+00  0.00000000000E+00  0.20164600285E+03  0.20164600285E+03  0.00000000000E+00 0. -1.
         -2   -1    0    0    0  501 -0.00000000000E+00 -0.00000000000E+00 -0.19967077699E+03  0.19967077699E+03  0.00000000000E+00 0.  1.
         21    1    1    2  502  501  0.10998914226E+03 -0.90666091411E+02 -0.14024037896E+03  0.19996328522E+03  0.00000000000E+00 0.  1.
         21    1    1    2  503  502 -0.10998914226E+03  0.90666091411E+02  0.14221560482E+03  0.20135349463E+03  0.00000000000E+00 0. -1.
</event>
<event>
 4    1  0.5568520E+002  0.3007536E+02  0.7546771E-02  0.1418943E+00
          2   -1    0    0  502    0  0.00000000000E+00  0.00000000000E+00  0.41812035907E+03  0.41812035907E+03  0.00000000000E+00 0.  1.
         -2   -1    0    0    0  501 -0.00000000000E+00 -0.00000000000E+00 -0.12996112915E+02  0.12996112915E+02  0.00000000000E+00 0. -1.
         21    1    1    2  502  503  0.27215093899E+02 -0.12801009980E+02  0.39936350724E+03  0.40049436714E+03  0.00000000000E+00 0.  1.
         21    1    1    2  503  501 -0.27215093899E+02  0.12801009980E+02  0.57607389127E+01  0.30622104847E+02  0.00000000000E+00 0. -1.
</event>
<event>
 4    1  0.5568520E+002  0.2119463E+02  0.7546771E-02  0.1516504E+00
          2   -1    0    0  503    0  0.00000000000E+00  0.00000000000E+00  0.59796675778E+02  0.59796675778E+02  0.00000000000E+00 0.  1.
         -2   -1    0    0    0  501 -0.00000000000E+00 -0.00000000000E+00 -0.75377725850E+02  0.75377725850E+02  0.00000000000E+00 0. -1.
         21    1    1    2  502  501  0.79392510955E+01 -0.19651475644E+02 -0.71921397249E+02  0.74979327719E+02  0.00000000000E+00 0. -1.
         21    1    1    2  503  502 -0.79392510955E+01  0.19651475644E+02  0.56340347177E+02  0.60195073909E+02  0.00000000000E+00 0.  1.
</event>
<event>
 4    1  0.5568520E+002  0.3758846E+02  0.7546771E-02  0.1363228E+00
          2   -1    0    0  502    0  0.00000000000E+00  0.00000000000E+00  0.55784829842E+02  0.55784829842E+02  0.00000000000E+00 0.  1.
         -2   -1    0    0    0  501 -0.00000000000E+00 -0.00000000000E+00 -0.38498492886E+02  0.38498492886E+02  0.00000000000E+00 0. -1.
         21    1    1    2  502  503 -0.34327451576E+02  0.15313988008E+02  0.36216657351E+02  0.52197111319E+02  0.00000000000E+00 0. -1.
         21    1    1    2  503  501  0.34327451576E+02 -0.15313988008E+02 -0.18930320395E+02  0.42086211408E+02  0.00000000000E+00 0.  1.
</event>
<event>
 4    1  0.5568520E+002  0.2227953E+02  0.7546771E-02  0.1501749E+00
          2   -1    0    0  502    0  0.00000000000E+00  0.00000000000E+00  0.42207786640E+02  0.42207786640E+02  0.00000000000E+00 0. -1.
         -2   -1    0    0    0  501 -0.00000000000E+00 -0.00000000000E+00 -0.15804391403E+02  0.15804391403E+02  0.00000000000E+00 0.  1.
         21    1    1    2  502  503  0.13115694574E+02 -0.18009890856E+02  0.27874363007E+02  0.35684138295E+02  0.00000000000E+00 0. -1.
         21    1    1    2  503  501 -0.13115694574E+02  0.18009890856E+02 -0.14709677691E+01  0.22328039748E+02  0.00000000000E+00 0.  1.
</event>
<event>
 4    1  0.5568520E+002  0.2324761E+02  0.7546771E-02  0.1489412E+00
          2   -1    0    0  502    0  0.00000000000E+00  0.00000000000E+00  0.13236917165E+04  0.13236917165E+04  0.00000000000E+00 0.  1.
         -2   -1    0    0    0  501 -0.00000000000E+00 -0.00000000000E+00 -0.75190924599E+00  0.75190924599E+00  0.00000000000E+00 0. -1.
         21    1    1    2  502  503 -0.10097189926E+02  0.20940348022E+02  0.11091408143E+04  0.11093844227E+04  0.00000000000E+00 0.  1.
         21    1    1    2  503  501  0.10097189926E+02 -0.20940348022E+02  0.21379899299E+03  0.21505920307E+03  0.00000000000E+00 0. -1.
</event>
<event>
 4    1  0.5568520E+002  0.2630878E+02  0.7546771E-02  0.1454678E+00
          2   -1    0    0  503    0  0.00000000000E+00  0.00000000000E+00  0.63654903524E+03  0.63654903524E+03  0.00000000000E+00 0.  1.
         -2   -1    0    0    0  501 -0.00000000000E+00 -0.00000000000E+00 -0.68325649949E+01  0.68325649949E+01  0.00000000000E+00 0. -1.
         21    1    1    2  502  501  0.25429206803E+02  0.67459047497E+01  0.19873266739E+02  0.32971177116E+02  0.00000000000E+00 0. -1.
         21    1    1    2  503  502 -0.25429206803E+02 -0.67459047497E+01  0.60984320350E+03  0.61041042311E+03  0.00000000000E+00 0.  1.
</event>
<event>
 4    1  0.5568520E+002  0.3710599E+02  0.7546771E-02  0.1366333E+00
          2   -1    0    0  502    0  0.00000000000E+00  0.00000000000E+00  0.25024381429E+02  0.25024381429E+02  0.00000000000E+00 0.  1.
         -2   -1    0    0    0  501 -0.00000000000E+00 -0.00000000000E+00 -0.57681869532E+02  0.57681869532E+02  0.00000000000E+00 0. -1.
         21    1    1    2  502  503 -0.35669250834E+02 -0.10225424685E+02 -0.74461727831E+01  0.37845742881E+02  0.00000000000E+00 0.  1.
         21    1    1    2  503  501  0.35669250834E+02  0.10225424685E+02 -0.25211315320E+02  0.44860508081E+02  0.00000000000E+00 0. -1.
</event>
<event>
 4    1  0.5568520E+002  0.2842152E+02  0.7546771E-02  0.1433829E+00
          2   -1    0    0  502    0  0.00000000000E+00  0.00000000000E+00  0.74356050659E+03  0.74356050659E+03  0.00000000000E+00 0. -1.
         -2   -1    0    0    0  501 -0.00000000000E+00 -0.00000000000E+00 -0.15879100162E+01  0.15879100162E+01  0.00000000000E+00 0.  1.
         21    1    1    2  502  503 -0.11989334245E+02  0.25768945889E+02  0.58037446064E+03  0.58106995901E+03  0.00000000000E+00 0. -1.
         21    1    1    2  503  501  0.11989334245E+02 -0.25768945889E+02  0.16159813593E+03  0.16407845759E+03  0.00000000000E+00 0.  1.
</event>
<event>
 4    1  0.5568520E+002  0.2021145E+02  0.7546771E-02  0.1530828E+00
          2   -1    0    0  503    0  0.00000000000E+00  0.00000000000E+00  0.13543541315E+03  0.13543541315E+03  0.00000000000E+00 0.  1.
         -2   -1    0    0    0  501 -0.00000000000E+00 -0.00000000000E+00 -0.30172829047E+01  0.30172829047E+01  0.00000000000E+00 0. -1.
         21    1    1    2  502  501 -0.20132481753E+02 -0.17849220542E+01  0.67509422209E+02  0.70470028063E+02  0.00000000000E+00 0. -1.
         21    1    1    2  503  502  0.20132481753E+02  0.17849220542E+01  0.64908708040E+02  0.67982667995E+02  0.00000000000E+00 0.  1.
</event>
<event>
 4    1  0.5568520E+002  0.3620827E+02  0.7546771E-02  0.1372262E+00
          2   -1    0    0  503    0  0.00000000000E+00  0.00000000000E+00  0.55785750660E+03  0.55785750660E+03  0.00000000000E+00 0. -1.
         -2   -1    0    0    0  501 -0.00000000000E+00 -0.00000000000E+00 -0.27430215867E+01  0.27430215867E+01  0.00000000000E+00 0.  1.
         21    1    1    2  502  501  0.35434547459E+02  0.74452594079E+01  0.38363977824E+03  0.38534467492E+03  0.00000000000E+00 0. -1.
         21    1    1    2  503  502 -0.35434547459E+02 -0.74452594079E+01  0.17147470678E+03  0.17525585327E+03  0.00000000000E+00 0.  1.
</event>
<event>
 4    1  0.5568520E+002  0.4030400E+02  0.7546771E-02  0.1346714E+00
          2   -1    0    0  503    0  0.00000000000E+00  0.00000000000E+00  0.32355918192E+03  0.32355918192E+03  0.00000000000E+00 0.  1.
         -2   -1    0    0    0  501 -0.00000000000E+00 -0.00000000000E+00 -0.96505059467E+01  0.96505059467E+01  0.00000000000E+00 0. -1.
         21    1    1    2  502  501 -0.16269508714E+02  0.36874323968E+02  0.41554365830E+02  0.57889360002E+02  0.00000000000E+00 0. -1.
         21    1    1    2  503  502  0.16269508714E+02 -0.36874323968E+02  0.27235431014E+03  0.27532032786E+03  0.00000000000E+00 0.  1.
</event>
<event>
 4    1  0.5568520E+002  0.3285558E+02  0.7546771E-02  0.1396300E+00
          2   -1    0    0  502    0  0.00000000000E+00  0.00000000000E+00  0.43728261206E+04  0.43728261206E+04  0.00000000000E+00 0. -1.
         -2   -1    0    0    0  501 -0.00000000000E+00 -0.00000000000E+00 -0.24737560839E+00  0.24737560839E+00  0.00000000000E+00 0.  1.
         21    1    1    2  502  503  0.29190793168E+02  0.15079340053E+02  0.20867538234E+04  0.20870124601E+04  0.00000000000E+00 0.  1.
         21    1    1    2  503  501 -0.29190793168E+02 -0.15079340053E+02  0.22858249216E+04  0.22860610362E+04  0.00000000000E+00 0. -1.
</event>
<event>
 4    1  0.5568520E+002  0.8311272E+02  0.7546771E-02  0.1196800E+00
          2   -1    0    0  503    0  0.00000000000E+00  0.00000000000E+00  0.35759342591E+03  0.35759342591E+03  0.00000000000E+00 0.  1.
         -2   -1    0    0    0  501 -0.00000000000E+00 -0.00000000000E+00 -0.30394276585E+02  0.30394276585E+02  0.00000000000E+00 0. -1.
         21    1    1    2  502  501 -0.50961110047E+02  0.65655838989E+02  0.46486999432E+02  0.95230063776E+02  0.00000000000E+00 0. -1.
         21    1    1    2  503  502  0.50961110047E+02 -0.65655838989E+02  0.28071214989E+03  0.29275763872E+03  0.00000000000E+00 0.  1.
</event>
<event>
 4    1  0.5568520E+002  0.2580431E+02  0.7546771E-02  0.1460003E+00
          2   -1    0    0  502    0  0.00000000000E+00  0.00000000000E+00  0.67020218136E+03  0.67020218136E+03  0.00000000000E+00 0.  1.
         -2   -1    0    0    0  501 -0.00000000000E+00 -0.00000000000E+00 -0.27525416122E+02  0.27525416122E+02  0.00000000000E+00 0. -1.
         21    1    1    2  502  503  0.22619990066E+02  0.12417658285E+02  0.66384823403E+03  0.66434956161E+03  0.00000000000E+00 0.  1.
         21    1    1    2  503  501 -0.22619990066E+02 -0.12417658285E+02 -0.21171468792E+02  0.33378035872E+02  0.00000000000E+00 0. -1.
</event>
<event>
 4    1  0.5568520E+002  0.3535862E+02  0.7546771E-02  0.1378059E+00
          2   -1    0    0  502    0  0.00000000000E+00  0.00000000000E+00  0.17915946403E+03  0.17915946403E+03  0.00000000000E+00 0.  1.
         -2   -1    0    0    0  501 -0.00000000000E+00 -0.00000000000E+00 -0.88375660242E+01  0.88375660242E+01  0.00000000000E+00 0. -1.
         21    1    1    2  502  503 -0.17533002777E+02 -0.30705467162E+02  0.12827543365E+03  0.13305945580E+03  0.00000000000E+00 0.  1.
         21    1    1    2  503  501  0.17533002777E+02  0.30705467162E+02  0.42046464356E+02  0.54937574254E+02  0.00000000000E+00 0. -1.
</event>
<event>
 4    1  0.5568520E+002  0.2635045E+02  0.7546771E-02  0.1454244E+00
          2   -1    0    0  503    0  0.00000000000E+00  0.00000000000E+00  0.18412023474E+03  0.18412023474E+03  0.00000000000E+00 0. -1.
         -2   -1    0    0    0  501 -0.00000000000E+00 -0.00000000000E+00 -0.97438937446E+01  0.97438937446E+01  0.00000000000E+00 0.  1.
         21    1    1    2  502  501 -0.22068311174E+02  0.14399158722E+02  0.11297583103E+02  0.28670219984E+02  0.00000000000E+00 0.  1.
         21    1    1    2  503  502  0.22068311174E+02 -0.14399158722E+02  0.16307875789E+03  0.16519390850E+03  0.00000000000E+00 0. -1.
</event>
<event>
 4    1  0.5568520E+002  0.2417938E+02  0.7546771E-02  0.1478197E+00
          2   -1    0    0  502    0  0.00000000000E+00  0.00000000000E+00  0.15311608021E+04  0.15311608021E+04  0.00000000000E+00 0.  1.
         -2   -1    0    0    0  501 -0.00000000000E+00 -0.00000000000E+00 -0.50814689363E+01  0.50814689363E+01  0.00000000000E+00 0. -1.
         21    1    1    2  502  503  0.11868655873E+02 -0.21066030325E+02  0.15017383748E+04  0.15019330175E+04  0.00000000000E+00 0.  1.
         21    1    1    2  503  501 -0.11868655873E+02  0.21066030325E+02  0.24340958355E+02  0.34309253555E+02  0.00000000000E+00 0. -1.
</event>
<event>
 4    1  0.5568520E+002  0.2564241E+02  0.7546771E-02  0.1461744E+00
          2   -1    0    0  503    0  0.00000000000E+00  0.00000000000E+00  0.14342558710E+04  0.14342558710E+04  0.00000000000E+00 0. -1.
         -2   -1    0    0    0  501 -0.00000000000E+00 -0.00000000000E+00 -0.63138303301E+00  0.63138303301E+00  0.00000000000E+00 0.  1.
         21    1    1    2  502  501  0.90381817779E+01  0.23996756199E+02  0.34133667941E+03  0.34229849802E+03  0.00000000000E+00 0.  1.
         21    1    1    2  503  502 -0.90381817779E+01 -0.23996756199E+02  0.10922878085E+04  0.10925887560E+04  0.00000000000E+00 0. -1.
</event>
<event>
 4    1  0.5568520E+002  0.2874982E+02  0.7546771E-02  0.1430781E+00
          2   -1    0    0  502    0  0.00000000000E+00  0.00000000000E+00  0.50815710573E+03  0.50815710573E+03  0.00000000000E+00 0.  1.
         -2   -1    0    0    0  501 -0.00000000000E+00 -0.00000000000E+00 -0.26567901490E+01  0.26567901490E+01  0.00000000000E+00 0. -1.
         21    1    1    2  502  503  0.28196128314E+02 -0.56151956326E+01  0.41179497747E+03  0.41279735409E+03  0.00000000000E+00 0.  1.
         21    1    1    2  503  501 -0.28196128314E+02  0.56151956326E+01  0.93705338110E+02  0.98016541788E+02  0.00000000000E+00 0. -1.
</event>
<event>
 4    1  0.5568520E+002  0.5087600E+02  0.7546771E-02  0.1294418E+00
          2   -1    0    0  503    0  0.00000000000E+00  0.00000000000E+00  0.80765813956E+03  0.80765813956E+03  0.00000000000E+00 0.  1.
         -2   -1    0    0    0  501 -0.00000000000E+00 -0.00000000000E+00 -0.72955579657E+01  0.72955579657E+01  0.00000000000E+00 0. -1.
         21    1    1    2  502  501 -0.20970357655E+02 -0.46353118625E+02  0.95057142233E+02  0.10781571219E+03  0.00000000000E+00 0. -1.
         21    1    1    2  503  502  0.20970357655E+02  0.46353118625E+02  0.70530543936E+03  0.70713798533E+03  0.00000000000E+00 0.  1.
</event>
<event>
 4    1  0.5568520E+002  0.3442221E+02  0.7546771E-02  0.1384671E+00
          2   -1    0    0  503    0  0.00000000000E+00  0.00000000000E+00  0.89798112551E+03  0.89798112551E+03  0.00000000000E+00 0. -1.
         -2   -1    0    0    0  501 -0.00000000000E+00 -0.00000000000E+00 -0.13303890779E+01  0.13303890779E+01  0.00000000000E+00 0.  1.
         21    1    1    2  502  501 -0.22278860379E+02  0.26240062405E+02  0.40764985148E+03  0.40910058654E+03  0.00000000000E+00 0.  1.
         21    1    1    2  503  502  0.22278860379E+02 -0.26240062405E+02  0.48900088496E+03  0.49021092805E+03  0.00000000000E+00 0. -1.
</event>
<event>
 4    1  0.5568520E+002  0.2544378E+02  0.7546771E-02  0.1463900E+00
          2   -1    0    0  503    0  0.00000000000E+00  0.00000000000E+00  0.27355751670E+01  0.27355751670E+01  0.00000000000E+00 0.  1.
         -2   -1    0    0    0  501 -0.00000000000E+00 -0.00000000000E+00 -0.30684076170E+03  0.30684076170E+03  0.00000000000E+00 0. -1.
         21    1    1    2  502  501  0.25190278295E+02  0.35827246282E+01 -0.22608254154E+03  0.22750978359E+03  0.00000000000E+00 0. -1.
         21    1    1    2  503  502 -0.25190278295E+02 -0.35827246282E+01 -0.78022644990E+02  0.82066553282E+02  0.00000000000E+00 0.  1.
</event>
<event>
 4    1  0.5568520E+002  0.2113945E+02  0.7546771E-02  0.1517283E+00
          2   -1    0    0  503    0  0.00000000000E+00  0.00000000000E+00  0.14284251788E+04  0.14284251788E+04  0.00000000000E+00 0. -1.
         -2   -1    0    0    0  501 -0.00000000000E+00 -0.00000000000E+00 -0.15226354303E+01  0.15226354303E+01  0.00000000000E+00 0.  1.
         21    1    1    2  502  501  0.21079883856E+02  0.15858090396E+01  0.76146424484E+02  0.79026288382E+02  0.00000000000E+00 0.  1.
         21    1    1    2  503  502 -0.21079883856E+02 -0.15858090396E+01  0.13507561189E+04  0.13509215258E+04  0.00000000000E+00 0. -1.
</event>
<event>
 4    1  0.5568520E+002  0.2926638E+02  0.7546771E-02  0.1426080E+00
          2   -1    0    0  503    0  0.00000000000E+00  0.00000000000E+00  0.82895460474E+02  0.82895460474E+02  0.00000000000E+00 0.  1.
         -2   -1    0    0    0  501 -0.00000000000E+00 -0.00000000000E+00 -0.12072229704E+02  0.12072229704E+02  0.00000000000E+00 0. -1.
         21    1    1    2  502  501  0.27436653614E+02 -0.10185824909E+02  0.17386106479E+02  0.34041117624E+02  0.00000000000E+00 0. -1.
         21    1    1    2  503  502 -0.27436653614E+02  0.10185824909E+02  0.53437124291E+02  0.60926572553E+02  0.00000000000E+00 0.  1.
</event>
<event>
 4    1  0.5568520E+002  0.2126031E+02  0.7546771E-02  0.1515581E+00
          2   -1    0    0  502    0  0.00000000000E+00  0.00000000000E+00  0.47478034450E+03  0.47478034450E+03  0.00000000000E+00 0.  1.
         -2   -1    0    0    0  501 -0.00000000000E+00 -0.00000000000E+00 -0.58950718774E+01  0.58950718774E+01  0.00000000000E+00 0. -1.
         21    1    1    2  502  503  0.95288546179E+01  0.19005303808E+02  0.45451977113E+03  0.45501672825E+03  0.00000000000E+00 0.  1.
         21    1    1    2  503  501 -0.95288546179E+01 -0.19005303808E+02  0.14365501497E+02  0.25658688127E+02  0.00000000000E+00 0. -1.
</event>
<event>
 4    1  0.5568520E+002  0.3134737E+02  0.7546771E-02  0.1408238E+00
          2   -1    0    0  503    0  0.00000000000E+00  0.00000000000E+00  0.16104443138E+04  0.16104443138E+04  0.00000000000E+00 0.  1.
         -2   -1    0    0    0  501 -0.00000000000E+00 -0.00000000000E+00 -0.61049127865E+00  0.61049127865E+00  0.00000000000E+00 0. -1.
         21    1    1    2  502  501 -0.21111087549E+02 -0.23172820671E+02  0.82316551854E+03  0.82376217960E+03  0.00000000000E+00 0.  1.
         21    1    1    2  503  502  0.21111087549E+02  0.23172820671E+02  0.78666830397E+03  0.78729262547E+03  0.00000000000E+00 0. -1.
</event>
<event>
 4    1  0.5568520E+002  0.2620442E+02  0.7546771E-02  0.1455768E+00
          2   -1    0    0  503    0  0.00000000000E+00  0.00000000000E+00  0.11015462317E+03  0.11015462317E+03  0.00000000000E+00 0.  1.
         -2   -1    0    0    0  501 -0.00000000000E+00 -0.00000000000E+00 -0.63926740212E+01  0.63926740212E+01  0.00000000000E+00 0. -1.
         21    1    1    2  502  501  0.14580406287E+02  0.21773459497E+02  0.61070280459E+02  0.66454878988E+02  0.00000000000E+00 0.  1.
         21    1    1    2  503  502 -0.14580406287E+02 -0.21773459497E+02  0.42691668689E+02  0.50092418202E+02  0.00000000000E+00 0. -1.
</event>
<event>
 4    1  0.5568520E+002  0.2038245E+02  0.7546771E-02  0.1528267E+00
          2   -1    0    0  502    0  0.00000000000E+00  0.00000000000E+00  0.97566335998E+02  0.97566335998E+02  0.00000000000E+00 0.  1.
         -2   -1    0    0    0  501 -0.00000000000E+00 -0.00000000000E+00 -0.76833267786E+01  0.76833267786E+01  0.00000000000E+00 0. -1.
         21    1    1    2  502  503 -0.20014404106E+02 -0.38558788182E+01  0.80078345104E+02  0.82631625470E+02  0.00000000000E+00 0.  1.
         21    1    1    2  503  501  0.20014404106E+02  0.38558788182E+01  0.98046641154E+01  0.22618037307E+02  0.00000000000E+00 0. -1.
</event>
<event>
 4    1  0.5568520E+002  0.2871122E+02  0.7546771E-02  0.1431137E+00
          2   -1    0    0  502    0  0.00000000000E+00  0.00000000000E+00  0.22996546408E+02  0.22996546408E+02  0.00000000000E+00 0. -1.
         -2   -1    0    0    0  501 -0.00000000000E+00 -0.00000000000E+00 -0.36386197113E+02  0.36386197113E+02  0.00000000000E+00 0.  1.
         21    1    1    2  502  503  0.28255782611E+02  0.50936229600E+01 -0.30770857626E+01  0.28875642029E+02  0.00000000000E+00 0. -1.
         21    1    1    2  503  501 -0.28255782611E+02 -0.50936229600E+01 -0.10312564942E+02  0.30507101493E+02  0.00000000000E+00 0.  1.
</event>
<event>
 4    1  0.5568520E+002  0.2051713E+02  0.7546771E-02  0.1526272E+00
          2   -1    0    0  502    0  0.00000000000E+00  0.00000000000E+00  0.77960897031E+03  0.77960897031E+03  0.00000000000E+00 0.  1.
         -2   -1    0    0    0  501 -0.00000000000E+00 -0.00000000000E+00 -0.75715373075E+00  0.75715373075E+00  0.00000000000E+00 0. -1.
         21    1    1    2  502  503  0.20509227063E+02  0.56935753270E+00  0.59840679048E+03  0.59875841493E+03  0.00000000000E+00 0.  1.
         21    1    1    2  503  501 -0.20509227063E+02 -0.56935753270E+00  0.18044502611E+03  0.18160770911E+03  0.00000000000E+00 0. -1.
</event>
<event>
 4    1  0.5568520E+002  0.2197336E+02  0.7546771E-02  0.1505808E+00
          2   -1    0    0  503    0  0.00000000000E+00  0.00000000000E+00  0.12409545936E+03  0.12409545936E+03  0.00000000000E+00 0.  1.
         -2   -1    0    0    0  501 -0.00000000000E+00 -0.00000000000E+00 -0.13263818747E+02  0.13263818747E+02  0.00000000000E+00 0. -1.
         21    1    1    2  502  501  0.31258464576E+01 -0.21749888010E+02 -0.23184716203E+01  0.22095335598E+02  0.00000000000E+00 0. -1.
         21    1    1    2  503  502 -0.31258464576E+01  0.21749888010E+02  0.11315011224E+03  0.11526394251E+03  0.00000000000E+00 0.  1.
</event>
<event>
 4    1  0.5568520E+002  0.2085648E+02  0.7546771E-02  0.1521324E+00
          2   -1    0    0  503    0  0.00000000000E+00  0.00000000000E+00  0.57315969262E+02  0.57315969262E+02  0.00000000000E+00 0.  1.
         -2   -1    0    0    0  501 -0.00000000000E+00 -0.00000000000E+00 -0.23791093213E+02  0.23791093213E+02  0.00000000000E+00 0. -1.
         21    1    1    2  502  501 -0.10673013873E+02  0.17918693172E+02 -0.16703416577E+02  0.26720720713E+02  0.00000000000E+00 0. -1.
         21    1    1    2  503  502  0.10673013873E+02 -0.17918693172E+02  0.50228292626E+02  0.54386341762E+02  0.00000000000E+00 0.  1.
</event>
<event>
 4    1  0.5568520E+002  0.2652798E+02  0.7546771E-02  0.1452408E+00
          2   -1    0    0  503    0  0.00000000000E+00  0.00000000000E+00  0.26482838899E+03  0.26482838899E+03  0.00000000000E+00 0.  1.
         -2   -1    0    0    0  501 -0.00000000000E+00 -0.00000000000E+00 -0.67681728024E+01  0.67681728024E+01  0.00000000000E+00 0. -1.
         21    1    1    2  502  501 -0.10105690824E+02 -0.24527713207E+02  0.23196273830E+02  0.35239194397E+02  0.00000000000E+00 0. -1.
         21    1    1    2  503  502  0.10105690824E+02  0.24527713207E+02  0.23486394236E+03  0.23635736740E+03  0.00000000000E+00 0.  1.
</event>
<event>
 4    1  0.5568520E+002  0.3028767E+02  0.7546771E-02  0.1417113E+00
          2   -1    0    0  502    0  0.00000000000E+00  0.00000000000E+00  0.38888902886E+02  0.38888902886E+02  0.00000000000E+00 0.  1.
         -2   -1    0    0    0  501 -0.00000000000E+00 -0.00000000000E+00 -0.39393152245E+02  0.39393152245E+02  0.00000000000E+00 0. -1.
         21    1    1    2  502  503 -0.11114864120E+00  0.30287470434E+02  0.24539784392E+02  0.38981331909E+02  0.00000000000E+00 0.  1.
         21    1    1    2  503  501  0.11114864120E+00 -0.30287470434E+02 -0.25044033751E+02  0.39300723223E+02  0.00000000000E+00 0. -1.
</event>
<event>
 4    1  0.5568520E+002  0.2688578E+02  0.7546771E-02  0.1448759E+00
          2   -1    0    0  503    0  0.00000000000E+00  0.00000000000E+00  0.26839351975E+02  0.26839351975E+02  0.00000000000E+00 0. -1.
         -2   -1    0    0    0  501 -0.00000000000E+00 -0.00000000000E+00 -0.39683629145E+02  0.39683629145E+02  0.00000000000E+00 0.  1.
         21    1    1    2  502  501  0.25147262647E+02 -0.95110708396E+01 -0.25276588502E+02  0.36901913412E+02  0.00000000000E+00 0.  1.
         21    1    1    2  503  502 -0.25147262647E+02  0.95110708396E+01  0.12432311332E+02  0.29621067709E+02  0.00000000000E+00 0. -1.
</event>
<event>
 4    1  0.5568520E+002  0.5700167E+02  0.7546771E-02  0.1270375E+00
          2   -1    0    0  503    0  0.00000000000E+00  0.00000000000E+00  0.21679310145E+03  0.21679310145E+03  0.00000000000E+00 0.  1.
         -2   -1    0    0    0  501 -0.00000000000E+00 -0.00000000000E+00 -0.34546035780E+02  0.34546035780E+02  0.00000000000E+00 0. -1.
         21    1    1    2  502  501  0.16237263535E+02  0.54640114426E+02 -0.34346174654E+01  0.57105056070E+02  0.00000000000E+00 0. -1.
         21    1    1    2  503  502 -0.16237263535E+02 -0.54640114426E+02  0.18568168314E+03  0.19423408116E+03  0.00000000000E+00 0.  1.
</event>
<event>
 4    1  0.5568520E+002  0.6613920E+02  0.7546771E-02  0.1240289E+00
          2   -1    0    0  503    0  0.00000000000E+00  0.00000000000E+00  0.10818877749E+04  0.10818877749E+04  0.00000000000E+00 0. -1.
         -2   -1    0    0    0  501 -0.00000000000E+00 -0.00000000000E+00 -0.95212580069E+01  0.95212580069E+01  0.00000000000E+00 0.  1.
         21    1    1    2  502  501 -0.62930016059E+02  0.20352057700E+02  0.12225996687E+03  0.13900321101E+03  0.00000000000E+00 0.  1.
         21    1    1    2  503  502  0.62930016059E+02 -0.20352057700E+02  0.95010655001E+03  0.95240582188E+03  0.00000000000E+00 0. -1.
</event>
<event>
 4    1  0.5568520E+002  0.2310162E+02  0.7546771E-02  0.1491226E+00
          2   -1    0    0  502    0  0.00000000000E+00  0.00000000000E+00  0.27072172703E+01  0.27072172703E+01  0.00000000000E+00 0.  1.
         -2   -1    0    0    0  501 -0.00000000000E+00 -0.00000000000E+00 -0.33019363971E+03  0.33019363971E+03  0.00000000000E+00 0. -1.
         21    1    1    2  502  503 -0.19459044404E+02  0.12451114129E+02 -0.58080028669E+02  0.62505794790E+02  0.00000000000E+00 0.  1.
         21    1    1    2  503  501  0.19459044404E+02 -0.12451114129E+02 -0.26940639377E+03  0.27039506219E+03  0.00000000000E+00 0. -1.
</event>
<event>
 4    1  0.5568520E+002  0.1246211E+03  0.7546771E-02  0.1126896E+00
          2   -1    0    0  502    0  0.00000000000E+00  0.00000000000E+00  0.16627797243E+04  0.16627797243E+04  0.00000000000E+00 0.  1.
         -2   -1    0    0    0  501 -0.00000000000E+00 -0.00000000000E+00 -0.96341477544E+01  0.96341477544E+01  0.00000000000E+00 0. -1.
         21    1    1    2  502  503  0.79737599706E+02  0.95772340576E+02  0.97267666259E+03  0.98062751133E+03  0.00000000000E+00 0. -1.
         21    1    1    2  503  501 -0.79737599706E+02 -0.95772340576E+02  0.68046891392E+03  0.69178636069E+03  0.00000000000E+00 0.  1.
</event>
<event>
 4    1  0.5568520E+002  0.3980688E+02  0.7546771E-02  0.1349621E+00
          2   -1    0    0  503    0  0.00000000000E+00  0.00000000000E+00  0.11067849685E+04  0.11067849685E+04  0.00000000000E+00 0.  1.
         -2   -1    0    0    0  501 -0.00000000000E+00 -0.00000000000E+00 -0.14352378545E+01  0.14352378545E+01  0.00000000000E+00 0. -1.
         21    1    1    2  502  501  0.23439449211E+02  0.32174218070E+02  0.52517823424E+03  0.52668469297E+03  0.00000000000E+00 0.  1.
         21    1    1    2  503  502 -0.23439449211E+02 -0.32174218070E+02  0.58017149639E+03  0.58153551337E+03  0.00000000000E+00 0. -1.
</event>
<event>
 4    1  0.5568520E+002  0.2414317E+02  0.7546771E-02  0.1478621E+00
          2   -1    0    0  502    0  0.00000000000E+00  0.00000000000E+00  0.53489491224E+02  0.53489491224E+02  0.00000000000E+00 0. -1.
         -2   -1    0    0    0  501 -0.00000000000E+00 -0.00000000000E+00 -0.11097463597E+02  0.11097463597E+02  0.00000000000E+00 0.  1.
         21    1    1    2  502  503  0.24060866832E+02 -0.19918011644E+01  0.16859267474E+02  0.29447028446E+02  0.00000000000E+00 0. -1.
         21    1    1    2  503  501 -0.24060866832E+02  0.19918011644E+01  0.25532760153E+02  0.35139926374E+02  0.00000000000E+00 0.  1.
</event>
<event>
 4    1  0.5568520E+002  0.6838139E+02  0.7546771E-02  0.1233739E+00
          2   -1    0    0  502    0  0.00000000000E+00  0.00000000000E+00  0.22854055158E+04  0.22854055158E+04  0.00000000000E+00 0. -1.
         -2   -1    0    0    0  501 -0.00000000000E+00 -0.00000000000E+00 -0.31985885955E+01  0.31985885955E+01  0.00000000000E+00 0.  1.
         21    1    1    2  502  503  0.40075711756E+02  0.55407150592E+02  0.18280017518E+04  0.18292803010E+04  0.00000000000E+00 0. -1.
         21    1    1    2  503  501 -0.40075711756E+02 -0.55407150592E+02  0.45420517537E+03  0.45932380337E+03  0.00000000000E+00 0.  1.
</event>
<event>
 4    1  0.5568520E+002  0.3269935E+02  0.7546771E-02  0.1397501E+00
          2   -1    0    0  502    0  0.00000000000E+00  0.00000000000E+00  0.13447181224E+04  0.13447181224E+04  0.00000000000E+00 0. -1.
         -2   -1    0    0    0  501 -0.00000000000E+00 -0.00000000000E+00 -0.10640672758E+01  0.10640672758E+01  0.00000000000E+00 0.  1.
         21    1    1    2  502  503  0.17326453069E+02  0.27731600193E+02  0.10101041169E+04  0.10106332542E+04  0.00000000000E+00 0. -1.
         21    1    1    2  503  501 -0.17326453069E+02 -0.27731600193E+02  0.33354993826E+03  0.33514893546E+03  0.00000000000E+00 0.  1.
</event>
<event>
 4    1  0.5568520E+002  0.2010628E+02  0.7546771E-02  0.1532417E+00
          2   -1    0    0  503    0  0.00000000000E+00  0.00000000000E+00  0.25933556443E+01  0.25933556443E+01  0.00000000000E+00 0. -1.
         -2   -1    0    0    0  501 -0.00000000000E+00 -0.00000000000E+00 -0.30729070568E+03  0.30729070568E+03  0.00000000000E+00 0.  1.
         21    1    1    2  502  501  0.18190960845E+02  0.85645489484E+01 -0.26110815924E+03  0.26188114361E+03  0.00000000000E+00 0. -1.
         21    1    1    2  503  502 -0.18190960845E+02 -0.85645489484E+01 -0.43589190794E+02  0.48002917716E+02  0.00000000000E+00 0.  1.
</event>
<event>
 4    1  0.5568520E+002  0.4066085E+02  0.7546771E-02  0.1344656E+00
          2   -1    0    0  503    0  0.00000000000E+00  0.00000000000E+00  0.80856364989E+03  0.80856364989E+03  0.00000000000E+00 0. -1.
         -2   -1    0    0    0  501 -0.00000000000E+00 -0.00000000000E+00 -0.15083182806E+02  0.15083182806E+02  0.00000000000E+00 0.  1.
         21    1    1    2  502  501  0.40259636588E+02 -0.56979269345E+01  0.13847295836E+02  0.42954072118E+02  0.00000000000E+00 0.  1.
         21    1    1    2  503  502 -0.40259636588E+02  0.56979269345E+01  0.77963317124E+03  0.78069276057E+03  0.00000000000E+00 0. -1.
</event>
<event>
 4    1  0.5568520E+002  0.2154795E+02  0.7546771E-02  0.1511583E+00
          2   -1    0    0  502    0  0.00000000000E+00  0.00000000000E+00  0.11376505412E+04  0.11376505412E+04  0.00000000000E+00 0. -1.
         -2   -1    0    0    0  501 -0.00000000000E+00 -0.00000000000E+00 -0.42404092747E+00  0.42404092747E+00  0.00000000000E+00 0.  1.
         21    1    1    2  502  503 -0.49518292934E+01  0.20971256168E+02  0.67882451817E+03  0.67916643076E+03  0.00000000000E+00 0. -1.
         21    1    1    2  503  501  0.49518292934E+01 -0.20971256168E+02  0.45840198207E+03  0.45890815134E+03  0.00000000000E+00 0.  1.
</event>
<event>
 4    1  0.5568520E+002  0.2965276E+02  0.7546771E-02  0.1422638E+00
          2   -1    0    0  502    0  0.00000000000E+00  0.00000000000E+00  0.18092835114E+03  0.18092835114E+03  0.00000000000E+00 0.  1.
         -2   -1    0    0    0  501 -0.00000000000E+00 -0.00000000000E+00 -0.61496535941E+01  0.61496535941E+01  0.00000000000E+00 0. -1.
         21    1    1    2  502  503 -0.28872998191E+02 -0.67554478863E+01  0.13022721657E+03  0.13356052574E+03  0.00000000000E+00 0.  1.
         21    1    1    2  503  501  0.28872998191E+02  0.67554478863E+01  0.44551480978E+02  0.53517478995E+02  0.00000000000E+00 0. -1.
</event>
<event>
 4    1  0.5568520E+002  0.2489000E+02  0.7546771E-02  0.1470038E+00
          2   -1    0    0  503    0  0.00000000000E+00  0.00000000000E+00  0.57867378617E+03  0.57867378617E+03  0.00000000000E+00 0. -1.
         -2   -1    0    0    0  501 -0.00000000000E+00 -0.00000000000E+00 -0.46583505937E+01  0.46583505937E+01  0.00000000000E+00 0.  1.
         21    1    1    2  502  501  0.24761280475E+02 -0.25280933476E+01  0.31041526525E+02  0.39788046392E+02  0.00000000000E+00 0.  1.
         21    1    1    2  503  502 -0.24761280475E+02  0.25280933476E+01  0.54297390905E+03  0.54354409037E+03  0.00000000000E+00 0. -1.
</event>
<event>
 4    1  0.5568520E+002  0.2101949E+02  0.7546771E-02  0.1518987E+00
          2   -1    0    0  503    0  0.00000000000E+00  0.00000000000E+00  0.13094723789E+04  0.13094723789E+04  0.00000000000E+00 0. -1.
         -2   -1    0    0    0  501 -0.00000000000E+00 -0.00000000000E+00 -0.15531868533E+01  0.15531868533E+01  0.00000000000E+00 0.  1.
         21    1    1    2  502  501 -0.13850161230E+02  0.15811134854E+02  0.74000147249E+02  0.76927503173E+02  0.00000000000E+00 0.  1.
         21    1    1    2  503  502  0.13850161230E+02 -0.15811134854E+02  0.12339190448E+04  0.12340980626E+04  0.00000000000E+00 0. -1.
</event>
<event>
 4    1  0.5568520E+002  0.2503263E+02  0.7546771E-02  0.1468439E+00
          2   -1    0    0  503    0  0.00000000000E+00  0.00000000000E+00  0.48696047688E+01  0.48696047688E+01  0.00000000000E+00 0. -1.
         -2   -1    0    0    0  501 -0.00000000000E+00 -0.00000000000E+00 -0.14238766949E+03  0.14238766949E+03  0.00000000000E+00 0.  1.
         21    1    1    2  502  501  0.23843703334E+02 -0.76230324703E+01 -0.91602030859E+02  0.94960859675E+02  0.00000000000E+00 0.  1.
         21    1    1    2  503  502 -0.23843703334E+02  0.76230324703E+01 -0.45916033864E+02  0.52296414586E+02  0.00000000000E+00 0. -1.
</event>
<event>
 4    1  0.5568520E+002  0.2115250E+02  0.7546771E-02  0.1517099E+00
          2   -1    0    0  502    0  0.00000000000E+00  0.00000000000E+00  0.17987606256E+04  0.17987606256E+04  0.00000000000E+00 0. -1.
         -2   -1    0    0    0  501 -0.00000000000E+00 -0.00000000000E+00 -0.53628047097E+00  0.53628047097E+00  0.00000000000E+00 0.  1.
         21    1    1    2  502  503  0.21106139638E+02  0.13997437869E+01  0.15578678408E+04  0.15580114370E+04  0.00000000000E+00 0. -1.
         21    1    1    2  503  501 -0.21106139638E+02 -0.13997437869E+01  0.24035650425E+03  0.24128546900E+03  0.00000000000E+00 0.  1.
</event>
<event>
 4    1  0.5568520E+002  0.3720984E+02  0.7546771E-02  0.1365660E+00
          2   -1    0    0  503    0  0.00000000000E+00  0.00000000000E+00  0.35851020859E+03  0.35851020859E+03  0.00000000000E+00 0.  1.
         -2   -1    0    0    0  501 -0.00000000000E+00 -0.00000000000E+00 -0.42575910538E+01  0.42575910538E+01  0.00000000000E+00 0. -1.
         21    1    1    2  502  501 -0.34945009930E+02 -0.12783520233E+02  0.12183825629E+03  0.12739361367E+03  0.00000000000E+00 0. -1.
         21    1    1    2  503  502  0.34945009930E+02  0.12783520233E+02  0.23241436125E+03  0.23537418597E+03  0.00000000000E+00 0.  1.
</event>
<event>
 4    1  0.5568520E+002  0.2726891E+02  0.7546771E-02  0.1444925E+00
          2   -1    0    0  502    0  0.00000000000E+00  0.00000000000E+00  0.86109483314E+03  0.86109483314E+03  0.00000000000E+00 0. -1.
         -2   -1    0    0    0  501 -0.00000000000E+00 -0.00000000000E+00 -0.18179917369E+01  0.18179917369E+01  0.00000000000E+00 0.  1.
         21    1    1    2  502  503 -0.24929235465E+02 -0.11051084815E+02  0.74225863548E+03  0.74275936561E+03  0.00000000000E+00 0. -1.
         21    1    1    2  503  501  0.24929235465E+02  0.11051084815E+02  0.11701820593E+03  0.12015345928E+03  0.00000000000E+00 0.  1.
</event>
<event>
 4    1  0.5568520E+002  0.2290760E+02  0.7546771E-02  0.1493662E+00
          2   -1    0    0  503    0  0.00000000000E+00  0.00000000000E+00  0.18036123447E+01  0.18036123447E+01  0.00000000000E+00 0.  1.
         -2   -1    0    0    0  501 -0.00000000000E+00 -0.00000000000E+00 -0.44973885211E+03  0.44973885211E+03  0.00000000000E+00 0. -1.
         21    1    1    2  502  501  0.17021361494E+02 -0.15330735769E+02 -0.35812066386E+03  0.35885257152E+03  0.00000000000E+00 0. -1.
         21    1    1    2  503  502 -0.17021361494E+02  0.15330735769E+02 -0.89814575909E+02  0.92689892934E+02  0.00000000000E+00 0.  1.
</event>
<event>
 4    1  0.5568520E+002  0.2110325E+02  0.7546771E-02  0.1517796E+00
          2   -1    0    0  502    0  0.00000000000E+00  0.00000000000E+00  0.15752101393E+02  0.15752101393E+02  0.00000000000E+00 0.  1.
         -2   -1    0    0    0  501 -0.00000000000E+00 -0.00000000000E+00 -0.29741614328E+02  0.29741614328E+02  0.00000000000E+00 0. -1.
         21    1    1    2  502  503 -0.50143823253E+01 -0.20498853498E+02 -0.19387580580E+01  0.21192116639E+02  0.00000000000E+00 0. -1.
         21    1    1    2  503  501  0.50143823253E+01  0.20498853498E+02 -0.12050754877E+02  0.24301599082E+02  0.00000000000E+00 0.  1.
</event>
<event>
 4    1  0.5568520E+002  0.5796561E+02  0.7546771E-02  0.1266906E+00
          2   -1    0    0  503    0  0.00000000000E+00  0.00000000000E+00  0.62279100109E+03  0.62279100109E+03  0.00000000000E+00 0.  1.
         -2   -1    0    0    0  501 -0.00000000000E+00 -0.00000000000E+00 -0.25767177258E+02  0.25767177258E+02  0.00000000000E+00 0. -1.
         21    1    1    2  502  501 -0.32678737370E+02  0.47876008760E+02  0.10172963675E+02  0.58851518934E+02  0.00000000000E+00 0. -1.
         21    1    1    2  503  502  0.32678737370E+02 -0.47876008760E+02  0.58685086016E+03  0.58970665942E+03  0.00000000000E+00 0.  1.
</event>
<event>
 4    1  0.5568520E+002  0.3122171E+02  0.7546771E-02  0.1409269E+00
          2   -1    0    0  503    0  0.00000000000E+00  0.00000000000E+00  0.17199427259E+04  0.17199427259E+04  0.00000000000E+00 0. -1.
         -2   -1    0    0    0  501 -0.00000000000E+00 -0.00000000000E+00 -0.93000270171E+00  0.93000270171E+00  0.00000000000E+00 0.  1.
         21    1    1    2  502  501 -0.19331575485E+02 -0.24517044931E+02  0.32176319021E+03  0.32327441265E+03  0.00000000000E+00 0.  1.
         21    1    1    2  503  502  0.19331575485E+02  0.24517044931E+02  0.13972495330E+04  0.13975983159E+04  0.00000000000E+00 0. -1.
</event>
<event>
 4    1  0.5568520E+002  0.3056493E+02  0.7546771E-02  0.1414750E+00
          2   -1    0    0  503    0  0.00000000000E+00  0.00000000000E+00  0.98268092641E+02  0.98268092641E+02  0.00000000000E+00 0. -1.
         -2   -1    0    0    0  501 -0.00000000000E+00 -0.00000000000E+00 -0.12779197658E+02  0.12779197658E+02  0.00000000000E+00 0.  1.
         21    1    1    2  502  501 -0.23733684793E+02  0.19259467227E+02  0.14647485172E+02  0.33893416670E+02  0.00000000000E+00 0.  1.
         21    1    1    2  503  502  0.23733684793E+02 -0.19259467227E+02  0.70841409812E+02  0.77153873628E+02  0.00000000000E+00 0. -1.
</event>
<event>
 4    1  0.5568520E+002  0.2983371E+02  0.7546771E-02  0.1421047E+00
          2   -1    0    0  502    0  0.00000000000E+00  0.00000000000E+00  0.14746166755E+02  0.14746166755E+02  0.00000000000E+00 0.  1.
         -2   -1    0    0    0  501 -0.00000000000E+00 -0.00000000000E+00 -0.22643089347E+03  0.22643089347E+03  0.00000000000E+00 0. -1.
         21    1    1    2  502  503 -0.28236499114E+02 -0.96307128446E+01 -0.25692154174E+01  0.29944137656E+02  0.00000000000E+00 0.  1.
         21    1    1    2  503  501  0.28236499114E+02  0.96307128446E+01 -0.20911551130E+03  0.21123292257E+03  0.00000000000E+00 0. -1.
</event>
<event>
 4    1  0.5568520E+002  0.3427120E+02  0.7546771E-02  0.1385760E+00
          2   -1    0    0  503    0  0.00000000000E+00  0.00000000000E+00  0.10209411511E+03  0.10209411511E+03  0.00000000000E+00 0.  1.
         -2   -1    0    0    0  501 -0.00000000000E+00 -0.00000000000E+00 -0.15851827529E+02  0.15851827529E+02  0.00000000000E+00 0. -1.
         21    1    1    2  502  501 -0.21353873309E+02  0.26805360566E+02  0.12236863890E+02  0.36390329735E+02  0.00000000000E+00 0. -1.
         21    1    1    2  503  502  0.21353873309E+02 -0.26805360566E+02  0.74005423687E+02  0.81555612900E+02  0.00000000000E+00 0.  1.
</event>
<event>
 4    1  0.5568520E+002  0.2064882E+02  0.7546771E-02  0.1524338E+00
          2   -1    0    0  502    0  0.00000000000E+00  0.00000000000E+00  0.67174646116E+03  0.67174646116E+03  0.00000000000E+00 0.  1.
         -2   -1    0    0    0  501 -0.00000000000E+00 -0.00000000000E+00 -0.74158050305E+00  0.74158050305E+00  0.00000000000E+00 0. -1.
         21    1    1    2  502  503 -0.13362502936E+02 -0.15742210658E+02  0.20786571464E+03  0.20888879579E+03  0.00000000000E+00 0. -1.
         21    1    1    2  503  501  0.13362502936E+02  0.15742210658E+02  0.46313916602E+03  0.46359924588E+03  0.00000000000E+00 0.  1.
</event>
<event>
 4    1  0.5568520E+002  0.2195752E+02  0.7546771E-02  0.1506021E+00
          2   -1    0    0  502    0  0.00000000000E+00  0.00000000000E+00  0.83464724828E+01  0.83464724828E+01  0.00000000000E+00 0. -1.
         -2   -1    0    0    0  501 -0.00000000000E+00 -0.00000000000E+00 -0.22686354714E+03  0.22686354714E+03  0.00000000000E+00 0.  1.
         21    1    1    2  502  503  0.20998423256E+02  0.64186251211E+01 -0.77240394599E+01  0.23276454052E+02  0.00000000000E+00 0. -1.
         21    1    1    2  503  501 -0.20998423256E+02 -0.64186251211E+01 -0.21079303520E+03  0.21193356557E+03  0.00000000000E+00 0.  1.
</event>
<event>
 4    1  0.5568520E+002  0.2209058E+02  0.7546771E-02  0.1504245E+00
          2   -1    0    0  503    0  0.00000000000E+00  0.00000000000E+00  0.16093376560E+04  0.16093376560E+04  0.00000000000E+00 0.  1.
         -2   -1    0    0    0  501 -0.00000000000E+00 -0.00000000000E+00 -0.68134786919E+00  0.68134786919E+00  0.00000000000E+00 0. -1.
         21    1    1    2  502  501 -0.33632996884E+01 -0.21833043396E+02  0.20463062718E+03  0.20581954997E+03  0.00000000000E+00 0. -1.
         21    1    1    2  503  502  0.33632996884E+01  0.21833043396E+02  0.14040256810E+04  0.14041994539E+04  0.00000000000E+00 0.  1.
</event>
<event>
 4    1  0.5568520E+002  0.2384510E+02  0.7546771E-02  0.1482150E+00
          2   -1    0    0  503    0  0.00000000000E+00  0.00000000000E+00  0.26253987134E+02  0.26253987134E+02  0.00000000000E+00 0.  1.
         -2   -1    0    0    0  501 -0.00000000000E+00 -0.00000000000E+00 -0.40385647659E+02  0.40385647659E+02  0.00000000000E+00 0. -1.
         21    1    1    2  502  501  0.26973758117E+01 -0.23692048427E+02 -0.29756090239E+02  0.38131534211E+02  0.00000000000E+00 0. -1.
         21    1    1    2  503  502 -0.26973758117E+01  0.23692048427E+02  0.15624429713E+02  0.28508100582E+02  0.00000000000E+00 0.  1.
</event>
<event>
 4    1  0.5568520E+002  0.3179397E+02  0.7546771E-02  0.1404622E+00
          2   -1    0    0  503    0  0.00000000000E+00  0.00000000000E+00  0.50009812985E+03  0.50009812985E+03  0.00000000000E+00 0. -1.
         -2   -1    0    0    0  501 -0.00000000000E+00 -0.00000000000E+00 -0.79673368778E+01  0.79673368778E+01  0.00000000000E+00 0.  1.
         21    1    1    2  502  501 -0.63989568833E+01  0.31143379481E+02  0.26609993402E+02  0.41460203612E+02  0.00000000000E+00 0.  1.
         21    1    1    2  503  502  0.63989568833E+01 -0.31143379481E+02  0.46552079957E+03  0.46660526312E+03  0.00000000000E+00 0. -1.
</event>
<event>
 4    1  0.5568520E+002  0.2593218E+02  0.7546771E-02  0.1458640E+00
          2   -1    0    0  503    0  0.00000000000E+00  0.00000000000E+00  0.35301034999E+01  0.35301034999E+01  0.00000000000E+00 0.  1.
         -2   -1    0    0    0  501 -0.00000000000E+00 -0.00000000000E+00 -0.65782605649E+03  0.65782605649E+03  0.00000000000E+00 0. -1.
         21    1    1    2  502  501 -0.24874536861E+02 -0.73304490679E+01 -0.60586323477E+03  0.60641795596E+03  0.00000000000E+00 0. -1.
         21    1    1    2  503  502  0.24874536861E+02  0.73304490679E+01 -0.48432718219E+02  0.54938204027E+02  0.00000000000E+00 0.  1.
</event>
<event>
 4    1  0.5568520E+002  0.3076409E+02  0.7546771E-02  0.1413070E+00
          2   -1    0    0  502    0  0.00000000000E+00  0.00000000000E+00  0.21607521153E+02  0.21607521153E+02  0.00000000000E+00 0.  1.
         -2   -1    0    0    0  501 -0.00000000000E+00 -0.00000000000E+00 -0.51655041481E+02  0.51655041481E+02  0.00000000000E+00 0. -1.
         21    1    1    2  502  503 -0.12147468082E+02 -0.28264254052E+02 -0.73992262147E+00  0.30772983661E+02  0.00000000000E+00 0.  1.
         21    1    1    2  503  501  0.12147468082E+02  0.28264254052E+02 -0.29307597707E+02  0.42489578973E+02  0.00000000000E+00 0. -1.
</event>
<event>
 4    1  0.5568520E+002  0.2009271E+02  0.7546771E-02  0.1532623E+00
          2   -1    0    0  503    0  0.00000000000E+00  0.00000000000E+00  0.85486977328E+03  0.85486977328E+03  0.00000000000E+00 0.  1.
         -2   -1    0    0    0  501 -0.00000000000E+00 -0.00000000000E+00 -0.58738921617E+00  0.58738921617E+00  0.00000000000E+00 0. -1.
         21    1    1    2  502  501  0.20010137932E+02  0.18197503322E+01  0.23777336446E+03  0.23862080789E+03  0.00000000000E+00 0. -1.
         21    1    1    2  503  502 -0.20010137932E+02 -0.18197503322E+01  0.61650901960E+03  0.61683635460E+03  0.00000000000E+00 0.  1.
</event>
<event>
 4    1  0.5568520E+002  0.2706578E+02  0.7546771E-02  0.1446948E+00
          2   -1    0    0  503    0  0.00000000000E+00  0.00000000000E+00  0.12063900742E+04  0.12063900742E+04  0.00000000000E+00 0.  1.
         -2   -1    0    0    0  501 -0.00000000000E+00 -0.00000000000E+00 -0.13752749512E+01  0.13752749512E+01  0.00000000000E+00 0. -1.
         21    1    1    2  502  501 -0.17806540892E+02  0.20383416524E+02  0.15122224531E+03  0.15362527151E+03  0.00000000000E+00 0. -1.
         21    1    1    2  503  502  0.17806540892E+02 -0.20383416524E+02  0.10537925539E+04  0.10541400776E+04  0.00000000000E+00 0.  1.
</event>
<event>
 4    1  0.5568520E+002  0.2966983E+02  0.7546771E-02  0.1422488E+00
          2   -1    0    0  503    0  0.00000000000E+00  0.00000000000E+00  0.91205538119E+01  0.91205538119E+01  0.00000000000E+00 0.  1.
         -2   -1    0    0    0  501 -0.00000000000E+00 -0.00000000000E+00 -0.13963181154E+03  0.13963181154E+03  0.00000000000E+00 0. -1.
         21    1    1    2  502  501 -0.26314337823E+02 -0.13706007921E+02 -0.10658407969E+03  0.11063663530E+03  0.00000000000E+00 0.  1.
         21    1    1    2  503  502  0.26314337823E+02  0.13706007921E+02 -0.23927178039E+02  0.38115730048E+02  0.00000000000E+00 0. -1.
</event>
<event>
 4    1  0.5568520E+002  0.3260395E+02  0.7546771E-02  0.1398239E+00
          2   -1    0    0  503    0  0.00000000000E+00  0.00000000000E+00  0.99590724905E+02  0.99590724905E+02  0.00000000000E+00 0. -1.
         -2   -1    0    0    0  501 -0.00000000000E+00 -0.00000000000E+00 -0.16038160704E+02  0.16038160704E+02  0.00000000000E+00 0.  1.
         21    1    1    2  502  501 -0.13701970261E+01  0.32575142251E+02  0.83401778091E+01  0.33653764996E+02  0.00000000000E+00 0.  1.
         21    1    1    2  503  502  0.13701970261E+01 -0.32575142251E+02  0.75212386392E+02  0.81975120612E+02  0.00000000000E+00 0. -1.
</event>
<event>
 4    1  0.5568520E+002  0.4309709E+02  0.7546771E-02  0.1331234E+00
          2   -1    0    0  503    0  0.00000000000E+00  0.00000000000E+00  0.10778449659E+03  0.10778449659E+03  0.00000000000E+00 0. -1.
         -2   -1    0    0    0  501 -0.00000000000E+00 -0.00000000000E+00 -0.17504796250E+02  0.17504796250E+02  0.00000000000E+00 0.  1.
         21    1    1    2  502  501  0.24744147727E+02 -0.35285779108E+02  0.37321737288E+02  0.57011149157E+02  0.00000000000E+00 0.  1.
         21    1    1    2  503  502 -0.24744147727E+02  0.35285779108E+02  0.52957963050E+02  0.68278143680E+02  0.00000000000E+00 0. -1.
</event>
<event>
 4    1  0.5568520E+002  0.3379435E+02  0.7546771E-02  0.1389243E+00
          2   -1    0    0  503    0  0.00000000000E+00  0.00000000000E+00  0.21608861570E+02  0.21608861570E+02  0.00000000000E+00 0. -1.
         -2   -1    0    0    0  501 -0.00000000000E+00 -0.00000000000E+00 -0.54303931415E+02  0.54303931415E+02  0.00000000000E+00 0.  1.
         21    1    1    2  502  501  0.20007087135E+02  0.27235544237E+02 -0.10139797242E+02  0.35282770493E+02  0.00000000000E+00 0. -1.
         21    1    1    2  503  502 -0.20007087135E+02 -0.27235544237E+02 -0.22555272604E+02  0.40630022493E+02  0.00000000000E+00 0.  1.
</event>
<event>
 4    1  0.5568520E+002  0.4597491E+02  0.7546771E-02  0.1316635E+00
          2   -1    0    0  502    0  0.00000000000E+00  0.00000000000E+00  0.18612057354E+02  0.18612057354E+02  0.00000000000E+00 0. -1.
         -2   -1    0    0    0  501 -0.00000000000E+00 -0.00000000000E+00 -0.15920497479E+03  0.15920497479E+03  0.00000000000E+00 0.  1.
         21    1    1    2  502  503  0.36612213733E+02 -0.27807151913E+02 -0.22693464978E+02  0.51270705521E+02  0.00000000000E+00 0. -1.
         21    1    1    2  503  501 -0.36612213733E+02  0.27807151913E+02 -0.11789945246E+03  0.12654632663E+03  0.00000000000E+00 0.  1.
</event>
<event>
 4    1  0.5568520E+002  0.2703282E+02  0.7546771E-02  0.1447279E+00
          2   -1    0    0  502    0  0.00000000000E+00  0.00000000000E+00  0.11572309815E+04  0.11572309815E+04  0.00000000000E+00 0.  1.
         -2   -1    0    0    0  501 -0.00000000000E+00 -0.00000000000E+00 -0.71502230319E+00  0.71502230319E+00  0.00000000000E+00 0. -1.
         21    1    1    2  502  503  0.15125201752E+02  0.22405393419E+02  0.77615540566E+03  0.77662602784E+03  0.00000000000E+00 0.  1.
         21    1    1    2  503  501 -0.15125201752E+02 -0.22405393419E+02  0.38036055358E+03  0.38131997601E+03  0.00000000000E+00 0. -1.
</event>
<event>
 4    1  0.5568520E+002  0.2044061E+02  0.7546771E-02  0.1527403E+00
          2   -1    0    0  503    0  0.00000000000E+00  0.00000000000E+00  0.67620064330E+02  0.67620064330E+02  0.00000000000E+00 0.  1.
         -2   -1    0    0    0  501 -0.00000000000E+00 -0.00000000000E+00 -0.10383094821E+02  0.10383094821E+02  0.00000000000E+00 0. -1.
         21    1    1    2  502  501 -0.13879541093E+02 -0.15005891162E+02  0.38008961957E+01  0.20790989452E+02  0.00000000000E+00 0. -1.
         21    1    1    2  503  502  0.13879541093E+02  0.15005891162E+02  0.53436073313E+02  0.57212169699E+02  0.00000000000E+00 0.  1.
</event>
<event>
 4    1  0.5568520E+002  0.3933204E+02  0.7546771E-02  0.1352445E+00
          2   -1    0    0  502    0  0.00000000000E+00  0.00000000000E+00  0.25645804221E+03  0.25645804221E+03  0.00000000000E+00 0.  1.
         -2   -1    0    0    0  501 -0.00000000000E+00 -0.00000000000E+00 -0.13014607586E+02  0.13014607586E+02  0.00000000000E+00 0. -1.
         21    1    1    2  502  503  0.12221534211E+00 -0.39331851271E+02  0.22041131109E+03  0.22389317881E+03  0.00000000000E+00 0.  1.
         21    1    1    2  503  501 -0.12221534211E+00  0.39331851271E+02  0.23032123538E+02  0.45579470990E+02  0.00000000000E+00 0. -1.
</event>
<event>
 4    1  0.5568520E+002  0.2068536E+02  0.7546771E-02  0.1523805E+00
          2   -1    0    0  502    0  0.00000000000E+00  0.00000000000E+00  0.22373811076E+01  0.22373811076E+01  0.00000000000E+00 0. -1.
         -2   -1    0    0    0  501 -0.00000000000E+00 -0.00000000000E+00 -0.22685971361E+03  0.22685971361E+03  0.00000000000E+00 0.  1.
         21    1    1    2  502  503  0.14869235102E+01 -0.20631851028E+02 -0.66923715244E+02  0.70047611525E+02  0.00000000000E+00 0. -1.
         21    1    1    2  503  501 -0.14869235102E+01  0.20631851028E+02 -0.15769861726E+03  0.15904948319E+03  0.00000000000E+00 0.  1.
</event>
<event>
 4    1  0.5568520E+002  0.2097864E+02  0.7546771E-02  0.1519570E+00
          2   -1    0    0  502    0  0.00000000000E+00  0.00000000000E+00  0.13480918610E+01  0.13480918610E+01  0.00000000000E+00 0. -1.
         -2   -1    0    0    0  501 -0.00000000000E+00 -0.00000000000E+00 -0.39397772778E+03  0.39397772778E+03  0.00000000000E+00 0.  1.
         21    1    1    2  502  503 -0.16612804061E+02 -0.12810856240E+02 -0.11448986081E+03  0.11639601164E+03  0.00000000000E+00 0. -1.
         21    1    1    2  503  501  0.16612804061E+02  0.12810856240E+02 -0.27813977511E+03  0.27892980801E+03  0.00000000000E+00 0.  1.
</event>
<event>
 4    1  0.5568520E+002  0.2193350E+02  0.7546771E-02  0.1506343E+00
          2   -1    0    0  502    0  0.00000000000E+00  0.00000000000E+00  0.71578049593E+02  0.71578049593E+02  0.00000000000E+00 0. -1.
         -2   -1    0    0    0  501 -0.00000000000E+00 -0.00000000000E+00 -0.23859215601E+02  0.23859215601E+02  0.00000000000E+00 0.  1.
         21    1    1    2  502  503 -0.20246772839E+02 -0.84348388949E+01  0.64302319159E+02  0.67940169022E+02  0.00000000000E+00 0. -1.
         21    1    1    2  503  501  0.20246772839E+02  0.84348388949E+01 -0.16583485167E+02  0.27497096172E+02  0.00000000000E+00 0.  1.
</event>
<event>
 4    1  0.5568520E+002  0.2146810E+02  0.7546771E-02  0.1512685E+00
          2   -1    0    0  502    0  0.00000000000E+00  0.00000000000E+00  0.62203378538E+03  0.62203378538E+03  0.00000000000E+00 0.  1.
         -2   -1    0    0    0  501 -0.00000000000E+00 -0.00000000000E+00 -0.14132462126E+01  0.14132462126E+01  0.00000000000E+00 0. -1.
         21    1    1    2  502  503  0.61009957766E+01  0.20582932920E+02  0.52531580028E+03  0.52575428605E+03  0.00000000000E+00 0.  1.
         21    1    1    2  503  501 -0.61009957766E+01 -0.20582932920E+02  0.95304738889E+02  0.97692745543E+02  0.00000000000E+00 0. -1.
</event>
<event>
 4    1  0.5568520E+002  0.2337287E+02  0.7546771E-02  0.1487868E+00
          2   -1    0    0  502    0  0.00000000000E+00  0.00000000000E+00  0.41685848746E+02  0.41685848746E+02  0.00000000000E+00 0.  1.
         -2   -1    0    0    0  501 -0.00000000000E+00 -0.00000000000E+00 -0.28038458985E+02  0.28038458985E+02  0.00000000000E+00 0. -1.
         21    1    1    2  502  503  0.47175910415E+01 -0.22891822418E+02  0.32266090219E+02  0.39842085498E+02  0.00000000000E+00 0.  1.
         21    1    1    2  503  501 -0.47175910415E+01  0.22891822418E+02 -0.18618700458E+02  0.29882222233E+02  0.00000000000E+00 0. -1.
</event>
<event>
 4    1  0.5568520E+002  0.2192657E+02  0.7546771E-02  0.1506436E+00
          2   -1    0    0  502    0  0.00000000000E+00  0.00000000000E+00  0.45451143850E+03  0.45451143850E+03  0.00000000000E+00 0. -1.
         -2   -1    0    0    0  501 -0.00000000000E+00 -0.00000000000E+00 -0.29005381580E+01  0.29005381580E+01  0.00000000000E+00 0.  1.
         21    1    1    2  502  503 -0.61355248145E+01 -0.21050650626E+02  0.40809930998E+03  0.40868792662E+03  0.00000000000E+00 0. -1.
         21    1    1    2  503  501  0.61355248145E+01  0.21050650626E+02  0.43511590359E+02  0.48724050037E+02  0.00000000000E+00 0.  1.
</event>
<event>
 4    1  0.5568520E+002  0.2317683E+02  0.7546771E-02  0.1490290E+00
          2   -1    0    0  502    0  0.00000000000E+00  0.00000000000E+00  0.14925480580E+04  0.14925480580E+04  0.00000000000E+00 0.  1.
         -2   -1    0    0    0  501 -0.00000000000E+00 -0.00000000000E+00 -0.16911127097E+01  0.16911127097E+01  0.00000000000E+00 0. -1.
         21    1    1    2  502  503 -0.15212303996E+02  0.17485746393E+02  0.14082976852E+04  0.14084883868E+04  0.00000000000E+00 0.  1.
         21    1    1    2  503  501  0.15212303996E+02 -0.17485746393E+02  0.82559260055E+02  0.85750783907E+02  0.00000000000E+00 0. -1.
</event>
<event>
 4    1  0.5568520E+002  0.2878380E+02  0.7546771E-02  0.1430468E+00
          2   -1    0    0  502    0  0.00000000000E+00  0.00000000000E+00  0.60076179457E+03  0.60076179457E+03  0.00000000000E+00 0. -1.
         -2   -1    0    0    0  501 -0.00000000000E+00 -0.00000000000E+00 -0.22675592192E+02  0.22675592192E+02  0.00000000000E+00 0.  1.
         21    1    1    2  502  503 -0.69669775454E+01 -0.27927913581E+02  0.59113398837E+03  0.59183435127E+03  0.00000000000E+00 0. -1.
         21    1    1    2  503  501  0.69669775454E+01  0.27927913581E+02 -0.13047785994E+02  0.31603035494E+02  0.00000000000E+00 0.  1.
</event>
<event>
 4    1  0.5568520E+002  0.3029473E+02  0.7546771E-02  0.1417052E+00
          2   -1    0    0  503    0  0.00000000000E+00  0.00000000000E+00  0.23270148839E+04  0.23270148839E+04  0.00000000000E+00 0. -1.
         -2   -1    0    0    0  501 -0.00000000000E+00 -0.00000000000E+00 -0.56104173187E+00  0.56104173187E+00  0.00000000000E+00 0.  1.
         21    1    1    2  502  501  0.13021414106E+02  0.27353494607E+02  0.52896260531E+03  0.52982941473E+03  0.00000000000E+00 0.  1.
         21    1    1    2  503  502 -0.13021414106E+02 -0.27353494607E+02  0.17974912368E+04  0.17977465109E+04  0.00000000000E+00 0. -1.
</event>
<event>
 4    1  0.5568520E+002  0.2439759E+02  0.7546771E-02  0.1475657E+00
          2   -1    0    0  502    0  0.00000000000E+00  0.00000000000E+00  0.13538132005E+02  0.13538132005E+02  0.00000000000E+00 0.  1.
         -2   -1    0    0    0  501 -0.00000000000E+00 -0.00000000000E+00 -0.26570202827E+03  0.26570202827E+03  0.00000000000E+00 0. -1.
         21    1    1    2  502  503 -0.15531037065E+02  0.18815667003E+02  0.14640324933E+01  0.24441477620E+02  0.00000000000E+00 0.  1.
         21    1    1    2  503  501  0.15531037065E+02 -0.18815667003E+02 -0.25362792876E+03  0.25479868266E+03  0.00000000000E+00 0. -1.
</event>
<event>
 4    1  0.5568520E+002  0.2473473E+02  0.7546771E-02  0.1471793E+00
          2   -1    0    0  502    0  0.00000000000E+00  0.00000000000E+00  0.14053036996E+01  0.14053036996E+01  0.00000000000E+00 0. -1.
         -2   -1    0    0    0  501 -0.00000000000E+00 -0.00000000000E+00 -0.84269008695E+03  0.84269008695E+03  0.00000000000E+00 0.  1.
         21    1    1    2  502  503  0.24723483160E+02  0.74568563284E+00 -0.12721324871E+03  0.12959559142E+03  0.00000000000E+00 0. -1.
         21    1    1    2  503  501 -0.24723483160E+02 -0.74568563284E+00 -0.71407153454E+03  0.71449979924E+03  0.00000000000E+00 0.  1.
</event>
<event>
 4    1  0.5568520E+002  0.2339060E+02  0.7546771E-02  0.1487651E+00
          2   -1    0    0  503    0  0.00000000000E+00  0.00000000000E+00  0.13218067356E+04  0.13218067356E+04  0.00000000000E+00 0. -1.
         -2   -1    0    0    0  501 -0.00000000000E+00 -0.00000000000E+00 -0.55276336326E+00  0.55276336326E+00  0.00000000000E+00 0.  1.
         21    1    1    2  502  501  0.19190649614E+02 -0.13373073606E+02  0.32925561721E+03  0.33008541560E+03  0.00000000000E+00 0.  1.
         21    1    1    2  503  502 -0.19190649614E+02  0.13373073606E+02  0.99199835507E+03  0.99227408340E+03  0.00000000000E+00 0. -1.
</event>
<event>
 4    1  0.5568520E+002  0.2699569E+02  0.7546771E-02  0.1447651E+00
          2   -1    0    0  503    0  0.00000000000E+00  0.00000000000E+00  0.13086321060E+03  0.13086321060E+03  0.00000000000E+00 0.  1.
         -2   -1    0    0    0  501 -0.00000000000E+00 -0.00000000000E+00 -0.16785428286E+02  0.16785428286E+02  0.00000000000E+00 0. -1.
         21    1    1    2  502  501  0.25105580565E+02 -0.99235595419E+01 -0.33089879292E+01  0.27197731718E+02  0.00000000000E+00 0. -1.
         21    1    1    2  503  502 -0.25105580565E+02  0.99235595419E+01  0.11738677025E+03  0.12045090717E+03  0.00000000000E+00 0.  1.
</event>
<event>
 4    1  0.5568520E+002  0.2937226E+02  0.7546771E-02  0.1425131E+00
          2   -1    0    0  502    0  0.00000000000E+00  0.00000000000E+00  0.13197082343E+03  0.13197082343E+03  0.00000000000E+00 0. -1.
         -2   -1    0    0    0  501 -0.00000000000E+00 -0.00000000000E+00 -0.17342252294E+02  0.17342252294E+02  0.00000000000E+00 0.  1.
         21    1    1    2  502  503  0.24784329925E+02 -0.15762823271E+02  0.11624300706E+03  0.11989648159E+03  0.00000000000E+00 0. -1.
         21    1    1    2  503  501 -0.24784329925E+02  0.15762823271E+02 -0.16144359211E+01  0.29416594137E+02  0.00000000000E+00 0.  1.
</event>
<event>
 4    1  0.5568520E+002  0.4654260E+02  0.7546771E-02  0.1313901E+00
          2   -1    0    0  502    0  0.00000000000E+00  0.00000000000E+00  0.67041944294E+02  0.67041944294E+02  0.00000000000E+00 0. -1.
         -2   -1    0    0    0  501 -0.00000000000E+00 -0.00000000000E+00 -0.46166371037E+02  0.46166371037E+02  0.00000000000E+00 0.  1.
         21    1    1    2  502  503 -0.16292416965E+02 -0.43597834491E+02  0.41446907669E+02  0.62322228604E+02  0.00000000000E+00 0. -1.
         21    1    1    2  503  501  0.16292416965E+02  0.43597834491E+02 -0.20571334413E+02  0.50886086727E+02  0.00000000000E+00 0.  1.
</event>
<event>
 4    1  0.5568520E+002  0.2210621E+02  0.7546771E-02  0.1504037E+00
          2   -1    0    0  503    0  0.00000000000E+00  0.00000000000E+00  0.14276010740E+04  0.14276010740E+04  0.00000000000E+00 0. -1.
         -2   -1    0    0    0  501 -0.00000000000E+00 -0.00000000000E+00 -0.41431241385E+00  0.41431241385E+00  0.00000000000E+00 0.  1.
         21    1    1    2  502  501  0.18427663653E+02 -0.12210888660E+02  0.41594245557E+03  0.41652948387E+03  0.00000000000E+00 0.  1.
         21    1    1    2  503  502 -0.18427663653E+02  0.12210888660E+02  0.10112443060E+04  0.10114859026E+04  0.00000000000E+00 0. -1.
</event>
<event>
 4    1  0.5568520E+002  0.2127510E+02  0.7546771E-02  0.1515373E+00
          2   -1    0    0  503    0  0.00000000000E+00  0.00000000000E+00  0.10771343447E+03  0.10771343447E+03  0.00000000000E+00 0. -1.
         -2   -1    0    0    0  501 -0.00000000000E+00 -0.00000000000E+00 -0.17840373554E+02  0.17840373554E+02  0.00000000000E+00 0.  1.
         21    1    1    2  502  501 -0.79768849484E+01 -0.19723065174E+02 -0.99513589078E+01  0.23487433607E+02  0.00000000000E+00 0.  1.
         21    1    1    2  503  502  0.79768849484E+01  0.19723065174E+02  0.99824419827E+02  0.10206637442E+03  0.00000000000E+00 0. -1.
</event>
<event>
 4    1  0.5568520E+002  0.2007542E+02  0.7546771E-02  0.1532886E+00
          2   -1    0    0  503    0  0.00000000000E+00  0.00000000000E+00  0.16699224495E+03  0.16699224495E+03  0.00000000000E+00 0.  1.
         -2   -1    0    0    0  501 -0.00000000000E+00 -0.00000000000E+00 -0.61158809847E+01  0.61158809847E+01  0.00000000000E+00 0. -1.
         21    1    1    2  502  501 -0.17558351508E+02  0.97327631687E+01  0.13093515754E+02  0.23967948209E+02  0.00000000000E+00 0. -1.
         21    1    1    2  503  502  0.17558351508E+02 -0.97327631687E+01  0.14778284821E+03  0.14914017773E+03  0.00000000000E+00 0.  1.
</event>
<event>
 4    1  0.5568520E+002  0.3149584E+02  0.7546771E-02  0.1407028E+00
          2   -1    0    0  502    0  0.00000000000E+00  0.00000000000E+00  0.19548928975E+01  0.19548928975E+01  0.00000000000E+00 0. -1.
         -2   -1    0    0    0  501 -0.00000000000E+00 -0.00000000000E+00 -0.76191695897E+03  0.76191695897E+03  0.00000000000E+00 0.  1.
         21    1    1    2  502  503  0.17476212275E+02 -0.26202484173E+02 -0.15925066174E+03  0.16233533638E+03  0.00000000000E+00 0. -1.
         21    1    1    2  503  501 -0.17476212275E+02  0.26202484173E+02 -0.60071140433E+03  0.60153651548E+03  0.00000000000E+00 0.  1.
</event>
<event>
 4    1  0.5568520E+002  0.3731784E+02  0.7546771E-02  0.1364963E+00
          2   -1    0    0  503    0  0.00000000000E+00  0.00000000000E+00  0.34969395463E+02  0.34969395463E+02  0.00000000000E+00 0.  1.
         -2   -1    0    0    0  501 -0.00000000000E+00 -0.00000000000E+00 -0.40170371533E+02  0.40170371533E+02  0.00000000000E+00 0. -1.
         21    1    1    2  502  501  0.21642192168E+02  0.30401257204E+02 -0.60891838280E+01  0.37811361800E+02  0.00000000000E+00 0.  1.
         21    1    1    2  503  502 -0.21642192168E+02 -0.30401257204E+02  0.88820775720E+00  0.37328405196E+02  0.00000000000E+00 0. -1.
</event>
<event>
 4    1  0.5568520E+002  0.2831608E+02  0.7546771E-02  0.1434818E+00
          2   -1    0    0  502    0  0.00000000000E+00  0.00000000000E+00  0.72114809097E+03  0.72114809097E+03  0.00000000000E+00 0. -1.
         -2   -1    0    0    0  501 -0.00000000000E+00 -0.00000000000E+00 -0.12157868416E+01  0.12157868416E+01  0.00000000000E+00 0.  1.
         21    1    1    2  502  503 -0.24529137462E+02  0.14146435148E+02  0.46557640613E+03  0.46643669470E+03  0.00000000000E+00 0.  1.
         21    1    1    2  503  501  0.24529137462E+02 -0.14146435148E+02  0.25435589799E+03  0.25592718311E+03  0.00000000000E+00 0. -1.
</event>
<event>
 4    1  0.5568520E+002  0.2662254E+02  0.7546771E-02  0.1451437E+00
          2   -1    0    0  503    0  0.00000000000E+00  0.00000000000E+00  0.10960114435E+03  0.10960114435E+03  0.00000000000E+00 0. -1.
         -2   -1    0    0    0  501 -0.00000000000E+00 -0.00000000000E+00 -0.30228426453E+02  0.30228426453E+02  0.00000000000E+00 0.  1.
         21    1    1    2  502  501  0.32447083136E+01  0.26424067003E+02 -0.22300568592E+02  0.34728587771E+02  0.00000000000E+00 0.  1.
         21    1    1    2  503  502 -0.32447083136E+01 -0.26424067003E+02  0.10167328649E+03  0.10510098304E+03  0.00000000000E+00 0. -1.
</event>
<event>
 4    1  0.5568520E+002  0.4059160E+02  0.7546771E-02  0.1345054E+00
          2   -1    0    0  503    0  0.00000000000E+00  0.00000000000E+00  0.33931132511E+03  0.33931132511E+03  0.00000000000E+00 0. -1.
         -2   -1    0    0    0  501 -0.00000000000E+00 -0.00000000000E+00 -0.96499225092E+01  0.96499225092E+01  0.00000000000E+00 0.  1.
         21    1    1    2  502  501  0.37312960445E+02 -0.15981890765E+02  0.41851068284E+02  0.58302570837E+02  0.00000000000E+00 0.  1.
         21    1    1    2  503  502 -0.37312960445E+02  0.15981890765E+02  0.28781033431E+03  0.29065867678E+03  0.00000000000E+00 0. -1.
</event>
<event>
 4    1  0.5568520E+002  0.2296383E+02  0.7546771E-02  0.1492953E+00
          2   -1    0    0  503    0  0.00000000000E+00  0.00000000000E+00  0.12609534597E+03  0.12609534597E+03  0.00000000000E+00 0.  1.
         -2   -1    0    0    0  501 -0.00000000000E+00 -0.00000000000E+00 -0.53925272836E+01  0.53925272836E+01  0.00000000000E+00 0. -1.
         21    1    1    2  502  501  0.22730928641E+02 -0.32622902638E+01  0.29202920678E+02  0.37150346308E+02  0.00000000000E+00 0. -1.
         21    1    1    2  503  502 -0.22730928641E+02  0.32622902638E+01  0.91499898004E+02  0.94337526941E+02  0.00000000000E+00 0.  1.
</event>
<event>
 4    1  0.5568520E+002  0.2036003E+02  0.7546771E-02  0.1528601E+00
          2   -1    0    0  503    0  0.00000000000E+00  0.00000000000E+00  0.64328718279E+03  0.64328718279E+03  0.00000000000E+00 0.  1.
         -2   -1    0    0    0  501 -0.00000000000E+00 -0.00000000000E+00 -0.75749042231E+00  0.75749042231E+00  0.00000000000E+00 0. -1.
         21    1    1    2  502  501 -0.11858273362E+02 -0.16550295393E+02  0.19683622356E+03  0.19788640638E+03  0.00000000000E+00 0. -1.
         21    1    1    2  503  502  0.11858273362E+02  0.16550295393E+02  0.44569346881E+03  0.44615826684E+03  0.00000000000E+00 0.  1.
</event>
<event>
 4    1  0.5568520E+002  0.3483919E+02  0.7546771E-02  0.1381697E+00
          2   -1    0    0  502    0  0.00000000000E+00  0.00000000000E+00  0.12290066680E+02  0.12290066680E+02  0.00000000000E+00 0. -1.
         -2   -1    0    0    0  501 -0.00000000000E+00 -0.00000000000E+00 -0.28453560395E+03  0.28453560395E+03  0.00000000000E+00 0.  1.
         21    1    1    2  502  503 -0.33953526189E+02 -0.78055821452E+01 -0.16201200857E+02  0.38421972392E+02  0.00000000000E+00 0. -1.
         21    1    1    2  503  501  0.33953526189E+02  0.78055821452E+01 -0.25604433642E+03  0.25840369824E+03  0.00000000000E+00 0.  1.
</event>
<event>
 4    1  0.5568520E+002  0.3443837E+02  0.7546771E-02  0.1384555E+00
          2   -1    0    0  502    0  0.00000000000E+00  0.00000000000E+00  0.66958213682E+02  0.66958213682E+02  0.00000000000E+00 0. -1.
         -2   -1    0    0    0  501 -0.00000000000E+00 -0.00000000000E+00 -0.26326671632E+02  0.26326671632E+02  0.00000000000E+00 0.  1.
         21    1    1    2  502  503  0.48618597138E+01 -0.34093456368E+02  0.46995937158E+02  0.58263363758E+02  0.00000000000E+00 0. -1.
         21    1    1    2  503  501 -0.48618597138E+01  0.34093456368E+02 -0.63643951071E+01  0.35021521556E+02  0.00000000000E+00 0.  1.
</event>
<event>
 4    1  0.5568520E+002  0.2014310E+02  0.7546771E-02  0.1531859E+00
          2   -1    0    0  502    0  0.00000000000E+00  0.00000000000E+00  0.17427211194E+03  0.17427211194E+03  0.00000000000E+00 0. -1.
         -2   -1    0    0    0  501 -0.00000000000E+00 -0.00000000000E+00 -0.24952764215E+01  0.24952764215E+01  0.00000000000E+00 0.  1.
         21    1    1    2  502  503 -0.18502467044E+02  0.79626024647E+01  0.10875707233E+03  0.11060671366E+03  0.00000000000E+00 0.  1.
         21    1    1    2  503  501  0.18502467044E+02 -0.79626024647E+01  0.63019763192E+02  0.66160674706E+02  0.00000000000E+00 0. -1.
</event>
<event>
 4    1  0.5568520E+002  0.2084995E+02  0.7546771E-02  0.1521418E+00
          2   -1    0    0  502    0  0.00000000000E+00  0.00000000000E+00  0.47919113909E+03  0.47919113909E+03  0.00000000000E+00 0. -1.
         -2   -1    0    0    0  501 -0.00000000000E+00 -0.00000000000E+00 -0.19517039970E+01  0.19517039970E+01  0.00000000000E+00 0.  1.
         21    1    1    2  502  503 -0.20220556244E+02  0.50842496316E+01  0.41461168835E+03  0.41513560749E+03  0.00000000000E+00 0. -1.
         21    1    1    2  503  501  0.20220556244E+02 -0.50842496316E+01  0.62627746743E+02  0.66007235597E+02  0.00000000000E+00 0.  1.
</event>
<event>
 4    1  0.5568520E+002  0.2198603E+02  0.7546771E-02  0.1505639E+00
          2   -1    0    0  502    0  0.00000000000E+00  0.00000000000E+00  0.37921722625E+02  0.37921722625E+02  0.00000000000E+00 0.  1.
         -2   -1    0    0    0  501 -0.00000000000E+00 -0.00000000000E+00 -0.12921710113E+02  0.12921710113E+02  0.00000000000E+00 0. -1.
         21    1    1    2  502  503  0.13133703209E+02  0.17632114938E+02  0.15456573908E+02  0.26875477933E+02  0.00000000000E+00 0. -1.
         21    1    1    2  503  501 -0.13133703209E+02 -0.17632114938E+02  0.95434386035E+01  0.23967954805E+02  0.00000000000E+00 0.  1.
</event>
<event>
 4    1  0.5568520E+002  0.2195985E+02  0.7546771E-02  0.1505989E+00
          2   -1    0    0  503    0  0.00000000000E+00  0.00000000000E+00  0.54595985183E+00  0.54595985183E+00  0.00000000000E+00 0.  1.
         -2   -1    0    0    0  501 -0.00000000000E+00 -0.00000000000E+00 -0.10474377814E+04  0.10474377814E+04  0.00000000000E+00 0. -1.
         21    1    1    2  502  501  0.19153836629E+02  0.10740841550E+02 -0.73088560074E+03  0.73121542414E+03  0.00000000000E+00 0. -1.
         21    1    1    2  503  502 -0.19153836629E+02 -0.10740841550E+02 -0.31600622081E+03  0.31676831711E+03  0.00000000000E+00 0.  1.
</event>
<event>
 4    1  0.5568520E+002  0.3150809E+02  0.7546771E-02  0.1406929E+00
          2   -1    0    0  502    0  0.00000000000E+00  0.00000000000E+00  0.50514939219E+01  0.50514939219E+01  0.00000000000E+00 0. -1.
         -2   -1    0    0    0  501 -0.00000000000E+00 -0.00000000000E+00 -0.19660641612E+03  0.19660641612E+03  0.00000000000E+00 0.  1.
         21    1    1    2  502  503 -0.31287265756E+02  0.37238019023E+01 -0.97791893078E+02  0.10274246469E+03  0.00000000000E+00 0. -1.
         21    1    1    2  503  501  0.31287265756E+02 -0.37238019023E+01 -0.93763029115E+02  0.98915445346E+02  0.00000000000E+00 0.  1.
</event>
<event>
 4    1  0.5568520E+002  0.2998695E+02  0.7546771E-02  0.1419710E+00
          2   -1    0    0  502    0  0.00000000000E+00  0.00000000000E+00  0.48952357602E+03  0.48952357602E+03  0.00000000000E+00 0. -1.
         -2   -1    0    0    0  501 -0.00000000000E+00 -0.00000000000E+00 -0.38915212134E+01  0.38915212134E+01  0.00000000000E+00 0.  1.
         21    1    1    2  502  503 -0.13545684636E+02  0.26753155161E+02  0.42207720298E+03  0.42314109013E+03  0.00000000000E+00 0. -1.
         21    1    1    2  503  501  0.13545684636E+02 -0.26753155161E+02  0.63554851833E+02  0.70274007107E+02  0.00000000000E+00 0.  1.
</event>
<event>
 4    1  0.5568520E+002  0.6522618E+02  0.7546771E-02  0.1243040E+00
          2   -1    0    0  503    0  0.00000000000E+00  0.00000000000E+00  0.90483557080E+02  0.90483557080E+02  0.00000000000E+00 0. -1.
         -2   -1    0    0    0  501 -0.00000000000E+00 -0.00000000000E+00 -0.48010406679E+02  0.48010406679E+02  0.00000000000E+00 0.  1.
         21    1    1    2  502  501 -0.64985088408E+02  0.56028746185E+01  0.11286169168E+02  0.66195404175E+02  0.00000000000E+00 0.  1.
         21    1    1    2  503  502  0.64985088408E+02 -0.56028746185E+01  0.31186981233E+02  0.72298559584E+02  0.00000000000E+00 0. -1.
</event>
<event>
 4    1  0.5568520E+002  0.3866627E+02  0.7546771E-02  0.1356484E+00
          2   -1    0    0  503    0  0.00000000000E+00  0.00000000000E+00  0.60653338022E+03  0.60653338022E+03  0.00000000000E+00 0.  1.
         -2   -1    0    0    0  501 -0.00000000000E+00 -0.00000000000E+00 -0.32386916112E+01  0.32386916112E+01  0.00000000000E+00 0. -1.
         21    1    1    2  502  501  0.38636989941E+02 -0.15045293053E+01  0.15262620852E+03  0.15744789654E+03  0.00000000000E+00 0. -1.
         21    1    1    2  503  502 -0.38636989941E+02  0.15045293053E+01  0.45066848009E+03  0.45232417528E+03  0.00000000000E+00 0.  1.
</event>
<event>
 4    1  0.5568520E+002  0.3804629E+02  0.7546771E-02  0.1360331E+00
          2   -1    0    0  503    0  0.00000000000E+00  0.00000000000E+00  0.28904636471E+03  0.28904636471E+03  0.00000000000E+00 0. -1.
         -2   -1    0    0    0  501 -0.00000000000E+00 -0.00000000000E+00 -0.99186852638E+01  0.99186852638E+01  0.00000000000E+00 0.  1.
         21    1    1    2  502  501 -0.36041604955E+02  0.12186982454E+02  0.34382633288E+02  0.51280457300E+02  0.00000000000E+00 0.  1.
         21    1    1    2  503  502  0.36041604955E+02 -0.12186982454E+02  0.24474504616E+03  0.24768459268E+03  0.00000000000E+00 0. -1.
</event>
<event>
 4    1  0.5568520E+002  0.2009128E+02  0.7546771E-02  0.1532645E+00
          2   -1    0    0  502    0  0.00000000000E+00  0.00000000000E+00  0.18900475421E+03  0.18900475421E+03  0.00000000000E+00 0.  1.
         -2   -1    0    0    0  501 -0.00000000000E+00 -0.00000000000E+00 -0.22849602379E+02  0.22849602379E+02  0.00000000000E+00 0. -1.
         21    1    1    2  502  503  0.19904651199E+02 -0.27320702262E+01  0.18393292517E+03  0.18502697184E+03  0.00000000000E+00 0.  1.
         21    1    1    2  503  501 -0.19904651199E+02  0.27320702262E+01 -0.17777773344E+02  0.26827384743E+02  0.00000000000E+00 0. -1.
</event>
<event>
 4    1  0.5568520E+002  0.3585339E+02  0.7546771E-02  0.1374661E+00
          2   -1    0    0  503    0  0.00000000000E+00  0.00000000000E+00  0.81388625093E+01  0.81388625093E+01  0.00000000000E+00 0. -1.
         -2   -1    0    0    0  501 -0.00000000000E+00 -0.00000000000E+00 -0.16240481263E+03  0.16240481263E+03  0.00000000000E+00 0.  1.
         21    1    1    2  502  501  0.35373805319E+02  0.58446159589E+01 -0.91268955934E+02  0.98058594502E+02  0.00000000000E+00 0.  1.
         21    1    1    2  503  502 -0.35373805319E+02 -0.58446159589E+01 -0.62996994187E+02  0.72485080637E+02  0.00000000000E+00 0. -1.
</event>
<event>
 4    1  0.5568520E+002  0.2056328E+02  0.7546771E-02  0.1525592E+00
          2   -1    0    0  503    0  0.00000000000E+00  0.00000000000E+00  0.11989974700E+02  0.11989974700E+02  0.00000000000E+00 0. -1.
         -2   -1    0    0    0  501 -0.00000000000E+00 -0.00000000000E+00 -0.42011099171E+02  0.42011099171E+02  0.00000000000E+00 0.  1.
         21    1    1    2  502  501  0.25008865934E+00 -0.20561758825E+02 -0.25828827737E+02  0.33014796873E+02  0.00000000000E+00 0.  1.
         21    1    1    2  503  502 -0.25008865934E+00  0.20561758825E+02 -0.41922967351E+01  0.20986276998E+02  0.00000000000E+00 0. -1.
</event>
<event>
 4    1  0.5568520E+002  0.2480014E+02  0.7546771E-02  0.1471052E+00
          2   -1    0    0  503    0  0.00000000000E+00  0.00000000000E+00  0.19414864048E+04  0.19414864048E+04  0.00000000000E+00 0. -1.
         -2   -1    0    0    0  501 -0.00000000000E+00 -0.00000000000E+00 -0.32024366916E+00  0.32024366916E+00  0.00000000000E+00 0.  1.
         21    1    1    2  502  501  0.22093942428E+02  0.11265198535E+02  0.10713834951E+04  0.10716704907E+04  0.00000000000E+00 0.  1.
         21    1    1    2  503  502 -0.22093942428E+02 -0.11265198535E+02  0.86978266607E+03  0.87013615785E+03  0.00000000000E+00 0. -1.
</event>
<event>
 4    1  0.5568520E+002  0.3094650E+02  0.7546771E-02  0.1411546E+00
          2   -1    0    0  502    0  0.00000000000E+00  0.00000000000E+00  0.13574140006E+04  0.13574140006E+04  0.00000000000E+00 0.  1.
         -2   -1    0    0    0  501 -0.00000000000E+00 -0.00000000000E+00 -0.11694359715E+01  0.11694359715E+01  0.00000000000E+00 0. -1.
         21    1    1    2  502  503 -0.30946468371E+02  0.47315944479E-01  0.11059673989E+04  0.11064002773E+04  0.00000000000E+00 0.  1.
         21    1    1    2  503  501  0.30946468371E+02 -0.47315944479E-01  0.25027716574E+03  0.25218315930E+03  0.00000000000E+00 0. -1.
</event>
<event>
 4    1  0.5568520E+002  0.4987696E+02  0.7546771E-02  0.1298707E+00
          2   -1    0    0  502    0  0.00000000000E+00  0.00000000000E+00  0.12452048118E+04  0.12452048118E+04  0.00000000000E+00 0. -1.
         -2   -1    0    0    0  501 -0.00000000000E+00 -0.00000000000E+00 -0.31011381559E+01  0.31011381559E+01  0.00000000000E+00 0.  1.
         21    1    1    2  502  503 -0.62658499066E+01  0.49481813574E+02  0.99333928399E+03  0.99459069162E+03  0.00000000000E+00 0. -1.
         21    1    1    2  503  501  0.62658499066E+01 -0.49481813574E+02  0.24876438963E+03  0.25371525830E+03  0.00000000000E+00 0.  1.
</event>
<event>
 4    1  0.5568520E+002  0.2074456E+02  0.7546771E-02  0.1522943E+00
          2   -1    0    0  503    0  0.00000000000E+00  0.00000000000E+00  0.15255166501E+02  0.15255166501E+02  0.00000000000E+00 0.  1.
         -2   -1    0    0    0  501 -0.00000000000E+00 -0.00000000000E+00 -0.28234633771E+02  0.28234633771E+02  0.00000000000E+00 0. -1.
         21    1    1    2  502  501  0.20253541603E+02 -0.44867202493E+01 -0.71418968322E+01  0.21939537288E+02  0.00000000000E+00 0. -1.
         21    1    1    2  503  502 -0.20253541603E+02  0.44867202493E+01 -0.58375704380E+01  0.21550262984E+02  0.00000000000E+00 0.  1.
</event>
<event>
 4    1  0.5568520E+002  0.2893054E+02  0.7546771E-02  0.1429123E+00
          2   -1    0    0  502    0  0.00000000000E+00  0.00000000000E+00  0.16636304327E+04  0.16636304327E+04  0.00000000000E+00 0.  1.
         -2   -1    0    0    0  501 -0.00000000000E+00 -0.00000000000E+00 -0.12832592204E+01  0.12832592204E+01  0.00000000000E+00 0. -1.
         21    1    1    2  502  503 -0.28878728783E+02  0.17306716373E+01  0.14802495572E+04  0.14805322447E+04  0.00000000000E+00 0.  1.
         21    1    1    2  503  501  0.28878728783E+02 -0.17306716373E+01  0.18209761634E+03  0.18438144722E+03  0.00000000000E+00 0. -1.
</event>
<event>
 4    1  0.5568520E+002  0.2014475E+02  0.7546771E-02  0.1531834E+00
          2   -1    0    0  502    0  0.00000000000E+00  0.00000000000E+00  0.10559495012E+02  0.10559495012E+02  0.00000000000E+00 0.  1.
         -2   -1    0    0    0  501 -0.00000000000E+00 -0.00000000000E+00 -0.28389967865E+03  0.28389967865E+03  0.00000000000E+00 0. -1.
         21    1    1    2  502  503  0.13835413873E+02 -0.14642136025E+02  0.23221931665E+00  0.20146085234E+02  0.00000000000E+00 0.  1.
         21    1    1    2  503  501 -0.13835413873E+02  0.14642136025E+02 -0.27357240295E+03  0.27431308842E+03  0.00000000000E+00 0. -1.
</event>
<event>
 4    1  0.5568520E+002  0.2701173E+02  0.7546771E-02  0.1447490E+00
          2   -1    0    0  503    0  0.00000000000E+00  0.00000000000E+00  0.18657815403E+02  0.18657815403E+02  0.00000000000E+00 0. -1.
         -2   -1    0    0    0  501 -0.00000000000E+00 -0.00000000000E+00 -0.63869457702E+02  0.63869457702E+02  0.00000000000E+00 0.  1.
         21    1    1    2  502  501 -0.25792054716E+02 -0.80251779128E+01  0.30878428120E+01  0.27187650509E+02  0.00000000000E+00 0. -1.
         21    1    1    2  503  502  0.25792054716E+02  0.80251779128E+01 -0.48299485111E+02  0.55339622596E+02  0.00000000000E+00 0.  1.
</event>
<event>
 4    1  0.5568520E+002  0.2030931E+02  0.7546771E-02  0.1529359E+00
          2   -1    0    0  502    0  0.00000000000E+00  0.00000000000E+00  0.11815468707E+03  0.11815468707E+03  0.00000000000E+00 0. -1.
         -2   -1    0    0    0  501 -0.00000000000E+00 -0.00000000000E+00 -0.34909704214E+01  0.34909704214E+01  0.00000000000E+00 0.  1.
         21    1    1    2  502  503 -0.19450202165E+02 -0.58444460421E+01  0.57575228950E+02  0.61052230938E+02  0.00000000000E+00 0.  1.
         21    1    1    2  503  501  0.19450202165E+02  0.58444460421E+01  0.57088487697E+02  0.60593426553E+02  0.00000000000E+00 0. -1.
</event>
<event>
 4    1  0.5568520E+002  0.3571520E+02  0.7546771E-02  0.1375604E+00
          2   -1    0    0  502    0  0.00000000000E+00  0.00000000000E+00  0.17409815215E+01  0.17409815215E+01  0.00000000000E+00 0.  1.
         -2   -1    0    0    0  501 -0.00000000000E+00 -0.00000000000E+00 -0.73798640179E+03  0.73798640179E+03  0.00000000000E+00 0. -1.
         21    1    1    2  502  503  0.26983682986E+02 -0.23397788669E+02 -0.33674837581E+03  0.33863703913E+03  0.00000000000E+00 0. -1.
         21    1    1    2  503  501 -0.26983682986E+02  0.23397788669E+02 -0.39949704447E+03  0.40109034419E+03  0.00000000000E+00 0.  1.
</event>
<event>
 4    1  0.5568520E+002  0.2386401E+02  0.7546771E-02  0.1481925E+00
          2   -1    0    0  503    0  0.00000000000E+00  0.00000000000E+00  0.11030418853E+04  0.11030418853E+04  0.00000000000E+00 0.  1.
         -2   -1    0    0    0  501 -0.00000000000E+00 -0.00000000000E+00 -0.24472321542E+01  0.24472321542E+01  0.00000000000E+00 0. -1.
         21    1    1    2  502  501 -0.23137680244E+02  0.58428286003E+01  0.59308758641E+02  0.63929803258E+02  0.00000000000E+00 0. -1.
         21    1    1    2  503  502  0.23137680244E+02 -0.58428286003E+01  0.10412858945E+04  0.10415593142E+04  0.00000000000E+00 0.  1.
</event>
<event>
 4    1  0.5568520E+002  0.2013646E+02  0.7546771E-02  0.1531960E+00
          2   -1    0    0  503    0  0.00000000000E+00  0.00000000000E+00  0.12138670980E+03  0.12138670980E+03  0.00000000000E+00 0.  1.
         -2   -1    0    0    0  501 -0.00000000000E+00 -0.00000000000E+00 -0.12170660278E+02  0.12170660278E+02  0.00000000000E+00 0. -1.
         21    1    1    2  502  501 -0.17784173436E+02 -0.94445837221E+01 -0.22731018202E+01  0.20264352405E+02  0.00000000000E+00 0. -1.
         21    1    1    2  503  502  0.17784173436E+02  0.94445837221E+01  0.11148915134E+03  0.11329301767E+03  0.00000000000E+00 0.  1.
</event>
<event>
 4    1  0.5568520E+002  0.2012358E+02  0.7546771E-02  0.1532155E+00
          2   -1    0    0  503    0  0.00000000000E+00  0.00000000000E+00  0.10810921191E+03  0.10810921191E+03  0.00000000000E+00 0.  1.
         -2   -1    0    0    0  501 -0.00000000000E+00 -0.00000000000E+00 -0.39087413812E+01  0.39087413812E+01  0.00000000000E+00 0. -1.
         21    1    1    2  502  501  0.96736194286E+01 -0.17645953792E+02  0.63534717373E+02  0.66645471787E+02  0.00000000000E+00 0.  1.
         21    1    1    2  503  502 -0.96736194286E+01  0.17645953792E+02  0.40665753157E+02  0.45372481505E+02  0.00000000000E+00 0. -1.
</event>
<event>
 4    1  0.5568520E+002  0.2038072E+02  0.7546771E-02  0.1528293E+00
          2   -1    0    0  503    0  0.00000000000E+00  0.00000000000E+00  0.26859189731E+01  0.26859189731E+01  0.00000000000E+00 0.  1.
         -2   -1    0    0    0  501 -0.00000000000E+00 -0.00000000000E+00 -0.16370371778E+03  0.16370371778E+03  0.00000000000E+00 0. -1.
         21    1    1    2  502  501 -0.19168872702E+02  0.69230240659E+01 -0.60942492698E+02  0.64260107059E+02  0.00000000000E+00 0. -1.
         21    1    1    2  503  502  0.19168872702E+02 -0.69230240659E+01 -0.10007530611E+03  0.10212952970E+03  0.00000000000E+00 0.  1.
</event>
<event>
 4    1  0.5568520E+002  0.2287138E+02  0.7546771E-02  0.1494120E+00
          2   -1    0    0  502    0  0.00000000000E+00  0.00000000000E+00  0.52047163648E+02  0.52047163648E+02  0.00000000000E+00 0.  1.
         -2   -1    0    0    0  501 -0.00000000000E+00 -0.00000000000E+00 -0.14878059919E+02  0.14878059919E+02  0.00000000000E+00 0. -1.
         21    1    1    2  502  503  0.22214696322E+02 -0.54412568242E+01  0.37645764589E+02  0.44048877398E+02  0.00000000000E+00 0.  1.
         21    1    1    2  503  501 -0.22214696322E+02  0.54412568242E+01 -0.47666086021E+00  0.22876346170E+02  0.00000000000E+00 0. -1.
</event>
<event>
 4    1  0.5568520E+002  0.2111469E+02  0.7546771E-02  0.1517634E+00
          2   -1    0    0  502    0  0.00000000000E+00  0.00000000000E+00  0.21968937641E+03  0.21968937641E+03  0.00000000000E+00 0.  1.
         -2   -1    0    0    0  501 -0.00000000000E+00 -0.00000000000E+00 -0.23322270546E+01  0.23322270546E+01  0.00000000000E+00 0. -1.
         21    1    1    2  502  503 -0.18931981612E+02  0.93493445025E+01  0.68674753552E+02  0.71847421288E+02  0.00000000000E+00 0. -1.
         21    1    1    2  503  501  0.18931981612E+02 -0.93493445025E+01  0.14868239580E+03  0.15017418217E+03  0.00000000000E+00 0.  1.
</event>
<event>
 4    1  0.5568520E+002  0.3253486E+02  0.7546771E-02  0.1398775E+00
          2   -1    0    0  503    0  0.00000000000E+00  0.00000000000E+00  0.38087593841E+02  0.38087593841E+02  0.00000000000E+00 0. -1.
         -2   -1    0    0    0  501 -0.00000000000E+00 -0.00000000000E+00 -0.28511631375E+02  0.28511631375E+02  0.00000000000E+00 0.  1.
         21    1    1    2  502  501 -0.30264809109E+02 -0.11939778224E+02 -0.50365026904E+00  0.32538755939E+02  0.00000000000E+00 0.  1.
         21    1    1    2  503  502  0.30264809109E+02  0.11939778224E+02  0.10079612735E+02  0.34060469276E+02  0.00000000000E+00 0. -1.
</event>
<event>
 4    1  0.5568520E+002  0.1071361E+03  0.7546771E-02  0.1151985E+00
          2   -1    0    0  503    0  0.00000000000E+00  0.00000000000E+00  0.34730895350E+03  0.34730895350E+03  0.00000000000E+00 0. -1.
         -2   -1    0    0    0  501 -0.00000000000E+00 -0.00000000000E+00 -0.92580191351E+02  0.92580191351E+02  0.00000000000E+00 0.  1.
         21    1    1    2  502  501 -0.86077466728E+02 -0.63787301413E+02 -0.49006614411E+02  0.11781255602E+03  0.00000000000E+00 0.  1.
         21    1    1    2  503  502  0.86077466728E+02  0.63787301413E+02  0.30373537656E+03  0.32207658883E+03  0.00000000000E+00 0. -1.
</event>
<event>
 4    1  0.5568520E+002  0.2053154E+02  0.7546771E-02  0.1526059E+00
          2   -1    0    0  503    0  0.00000000000E+00  0.00000000000E+00  0.41031245909E+03  0.41031245909E+03  0.00000000000E+00 0. -1.
         -2   -1    0    0    0  501 -0.00000000000E+00 -0.00000000000E+00 -0.32763015156E+01  0.32763015156E+01  0.00000000000E+00 0.  1.
         21    1    1    2  502  501 -0.33431373516E+01  0.20257535178E+02  0.32187633837E+02  0.38178371768E+02  0.00000000000E+00 0.  1.
         21    1    1    2  503  502  0.33431373516E+01 -0.20257535178E+02  0.37484852373E+03  0.37541038883E+03  0.00000000000E+00 0. -1.
</event>
<event>
 4    1  0.5568520E+002  0.2042364E+02  0.7546771E-02  0.1527655E+00
          2   -1    0    0  503    0  0.00000000000E+00  0.00000000000E+00  0.23575045512E+03  0.23575045512E+03  0.00000000000E+00 0.  1.
         -2   -1    0    0    0  501 -0.00000000000E+00 -0.00000000000E+00 -0.51383945718E+01  0.51383945718E+01  0.00000000000E+00 0. -1.
         21    1    1    2  502  501 -0.16792495289E+02  0.11624846343E+02  0.17778688453E+02  0.27077790044E+02  0.00000000000E+00 0. -1.
         21    1    1    2  503  502  0.16792495289E+02 -0.11624846343E+02  0.21283337209E+03  0.21381105964E+03  0.00000000000E+00 0.  1.
</event>
<event>
 4    1  0.5568520E+002  0.2156178E+02  0.7546771E-02  0.1511393E+00
          2   -1    0    0  502    0  0.00000000000E+00  0.00000000000E+00  0.70033734342E+02  0.70033734342E+02  0.00000000000E+00 0. -1.
         -2   -1    0    0    0  501 -0.00000000000E+00 -0.00000000000E+00 -0.69507061039E+01  0.69507061039E+01  0.00000000000E+00 0.  1.
         21    1    1    2  502  503  0.17239217426E+02 -0.12950670789E+02  0.39701006430E+02  0.45178317840E+02  0.00000000000E+00 0. -1.
         21    1    1    2  503  501 -0.17239217426E+02  0.12950670789E+02  0.23382021809E+02  0.31806122606E+02  0.00000000000E+00 0.  1.
</event>
<event>
 4    1  0.5568520E+002  0.2447611E+02  0.7546771E-02  0.1474750E+00
          2   -1    0    0  502    0  0.00000000000E+00  0.00000000000E+00  0.15631385031E+03  0.15631385031E+03  0.00000000000E+00 0. -1.
         -2   -1    0    0    0  501 -0.00000000000E+00 -0.00000000000E+00 -0.39117484678E+01  0.39117484678E+01  0.00000000000E+00 0.  1.
         21    1    1    2  502  503 -0.23953546997E+02 -0.50306562951E+01  0.87600599416E+02  0.90955730631E+02  0.00000000000E+00 0.  1.
         21    1    1    2  503  501  0.23953546997E+02  0.50306562951E+01  0.64801502430E+02  0.69269868151E+02  0.00000000000E+00 0. -1.
</event>
<event>
 4    1  0.5568520E+002  0.2010358E+02  0.7546771E-02  0.1532458E+00
          2   -1    0    0  502    0  0.00000000000E+00  0.00000000000E+00  0.12542551104E+04  0.12542551104E+04  0.00000000000E+00 0.  1.
         -2   -1    0    0    0  501 -0.00000000000E+00 -0.00000000000E+00 -0.35118198982E+00  0.35118198982E+00  0.00000000000E+00 0. -1.
         21    1    1    2  502  503  0.45140669023E+01  0.19590226678E+02  0.80707925408E+03  0.80732959573E+03  0.00000000000E+00 0.  1.
         21    1    1    2  503  501 -0.45140669023E+01 -0.19590226678E+02  0.44682467430E+03  0.44727669663E+03  0.00000000000E+00 0. -1.
</event>
<event>
 4    1  0.5568520E+002  0.4786235E+02  0.7546771E-02  0.1307716E+00
          2   -1    0    0  502    0  0.00000000000E+00  0.00000000000E+00  0.39607396806E+04  0.39607396806E+04  0.00000000000E+00 0. -1.
         -2   -1    0    0    0  501 -0.00000000000E+00 -0.00000000000E+00 -0.15477685977E+01  0.15477685977E+01  0.00000000000E+00 0.  1.
         21    1    1    2  502  503 -0.47722341411E+02 -0.36581880690E+01  0.35474744264E+04  0.35477972899E+04  0.00000000000E+00 0. -1.
         21    1    1    2  503  501  0.47722341411E+02  0.36581880690E+01  0.41171748557E+03  0.41449015928E+03  0.00000000000E+00 0.  1.
</event>
<event>
 4    1  0.5568520E+002  0.2249390E+02  0.7546771E-02  0.1498953E+00
          2   -1    0    0  503    0  0.00000000000E+00  0.00000000000E+00  0.42592706681E+03  0.42592706681E+03  0.00000000000E+00 0.  1.
         -2   -1    0    0    0  501 -0.00000000000E+00 -0.00000000000E+00 -0.53025821538E+01  0.53025821538E+01  0.00000000000E+00 0. -1.
         21    1    1    2  502  501 -0.22795724867E+01 -0.22378090782E+02  0.20378992329E+02  0.30352573633E+02  0.00000000000E+00 0. -1.
         21    1    1    2  503  502  0.22795724867E+01  0.22378090782E+02  0.40024549232E+03  0.40087707533E+03  0.00000000000E+00 0.  1.
</event>
<event>
 4    1  0.5568520E+002  0.2367452E+02  0.7546771E-02  0.1484198E+00
          2   -1    0    0  502    0  0.00000000000E+00  0.00000000000E+00  0.25345322247E+03  0.25345322247E+03  0.00000000000E+00 0. -1.
         -2   -1    0    0    0  501 -0.00000000000E+00 -0.00000000000E+00 -0.39001591614E+01  0.39001591614E+01  0.00000000000E+00 0.  1.
         21    1    1    2  502  503 -0.23332913135E+02 -0.40072277467E+01  0.20944944019E+03  0.21078318411E+03  0.00000000000E+00 0. -1.
         21    1    1    2  503  501  0.23332913135E+02  0.40072277467E+01  0.40103623123E+02  0.46570197521E+02  0.00000000000E+00 0.  1.
</event>
<event>
 4    1  0.5568520E+002  0.2109371E+02  0.7546771E-02  0.1517931E+00
          2   -1    0    0  502    0  0.00000000000E+00  0.00000000000E+00  0.10119762926E+04  0.10119762926E+04  0.00000000000E+00 0.  1.
         -2   -1    0    0    0  501 -0.00000000000E+00 -0.00000000000E+00 -0.10999230677E+01  0.10999230677E+01  0.00000000000E+00 0. -1.
         21    1    1    2  502  503  0.17701617183E+02 -0.11471584334E+02  0.89788724737E+03  0.89813498623E+03  0.00000000000E+00 0.  1.
         21    1    1    2  503  501 -0.17701617183E+02  0.11471584334E+02  0.11298912217E+03  0.11494122945E+03  0.00000000000E+00 0. -1.
</event>
<event>
 4    1  0.5568520E+002  0.2004829E+02  0.7546771E-02  0.1533299E+00
          2   -1    0    0  502    0  0.00000000000E+00  0.00000000000E+00  0.76981022887E+02  0.76981022887E+02  0.00000000000E+00 0. -1.
         -2   -1    0    0    0  501 -0.00000000000E+00 -0.00000000000E+00 -0.67574073133E+01  0.67574073133E+01  0.00000000000E+00 0.  1.
         21    1    1    2  502  503  0.17141910925E+02 -0.10396575895E+02  0.55074936775E+02  0.58610430482E+02  0.00000000000E+00 0. -1.
         21    1    1    2  503  501 -0.17141910925E+02  0.10396575895E+02  0.15148678799E+02  0.25127999719E+02  0.00000000000E+00 0.  1.
</event>
<event>
 4    1  0.5568520E+002  0.2591413E+02  0.7546771E-02  0.1458832E+00
          2   -1    0    0  503    0  0.00000000000E+00  0.00000000000E+00  0.55877226774E+02  0.55877226774E+02  0.00000000000E+00 0. -1.
         -2   -1    0    0    0  501 -0.00000000000E+00 -0.00000000000E+00 -0.14371105092E+02  0.14371105092E+02  0.00000000000E+00 0.  1.
         21    1    1    2  502  501  0.21871252065E+02  0.13899304110E+02  0.34965394578E+02  0.43521502038E+02  0.00000000000E+00 0. -1.
         21    1    1    2  503  502 -0.21871252065E+02 -0.13899304110E+02  0.65407271048E+01  0.26726829829E+02  0.00000000000E+00 0.  1.
</event>
<event>
 4    1  0.5568520E+002  0.2062973E+02  0.7546771E-02  0.1524617E+00
          2   -1    0    0  502    0  0.00000000000E+00  0.00000000000E+00  0.30333706349E+03  0.30333706349E+03  0.00000000000E+00 0. -1.
         -2   -1    0    0    0  501 -0.00000000000E+00 -0.00000000000E+00 -0.37555733511E+01  0.37555733511E+01  0.00000000000E+00 0.  1.
         21    1    1    2  502  503 -0.28951096581E+01 -0.20425579169E+02  0.27131742673E+03  0.27210059168E+03  0.00000000000E+00 0. -1.
         21    1    1    2  503  501  0.28951096581E+01  0.20425579169E+02  0.28264063410E+02  0.34992045164E+02  0.00000000000E+00 0.  1.
</event>
<event>
 4    1  0.5568520E+002  0.2163584E+02  0.7546771E-02  0.1510377E+00
          2   -1    0    0  503    0  0.00000000000E+00  0.00000000000E+00  0.95966112704E+01  0.95966112704E+01  0.00000000000E+00 0. -1.
         -2   -1    0    0    0  501 -0.00000000000E+00 -0.00000000000E+00 -0.85719042552E+02  0.85719042552E+02  0.00000000000E+00 0.  1.
         21    1    1    2  502  501 -0.32684863178E+01  0.21387533090E+02 -0.69346955931E+02  0.72643718733E+02  0.00000000000E+00 0.  1.
         21    1    1    2  503  502  0.32684863178E+01 -0.21387533090E+02 -0.67754753510E+01  0.22671935090E+02  0.00000000000E+00 0. -1.
</event>
<event>
 4    1  0.5568520E+002  0.2335904E+02  0.7546771E-02  0.1488038E+00
          2   -1    0    0  503    0  0.00000000000E+00  0.00000000000E+00  0.42959366845E+03  0.42959366845E+03  0.00000000000E+00 0. -1.
         -2   -1    0    0    0  501 -0.00000000000E+00 -0.00000000000E+00 -0.33133001862E+01  0.33133001862E+01  0.00000000000E+00 0.  1.
         21    1    1    2  502  501 -0.14395680387E+02 -0.18395896203E+02  0.43165097410E+02  0.49080242922E+02  0.00000000000E+00 0.  1.
         21    1    1    2  503  502  0.14395680387E+02  0.18395896203E+02  0.38311527085E+03  0.38382672571E+03  0.00000000000E+00 0. -1.
</event>
<event>
 4    1  0.5568520E+002  0.7889784E+02  0.7546771E-02  0.1206430E+00
          2   -1    0    0  503    0  0.00000000000E+00  0.00000000000E+00  0.21195026653E+02  0.21195026653E+02  0.00000000000E+00 0. -1.
         -2   -1    0    0    0  501 -0.00000000000E+00 -0.00000000000E+00 -0.29891350404E+03  0.29891350404E+03  0.00000000000E+00 0.  1.
         21    1    1    2  502  501 -0.17151438027E+02 -0.77011017119E+02 -0.11771087071E+03  0.14170644893E+03  0.00000000000E+00 0. -1.
         21    1    1    2  503  502  0.17151438027E+02  0.77011017119E+02 -0.16000760668E+03  0.17840208177E+03  0.00000000000E+00 0.  1.
</event>
<event>
 4    1  0.5568520E+002  0.3755779E+02  0.7546771E-02  0.1363424E+00
          2   -1    0    0  503    0  0.00000000000E+00  0.00000000000E+00  0.70554623247E+03  0.70554623247E+03  0.00000000000E+00 0.  1.
         -2   -1    0    0    0  501 -0.00000000000E+00 -0.00000000000E+00 -0.26869967755E+01  0.26869967755E+01  0.00000000000E+00 0. -1.
         21    1    1    2  502  501 -0.33722166714E+02  0.16534898337E+02  0.17227985660E+03  0.17632622148E+03  0.00000000000E+00 0. -1.
         21    1    1    2  503  502  0.33722166714E+02 -0.16534898337E+02  0.53057937909E+03  0.53190700776E+03  0.00000000000E+00 0.  1.
</event>
<event>
 4    1  0.5568520E+002  0.2015040E+02  0.7546771E-02  0.1531749E+00
          2   -1    0    0  503    0  0.00000000000E+00  0.00000000000E+00  0.18720011638E+03  0.18720011638E+03  0.00000000000E+00 0.  1.
         -2   -1    0    0    0  501 -0.00000000000E+00 -0.00000000000E+00 -0.28799141684E+01  0.28799141684E+01  0.00000000000E+00 0. -1.
         21    1    1    2  502  501 -0.10016684454E+02 -0.17484409458E+02  0.44940438424E+02  0.49251208587E+02  0.00000000000E+00 0. -1.
         21    1    1    2  503  502  0.10016684454E+02  0.17484409458E+02  0.13937976379E+03  0.14082882196E+03  0.00000000000E+00 0.  1.
</event>
<event>
 4    1  0.5568520E+002  0.4172345E+02  0.7546771E-02  0.1338672E+00
          2   -1    0    0  503    0  0.00000000000E+00  0.00000000000E+00  0.15095410115E+02  0.15095410115E+02  0.00000000000E+00 0. -1.
         -2   -1    0    0    0  501 -0.00000000000E+00 -0.00000000000E+00 -0.14216908975E+03  0.14216908975E+03  0.00000000000E+00 0.  1.
         21    1    1    2  502  501  0.41699739313E+02  0.14063197579E+01 -0.97706424048E+02  0.10624213521E+03  0.00000000000E+00 0.  1.
         21    1    1    2  503  502 -0.41699739313E+02 -0.14063197579E+01 -0.29367255585E+02  0.51022364651E+02  0.00000000000E+00 0. -1.
</event>
<event>
 4    1  0.5568520E+002  0.2118343E+02  0.7546771E-02  0.1516662E+00
          2   -1    0    0  502    0  0.00000000000E+00  0.00000000000E+00  0.20528729448E+03  0.20528729448E+03  0.00000000000E+00 0.  1.
         -2   -1    0    0    0  501 -0.00000000000E+00 -0.00000000000E+00 -0.35631425097E+01  0.35631425097E+01  0.00000000000E+00 0. -1.
         21    1    1    2  502  503 -0.21071998774E+02  0.21699437572E+01  0.35939793163E+02  0.41718179740E+02  0.00000000000E+00 0. -1.
         21    1    1    2  503  501  0.21071998774E+02 -0.21699437572E+01  0.16578435880E+03  0.16713225725E+03  0.00000000000E+00 0.  1.
</event>
<event>
 4    1  0.5568520E+002  0.2775597E+02  0.7546771E-02  0.1440159E+00
          2   -1    0    0  503    0  0.00000000000E+00  0.00000000000E+00  0.28659700588E+03  0.28659700588E+03  0.00000000000E+00 0.  1.
         -2   -1    0    0    0  501 -0.00000000000E+00 -0.00000000000E+00 -0.11445087699E+02  0.11445087699E+02  0.00000000000E+00 0. -1.
         21    1    1    2  502  501 -0.27294268360E+02 -0.50415191704E+01  0.72244515191E+01  0.28680772316E+02  0.00000000000E+00 0. -1.
         21    1    1    2  503  502  0.27294268360E+02  0.50415191704E+01  0.26792746666E+03  0.26936132126E+03  0.00000000000E+00 0.  1.
</event>
<event>
 4    1  0.5568520E+002  0.2033076E+02  0.7546771E-02  0.1529038E+00
          2   -1    0    0  503    0  0.00000000000E+00  0.00000000000E+00  0.38407289371E+03  0.38407289371E+03  0.00000000000E+00 0.  1.
         -2   -1    0    0    0  501 -0.00000000000E+00 -0.00000000000E+00 -0.33195063084E+01  0.33195063084E+01  0.00000000000E+00 0. -1.
         21    1    1    2  502  501 -0.20327547404E+02  0.36115948658E+00  0.31145354864E+02  0.37193719218E+02  0.00000000000E+00 0. -1.
         21    1    1    2  503  502  0.20327547404E+02 -0.36115948658E+00  0.34960803254E+03  0.35019868080E+03  0.00000000000E+00 0.  1.
</event>
<event>
 4    1  0.5568520E+002  0.2911243E+02  0.7546771E-02  0.1427469E+00
          2   -1    0    0  503    0  0.00000000000E+00  0.00000000000E+00  0.50702125651E+03  0.50702125651E+03  0.00000000000E+00 0.  1.
         -2   -1    0    0    0  501 -0.00000000000E+00 -0.00000000000E+00 -0.46887622800E+02  0.46887622800E+02  0.00000000000E+00 0. -1.
         21    1    1    2  502  501 -0.20742292681E+02  0.20427693880E+02 -0.41905959969E+02  0.51025903852E+02  0.00000000000E+00 0. -1.
         21    1    1    2  503  502  0.20742292681E+02 -0.20427693880E+02  0.50203959368E+03  0.50288297546E+03  0.00000000000E+00 0.  1.
</event>
<event>
 4    1  0.5568520E+002  0.2224989E+02  0.7546771E-02  0.1502138E+00
          2   -1    0    0  503    0  0.00000000000E+00  0.00000000000E+00  0.62663993151E+03  0.62663993151E+03  0.00000000000E+00 0. -1.
         -2   -1    0    0    0  501 -0.00000000000E+00 -0.00000000000E+00 -0.80199496339E+00  0.80199496339E+00  0.00000000000E+00 0.  1.
         21    1    1    2  502  501 -0.18594675301E+02 -0.12218652937E+02  0.27458236664E+03  0.27548236513E+03  0.00000000000E+00 0.  1.
         21    1    1    2  503  502  0.18594675301E+02  0.12218652937E+02  0.35125556991E+03  0.35195956134E+03  0.00000000000E+00 0. -1.
</event>
<event>
 4    1  0.5568520E+002  0.2459834E+02  0.7546771E-02  0.1473347E+00
          2   -1    0    0  502    0  0.00000000000E+00  0.00000000000E+00  0.18184717803E+03  0.18184717803E+03  0.00000000000E+00 0.  1.
         -2   -1    0    0    0  501 -0.00000000000E+00 -0.00000000000E+00 -0.45046406541E+01  0.45046406541E+01  0.00000000000E+00 0. -1.
         21    1    1    2  502  503 -0.68076322599E+01 -0.23637567994E+02  0.13630405752E+03  0.13850586476E+03  0.00000000000E+00 0. -1.
         21    1    1    2  503  501  0.68076322599E+01  0.23637567994E+02  0.41038479857E+02  0.47845953921E+02  0.00000000000E+00 0.  1.
</event>
<event>
 4    1  0.5568520E+002  0.2530945E+02  0.7546771E-02  0.1465371E+00
          2   -1    0    0  503    0  0.00000000000E+00  0.00000000000E+00  0.15143117889E+03  0.15143117889E+03  0.00000000000E+00 0.  1.
         -2   -1    0    0    0  501 -0.00000000000E+00 -0.00000000000E+00 -0.60691678860E+01  0.60691678860E+01  0.00000000000E+00 0. -1.
         21    1    1    2  502  501  0.11090705656E+02  0.22750046456E+02  0.29331281048E+02  0.38741352759E+02  0.00000000000E+00 0. -1.
         21    1    1    2  503  502 -0.11090705656E+02 -0.22750046456E+02  0.11603072996E+03  0.11875899402E+03  0.00000000000E+00 0.  1.
</event>
<event>
 4    1  0.5568520E+002  0.2079617E+02  0.7546771E-02  0.1522195E+00
          2   -1    0    0  503    0  0.00000000000E+00  0.00000000000E+00  0.29325707982E+02  0.29325707982E+02  0.00000000000E+00 0. -1.
         -2   -1    0    0    0  501 -0.00000000000E+00 -0.00000000000E+00 -0.17021553209E+02  0.17021553209E+02  0.00000000000E+00 0.  1.
         21    1    1    2  502  501  0.94901721744E+01  0.18504518817E+02 -0.23181633642E+01  0.20924972304E+02  0.00000000000E+00 0.  1.
         21    1    1    2  503  502 -0.94901721744E+01 -0.18504518817E+02  0.14622318138E+02  0.25422288887E+02  0.00000000000E+00 0. -1.
</event>
<event>
 4    1  0.5568520E+002  0.2602678E+02  0.7546771E-02  0.1457637E+00
          2   -1    0    0  502    0  0.00000000000E+00  0.00000000000E+00  0.64740740074E+03  0.64740740074E+03  0.00000000000E+00 0. -1.
         -2   -1    0    0    0  501 -0.00000000000E+00 -0.00000000000E+00 -0.13279638444E+01  0.13279638444E+01  0.00000000000E+00 0.  1.
         21    1    1    2  502  503 -0.23323826919E+02  0.11549559031E+02  0.47242130912E+03  0.47313770356E+03  0.00000000000E+00 0.  1.
         21    1    1    2  503  501  0.23323826919E+02 -0.11549559031E+02  0.17365812777E+03  0.17559766102E+03  0.00000000000E+00 0. -1.
</event>
<event>
 4    1  0.5568520E+002  0.2564638E+02  0.7546771E-02  0.1461701E+00
          2   -1    0    0  503    0  0.00000000000E+00  0.00000000000E+00  0.14763939505E+04  0.14763939505E+04  0.00000000000E+00 0.  1.
         -2   -1    0    0    0  501 -0.00000000000E+00 -0.00000000000E+00 -0.11694340769E+01  0.11694340769E+01  0.00000000000E+00 0. -1.
         21    1    1    2  502  501  0.17835352156E+02  0.18429248329E+02  0.15634339977E+03  0.15843293734E+03  0.00000000000E+00 0. -1.
         21    1    1    2  503  502 -0.17835352156E+02 -0.18429248329E+02  0.13188811167E+04  0.13191304473E+04  0.00000000000E+00 0.  1.
</event>
<event>
 4    1  0.5568520E+002  0.2400106E+02  0.7546771E-02  0.1480296E+00
          2   -1    0    0  502    0  0.00000000000E+00  0.00000000000E+00  0.24829214059E+02  0.24829214059E+02  0.00000000000E+00 0. -1.
         -2   -1    0    0    0  501 -0.00000000000E+00 -0.00000000000E+00 -0.43275790812E+02  0.43275790812E+02  0.00000000000E+00 0.  1.
         21    1    1    2  502  503 -0.20294034900E+02  0.12814181672E+02  0.13969717950E+02  0.27770562185E+02  0.00000000000E+00 0.  1.
         21    1    1    2  503  501  0.20294034900E+02 -0.12814181672E+02 -0.32416294703E+02  0.40334442686E+02  0.00000000000E+00 0. -1.
</event>
<event>
 4    1  0.5568520E+002  0.2080887E+02  0.7546771E-02  0.1522011E+00
          2   -1    0    0  502    0  0.00000000000E+00  0.00000000000E+00  0.94831542610E+03  0.94831542610E+03  0.00000000000E+00 0. -1.
         -2   -1    0    0    0  501 -0.00000000000E+00 -0.00000000000E+00 -0.45664464896E+00  0.45664464896E+00  0.00000000000E+00 0.  1.
         21    1    1    2  502  503 -0.20466842031E+02 -0.37573245811E+01  0.47813618503E+03  0.47858878022E+03  0.00000000000E+00 0. -1.
         21    1    1    2  503  501  0.20466842031E+02  0.37573245811E+01  0.46972259642E+03  0.47018329053E+03  0.00000000000E+00 0.  1.
</event>
<event>
 4    1  0.5568520E+002  0.2526027E+02  0.7546771E-02  0.1465913E+00
          2   -1    0    0  503    0  0.00000000000E+00  0.00000000000E+00  0.10489463446E+04  0.10489463446E+04  0.00000000000E+00 0. -1.
         -2   -1    0    0    0  501 -0.00000000000E+00 -0.00000000000E+00 -0.84115559044E+00  0.84115559044E+00  0.00000000000E+00 0.  1.
         21    1    1    2  502  501  0.23085889771E+02 -0.10252945300E+02  0.24788658326E+03  0.24917030191E+03  0.00000000000E+00 0.  1.
         21    1    1    2  503  502 -0.23085889771E+02  0.10252945300E+02  0.80021860579E+03  0.80061719832E+03  0.00000000000E+00 0. -1.
</event>
<event>
 4    1  0.5568520E+002  0.4894763E+02  0.7546771E-02  0.1302801E+00
          2   -1    0    0  502    0  0.00000000000E+00  0.00000000000E+00  0.16479904019E+04  0.16479904019E+04  0.00000000000E+00 0.  1.
         -2   -1    0    0    0  501 -0.00000000000E+00 -0.00000000000E+00 -0.15391484274E+01  0.15391484274E+01  0.00000000000E+00 0. -1.
         21    1    1    2  502  503 -0.29287747218E+02 -0.39218601237E+02  0.62902390751E+03  0.63092546869E+03  0.00000000000E+00 0. -1.
         21    1    1    2  503  501  0.29287747218E+02  0.39218601237E+02  0.10174273460E+04  0.10186040816E+04  0.00000000000E+00 0.  1.
</event>
<event>
 4    1  0.5568520E+002  0.4349589E+02  0.7546771E-02  0.1329134E+00
          2   -1    0    0  503    0  0.00000000000E+00  0.00000000000E+00  0.83265663876E+02  0.83265663876E+02  0.00000000000E+00 0.  1.
         -2   -1    0    0    0  501 -0.00000000000E+00 -0.00000000000E+00 -0.16472336865E+03  0.16472336865E+03  0.00000000000E+00 0. -1.
         21    1    1    2  502  501  0.32127932055E+02 -0.29320440552E+02 -0.15585458973E+03  0.16181021411E+03  0.00000000000E+00 0. -1.
         21    1    1    2  503  502 -0.32127932055E+02  0.29320440552E+02  0.74396884953E+02  0.86178818413E+02  0.00000000000E+00 0.  1.
</event>
<event>
 4    1  0.5568520E+002  0.2030194E+02  0.7546771E-02  0.1529469E+00
          2   -1    0    0  503    0  0.00000000000E+00  0.00000000000E+00  0.13356577877E+03  0.13356577877E+03  0.00000000000E+00 0.  1.
         -2   -1    0    0    0  501 -0.00000000000E+00 -0.00000000000E+00 -0.10455472096E+02  0.10455472096E+02  0.00000000000E+00 0. -1.
         21    1    1    2  502  501  0.20118598546E+02  0.27222856540E+01  0.10981954745E+01  0.20331622659E+02  0.00000000000E+00 0. -1.
         21    1    1    2  503  502 -0.20118598546E+02 -0.27222856540E+01  0.12201211120E+03  0.12368962820E+03  0.00000000000E+00 0.  1.
</event>
<event>
 4    1  0.5568520E+002  0.5493976E+02  0.7546771E-02  0.1278068E+00
          2   -1    0    0  502    0  0.00000000000E+00  0.00000000000E+00  0.14406275897E+04  0.14406275897E+04  0.00000000000E+00 0.  1.
         -2   -1    0    0    0  501 -0.00000000000E+00 -0.00000000000E+00 -0.24285093117E+01  0.24285093117E+01  0.00000000000E+00 0. -1.
         21    1    1    2  502  503 -0.36392195266E+02 -0.41158056155E+02  0.98641161128E+03  0.98794040525E+03  0.00000000000E+00 0. -1.
         21    1    1    2  503  501  0.36392195266E+02  0.41158056155E+02  0.45178746915E+03  0.45511569380E+03  0.00000000000E+00 0.  1.
</event>
<event>
 4    1  0.5568520E+002  0.2309422E+02  0.7546771E-02  0.1491318E+00
          2   -1    0    0  503    0  0.00000000000E+00  0.00000000000E+00  0.16870573731E+02  0.16870573731E+02  0.00000000000E+00 0. -1.
         -2   -1    0    0    0  501 -0.00000000000E+00 -0.00000000000E+00 -0.93988865700E+02  0.93988865700E+02  0.00000000000E+00 0.  1.
         21    1    1    2  502  501 -0.23087003823E+02 -0.57741368289E+00 -0.83714571946E+02  0.86841653071E+02  0.00000000000E+00 0.  1.
         21    1    1    2  503  502  0.23087003823E+02  0.57741368289E+00  0.65962799774E+01  0.24017786360E+02  0.00000000000E+00 0. -1.
</event>
<event>
 4    1  0.5568520E+002  0.6755494E+02  0.7546771E-02  0.1236120E+00
          2   -1    0    0  502    0  0.00000000000E+00  0.00000000000E+00  0.92806993080E+03  0.92806993080E+03  0.00000000000E+00 0.  1.
         -2   -1    0    0    0  501 -0.00000000000E+00 -0.00000000000E+00 -0.66526926408E+01  0.66526926408E+01  0.00000000000E+00 0. -1.
         21    1    1    2  502  503  0.10126878111E+02  0.66791587418E+02  0.69940358456E+03  0.70265855429E+03  0.00000000000E+00 0. -1.
         21    1    1    2  503  501 -0.10126878111E+02 -0.66791587418E+02  0.22201365360E+03  0.23206406916E+03  0.00000000000E+00 0.  1.
</event>
<event>
 4    1  0.5568520E+002  0.2093346E+02  0.7546771E-02  0.1520217E+00
          2   -1    0    0  503    0  0.00000000000E+00  0.00000000000E+00  0.59056356422E+00  0.59056356422E+00  0.00000000000E+00 0. -1.
         -2   -1    0    0    0  501 -0.00000000000E+00 -0.00000000000E+00 -0.76021352417E+03  0.76021352417E+03  0.00000000000E+00 0.  1.
         21    1    1    2  502  501  0.19355752011E+02 -0.79727354636E+01 -0.43866061973E+03  0.43915982165E+03  0.00000000000E+00 0. -1.
         21    1    1    2  503  502 -0.19355752011E+02  0.79727354636E+01 -0.32096234088E+03  0.32164426609E+03  0.00000000000E+00 0.  1.
</event>
<event>
 4    1  0.5568520E+002  0.2067855E+02  0.7546771E-02  0.1523904E+00
          2   -1    0    0  502    0  0.00000000000E+00  0.00000000000E+00  0.23843721606E+03  0.23843721606E+03  0.00000000000E+00 0. -1.
         -2   -1    0    0    0  501 -0.00000000000E+00 -0.00000000000E+00 -0.19811477848E+01  0.19811477848E+01  0.00000000000E+00 0.  1.
         21    1    1    2  502  503 -0.74965078003E+01 -0.19271865560E+02  0.15523805635E+03  0.15660924804E+03  0.00000000000E+00 0. -1.
         21    1    1    2  503  501  0.74965078003E+01  0.19271865560E+02  0.81218011917E+02  0.83809115799E+02  0.00000000000E+00 0.  1.
</event>
<event>
 4    1  0.5568520E+002  0.2137767E+02  0.7546771E-02  0.1513941E+00
          2   -1    0    0  503    0  0.00000000000E+00  0.00000000000E+00  0.16131673478E+03  0.16131673478E+03  0.00000000000E+00 0. -1.
         -2   -1    0    0    0  501 -0.00000000000E+00 -0.00000000000E+00 -0.38548587829E+01  0.38548587829E+01  0.00000000000E+00 0.  1.
         21    1    1    2  502  501  0.21333673622E+02  0.13707470894E+01  0.36209874500E+02  0.42049489760E+02  0.00000000000E+00 0.  1.
         21    1    1    2  503  502 -0.21333673622E+02 -0.13707470894E+01  0.12125200149E+03  0.12312210380E+03  0.00000000000E+00 0. -1.
</event>
<event>
 4    1  0.5568520E+002  0.2913854E+02  0.7546771E-02  0.1427233E+00
          2   -1    0    0  503    0  0.00000000000E+00  0.00000000000E+00  0.23831935855E+03  0.23831935855E+03  0.00000000000E+00 0. -1.
         -2   -1    0    0    0  501 -0.00000000000E+00 -0.00000000000E+00 -0.16834890280E+02  0.16834890280E+02  0.00000000000E+00 0.  1.
         21    1    1    2  502  501 -0.86157685666E+01  0.27835643187E+02 -0.25341472792E+01  0.29248528203E+02  0.00000000000E+00 0.  1.
         21    1    1    2  503  502  0.86157685666E+01 -0.27835643187E+02  0.22401861555E+03  0.22590572063E+03  0.00000000000E+00 0. -1.
</event>
<event>
 4    1  0.5568520E+002  0.6366199E+02  0.7546771E-02  0.1247873E+00
          2   -1    0    0  503    0  0.00000000000E+00  0.00000000000E+00  0.75085418854E+02  0.75085418854E+02  0.00000000000E+00 0. -1.
         -2   -1    0    0    0  501 -0.00000000000E+00 -0.00000000000E+00 -0.56932268986E+02  0.56932268986E+02  0.00000000000E+00 0.  1.
         21    1    1    2  502  501 -0.35977699755E+02  0.52520981244E+02  0.24116923098E+02  0.68076973568E+02  0.00000000000E+00 0. -1.
         21    1    1    2  503  502  0.35977699755E+02 -0.52520981244E+02 -0.59637732299E+01  0.63940714272E+02  0.00000000000E+00 0.  1.
</event>
<event>
 4    1  0.5568520E+002  0.2262295E+02  0.7546771E-02  0.1497288E+00
          2   -1    0    0  503    0  0.00000000000E+00  0.00000000000E+00  0.22750998924E+02  0.22750998924E+02  0.00000000000E+00 0. -1.
         -2   -1    0    0    0  501 -0.00000000000E+00 -0.00000000000E+00 -0.11879083499E+03  0.11879083499E+03  0.00000000000E+00 0.  1.
         21    1    1    2  502  501  0.16607628917E+02 -0.15361795008E+02 -0.11173843852E+03  0.11400559954E+03  0.00000000000E+00 0.  1.
         21    1    1    2  503  502 -0.16607628917E+02  0.15361795008E+02  0.15698602457E+02  0.27536234369E+02  0.00000000000E+00 0. -1.
</event>
<event>
 4    1  0.5568520E+002  0.2913350E+02  0.7546771E-02  0.1427279E+00
          2   -1    0    0  502    0  0.00000000000E+00  0.00000000000E+00  0.35283588970E+01  0.35283588970E+01  0.00000000000E+00 0. -1.
         -2   -1    0    0    0  501 -0.00000000000E+00 -0.00000000000E+00 -0.33459258232E+03  0.33459258232E+03  0.00000000000E+00 0.  1.
         21    1    1    2  502  503  0.27577849254E+02 -0.93927254836E+01 -0.75905533753E+02  0.81304434785E+02  0.00000000000E+00 0. -1.
         21    1    1    2  503  501 -0.27577849254E+02  0.93927254836E+01 -0.25515868967E+03  0.25681650643E+03  0.00000000000E+00 0.  1.
</event>
<event>
 4    1  0.5568520E+002  0.3907117E+02  0.7546771E-02  0.1354016E+00
          2   -1    0    0  502    0  0.00000000000E+00  0.00000000000E+00  0.65314041382E+03  0.65314041382E+03  0.00000000000E+00 0. -1.
         -2   -1    0    0    0  501 -0.00000000000E+00 -0.00000000000E+00 -0.73459909990E+01  0.73459909990E+01  0.00000000000E+00 0.  1.
         21    1    1    2  502  503 -0.32888575968E+02  0.21092594539E+02  0.59558942889E+03  0.59686960366E+03  0.00000000000E+00 0. -1.
         21    1    1    2  503  501  0.32888575968E+02 -0.21092594539E+02  0.50204993936E+02  0.63616801159E+02  0.00000000000E+00 0.  1.
</event>
<event>
 4    1  0.5568520E+002  0.2087352E+02  0.7546771E-02  0.1521078E+00
          2   -1    0    0  502    0  0.00000000000E+00  0.00000000000E+00  0.19220659425E+03  0.19220659425E+03  0.00000000000E+00 0. -1.
         -2   -1    0    0    0  501 -0.00000000000E+00 -0.00000000000E+00 -0.63729687881E+01  0.63729687881E+01  0.00000000000E+00 0.  1.
         21    1    1    2  502  503  0.57563795936E+01  0.20064093499E+02  0.17261516618E+03  0.17387265267E+03  0.00000000000E+00 0. -1.
         21    1    1    2  503  501 -0.57563795936E+01 -0.20064093499E+02  0.13218459291E+02  0.24706910369E+02  0.00000000000E+00 0.  1.
</event>
<event>
 4    1  0.5568520E+002  0.2804012E+02  0.7546771E-02  0.1437431E+00
          2   -1    0    0  503    0  0.00000000000E+00  0.00000000000E+00  0.26571166247E+03  0.26571166247E+03  0.00000000000E+00 0.  1.
         -2   -1    0    0    0  501 -0.00000000000E+00 -0.00000000000E+00 -0.42040852751E+01  0.42040852751E+01  0.00000000000E+00 0. -1.
         21    1    1    2  502  501  0.27976469588E+02 -0.18882773790E+01  0.57309672577E+02  0.63801622338E+02  0.00000000000E+00 0. -1.
         21    1    1    2  503  502 -0.27976469588E+02  0.18882773790E+01  0.20419790461E+03  0.20611412540E+03  0.00000000000E+00 0.  1.
</event>
<event>
 4    1  0.5568520E+002  0.2657712E+02  0.7546771E-02  0.1451903E+00
          2   -1    0    0  502    0  0.00000000000E+00  0.00000000000E+00  0.30696521651E+03  0.30696521651E+03  0.00000000000E+00 0. -1.
         -2   -1    0    0    0  501 -0.00000000000E+00 -0.00000000000E+00 -0.32553618731E+01  0.32553618731E+01  0.00000000000E+00 0.  1.
         21    1    1    2  502  503  0.20793154775E+02 -0.16552587399E+02  0.23583675113E+03  0.23732955277E+03  0.00000000000E+00 0. -1.
         21    1    1    2  503  501 -0.20793154775E+02  0.16552587399E+02  0.67873103508E+02  0.72891025613E+02  0.00000000000E+00 0.  1.
</event>
<event>
 4    1  0.5568520E+002  0.3150940E+02  0.7546771E-02  0.1406918E+00
          2   -1    0    0  502    0  0.00000000000E+00  0.00000000000E+00  0.81408111815E+03  0.81408111815E+03  0.00000000000E+00 0.  1.
         -2   -1    0    0    0  501 -0.00000000000E+00 -0.00000000000E+00 -0.29744639663E+01  0.29744639663E+01  0.00000000000E+00 0. -1.
         21    1    1    2  502  503 -0.12829955294E+02  0.28779064303E+02  0.71934445158E+03  0.72003422302E+03  0.00000000000E+00 0.  1.
         21    1    1    2  503  501  0.12829955294E+02 -0.28779064303E+02  0.91762202603E+02  0.97021359099E+02  0.00000000000E+00 0. -1.
</event>
<event>
 4    1  0.5568520E+002  0.2183093E+02  0.7546771E-02  0.1507724E+00
          2   -1    0    0  502    0  0.00000000000E+00  0.00000000000E+00  0.12407714009E+04  0.12407714009E+04  0.00000000000E+00 0.  1.
         -2   -1    0    0    0  501 -0.00000000000E+00 -0.00000000000E+00 -0.75236945974E+00  0.75236945974E+00  0.00000000000E+00 0. -1.
         21    1    1    2  502  503  0.20921305900E+02 -0.62360660741E+01  0.10543075996E+04  0.10545335956E+04  0.00000000000E+00 0.  1.
         21    1    1    2  503  501 -0.20921305900E+02  0.62360660741E+01  0.18571143179E+03  0.18699017477E+03  0.00000000000E+00 0. -1.
</event>
<event>
 4    1  0.5568520E+002  0.2885737E+02  0.7546771E-02  0.1429793E+00
          2   -1    0    0  502    0  0.00000000000E+00  0.00000000000E+00  0.12293077042E+04  0.12293077042E+04  0.00000000000E+00 0.  1.
         -2   -1    0    0    0  501 -0.00000000000E+00 -0.00000000000E+00 -0.10254160404E+01  0.10254160404E+01  0.00000000000E+00 0. -1.
         21    1    1    2  502  503 -0.28574969236E+02  0.40272561901E+01  0.97251380878E+03  0.97294185640E+03  0.00000000000E+00 0. -1.
         21    1    1    2  503  501  0.28574969236E+02 -0.40272561901E+01  0.25576847934E+03  0.25739126380E+03  0.00000000000E+00 0.  1.
</event>
<event>
 4    1  0.5568520E+002  0.2797090E+02  0.7546771E-02  0.1438092E+00
          2   -1    0    0  503    0  0.00000000000E+00  0.00000000000E+00  0.14667435360E+02  0.14667435360E+02  0.00000000000E+00 0. -1.
         -2   -1    0    0    0  501 -0.00000000000E+00 -0.00000000000E+00 -0.15689226588E+03  0.15689226588E+03  0.00000000000E+00 0.  1.
         21    1    1    2  502  501 -0.13672574129E+01 -0.27937460697E+02 -0.14080119773E+03  0.14355259797E+03  0.00000000000E+00 0.  1.
         21    1    1    2  503  502  0.13672574129E+01  0.27937460697E+02 -0.14236327917E+01  0.28007103266E+02  0.00000000000E+00 0. -1.
</event>
<event>
 4    1  0.5568520E+002  0.3716829E+02  0.7546771E-02  0.1365929E+00
          2   -1    0    0  503    0  0.00000000000E+00  0.00000000000E+00  0.41266393937E+03  0.41266393937E+03  0.00000000000E+00 0.  1.
         -2   -1    0    0    0  501 -0.00000000000E+00 -0.00000000000E+00 -0.36498904945E+01  0.36498904945E+01  0.00000000000E+00 0. -1.
         21    1    1    2  502  501  0.29414393317E+02  0.22721685324E+02  0.14461346881E+03  0.14931355223E+03  0.00000000000E+00 0.  1.
         21    1    1    2  503  502 -0.29414393317E+02 -0.22721685324E+02  0.26440058006E+03  0.26700027763E+03  0.00000000000E+00 0. -1.
</event>
<event>
 4    1  0.5568520E+002  0.6424025E+02  0.7546771E-02  0.1246068E+00
          2   -1    0    0  502    0  0.00000000000E+00  0.00000000000E+00  0.56692430991E+02  0.56692430991E+02  0.00000000000E+00 0.  1.
         -2   -1    0    0    0  501 -0.00000000000E+00 -0.00000000000E+00 -0.12321586358E+03  0.12321586358E+03  0.00000000000E+00 0. -1.
         21    1    1    2  502  503 -0.25989594127E+02 -0.58748197304E+02  0.24282518174E+02  0.68676417920E+02  0.00000000000E+00 0.  1.
         21    1    1    2  503  501  0.25989594127E+02  0.58748197304E+02 -0.90805950764E+02  0.11123187665E+03  0.00000000000E+00 0. -1.
</event>
<event>
 4    1  0.5568520E+002  0.2460460E+02  0.7546771E-02  0.1473276E+00
          2   -1    0    0  502    0  0.00000000000E+00  0.00000000000E+00  0.22164673859E+04  0.22164673859E+04  0.00000000000E+00 0. -1.
         -2   -1    0    0    0  501 -0.00000000000E+00 -0.00000000000E+00 -0.44327518234E+00  0.44327518234E+00  0.00000000000E+00 0.  1.
         21    1    1    2  502  503  0.56070824229E+01 -0.23957192034E+02  0.42127612712E+03  0.42199403041E+03  0.00000000000E+00 0.  1.
         21    1    1    2  503  501 -0.56070824229E+01  0.23957192034E+02  0.17947479836E+04  0.17949166307E+04  0.00000000000E+00 0. -1.
</event>
<event>
 4    1  0.5568520E+002  0.2295485E+02  0.7546771E-02  0.1493066E+00
          2   -1    0    0  502    0  0.00000000000E+00  0.00000000000E+00  0.27622794978E+03  0.27622794978E+03  0.00000000000E+00 0. -1.
         -2   -1    0    0    0  501 -0.00000000000E+00 -0.00000000000E+00 -0.19075757686E+01  0.19075757686E+01  0.00000000000E+00 0.  1.
         21    1    1    2  502  503 -0.10081375538E+02  0.20622588756E+02  0.13728782462E+03  0.13919364960E+03  0.00000000000E+00 0. -1.
         21    1    1    2  503  501  0.10081375538E+02 -0.20622588756E+02  0.13703254939E+03  0.13894187595E+03  0.00000000000E+00 0.  1.
</event>
<event>
 4    1  0.5568520E+002  0.2062837E+02  0.7546771E-02  0.1524637E+00
          2   -1    0    0  502    0  0.00000000000E+00  0.00000000000E+00  0.34614322550E+03  0.34614322550E+03  0.00000000000E+00 0. -1.
         -2   -1    0    0    0  501 -0.00000000000E+00 -0.00000000000E+00 -0.15671678213E+01  0.15671678213E+01  0.00000000000E+00 0.  1.
         21    1    1    2  502  503  0.15847291191E+02  0.13205795512E+02  0.25300669739E+03  0.25384624992E+03  0.00000000000E+00 0. -1.
         21    1    1    2  503  501 -0.15847291191E+02 -0.13205795512E+02  0.91569360287E+02  0.93864143402E+02  0.00000000000E+00 0.  1.
</event>
<event>
 4    1  0.5568520E+002  0.2530717E+02  0.7546771E-02  0.1465396E+00
          2   -1    0    0  502    0  0.00000000000E+00  0.00000000000E+00  0.34394717208E+03  0.34394717208E+03  0.00000000000E+00 0.  1.
         -2   -1    0    0    0  501 -0.00000000000E+00 -0.00000000000E+00 -0.20001128528E+01  0.20001128528E+01  0.00000000000E+00 0. -1.
         21    1    1    2  502  503  0.16900036353E+02 -0.18837240611E+02  0.21641616633E+03  0.21789082109E+03  0.00000000000E+00 0. -1.
         21    1    1    2  503  501 -0.16900036353E+02  0.18837240611E+02  0.12553089290E+03  0.12805646385E+03  0.00000000000E+00 0.  1.
</event>
<event>
 4    1  0.5568520E+002  0.2813137E+02  0.7546771E-02  0.1436563E+00
          2   -1    0    0  503    0  0.00000000000E+00  0.00000000000E+00  0.31780740796E+03  0.31780740796E+03  0.00000000000E+00 0. -1.
         -2   -1    0    0    0  501 -0.00000000000E+00 -0.00000000000E+00 -0.33028635654E+02  0.33028635654E+02  0.00000000000E+00 0.  1.
         21    1    1    2  502  501 -0.41597724499E+01  0.27822115243E+02 -0.26286484678E+02  0.38501338680E+02  0.00000000000E+00 0.  1.
         21    1    1    2  503  502  0.41597724499E+01 -0.27822115243E+02  0.31106525698E+03  0.31233470493E+03  0.00000000000E+00 0. -1.
</event>
<event>
 4    1  0.5568520E+002  0.3507508E+02  0.7546771E-02  0.1380036E+00
          2   -1    0    0  503    0  0.00000000000E+00  0.00000000000E+00  0.60808843731E+03  0.60808843731E+03  0.00000000000E+00 0. -1.
         -2   -1    0    0    0  501 -0.00000000000E+00 -0.00000000000E+00 -0.28521755784E+01  0.28521755784E+01  0.00000000000E+00 0.  1.
         21    1    1    2  502  501  0.27558275251E+02 -0.21697980700E+02  0.13793014541E+03  0.14232001234E+03  0.00000000000E+00 0.  1.
         21    1    1    2  503  502 -0.27558275251E+02  0.21697980700E+02  0.46730611633E+03  0.46862060055E+03  0.00000000000E+00 0. -1.
</event>
<event>
 4    1  0.5568520E+002  0.4607879E+02  0.7546771E-02  0.1316131E+00
          2   -1    0    0  503    0  0.00000000000E+00  0.00000000000E+00  0.53294235627E+03  0.53294235627E+03  0.00000000000E+00 0.  1.
         -2   -1    0    0    0  501 -0.00000000000E+00 -0.00000000000E+00 -0.56008957030E+01  0.56008957030E+01  0.00000000000E+00 0. -1.
         21    1    1    2  502  501 -0.20064612183E+02  0.41480916254E+02  0.11899367986E+03  0.12760388287E+03  0.00000000000E+00 0. -1.
         21    1    1    2  503  502  0.20064612183E+02 -0.41480916254E+02  0.40834778070E+03  0.41093936910E+03  0.00000000000E+00 0.  1.
</event>
<event>
 4    1  0.5568520E+002  0.2544327E+02  0.7546771E-02  0.1463905E+00
          2   -1    0    0  503    0  0.00000000000E+00  0.00000000000E+00  0.11589859992E+03  0.11589859992E+03  0.00000000000E+00 0. -1.
         -2   -1    0    0    0  501 -0.00000000000E+00 -0.00000000000E+00 -0.13553949602E+02  0.13553949602E+02  0.00000000000E+00 0.  1.
         21    1    1    2  502  501  0.49616002662E+01 -0.24954813033E+02  0.15436609344E+01  0.25490058058E+02  0.00000000000E+00 0.  1.
         21    1    1    2  503  502 -0.49616002662E+01  0.24954813033E+02  0.10080098938E+03  0.10396249146E+03  0.00000000000E+00 0. -1.
</event>
<event>
 4    1  0.5568520E+002  0.2085718E+02  0.7546771E-02  0.1521314E+00
          2   -1    0    0  503    0  0.00000000000E+00  0.00000000000E+00  0.16216523428E+04  0.16216523428E+04  0.00000000000E+00 0.  1.
         -2   -1    0    0    0  501 -0.00000000000E+00 -0.00000000000E+00 -0.44443239399E+00  0.44443239399E+00  0.00000000000E+00 0. -1.
         21    1    1    2  502  501  0.17664075510E+02  0.11090653369E+02  0.29996423973E+03  0.30068848876E+03  0.00000000000E+00 0. -1.
         21    1    1    2  503  502 -0.17664075510E+02 -0.11090653369E+02  0.13212436707E+04  0.13214082864E+04  0.00000000000E+00 0.  1.
</event>
<event>
 4    1  0.5568520E+002  0.2283646E+02  0.7546771E-02  0.1494562E+00
          2   -1    0    0  502    0  0.00000000000E+00  0.00000000000E+00  0.33908717715E+03  0.33908717715E+03  0.00000000000E+00 0.  1.
         -2   -1    0    0    0  501 -0.00000000000E+00 -0.00000000000E+00 -0.24909487011E+01  0.24909487011E+01  0.00000000000E+00 0. -1.
         21    1    1    2  502  503 -0.13577616274E+02  0.18361710861E+02  0.27393618995E+03  0.27488641336E+03  0.00000000000E+00 0.  1.
         21    1    1    2  503  501  0.13577616274E+02 -0.18361710861E+02  0.62660038507E+02  0.66691712492E+02  0.00000000000E+00 0. -1.
</event>
<event>
 4    1  0.5568520E+002  0.4959132E+02  0.7546771E-02  0.1299954E+00
          2   -1    0    0  503    0  0.00000000000E+00  0.00000000000E+00  0.44878560123E+03  0.44878560123E+03  0.00000000000E+00 0.  1.
         -2   -1    0    0    0  501 -0.00000000000E+00 -0.00000000000E+00 -0.15268927142E+02  0.15268927142E+02  0.00000000000E+00 0. -1.
         21    1    1    2  502  501 -0.43933609727E+02  0.23002981582E+02  0.30975935204E+02  0.58470571974E+02  0.00000000000E+00 0. -1.
         21    1    1    2  503  502  0.43933609727E+02 -0.23002981582E+02  0.40254073888E+03  0.40558395640E+03  0.00000000000E+00 0.  1.
</event>
<event>
 4    1  0.5568520E+002  0.3191095E+02  0.7546771E-02  0.1403686E+00
          2   -1    0    0  502    0  0.00000000000E+00  0.00000000000E+00  0.92513164698E+03  0.92513164698E+03  0.00000000000E+00 0. -1.
         -2   -1    0    0    0  501 -0.00000000000E+00 -0.00000000000E+00 -0.29496477953E+01  0.29496477953E+01  0.00000000000E+00 0.  1.
         21    1    1    2  502  503 -0.29812325849E+02 -0.11381286153E+02  0.82848429873E+03  0.82909863206E+03  0.00000000000E+00 0. -1.
         21    1    1    2  503  501  0.29812325849E+02  0.11381286153E+02  0.93697700453E+02  0.98982662711E+02  0.00000000000E+00 0.  1.
</event>
<event>
 4    1  0.5568520E+002  0.2032087E+02  0.7546771E-02  0.1529186E+00
          2   -1    0    0  503    0  0.00000000000E+00  0.00000000000E+00  0.39449886299E+03  0.39449886299E+03  0.00000000000E+00 0. -1.
         -2   -1    0    0    0  501 -0.00000000000E+00 -0.00000000000E+00 -0.63766625434E+01  0.63766625434E+01  0.00000000000E+00 0.  1.
         21    1    1    2  502  501 -0.16867924047E+02  0.11331848868E+02  0.10811394268E+02  0.23017904041E+02  0.00000000000E+00 0.  1.
         21    1    1    2  503  502  0.16867924047E+02 -0.11331848868E+02  0.37731080618E+03  0.37785762149E+03  0.00000000000E+00 0. -1.
</event>
<event>
 4    1  0.5568520E+002  0.3592145E+02  0.7546771E-02  0.1374198E+00
          2   -1    0    0  503    0  0.00000000000E+00  0.00000000000E+00  0.61426287550E+02  0.61426287550E+02  0.00000000000E+00 0.  1.
         -2   -1    0    0    0  501 -0.00000000000E+00 -0.00000000000E+00 -0.79904497400E+02  0.79904497400E+02  0.00000000000E+00 0. -1.
         21    1    1    2  502  501 -0.10999416538E+01  0.35904605966E+02 -0.69908752206E+02  0.78597609609E+02  0.00000000000E+00 0. -1.
         21    1    1    2  503  502  0.10999416538E+01 -0.35904605966E+02  0.51430542357E+02  0.62733175341E+02  0.00000000000E+00 0.  1.
</event>
<event>
 4    1  0.5568520E+002  0.4037316E+02  0.7546771E-02  0.1346313E+00
          2   -1    0    0  502    0  0.00000000000E+00  0.00000000000E+00  0.15548989500E+04  0.15548989500E+04  0.00000000000E+00 0. -1.
         -2   -1    0    0    0  501 -0.00000000000E+00 -0.00000000000E+00 -0.12764578649E+01  0.12764578649E+01  0.00000000000E+00 0.  1.
         21    1    1    2  502  503  0.40372989936E+02 -0.11857523914E+00  0.11057749987E+04  0.11065117895E+04  0.00000000000E+00 0. -1.
         21    1    1    2  503  501 -0.40372989936E+02  0.11857523914E+00  0.44784749340E+03  0.44966361841E+03  0.00000000000E+00 0.  1.
</event>
<event>
 4    1  0.5568520E+002  0.2216093E+02  0.7546771E-02  0.1503312E+00
          2   -1    0    0  503    0  0.00000000000E+00  0.00000000000E+00  0.14177587302E+04  0.14177587302E+04  0.00000000000E+00 0. -1.
         -2   -1    0    0    0  501 -0.00000000000E+00 -0.00000000000E+00 -0.19991489505E+01  0.19991489505E+01  0.00000000000E+00 0.  1.
         21    1    1    2  502  501 -0.17886680365E+02  0.13083329678E+02  0.62425335632E+02  0.66242202400E+02  0.00000000000E+00 0.  1.
         21    1    1    2  503  502  0.17886680365E+02 -0.13083329678E+02  0.13533342456E+04  0.13535156767E+04  0.00000000000E+00 0. -1.
</event>
<event>
 4    1  0.5568520E+002  0.2171027E+02  0.7546771E-02  0.1509361E+00
          2   -1    0    0  502    0  0.00000000000E+00  0.00000000000E+00  0.35615829656E+03  0.35615829656E+03  0.00000000000E+00 0. -1.
         -2   -1    0    0    0  501 -0.00000000000E+00 -0.00000000000E+00 -0.28128057174E+01  0.28128057174E+01  0.00000000000E+00 0.  1.
         21    1    1    2  502  503  0.21091833084E+02  0.51449567809E+01  0.30728012741E+03  0.30804612107E+03  0.00000000000E+00 0. -1.
         21    1    1    2  503  501 -0.21091833084E+02 -0.51449567809E+01  0.46065363433E+02  0.50924981211E+02  0.00000000000E+00 0.  1.
</event>
<event>
 4    1  0.5568520E+002  0.6395974E+02  0.7546771E-02  0.1246941E+00
          2   -1    0    0  503    0  0.00000000000E+00  0.00000000000E+00  0.46004197607E+02  0.46004197607E+02  0.00000000000E+00 0.  1.
         -2   -1    0    0    0  501 -0.00000000000E+00 -0.00000000000E+00 -0.18676960828E+03  0.18676960828E+03  0.00000000000E+00 0. -1.
         21    1    1    2  502  501  0.61613355800E+02  0.17165154270E+02  0.13858210946E+02  0.65443854903E+02  0.00000000000E+00 0.  1.
         21    1    1    2  503  502 -0.61613355800E+02 -0.17165154270E+02 -0.15462362162E+03  0.16732995098E+03  0.00000000000E+00 0. -1.
</event>
<event>
 4    1  0.5568520E+002  0.4012239E+02  0.7546771E-02  0.1347770E+00
          2   -1    0    0  503    0  0.00000000000E+00  0.00000000000E+00  0.31238119159E+02  0.31238119159E+02  0.00000000000E+00 0.  1.
         -2   -1    0    0    0  501 -0.00000000000E+00 -0.00000000000E+00 -0.80648507694E+02  0.80648507694E+02  0.00000000000E+00 0. -1.
         21    1    1    2  502  501 -0.39893123916E+02  0.42830471399E+01 -0.58318356824E+02  0.70787262775E+02  0.00000000000E+00 0. -1.
         21    1    1    2  503  502  0.39893123916E+02 -0.42830471399E+01  0.89079682888E+01  0.41099364078E+02  0.00000000000E+00 0.  1.
</event>
<event>
 4    1  0.5568520E+002  0.2573578E+02  0.7546771E-02  0.1460738E+00
          2   -1    0    0  503    0  0.00000000000E+00  0.00000000000E+00  0.78046308215E+01  0.78046308215E+01  0.00000000000E+00 0.  1.
         -2   -1    0    0    0  501 -0.00000000000E+00 -0.00000000000E+00 -0.98984250547E+02  0.98984250547E+02  0.00000000000E+00 0. -1.
         21    1    1    2  502  501 -0.93441412048E+01 -0.23979519133E+02 -0.65756651710E+02  0.70613508317E+02  0.00000000000E+00 0.  1.
         21    1    1    2  503  502  0.93441412048E+01  0.23979519133E+02 -0.25422968016E+02  0.36175373052E+02  0.00000000000E+00 0. -1.
</event>
<event>
 4    1  0.5568520E+002  0.2168859E+02  0.7546771E-02  0.1509657E+00
          2   -1    0    0  502    0  0.00000000000E+00  0.00000000000E+00  0.19629932697E+03  0.19629932697E+03  0.00000000000E+00 0.  1.
         -2   -1    0    0    0  501 -0.00000000000E+00 -0.00000000000E+00 -0.60981370951E+01  0.60981370951E+01  0.00000000000E+00 0. -1.
         21    1    1    2  502  503  0.18832491389E+02  0.10757881198E+02  0.17394744267E+03  0.17529434546E+03  0.00000000000E+00 0.  1.
         21    1    1    2  503  501 -0.18832491389E+02 -0.10757881198E+02  0.16253747207E+02  0.27103118604E+02  0.00000000000E+00 0. -1.
</event>
<event>
 4    1  0.5568520E+002  0.2862697E+02  0.7546771E-02  0.1431916E+00
          2   -1    0    0  503    0  0.00000000000E+00  0.00000000000E+00  0.44632748454E+02  0.44632748454E+02  0.00000000000E+00 0.  1.
         -2   -1    0    0    0  501 -0.00000000000E+00 -0.00000000000E+00 -0.19941409294E+02  0.19941409294E+02  0.00000000000E+00 0. -1.
         21    1    1    2  502  501  0.16665733700E+02 -0.23275666693E+02  0.32563542840E+01  0.28811580709E+02  0.00000000000E+00 0. -1.
         21    1    1    2  503  502 -0.16665733700E+02  0.23275666693E+02  0.21434984876E+02  0.35762577038E+02  0.00000000000E+00 0.  1.
</event>
<event>
 4    1  0.5568520E+002  0.3120894E+02  0.7546771E-02  0.1409374E+00
          2   -1    0    0  502    0  0.00000000000E+00  0.00000000000E+00  0.30960896096E+02  0.30960896096E+02  0.00000000000E+00 0.  1.
         -2   -1    0    0    0  501 -0.00000000000E+00 -0.00000000000E+00 -0.31690162126E+02  0.31690162126E+02  0.00000000000E+00 0. -1.
         21    1    1    2  502  503  0.26209556665E+01  0.31098686159E+02 -0.30402819853E+01  0.31356673994E+02  0.00000000000E+00 0. -1.
         21    1    1    2  503  501 -0.26209556665E+01 -0.31098686159E+02  0.23110159544E+01  0.31294384228E+02  0.00000000000E+00 0.  1.
</event>
<event>
 4    1  0.5568520E+002  0.3308828E+02  0.7546771E-02  0.1394525E+00
          2   -1    0    0  502    0  0.00000000000E+00  0.00000000000E+00  0.22560868268E+03  0.22560868268E+03  0.00000000000E+00 0. -1.
         -2   -1    0    0    0  501 -0.00000000000E+00 -0.00000000000E+00 -0.31051504711E+02  0.31051504711E+02  0.00000000000E+00 0.  1.
         21    1    1    2  502  503 -0.11951816903E+02  0.30854307577E+02  0.21515504797E+03  0.21768447094E+03  0.00000000000E+00 0. -1.
         21    1    1    2  503  501  0.11951816903E+02 -0.30854307577E+02 -0.20597870006E+02  0.38975716442E+02  0.00000000000E+00 0.  1.
</event>
<event>
 4    1  0.5568520E+002  0.2250143E+02  0.7546771E-02  0.1498855E+00
          2   -1    0    0  502    0  0.00000000000E+00  0.00000000000E+00  0.16270161688E+03  0.16270161688E+03  0.00000000000E+00 0. -1.
         -2   -1    0    0    0  501 -0.00000000000E+00 -0.00000000000E+00 -0.61275392321E+01  0.61275392321E+01  0.00000000000E+00 0.  1.
         21    1    1    2  502  503  0.20130479608E+02  0.10053764277E+02  0.13750625698E+03  0.13933515383E+03  0.00000000000E+00 0. -1.
         21    1    1    2  503  501 -0.20130479608E+02 -0.10053764277E+02  0.19067820671E+02  0.29494002280E+02  0.00000000000E+00 0.  1.
</event>
<event>
 4    1  0.5568520E+002  0.2019439E+02  0.7546771E-02  0.1531085E+00
          2   -1    0    0  503    0  0.00000000000E+00  0.00000000000E+00  0.11884270843E+04  0.11884270843E+04  0.00000000000E+00 0.  1.
         -2   -1    0    0    0  501 -0.00000000000E+00 -0.00000000000E+00 -0.89361970688E+00  0.89361970688E+00  0.00000000000E+00 0. -1.
         21    1    1    2  502  501 -0.20011418844E+01 -0.20094997455E+02  0.12704528956E+03  0.12864027010E+03  0.00000000000E+00 0. -1.
         21    1    1    2  503  502  0.20011418844E+01  0.20094997455E+02  0.10604881751E+04  0.10606804339E+04  0.00000000000E+00 0.  1.
</event>
<event>
 4    1  0.5568520E+002  0.2043403E+02  0.7546771E-02  0.1527501E+00
          2   -1    0    0  503    0  0.00000000000E+00  0.00000000000E+00  0.15082483803E+03  0.15082483803E+03  0.00000000000E+00 0.  1.
         -2   -1    0    0    0  501 -0.00000000000E+00 -0.00000000000E+00 -0.33508675242E+01  0.33508675242E+01  0.00000000000E+00 0. -1.
         21    1    1    2  502  501 -0.15650883045E+02  0.13137706576E+02  0.10587568964E+03  0.10782954665E+03  0.00000000000E+00 0.  1.
         21    1    1    2  503  502  0.15650883045E+02 -0.13137706576E+02  0.41598280872E+02  0.46346158909E+02  0.00000000000E+00 0. -1.
</event>
<event>
 4    1  0.5568520E+002  0.2743698E+02  0.7546771E-02  0.1443267E+00
          2   -1    0    0  502    0  0.00000000000E+00  0.00000000000E+00  0.10341415819E+02  0.10341415819E+02  0.00000000000E+00 0.  1.
         -2   -1    0    0    0  501 -0.00000000000E+00 -0.00000000000E+00 -0.35831455092E+03  0.35831455092E+03  0.00000000000E+00 0. -1.
         21    1    1    2  502  503  0.24042678587E+02 -0.13218825288E+02 -0.94440550267E+01  0.29016855635E+02  0.00000000000E+00 0.  1.
         21    1    1    2  503  501 -0.24042678587E+02  0.13218825288E+02 -0.33852908008E+03  0.33963911111E+03  0.00000000000E+00 0. -1.
</event>
<event>
 4    1  0.5568520E+002  0.2028042E+02  0.7546771E-02  0.1529791E+00
          2   -1    0    0  503    0  0.00000000000E+00  0.00000000000E+00  0.14000972131E+03  0.14000972131E+03  0.00000000000E+00 0. -1.
         -2   -1    0    0    0  501 -0.00000000000E+00 -0.00000000000E+00 -0.32464526760E+01  0.32464526760E+01  0.00000000000E+00 0.  1.
         21    1    1    2  502  501 -0.10458526357E+02 -0.17375691978E+02  0.46289381949E+02  0.50537138092E+02  0.00000000000E+00 0. -1.
         21    1    1    2  503  502  0.10458526357E+02  0.17375691978E+02  0.90473886680E+02  0.92719035890E+02  0.00000000000E+00 0.  1.
</event>
<event>
 4    1  0.5568520E+002  0.3295188E+02  0.7546771E-02  0.1395564E+00
          2   -1    0    0  502    0  0.00000000000E+00  0.00000000000E+00  0.28736858632E+02  0.28736858632E+02  0.00000000000E+00 0. -1.
         -2   -1    0    0    0  501 -0.00000000000E+00 -0.00000000000E+00 -0.20945454590E+03  0.20945454590E+03  0.00000000000E+00 0.  1.
         21    1    1    2  502  503  0.13670524320E+02  0.29982378940E+02  0.17460738422E+02  0.37292139498E+02  0.00000000000E+00 0. -1.
         21    1    1    2  503  501 -0.13670524320E+02 -0.29982378940E+02 -0.19817842569E+03  0.20089926503E+03  0.00000000000E+00 0.  1.
</event>
<event>
 4    1  0.5568520E+002  0.2063680E+02  0.7546771E-02  0.1524514E+00
          2   -1    0    0  503    0  0.00000000000E+00  0.00000000000E+00  0.15505995972E+01  0.15505995972E+01  0.00000000000E+00 0. -1.
         -2   -1    0    0    0  501 -0.00000000000E+00 -0.00000000000E+00 -0.38457241938E+03  0.38457241938E+03  0.00000000000E+00 0.  1.
         21    1    1    2  502  501  0.19644106730E+02  0.63234828985E+01 -0.29472599209E+03  0.29544760581E+03  0.00000000000E+00 0.  1.
         21    1    1    2  503  502 -0.19644106730E+02 -0.63234828985E+01 -0.88295827700E+02  0.90675413175E+02  0.00000000000E+00 0. -1.
</event>
<event>
 4    1  0.5568520E+002  0.4909896E+02  0.7546771E-02  0.1302127E+00
          2   -1    0    0  502    0  0.00000000000E+00  0.00000000000E+00  0.89078655352E+02  0.89078655352E+02  0.00000000000E+00 0.  1.
         -2   -1    0    0    0  501 -0.00000000000E+00 -0.00000000000E+00 -0.27666271916E+02  0.27666271916E+02  0.00000000000E+00 0. -1.
         21    1    1    2  502  503  0.46892366233E+02 -0.14553833148E+02  0.39328045864E+02  0.62907895066E+02  0.00000000000E+00 0.  1.
         21    1    1    2  503  501 -0.46892366233E+02  0.14553833148E+02  0.22084337572E+02  0.53837032201E+02  0.00000000000E+00 0. -1.
</event>
<event>
 4    1  0.5568520E+002  0.2261188E+02  0.7546771E-02  0.1497430E+00
          2   -1    0    0  503    0  0.00000000000E+00  0.00000000000E+00  0.21695821945E+04  0.21695821945E+04  0.00000000000E+00 0.  1.
         -2   -1    0    0    0  501 -0.00000000000E+00 -0.00000000000E+00 -0.32554511475E+00  0.32554511475E+00  0.00000000000E+00 0. -1.
         21    1    1    2  502  501 -0.22259639641E+02  0.39756333992E+01  0.51454995592E+03  0.51504655553E+03  0.00000000000E+00 0. -1.
         21    1    1    2  503  502  0.22259639641E+02 -0.39756333992E+01  0.16547066935E+04  0.16548611841E+04  0.00000000000E+00 0.  1.
</event>
<event>
 4    1  0.5568520E+002  0.2051142E+02  0.7546771E-02  0.1526356E+00
          2   -1    0    0  503    0  0.00000000000E+00  0.00000000000E+00  0.47389282098E+03  0.47389282098E+03  0.00000000000E+00 0.  1.
         -2   -1    0    0    0  501 -0.00000000000E+00 -0.00000000000E+00 -0.91833306669E+00  0.91833306669E+00  0.00000000000E+00 0. -1.
         21    1    1    2  502  501  0.94207905580E+01 -0.18219968329E+02  0.19319315295E+03  0.19427895636E+03  0.00000000000E+00 0. -1.
         21    1    1    2  503  502 -0.94207905580E+01  0.18219968329E+02  0.27978133496E+03  0.28053219768E+03  0.00000000000E+00 0.  1.
</event>
<event>
 4    1  0.5568520E+002  0.6029652E+02  0.7546771E-02  0.1258828E+00
          2   -1    0    0  503    0  0.00000000000E+00  0.00000000000E+00  0.49146358147E+03  0.49146358147E+03  0.00000000000E+00 0. -1.
         -2   -1    0    0    0  501 -0.00000000000E+00 -0.00000000000E+00 -0.16215866003E+02  0.16215866003E+02  0.00000000000E+00 0.  1.
         21    1    1    2  502  501  0.51121963460E+02  0.31972103361E+02  0.50434941040E+02  0.78608866033E+02  0.00000000000E+00 0.  1.
         21    1    1    2  503  502 -0.51121963460E+02 -0.31972103361E+02  0.42481277443E+03  0.42907058144E+03  0.00000000000E+00 0. -1.
</event>
<event>
 4    1  0.5568520E+002  0.2537763E+02  0.7546771E-02  0.1464623E+00
          2   -1    0    0  502    0  0.00000000000E+00  0.00000000000E+00  0.63576847228E+03  0.63576847228E+03  0.00000000000E+00 0.  1.
         -2   -1    0    0    0  501 -0.00000000000E+00 -0.00000000000E+00 -0.14086984203E+01  0.14086984203E+01  0.00000000000E+00 0. -1.
         21    1    1    2  502  503 -0.11213845964E+02  0.22765625198E+02  0.48603394239E+03  0.48669602134E+03  0.00000000000E+00 0.  1.
         21    1    1    2  503  501  0.11213845964E+02 -0.22765625198E+02  0.14832583147E+03  0.15048114936E+03  0.00000000000E+00 0. -1.
</event>
<event>
 4    1  0.5568520E+002  0.2018229E+02  0.7546771E-02  0.1531267E+00
          2   -1    0    0  503    0  0.00000000000E+00  0.00000000000E+00  0.17487280367E+01  0.17487280367E+01  0.00000000000E+00 0.  1.
         -2   -1    0    0    0  501 -0.00000000000E+00 -0.00000000000E+00 -0.23585376182E+03  0.23585376182E+03  0.00000000000E+00 0. -1.
         21    1    1    2  502  501 -0.10523344778E+02 -0.17221617904E+02 -0.10381707221E+03  0.10576062306E+03  0.00000000000E+00 0. -1.
         21    1    1    2  503  502  0.10523344778E+02  0.17221617904E+02 -0.13028796158E+03  0.13184186680E+03  0.00000000000E+00 0.  1.
</event>
<event>
 4    1  0.5568520E+002  0.2121280E+02  0.7546771E-02  0.1516248E+00
          2   -1    0    0  503    0  0.00000000000E+00  0.00000000000E+00  0.18182448646E+04  0.18182448646E+04  0.00000000000E+00 0.  1.
         -2   -1    0    0    0  501 -0.00000000000E+00 -0.00000000000E+00 -0.25964214325E+00  0.25964214325E+00  0.00000000000E+00 0. -1.
         21    1    1    2  502  501 -0.14753762375E+02 -0.15241698970E+02  0.11057658258E+04  0.11059692782E+04  0.00000000000E+00 0.  1.
         21    1    1    2  503  502  0.14753762375E+02  0.15241698970E+02  0.71221939669E+03  0.71253522854E+03  0.00000000000E+00 0. -1.
</event>
<event>
 4    1  0.5568520E+002  0.6447404E+02  0.7546771E-02  0.1245345E+00
          2   -1    0    0  503    0  0.00000000000E+00  0.00000000000E+00  0.18974395585E+03  0.18974395585E+03  0.00000000000E+00 0.  1.
         -2   -1    0    0    0  501 -0.00000000000E+00 -0.00000000000E+00 -0.65783561683E+02  0.65783561683E+02  0.00000000000E+00 0. -1.
         21    1    1    2  502  501 -0.63819336763E+02  0.91648195689E+01 -0.42362141383E+02  0.77145658887E+02  0.00000000000E+00 0. -1.
         21    1    1    2  503  502  0.63819336763E+02 -0.91648195689E+01  0.16632253555E+03  0.17838185865E+03  0.00000000000E+00 0.  1.
</event>
<event>
 4    1  0.5568520E+002  0.2491817E+02  0.7546771E-02  0.1469721E+00
          2   -1    0    0  502    0  0.00000000000E+00  0.00000000000E+00  0.28748588136E+03  0.28748588136E+03  0.00000000000E+00 0. -1.
         -2   -1    0    0    0  501 -0.00000000000E+00 -0.00000000000E+00 -0.44946412423E+01  0.44946412423E+01  0.00000000000E+00 0.  1.
         21    1    1    2  502  503 -0.14600118133E+02  0.20192868282E+02  0.36274248952E+02  0.44008368704E+02  0.00000000000E+00 0.  1.
         21    1    1    2  503  501  0.14600118133E+02 -0.20192868282E+02  0.24671699116E+03  0.24797215389E+03  0.00000000000E+00 0. -1.
</event>
<event>
 4    1  0.5568520E+002  0.2620084E+02  0.7546771E-02  0.1455805E+00
          2   -1    0    0  503    0  0.00000000000E+00  0.00000000000E+00  0.32444309037E+03  0.32444309037E+03  0.00000000000E+00 0.  1.
         -2   -1    0    0    0  501 -0.00000000000E+00 -0.00000000000E+00 -0.60133711837E+01  0.60133711837E+01  0.00000000000E+00 0. -1.
         21    1    1    2  502  501  0.10057512530E+02  0.24193604909E+02  0.26194667226E+02  0.37049219532E+02  0.00000000000E+00 0. -1.
         21    1    1    2  503  502 -0.10057512530E+02 -0.24193604909E+02  0.29223505196E+03  0.29340724202E+03  0.00000000000E+00 0.  1.
</event>
<event>
 4    1  0.5568520E+002  0.2348491E+02  0.7546771E-02  0.1486497E+00
          2   -1    0    0  502    0  0.00000000000E+00  0.00000000000E+00  0.46840332819E+01  0.46840332819E+01  0.00000000000E+00 0.  1.
         -2   -1    0    0    0  501 -0.00000000000E+00 -0.00000000000E+00 -0.14062789177E+03  0.14062789177E+03  0.00000000000E+00 0. -1.
         21    1    1    2  502  503  0.14840287152E+02  0.18201841949E+02 -0.38666295439E+02  0.45239623960E+02  0.00000000000E+00 0.  1.
         21    1    1    2  503  501 -0.14840287152E+02 -0.18201841949E+02 -0.97277563048E+02  0.10007230109E+03  0.00000000000E+00 0. -1.
</event>
<event>
 4    1  0.5568520E+002  0.2698670E+02  0.7546771E-02  0.1447742E+00
          2   -1    0    0  503    0  0.00000000000E+00  0.00000000000E+00  0.30569972643E+01  0.30569972643E+01  0.00000000000E+00 0.  1.
         -2   -1    0    0    0  501 -0.00000000000E+00 -0.00000000000E+00 -0.52727069906E+03  0.52727069906E+03  0.00000000000E+00 0. -1.
         21    1    1    2  502  501 -0.10967623885E+01 -0.26964400680E+02 -0.45843099682E+03  0.45922462982E+03  0.00000000000E+00 0. -1.
         21    1    1    2  503  502  0.10967623885E+01  0.26964400680E+02 -0.65782704973E+02  0.71103066498E+02  0.00000000000E+00 0.  1.
</event>
