<event>
 4    1  0.5740469E+002  0.2225633E+02  0.7546771E-02  0.1502054E+00
          2   -1    0    0  503    0  0.00000000000E+00  0.00000000000E+00  0.24899301894E+02  0.24899301894E+02  0.00000000000E+00 0. -1.
         -2   -1    0    0    0  501 -0.00000000000E+00 -0.00000000000E+00 -0.51920924045E+02  0.51920924045E+02  0.00000000000E+00 0.  1.
         21    1    1    2  502  501  0.50080828018E+00 -0.22250695638E+02 -0.43677848292E+02  0.49021410595E+02  0.00000000000E+00 0.  1.
         21    1    1    2  503  502 -0.50080828018E+00  0.22250695638E+02  0.16656226141E+02  0.27798815345E+02  0.00000000000E+00 0. -1.
</event>
<event>
 4    1  0.5740469E+002  0.3069622E+02  0.7546771E-02  0.1413641E+00
          2   -1    0    0  503    0  0.00000000000E+00  0.00000000000E+00  0.80159733079E+02  0.80159733079E+02  0.00000000000E+00 0.  1.
         -2   -1    0    0    0  501 -0.00000000000E+00 -0.00000000000E+00 -0.28388853697E+02  0.28388853697E+02  0.00000000000E+00 0. -1.
         21    1    1    2  502  501 -0.12269373396E+02 -0.28137530325E+02 -0.15659666005E+02  0.34459879218E+02  0.00000000000E+00 0. -1.
         21    1    1    2  503  502  0.12269373396E+02  0.28137530325E+02  0.67430545387E+02  0.74088707558E+02  0.00000000000E+00 0.  1.
</event>
<event>
 4    1  0.5740469E+002  0.3922730E+02  0.7546771E-02  0.1353074E+00
          2   -1    0    0  503    0  0.00000000000E+00  0.00000000000E+00  0.38218315825E+03  0.38218315825E+03  0.00000000000E+00 0.  1.
         -2   -1    0    0    0  501 -0.00000000000E+00 -0.00000000000E+00 -0.42036864551E+01  0.42036864551E+01  0.00000000000E+00 0. -1.
         21    1    1    2  502  501  0.18401553693E+02  0.34643387187E+02  0.22867650280E+03  0.23201664679E+03  0.00000000000E+00 0.  1.
         21    1    1    2  503  502 -0.18401553693E+02 -0.34643387187E+02  0.14930296899E+03  0.15437019791E+03  0.00000000000E+00 0. -1.
</event>
<event>
 4    1  0.5740469E+002  0.2354815E+02  0.7546771E-02  0.1485727E+00
          2   -1    0    0  503    0  0.00000000000E+00  0.00000000000E+00  0.39913792344E+03  0.39913792344E+03  0.00000000000E+00 0. -1.
         -2   -1    0    0    0  501 -0.00000000000E+00 -0.00000000000E+00 -0.16072089773E+01  0.16072089773E+01  0.00000000000E+00 0.  1.
         21    1    1    2  502  501 -0.22278802477E+02  0.76269499372E+01  0.12498225648E+03  0.12718128730E+03  0.00000000000E+00 0.  1.
         21    1    1    2  503  502  0.22278802477E+02 -0.76269499372E+01  0.27254845799E+03  0.27356384512E+03  0.00000000000E+00 0. -1.
</event>
<event>
 4    1  0.5740469E+002  0.2674011E+02  0.7546771E-02  0.1450236E+00
          2   -1    0    0  503    0  0.00000000000E+00  0.00000000000E+00  0.16730604218E+02  0.16730604218E+02  0.00000000000E+00 0. -1.
         -2   -1    0    0    0  501 -0.00000000000E+00 -0.00000000000E+00 -0.43895487771E+02  0.43895487771E+02  0.00000000000E+00 0.  1.
         21    1    1    2  502  501  0.18614098150E+02  0.19197625688E+02 -0.18504735667E+02  0.32518590438E+02  0.00000000000E+00 0.  1.
         21    1    1    2  503  502 -0.18614098150E+02 -0.19197625688E+02 -0.86601478868E+01  0.28107501551E+02  0.00000000000E+00 0. -1.
</event>
<event>
 4    1  0.5740469E+002  0.2123024E+02  0.7546771E-02  0.1516003E+00
          2   -1    0    0  502    0  0.00000000000E+00  0.00000000000E+00  0.39241480614E+03  0.39241480614E+03  0.00000000000E+00 0. -1.
         -2   -1    0    0    0  501 -0.00000000000E+00 -0.00000000000E+00 -0.28219176097E+01  0.28219176097E+01  0.00000000000E+00 0.  1.
         21    1    1    2  502  503 -0.88052747491E+01  0.19318136970E+02  0.34697230434E+03  0.34762120658E+03  0.00000000000E+00 0. -1.
         21    1    1    2  503  501  0.88052747491E+01 -0.19318136970E+02  0.42620584190E+02  0.47615517178E+02  0.00000000000E+00 0.  1.
</event>
<event>
 4    1  0.5740469E+002  0.2485877E+02  0.7546771E-02  0.1470390E+00
          2   -1    0    0  503    0  0.00000000000E+00  0.00000000000E+00  0.42107004418E+01  0.42107004418E+01  0.00000000000E+00 0.  1.
         -2   -1    0    0    0  501 -0.00000000000E+00 -0.00000000000E+00 -0.14876794525E+03  0.14876794525E+03  0.00000000000E+00 0. -1.
         21    1    1    2  502  501  0.52846019917E+01 -0.24290557422E+02 -0.63390093718E+02  0.68090103390E+02  0.00000000000E+00 0. -1.
         21    1    1    2  503  502 -0.52846019917E+01  0.24290557422E+02 -0.81167151092E+02  0.84888542303E+02  0.00000000000E+00 0.  1.
</event>
<event>
 4    1  0.5740469E+002  0.5328680E+02  0.7546771E-02  0.1284518E+00
          2   -1    0    0  502    0  0.00000000000E+00  0.00000000000E+00  0.26955824760E+03  0.26955824760E+03  0.00000000000E+00 0.  1.
         -2   -1    0    0    0  501 -0.00000000000E+00 -0.00000000000E+00 -0.13914391673E+02  0.13914391673E+02  0.00000000000E+00 0. -1.
         21    1    1    2  502  503  0.30603447666E+02  0.43622385792E+02  0.19768421599E+03  0.20474015924E+03  0.00000000000E+00 0.  1.
         21    1    1    2  503  501 -0.30603447666E+02 -0.43622385792E+02  0.57959639928E+02  0.78732480031E+02  0.00000000000E+00 0. -1.
</event>
<event>
 4    1  0.5740469E+002  0.2006962E+02  0.7546771E-02  0.1532974E+00
          2   -1    0    0  502    0  0.00000000000E+00  0.00000000000E+00  0.66692047487E+00  0.66692047487E+00  0.00000000000E+00 0. -1.
         -2   -1    0    0    0  501 -0.00000000000E+00 -0.00000000000E+00 -0.92217290606E+03  0.92217290606E+03  0.00000000000E+00 0.  1.
         21    1    1    2  502  503  0.23508554334E+01 -0.19931461843E+02 -0.18970092176E+03  0.19075961157E+03  0.00000000000E+00 0. -1.
         21    1    1    2  503  501 -0.23508554334E+01  0.19931461843E+02 -0.73180506383E+03  0.73208021496E+03  0.00000000000E+00 0.  1.
</event>
<event>
 4    1  0.5740469E+002  0.1117341E+03  0.7546771E-02  0.1144894E+00
          2   -1    0    0  502    0  0.00000000000E+00  0.00000000000E+00  0.14424946116E+03  0.14424946116E+03  0.00000000000E+00 0.  1.
         -2   -1    0    0    0  501 -0.00000000000E+00 -0.00000000000E+00 -0.15377744078E+03  0.15377744078E+03  0.00000000000E+00 0. -1.
         21    1    1    2  502  503  0.19226768920E+02  0.11006741200E+03  0.93763830395E+02  0.14586349687E+03  0.00000000000E+00 0.  1.
         21    1    1    2  503  501 -0.19226768920E+02 -0.11006741200E+03 -0.10329181001E+03  0.15216340507E+03  0.00000000000E+00 0. -1.
</event>
<event>
 4    1  0.5740469E+002  0.3244983E+02  0.7546771E-02  0.1399436E+00
          2   -1    0    0  502    0  0.00000000000E+00  0.00000000000E+00  0.52994675177E+01  0.52994675177E+01  0.00000000000E+00 0.  1.
         -2   -1    0    0    0  501 -0.00000000000E+00 -0.00000000000E+00 -0.24626361002E+03  0.24626361002E+03  0.00000000000E+00 0. -1.
         21    1    1    2  502  503 -0.30847856167E+02  0.10069829734E+02 -0.65202463690E+02  0.72830989093E+02  0.00000000000E+00 0.  1.
         21    1    1    2  503  501  0.30847856167E+02 -0.10069829734E+02 -0.17576167881E+03  0.17873208844E+03  0.00000000000E+00 0. -1.
</event>
<event>
 4    1  0.5740469E+002  0.3246429E+02  0.7546771E-02  0.1399324E+00
          2   -1    0    0  502    0  0.00000000000E+00  0.00000000000E+00  0.28332964261E+04  0.28332964261E+04  0.00000000000E+00 0.  1.
         -2   -1    0    0    0  501 -0.00000000000E+00 -0.00000000000E+00 -0.37266095510E+00  0.37266095510E+00  0.00000000000E+00 0. -1.
         21    1    1    2  502  503 -0.19962749836E+02 -0.25601145041E+02  0.14770205024E+04  0.14773772350E+04  0.00000000000E+00 0.  1.
         21    1    1    2  503  501  0.19962749836E+02  0.25601145041E+02  0.13559032627E+04  0.13562918520E+04  0.00000000000E+00 0. -1.
</event>
<event>
 4    1  0.5740469E+002  0.2584679E+02  0.7546771E-02  0.1459549E+00
          2   -1    0    0  502    0  0.00000000000E+00  0.00000000000E+00  0.44821438521E+03  0.44821438521E+03  0.00000000000E+00 0. -1.
         -2   -1    0    0    0  501 -0.00000000000E+00 -0.00000000000E+00 -0.38585460976E+01  0.38585460976E+01  0.00000000000E+00 0.  1.
         21    1    1    2  502  503  0.16340548514E+02 -0.20026056447E+02  0.39925533958E+03  0.40009109294E+03  0.00000000000E+00 0. -1.
         21    1    1    2  503  501 -0.16340548514E+02  0.20026056447E+02  0.45100499531E+02  0.51981838372E+02  0.00000000000E+00 0.  1.
</event>
<event>
 4    1  0.5740469E+002  0.2184467E+02  0.7546771E-02  0.1507538E+00
          2   -1    0    0  503    0  0.00000000000E+00  0.00000000000E+00  0.44974821629E+02  0.44974821629E+02  0.00000000000E+00 0. -1.
         -2   -1    0    0    0  501 -0.00000000000E+00 -0.00000000000E+00 -0.20276695104E+02  0.20276695104E+02  0.00000000000E+00 0.  1.
         21    1    1    2  502  501  0.10795303074E+02 -0.18990820034E+02 -0.10177636240E+02  0.24099255040E+02  0.00000000000E+00 0.  1.
         21    1    1    2  503  502 -0.10795303074E+02  0.18990820034E+02  0.34875762764E+02  0.41152261693E+02  0.00000000000E+00 0. -1.
</event>
<event>
 4    1  0.5740469E+002  0.2044851E+02  0.7546771E-02  0.1527286E+00
          2   -1    0    0  502    0  0.00000000000E+00  0.00000000000E+00  0.15308495049E+04  0.15308495049E+04  0.00000000000E+00 0. -1.
         -2   -1    0    0    0  501 -0.00000000000E+00 -0.00000000000E+00 -0.27838658175E+00  0.27838658175E+00  0.00000000000E+00 0.  1.
         21    1    1    2  502  503 -0.37960571498E+01 -0.20093075795E+02  0.87034776077E+03  0.87058794296E+03  0.00000000000E+00 0.  1.
         21    1    1    2  503  501  0.37960571498E+01  0.20093075795E+02  0.66022335756E+03  0.66053994853E+03  0.00000000000E+00 0. -1.
</event>
<event>
 4    1  0.5740469E+002  0.2381043E+02  0.7546771E-02  0.1482565E+00
          2   -1    0    0  502    0  0.00000000000E+00  0.00000000000E+00  0.75784767764E+03  0.75784767764E+03  0.00000000000E+00 0.  1.
         -2   -1    0    0    0  501 -0.00000000000E+00 -0.00000000000E+00 -0.10533159561E+01  0.10533159561E+01  0.00000000000E+00 0. -1.
         21    1    1    2  502  503  0.22590019975E+02  0.75251315428E+01  0.58265941876E+03  0.58314572354E+03  0.00000000000E+00 0. -1.
         21    1    1    2  503  501 -0.22590019975E+02 -0.75251315428E+01  0.17413494292E+03  0.17575527005E+03  0.00000000000E+00 0.  1.
</event>
<event>
 4    1  0.5740469E+002  0.2372304E+02  0.7546771E-02  0.1483613E+00
          2   -1    0    0  503    0  0.00000000000E+00  0.00000000000E+00  0.15987922880E+02  0.15987922880E+02  0.00000000000E+00 0.  1.
         -2   -1    0    0    0  501 -0.00000000000E+00 -0.00000000000E+00 -0.35492765599E+02  0.35492765599E+02  0.00000000000E+00 0. -1.
         21    1    1    2  502  501  0.23661153768E+02 -0.17124925056E+01 -0.12088221373E+02  0.26625324865E+02  0.00000000000E+00 0.  1.
         21    1    1    2  503  502 -0.23661153768E+02  0.17124925056E+01 -0.74166213465E+01  0.24855363614E+02  0.00000000000E+00 0. -1.
</event>
<event>
 4    1  0.5740469E+002  0.2398301E+02  0.7546771E-02  0.1480510E+00
          2   -1    0    0  502    0  0.00000000000E+00  0.00000000000E+00  0.13679309367E+04  0.13679309367E+04  0.00000000000E+00 0.  1.
         -2   -1    0    0    0  501 -0.00000000000E+00 -0.00000000000E+00 -0.43472530927E+00  0.43472530927E+00  0.00000000000E+00 0. -1.
         21    1    1    2  502  503 -0.22631459567E+01  0.23875991593E+02  0.80760831402E+03  0.80796433936E+03  0.00000000000E+00 0. -1.
         21    1    1    2  503  501  0.22631459567E+01 -0.23875991593E+02  0.55988789735E+03  0.56040132263E+03  0.00000000000E+00 0.  1.
</event>
<event>
 4    1  0.5740469E+002  0.2135630E+02  0.7546771E-02  0.1514238E+00
          2   -1    0    0  503    0  0.00000000000E+00  0.00000000000E+00  0.40957756975E+03  0.40957756975E+03  0.00000000000E+00 0. -1.
         -2   -1    0    0    0  501 -0.00000000000E+00 -0.00000000000E+00 -0.34542568902E+01  0.34542568902E+01  0.00000000000E+00 0.  1.
         21    1    1    2  502  501  0.28782853526E+01  0.21161456083E+02  0.33061932072E+02  0.39359663393E+02  0.00000000000E+00 0.  1.
         21    1    1    2  503  502 -0.28782853526E+01 -0.21161456083E+02  0.37306138079E+03  0.37367216325E+03  0.00000000000E+00 0. -1.
</event>
<event>
 4    1  0.5740469E+002  0.2030767E+02  0.7546771E-02  0.1529383E+00
          2   -1    0    0  503    0  0.00000000000E+00  0.00000000000E+00  0.30019676977E+03  0.30019676977E+03  0.00000000000E+00 0.  1.
         -2   -1    0    0    0  501 -0.00000000000E+00 -0.00000000000E+00 -0.17178977393E+01  0.17178977393E+01  0.00000000000E+00 0. -1.
         21    1    1    2  502  501  0.13234459610E+01 -0.20264500419E+02  0.81675483837E+02  0.84162260821E+02  0.00000000000E+00 0. -1.
         21    1    1    2  503  502 -0.13234459610E+01  0.20264500419E+02  0.21680338819E+03  0.21775240669E+03  0.00000000000E+00 0.  1.
</event>
<event>
 4    1  0.5740469E+002  0.2298829E+02  0.7546771E-02  0.1492645E+00
          2   -1    0    0  502    0  0.00000000000E+00  0.00000000000E+00  0.42131061598E+02  0.42131061598E+02  0.00000000000E+00 0. -1.
         -2   -1    0    0    0  501 -0.00000000000E+00 -0.00000000000E+00 -0.12746015794E+02  0.12746015794E+02  0.00000000000E+00 0.  1.
         21    1    1    2  502  503  0.71203543130E+01  0.21857764141E+02  0.18153105554E+02  0.29291577971E+02  0.00000000000E+00 0.  1.
         21    1    1    2  503  501 -0.71203543130E+01 -0.21857764141E+02  0.11231940251E+02  0.25585499420E+02  0.00000000000E+00 0. -1.
</event>
<event>
 4    1  0.5740469E+002  0.2177108E+02  0.7546771E-02  0.1508534E+00
          2   -1    0    0  502    0  0.00000000000E+00  0.00000000000E+00  0.11700700550E+03  0.11700700550E+03  0.00000000000E+00 0. -1.
         -2   -1    0    0    0  501 -0.00000000000E+00 -0.00000000000E+00 -0.40796320445E+01  0.40796320445E+01  0.00000000000E+00 0.  1.
         21    1    1    2  502  503  0.39983528901E+01  0.21400774293E+02  0.51380001528E+02  0.55802191025E+02  0.00000000000E+00 0. -1.
         21    1    1    2  503  501 -0.39983528901E+01 -0.21400774293E+02  0.61547371925E+02  0.65284446517E+02  0.00000000000E+00 0.  1.
</event>
<event>
 4    1  0.5740469E+002  0.2722440E+02  0.7546771E-02  0.1445367E+00
          2   -1    0    0  502    0  0.00000000000E+00  0.00000000000E+00  0.45180389918E+02  0.45180389918E+02  0.00000000000E+00 0.  1.
         -2   -1    0    0    0  501 -0.00000000000E+00 -0.00000000000E+00 -0.47496904706E+02  0.47496904706E+02  0.00000000000E+00 0. -1.
         21    1    1    2  502  503  0.26560311876E+02 -0.59764420736E+01  0.36333593126E+02  0.45401519977E+02  0.00000000000E+00 0.  1.
         21    1    1    2  503  501 -0.26560311876E+02  0.59764420736E+01 -0.38650107913E+02  0.47275774647E+02  0.00000000000E+00 0. -1.
</event>
<event>
 4    1  0.5740469E+002  0.2207366E+02  0.7546771E-02  0.1504470E+00
          2   -1    0    0  502    0  0.00000000000E+00  0.00000000000E+00  0.12391272704E+03  0.12391272704E+03  0.00000000000E+00 0. -1.
         -2   -1    0    0    0  501 -0.00000000000E+00 -0.00000000000E+00 -0.20765940532E+02  0.20765940532E+02  0.00000000000E+00 0.  1.
         21    1    1    2  502  503  0.17690202697E+02 -0.13202392462E+02  0.11670463347E+03  0.11877380987E+03  0.00000000000E+00 0. -1.
         21    1    1    2  503  501 -0.17690202697E+02  0.13202392462E+02 -0.13557846962E+02  0.25904857699E+02  0.00000000000E+00 0.  1.
</event>
<event>
 4    1  0.5740469E+002  0.2141163E+02  0.7546771E-02  0.1513468E+00
          2   -1    0    0  502    0  0.00000000000E+00  0.00000000000E+00  0.84306613078E+03  0.84306613078E+03  0.00000000000E+00 0. -1.
         -2   -1    0    0    0  501 -0.00000000000E+00 -0.00000000000E+00 -0.54967027200E+00  0.54967027200E+00  0.00000000000E+00 0.  1.
         21    1    1    2  502  503 -0.12352586422E+02 -0.17489183911E+02  0.46485505404E+03  0.46534791201E+03  0.00000000000E+00 0.  1.
         21    1    1    2  503  501  0.12352586422E+02  0.17489183911E+02  0.37766140646E+03  0.37826788904E+03  0.00000000000E+00 0. -1.
</event>
<event>
 4    1  0.5740469E+002  0.2738281E+02  0.7546771E-02  0.1443800E+00
          2   -1    0    0  503    0  0.00000000000E+00  0.00000000000E+00  0.45778263471E+01  0.45778263471E+01  0.00000000000E+00 0.  1.
         -2   -1    0    0    0  501 -0.00000000000E+00 -0.00000000000E+00 -0.18219058550E+03  0.18219058550E+03  0.00000000000E+00 0. -1.
         21    1    1    2  502  501  0.27211881095E+02  0.30547984770E+01 -0.59131784205E+02  0.65164301345E+02  0.00000000000E+00 0. -1.
         21    1    1    2  503  502 -0.27211881095E+02 -0.30547984770E+01 -0.11848097495E+03  0.12160411051E+03  0.00000000000E+00 0.  1.
</event>
<event>
 4    1  0.5740469E+002  0.2194318E+02  0.7546771E-02  0.1506213E+00
          2   -1    0    0  503    0  0.00000000000E+00  0.00000000000E+00  0.81714251614E+03  0.81714251614E+03  0.00000000000E+00 0.  1.
         -2   -1    0    0    0  501 -0.00000000000E+00 -0.00000000000E+00 -0.59749031892E+00  0.59749031892E+00  0.00000000000E+00 0. -1.
         21    1    1    2  502  501  0.11652921894E+02 -0.18593352967E+02  0.45628154421E+03  0.45680887793E+03  0.00000000000E+00 0. -1.
         21    1    1    2  503  502 -0.11652921894E+02  0.18593352967E+02  0.36026348161E+03  0.36093112854E+03  0.00000000000E+00 0.  1.
</event>
<event>
 4    1  0.5740469E+002  0.2146430E+02  0.7546771E-02  0.1512738E+00
          2   -1    0    0  503    0  0.00000000000E+00  0.00000000000E+00  0.81362545533E+03  0.81362545533E+03  0.00000000000E+00 0. -1.
         -2   -1    0    0    0  501 -0.00000000000E+00 -0.00000000000E+00 -0.95051292776E+00  0.95051292776E+00  0.00000000000E+00 0.  1.
         21    1    1    2  502  501  0.44974796950E+01 -0.20987822086E+02  0.14737524450E+03  0.14893011344E+03  0.00000000000E+00 0.  1.
         21    1    1    2  503  502 -0.44974796950E+01  0.20987822086E+02  0.66529969791E+03  0.66564585482E+03  0.00000000000E+00 0. -1.
</event>
<event>
 4    1  0.5740469E+002  0.2798899E+02  0.7546771E-02  0.1437919E+00
          2   -1    0    0  503    0  0.00000000000E+00  0.00000000000E+00  0.33702068667E+03  0.33702068667E+03  0.00000000000E+00 0. -1.
         -2   -1    0    0    0  501 -0.00000000000E+00 -0.00000000000E+00 -0.33074052977E+01  0.33074052977E+01  0.00000000000E+00 0.  1.
         21    1    1    2  502  501  0.21186593674E+02 -0.18289665230E+02  0.74089603777E+02  0.79200082030E+02  0.00000000000E+00 0. -1.
         21    1    1    2  503  502 -0.21186593674E+02  0.18289665230E+02  0.25962367759E+03  0.26112800994E+03  0.00000000000E+00 0.  1.
</event>
<event>
 4    1  0.5740469E+002  0.2716710E+02  0.7546771E-02  0.1445937E+00
          2   -1    0    0  503    0  0.00000000000E+00  0.00000000000E+00  0.70408603605E+03  0.70408603605E+03  0.00000000000E+00 0.  1.
         -2   -1    0    0    0  501 -0.00000000000E+00 -0.00000000000E+00 -0.11936632334E+01  0.11936632334E+01  0.00000000000E+00 0. -1.
         21    1    1    2  502  501  0.25605761794E+02 -0.90772524671E+01  0.22836079167E+03  0.22997109105E+03  0.00000000000E+00 0. -1.
         21    1    1    2  503  502 -0.25605761794E+02  0.90772524671E+01  0.47453158115E+03  0.47530860823E+03  0.00000000000E+00 0.  1.
</event>
<event>
 4    1  0.5740469E+002  0.2076296E+02  0.7546771E-02  0.1522676E+00
          2   -1    0    0  502    0  0.00000000000E+00  0.00000000000E+00  0.64947678206E+01  0.64947678206E+01  0.00000000000E+00 0. -1.
         -2   -1    0    0    0  501 -0.00000000000E+00 -0.00000000000E+00 -0.13559788344E+03  0.13559788344E+03  0.00000000000E+00 0.  1.
         21    1    1    2  502  503  0.28045933532E+01  0.20572672255E+02 -0.13789993274E+02  0.24925178075E+02  0.00000000000E+00 0. -1.
         21    1    1    2  503  501 -0.28045933532E+01 -0.20572672255E+02 -0.11531312234E+03  0.11716747318E+03  0.00000000000E+00 0.  1.
</event>
<event>
 4    1  0.5740469E+002  0.3028948E+02  0.7546771E-02  0.1417097E+00
          2   -1    0    0  502    0  0.00000000000E+00  0.00000000000E+00  0.18324098788E+03  0.18324098788E+03  0.00000000000E+00 0. -1.
         -2   -1    0    0    0  501 -0.00000000000E+00 -0.00000000000E+00 -0.64400781957E+01  0.64400781957E+01  0.00000000000E+00 0.  1.
         21    1    1    2  502  503  0.29093590100E+02  0.84270937211E+01  0.13314211341E+03  0.13654404145E+03  0.00000000000E+00 0. -1.
         21    1    1    2  503  501 -0.29093590100E+02 -0.84270937211E+01  0.43658796274E+02  0.53137024621E+02  0.00000000000E+00 0.  1.
</event>
<event>
 4    1  0.5740469E+002  0.2198200E+02  0.7546771E-02  0.1505693E+00
          2   -1    0    0  502    0  0.00000000000E+00  0.00000000000E+00  0.31274207658E+03  0.31274207658E+03  0.00000000000E+00 0.  1.
         -2   -1    0    0    0  501 -0.00000000000E+00 -0.00000000000E+00 -0.15459984080E+01  0.15459984080E+01  0.00000000000E+00 0. -1.
         21    1    1    2  502  503 -0.15705686008E+02 -0.15379855052E+02  0.15944818725E+03  0.16095630753E+03  0.00000000000E+00 0. -1.
         21    1    1    2  503  501  0.15705686008E+02  0.15379855052E+02  0.15174789092E+03  0.15333176746E+03  0.00000000000E+00 0.  1.
</event>
<event>
 4    1  0.5740469E+002  0.2273667E+02  0.7546771E-02  0.1495831E+00
          2   -1    0    0  503    0  0.00000000000E+00  0.00000000000E+00  0.64180873797E+03  0.64180873797E+03  0.00000000000E+00 0.  1.
         -2   -1    0    0    0  501 -0.00000000000E+00 -0.00000000000E+00 -0.17692090857E+01  0.17692090857E+01  0.00000000000E+00 0. -1.
         21    1    1    2  502  501  0.19872149797E+02 -0.11047806945E+02  0.82520770878E+02  0.85595759253E+02  0.00000000000E+00 0. -1.
         21    1    1    2  503  502 -0.19872149797E+02  0.11047806945E+02  0.55751875801E+03  0.55798218781E+03  0.00000000000E+00 0.  1.
</event>
<event>
 4    1  0.5740469E+002  0.2506512E+02  0.7546771E-02  0.1468076E+00
          2   -1    0    0  503    0  0.00000000000E+00  0.00000000000E+00  0.19309624227E+03  0.19309624227E+03  0.00000000000E+00 0. -1.
         -2   -1    0    0    0  501 -0.00000000000E+00 -0.00000000000E+00 -0.34234940617E+01  0.34234940617E+01  0.00000000000E+00 0.  1.
         21    1    1    2  502  501 -0.14286413709E+02 -0.20595115444E+02  0.72947965672E+02  0.77134078672E+02  0.00000000000E+00 0.  1.
         21    1    1    2  503  502  0.14286413709E+02  0.20595115444E+02  0.11672478254E+03  0.11938565766E+03  0.00000000000E+00 0. -1.
</event>
<event>
 4    1  0.5740469E+002  0.2540244E+02  0.7546771E-02  0.1464351E+00
          2   -1    0    0  503    0  0.00000000000E+00  0.00000000000E+00  0.87026746567E+03  0.87026746567E+03  0.00000000000E+00 0. -1.
         -2   -1    0    0    0  501 -0.00000000000E+00 -0.00000000000E+00 -0.89357752997E+00  0.89357752997E+00  0.00000000000E+00 0.  1.
         21    1    1    2  502  501 -0.23096844894E+02 -0.10574485816E+02  0.25497929146E+03  0.25624153267E+03  0.00000000000E+00 0.  1.
         21    1    1    2  503  502  0.23096844894E+02  0.10574485816E+02  0.61439459668E+03  0.61491951053E+03  0.00000000000E+00 0. -1.
</event>
<event>
 4    1  0.5740469E+002  0.3171116E+02  0.7546771E-02  0.1405287E+00
          2   -1    0    0  502    0  0.00000000000E+00  0.00000000000E+00  0.16100188109E+04  0.16100188109E+04  0.00000000000E+00 0. -1.
         -2   -1    0    0    0  501 -0.00000000000E+00 -0.00000000000E+00 -0.17755657686E+01  0.17755657686E+01  0.00000000000E+00 0.  1.
         21    1    1    2  502  503 -0.21821529206E+02  0.23009102551E+02  0.14529723323E+04  0.14533183396E+04  0.00000000000E+00 0. -1.
         21    1    1    2  503  501  0.21821529206E+02 -0.23009102551E+02  0.15527091280E+03  0.15847603699E+03  0.00000000000E+00 0.  1.
</event>
<event>
 4    1  0.5740469E+002  0.2306428E+02  0.7546771E-02  0.1491693E+00
          2   -1    0    0  502    0  0.00000000000E+00  0.00000000000E+00  0.38971382657E+02  0.38971382657E+02  0.00000000000E+00 0.  1.
         -2   -1    0    0    0  501 -0.00000000000E+00 -0.00000000000E+00 -0.36178495024E+02  0.36178495024E+02  0.00000000000E+00 0. -1.
         21    1    1    2  502  503 -0.20323496029E+02 -0.10904890168E+02  0.31047399248E+02  0.38676893884E+02  0.00000000000E+00 0.  1.
         21    1    1    2  503  501  0.20323496029E+02  0.10904890168E+02 -0.28254511615E+02  0.36472983797E+02  0.00000000000E+00 0. -1.
</event>
<event>
 4    1  0.5740469E+002  0.2484601E+02  0.7546771E-02  0.1470533E+00
          2   -1    0    0  503    0  0.00000000000E+00  0.00000000000E+00  0.26344232719E+02  0.26344232719E+02  0.00000000000E+00 0.  1.
         -2   -1    0    0    0  501 -0.00000000000E+00 -0.00000000000E+00 -0.25179698064E+02  0.25179698064E+02  0.00000000000E+00 0. -1.
         21    1    1    2  502  501 -0.21806190829E+02  0.11908584663E+02 -0.62029369537E+01  0.25608607420E+02  0.00000000000E+00 0. -1.
         21    1    1    2  503  502  0.21806190829E+02 -0.11908584663E+02  0.73674716082E+01  0.25915323364E+02  0.00000000000E+00 0.  1.
</event>
<event>
 4    1  0.5740469E+002  0.2403254E+02  0.7546771E-02  0.1479924E+00
          2   -1    0    0  503    0  0.00000000000E+00  0.00000000000E+00  0.11675184986E+02  0.11675184986E+02  0.00000000000E+00 0.  1.
         -2   -1    0    0    0  501 -0.00000000000E+00 -0.00000000000E+00 -0.18367682466E+03  0.18367682466E+03  0.00000000000E+00 0. -1.
         21    1    1    2  502  501  0.23503857276E+02 -0.50131655929E+01 -0.16949364414E+03  0.17118895566E+03  0.00000000000E+00 0. -1.
         21    1    1    2  503  502 -0.23503857276E+02  0.50131655929E+01 -0.25079955279E+01  0.24163053981E+02  0.00000000000E+00 0.  1.
</event>
<event>
 4    1  0.5740469E+002  0.4455674E+02  0.7546771E-02  0.1323671E+00
          2   -1    0    0  502    0  0.00000000000E+00  0.00000000000E+00  0.39142673937E+01  0.39142673937E+01  0.00000000000E+00 0.  1.
         -2   -1    0    0    0  501 -0.00000000000E+00 -0.00000000000E+00 -0.16822516054E+04  0.16822516054E+04  0.00000000000E+00 0. -1.
         21    1    1    2  502  503  0.44014582105E+02  0.69295888283E+01 -0.13455032636E+03  0.14173599741E+03  0.00000000000E+00 0.  1.
         21    1    1    2  503  501 -0.44014582105E+02 -0.69295888283E+01 -0.15437870117E+04  0.15444298754E+04  0.00000000000E+00 0. -1.
</event>
<event>
 4    1  0.5740469E+002  0.2431345E+02  0.7546771E-02  0.1476632E+00
          2   -1    0    0  502    0  0.00000000000E+00  0.00000000000E+00  0.36022297322E+02  0.36022297322E+02  0.00000000000E+00 0. -1.
         -2   -1    0    0    0  501 -0.00000000000E+00 -0.00000000000E+00 -0.39596701050E+02  0.39596701050E+02  0.00000000000E+00 0.  1.
         21    1    1    2  502  503  0.45764160182E+01  0.23878866565E+02  0.27145316424E+02  0.36441899728E+02  0.00000000000E+00 0. -1.
         21    1    1    2  503  501 -0.45764160182E+01 -0.23878866565E+02 -0.30719720152E+02  0.39177098645E+02  0.00000000000E+00 0.  1.
</event>
<event>
 4    1  0.5740469E+002  0.3595959E+02  0.7546771E-02  0.1373940E+00
          2   -1    0    0  503    0  0.00000000000E+00  0.00000000000E+00  0.10780104487E+04  0.10780104487E+04  0.00000000000E+00 0.  1.
         -2   -1    0    0    0  501 -0.00000000000E+00 -0.00000000000E+00 -0.19460450387E+01  0.19460450387E+01  0.00000000000E+00 0. -1.
         21    1    1    2  502  501 -0.35150212518E+02  0.75865024689E+01  0.20358873174E+03  0.20674008840E+03  0.00000000000E+00 0. -1.
         21    1    1    2  503  502  0.35150212518E+02 -0.75865024689E+01  0.87247567189E+03  0.87321640531E+03  0.00000000000E+00 0.  1.
</event>
<event>
 4    1  0.5740469E+002  0.2206961E+02  0.7546771E-02  0.1504524E+00
          2   -1    0    0  503    0  0.00000000000E+00  0.00000000000E+00  0.25903029057E+01  0.25903029057E+01  0.00000000000E+00 0.  1.
         -2   -1    0    0    0  501 -0.00000000000E+00 -0.00000000000E+00 -0.25430419839E+03  0.25430419839E+03  0.00000000000E+00 0. -1.
         21    1    1    2  502  501 -0.21763928516E+02 -0.36604736905E+01 -0.19142674627E+03  0.19269475042E+03  0.00000000000E+00 0. -1.
         21    1    1    2  503  502  0.21763928516E+02  0.36604736905E+01 -0.60287149215E+02  0.64199750876E+02  0.00000000000E+00 0.  1.
</event>
<event>
 4    1  0.5740469E+002  0.2812388E+02  0.7546771E-02  0.1436634E+00
          2   -1    0    0  503    0  0.00000000000E+00  0.00000000000E+00  0.42698125134E+02  0.42698125134E+02  0.00000000000E+00 0.  1.
         -2   -1    0    0    0  501 -0.00000000000E+00 -0.00000000000E+00 -0.52178310367E+02  0.52178310367E+02  0.00000000000E+00 0. -1.
         21    1    1    2  502  501  0.20553215713E+02  0.19196826561E+02 -0.42838057621E+02  0.51245019337E+02  0.00000000000E+00 0. -1.
         21    1    1    2  503  502 -0.20553215713E+02 -0.19196826561E+02  0.33357872388E+02  0.43631416163E+02  0.00000000000E+00 0.  1.
</event>
<event>
 4    1  0.5740469E+002  0.2343308E+02  0.7546771E-02  0.1487130E+00
          2   -1    0    0  503    0  0.00000000000E+00  0.00000000000E+00  0.26449692016E+03  0.26449692016E+03  0.00000000000E+00 0.  1.
         -2   -1    0    0    0  501 -0.00000000000E+00 -0.00000000000E+00 -0.78493011526E+01  0.78493011526E+01  0.00000000000E+00 0. -1.
         21    1    1    2  502  501  0.23301874906E+02 -0.24762762641E+01  0.11539090913E+02  0.26120105998E+02  0.00000000000E+00 0. -1.
         21    1    1    2  503  502 -0.23301874906E+02  0.24762762641E+01  0.24510852809E+03  0.24622611531E+03  0.00000000000E+00 0.  1.
</event>
<event>
 4    1  0.5740469E+002  0.2515027E+02  0.7546771E-02  0.1467129E+00
          2   -1    0    0  503    0  0.00000000000E+00  0.00000000000E+00  0.22921029727E+02  0.22921029727E+02  0.00000000000E+00 0. -1.
         -2   -1    0    0    0  501 -0.00000000000E+00 -0.00000000000E+00 -0.34975103403E+02  0.34975103403E+02  0.00000000000E+00 0.  1.
         21    1    1    2  502  501  0.11973930594E+02  0.22116990729E+02 -0.19323378172E+02  0.31716387511E+02  0.00000000000E+00 0.  1.
         21    1    1    2  503  502 -0.11973930594E+02 -0.22116990729E+02  0.72693044969E+01  0.26179745619E+02  0.00000000000E+00 0. -1.
</event>
<event>
 4    1  0.5740469E+002  0.2735774E+02  0.7546771E-02  0.1444047E+00
          2   -1    0    0  503    0  0.00000000000E+00  0.00000000000E+00  0.18532927142E+04  0.18532927142E+04  0.00000000000E+00 0. -1.
         -2   -1    0    0    0  501 -0.00000000000E+00 -0.00000000000E+00 -0.60499569687E+00  0.60499569687E+00  0.00000000000E+00 0.  1.
         21    1    1    2  502  501 -0.11993082530E+02  0.24588853813E+02  0.14608328819E+04  0.14610890303E+04  0.00000000000E+00 0. -1.
         21    1    1    2  503  502  0.11993082530E+02 -0.24588853813E+02  0.39185483664E+03  0.39280867959E+03  0.00000000000E+00 0.  1.
</event>
<event>
 4    1  0.5740469E+002  0.2400095E+02  0.7546771E-02  0.1480298E+00
          2   -1    0    0  502    0  0.00000000000E+00  0.00000000000E+00  0.47011728788E+02  0.47011728788E+02  0.00000000000E+00 0.  1.
         -2   -1    0    0    0  501 -0.00000000000E+00 -0.00000000000E+00 -0.18304559303E+02  0.18304559303E+02  0.00000000000E+00 0. -1.
         21    1    1    2  502  503  0.19930021793E+02  0.13373107329E+02 -0.44238849566E+01  0.24405256123E+02  0.00000000000E+00 0. -1.
         21    1    1    2  503  501 -0.19930021793E+02 -0.13373107329E+02  0.33131054442E+02  0.40911031969E+02  0.00000000000E+00 0.  1.
</event>
<event>
 4    1  0.5740469E+002  0.2015031E+02  0.7546771E-02  0.1531750E+00
          2   -1    0    0  503    0  0.00000000000E+00  0.00000000000E+00  0.51038947342E+02  0.51038947342E+02  0.00000000000E+00 0.  1.
         -2   -1    0    0    0  501 -0.00000000000E+00 -0.00000000000E+00 -0.82143165511E+01  0.82143165511E+01  0.00000000000E+00 0. -1.
         21    1    1    2  502  501  0.11449653596E+02 -0.16581330345E+02  0.16152396214E+02  0.25825084451E+02  0.00000000000E+00 0. -1.
         21    1    1    2  503  502 -0.11449653596E+02  0.16581330345E+02  0.26672234577E+02  0.33428179442E+02  0.00000000000E+00 0.  1.
</event>
<event>
 4    1  0.5740469E+002  0.2014725E+02  0.7546771E-02  0.1531797E+00
          2   -1    0    0  502    0  0.00000000000E+00  0.00000000000E+00  0.27620753614E+01  0.27620753614E+01  0.00000000000E+00 0.  1.
         -2   -1    0    0    0  501 -0.00000000000E+00 -0.00000000000E+00 -0.15513025065E+03  0.15513025065E+03  0.00000000000E+00 0. -1.
         21    1    1    2  502  503 -0.20006606098E+02 -0.23763944838E+01 -0.58065268852E+02  0.61461264103E+02  0.00000000000E+00 0. -1.
         21    1    1    2  503  501  0.20006606098E+02  0.23763944838E+01 -0.94302906434E+02  0.96431061905E+02  0.00000000000E+00 0.  1.
</event>
<event>
 4    1  0.5740469E+002  0.5137278E+02  0.7546771E-02  0.1292328E+00
          2   -1    0    0  502    0  0.00000000000E+00  0.00000000000E+00  0.19912145334E+04  0.19912145334E+04  0.00000000000E+00 0. -1.
         -2   -1    0    0    0  501 -0.00000000000E+00 -0.00000000000E+00 -0.13427426631E+02  0.13427426631E+02  0.00000000000E+00 0.  1.
         21    1    1    2  502  503 -0.23604247573E+02  0.45628954735E+02  0.19404606630E+04  0.19411405788E+04  0.00000000000E+00 0. -1.
         21    1    1    2  503  501  0.23604247573E+02 -0.45628954735E+02  0.37326443768E+02  0.63501381230E+02  0.00000000000E+00 0.  1.
</event>
<event>
 4    1  0.5740469E+002  0.3059703E+02  0.7546771E-02  0.1414478E+00
          2   -1    0    0  503    0  0.00000000000E+00  0.00000000000E+00  0.41006499147E+03  0.41006499147E+03  0.00000000000E+00 0.  1.
         -2   -1    0    0    0  501 -0.00000000000E+00 -0.00000000000E+00 -0.42163734136E+01  0.42163734136E+01  0.00000000000E+00 0. -1.
         21    1    1    2  502  501 -0.25914088810E+02  0.16267703253E+02  0.62657861619E+02  0.69729375379E+02  0.00000000000E+00 0. -1.
         21    1    1    2  503  502  0.25914088810E+02 -0.16267703253E+02  0.34319075644E+03  0.34455198951E+03  0.00000000000E+00 0.  1.
</event>
<event>
 4    1  0.5740469E+002  0.2269124E+02  0.7546771E-02  0.1496412E+00
          2   -1    0    0  503    0  0.00000000000E+00  0.00000000000E+00  0.10517527789E+02  0.10517527789E+02  0.00000000000E+00 0. -1.
         -2   -1    0    0    0  501 -0.00000000000E+00 -0.00000000000E+00 -0.48963701768E+02  0.48963701768E+02  0.00000000000E+00 0.  1.
         21    1    1    2  502  501  0.15130355912E+02  0.16910493570E+02 -0.19604346936E+02  0.29987045230E+02  0.00000000000E+00 0.  1.
         21    1    1    2  503  502 -0.15130355912E+02 -0.16910493570E+02 -0.18841827042E+02  0.29494184327E+02  0.00000000000E+00 0. -1.
</event>
<event>
 4    1  0.5740469E+002  0.2468558E+02  0.7546771E-02  0.1472352E+00
          2   -1    0    0  503    0  0.00000000000E+00  0.00000000000E+00  0.79829269046E+01  0.79829269046E+01  0.00000000000E+00 0.  1.
         -2   -1    0    0    0  501 -0.00000000000E+00 -0.00000000000E+00 -0.10807786245E+04  0.10807786245E+04  0.00000000000E+00 0. -1.
         21    1    1    2  502  501 -0.17224940682E+02 -0.17682745080E+02 -0.10612018699E+04  0.10614889480E+04  0.00000000000E+00 0. -1.
         21    1    1    2  503  502  0.17224940682E+02  0.17682745080E+02 -0.11593827677E+02  0.27272603383E+02  0.00000000000E+00 0.  1.
</event>
<event>
 4    1  0.5740469E+002  0.4423992E+02  0.7546771E-02  0.1325284E+00
          2   -1    0    0  503    0  0.00000000000E+00  0.00000000000E+00  0.15175065304E+03  0.15175065304E+03  0.00000000000E+00 0.  1.
         -2   -1    0    0    0  501 -0.00000000000E+00 -0.00000000000E+00 -0.22009710751E+03  0.22009710751E+03  0.00000000000E+00 0. -1.
         21    1    1    2  502  501  0.83647949642E+01  0.43441922915E+02 -0.21456748254E+03  0.21908075001E+03  0.00000000000E+00 0. -1.
         21    1    1    2  503  502 -0.83647949642E+01 -0.43441922915E+02  0.14622102807E+03  0.15276701054E+03  0.00000000000E+00 0.  1.
</event>
<event>
 4    1  0.5740469E+002  0.2323034E+02  0.7546771E-02  0.1489626E+00
          2   -1    0    0  502    0  0.00000000000E+00  0.00000000000E+00  0.74919857460E+01  0.74919857460E+01  0.00000000000E+00 0. -1.
         -2   -1    0    0    0  501 -0.00000000000E+00 -0.00000000000E+00 -0.14620737477E+03  0.14620737477E+03  0.00000000000E+00 0.  1.
         21    1    1    2  502  503  0.23136439399E+02  0.20866428342E+01 -0.14619219191E+02  0.27447595088E+02  0.00000000000E+00 0. -1.
         21    1    1    2  503  501 -0.23136439399E+02 -0.20866428342E+01 -0.12409616983E+03  0.12625176543E+03  0.00000000000E+00 0.  1.
</event>
<event>
 4    1  0.5740469E+002  0.5797068E+02  0.7546771E-02  0.1266888E+00
          2   -1    0    0  502    0  0.00000000000E+00  0.00000000000E+00  0.12782577219E+04  0.12782577219E+04  0.00000000000E+00 0. -1.
         -2   -1    0    0    0  501 -0.00000000000E+00 -0.00000000000E+00 -0.84123239826E+01  0.84123239826E+01  0.00000000000E+00 0.  1.
         21    1    1    2  502  503  0.50498144506E+01 -0.57750312622E+02  0.11683389070E+04  0.11697762183E+04  0.00000000000E+00 0. -1.
         21    1    1    2  503  501 -0.50498144506E+01  0.57750312622E+02  0.10150649091E+03  0.11689382760E+03  0.00000000000E+00 0.  1.
</event>
<event>
 4    1  0.5740469E+002  0.2230304E+02  0.7546771E-02  0.1501440E+00
          2   -1    0    0  502    0  0.00000000000E+00  0.00000000000E+00  0.47817138496E+03  0.47817138496E+03  0.00000000000E+00 0.  1.
         -2   -1    0    0    0  501 -0.00000000000E+00 -0.00000000000E+00 -0.14462469531E+01  0.14462469531E+01  0.00000000000E+00 0. -1.
         21    1    1    2  502  503  0.19827902129E+02  0.10211762465E+02  0.36541890912E+03  0.36609890049E+03  0.00000000000E+00 0.  1.
         21    1    1    2  503  501 -0.19827902129E+02 -0.10211762465E+02  0.11130622888E+03  0.11351873142E+03  0.00000000000E+00 0. -1.
</event>
<event>
 4    1  0.5740469E+002  0.2742302E+02  0.7546771E-02  0.1443404E+00
          2   -1    0    0  503    0  0.00000000000E+00  0.00000000000E+00  0.27174241132E+02  0.27174241132E+02  0.00000000000E+00 0. -1.
         -2   -1    0    0    0  501 -0.00000000000E+00 -0.00000000000E+00 -0.40514809007E+02  0.40514809007E+02  0.00000000000E+00 0.  1.
         21    1    1    2  502  501 -0.11910267173E+02  0.24701573370E+02 -0.25723852372E+02  0.37599717711E+02  0.00000000000E+00 0.  1.
         21    1    1    2  503  502  0.11910267173E+02 -0.24701573370E+02  0.12383284497E+02  0.30089332429E+02  0.00000000000E+00 0. -1.
</event>
<event>
 4    1  0.5740469E+002  0.2528449E+02  0.7546771E-02  0.1465646E+00
          2   -1    0    0  503    0  0.00000000000E+00  0.00000000000E+00  0.36032906283E+01  0.36032906283E+01  0.00000000000E+00 0.  1.
         -2   -1    0    0    0  501 -0.00000000000E+00 -0.00000000000E+00 -0.32770119910E+03  0.32770119910E+03  0.00000000000E+00 0. -1.
         21    1    1    2  502  501  0.25263806824E+02  0.10224080635E+01 -0.27422673775E+03  0.27538992165E+03  0.00000000000E+00 0. -1.
         21    1    1    2  503  502 -0.25263806824E+02 -0.10224080635E+01 -0.49871170728E+02  0.55914568077E+02  0.00000000000E+00 0.  1.
</event>
<event>
 4    1  0.5740469E+002  0.2191762E+02  0.7546771E-02  0.1506556E+00
          2   -1    0    0  502    0  0.00000000000E+00  0.00000000000E+00  0.41104236170E+03  0.41104236170E+03  0.00000000000E+00 0.  1.
         -2   -1    0    0    0  501 -0.00000000000E+00 -0.00000000000E+00 -0.12670786318E+01  0.12670786318E+01  0.00000000000E+00 0. -1.
         21    1    1    2  502  503  0.43722789787E+01 -0.21477090875E+02  0.14744191308E+03  0.14906206757E+03  0.00000000000E+00 0. -1.
         21    1    1    2  503  501 -0.43722789787E+01  0.21477090875E+02  0.26233336999E+03  0.26324737276E+03  0.00000000000E+00 0.  1.
</event>
<event>
 4    1  0.5740469E+002  0.2542506E+02  0.7546771E-02  0.1464104E+00
          2   -1    0    0  502    0  0.00000000000E+00  0.00000000000E+00  0.39815477066E+03  0.39815477066E+03  0.00000000000E+00 0.  1.
         -2   -1    0    0    0  501 -0.00000000000E+00 -0.00000000000E+00 -0.15358646661E+02  0.15358646661E+02  0.00000000000E+00 0. -1.
         21    1    1    2  502  503 -0.22495951519E+02  0.11847606107E+02  0.38692140821E+03  0.38775586357E+03  0.00000000000E+00 0.  1.
         21    1    1    2  503  501  0.22495951519E+02 -0.11847606107E+02 -0.41252842091E+01  0.25757553747E+02  0.00000000000E+00 0. -1.
</event>
<event>
 4    1  0.5740469E+002  0.2058760E+02  0.7546771E-02  0.1525235E+00
          2   -1    0    0  503    0  0.00000000000E+00  0.00000000000E+00  0.19986137688E+03  0.19986137688E+03  0.00000000000E+00 0. -1.
         -2   -1    0    0    0  501 -0.00000000000E+00 -0.00000000000E+00 -0.64955352150E+01  0.64955352150E+01  0.00000000000E+00 0.  1.
         21    1    1    2  502  501 -0.18883554083E+02 -0.82012592201E+01  0.12006674505E+02  0.23832949886E+02  0.00000000000E+00 0.  1.
         21    1    1    2  503  502  0.18883554083E+02  0.82012592201E+01  0.18135916716E+03  0.18252396221E+03  0.00000000000E+00 0. -1.
</event>
<event>
 4    1  0.5740469E+002  0.2151644E+02  0.7546771E-02  0.1512018E+00
          2   -1    0    0  503    0  0.00000000000E+00  0.00000000000E+00  0.61033654563E+01  0.61033654563E+01  0.00000000000E+00 0.  1.
         -2   -1    0    0    0  501 -0.00000000000E+00 -0.00000000000E+00 -0.10271103280E+03  0.10271103280E+03  0.00000000000E+00 0. -1.
         21    1    1    2  502  501 -0.27604538481E+01 -0.21338633841E+02 -0.76125714402E+02  0.79108038737E+02  0.00000000000E+00 0. -1.
         21    1    1    2  503  502  0.27604538481E+01  0.21338633841E+02 -0.20481952946E+02  0.29706359524E+02  0.00000000000E+00 0.  1.
</event>
<event>
 4    1  0.5740469E+002  0.2191841E+02  0.7546771E-02  0.1506545E+00
          2   -1    0    0  502    0  0.00000000000E+00  0.00000000000E+00  0.14637572939E+03  0.14637572939E+03  0.00000000000E+00 0. -1.
         -2   -1    0    0    0  501 -0.00000000000E+00 -0.00000000000E+00 -0.33906990306E+01  0.33906990306E+01  0.00000000000E+00 0.  1.
         21    1    1    2  502  503  0.93328109009E+01 -0.19832181151E+02  0.84895267252E+02  0.87679091979E+02  0.00000000000E+00 0. -1.
         21    1    1    2  503  501 -0.93328109009E+01  0.19832181151E+02  0.58089763107E+02  0.62087336441E+02  0.00000000000E+00 0.  1.
</event>
<event>
 4    1  0.5740469E+002  0.2015363E+02  0.7546771E-02  0.1531700E+00
          2   -1    0    0  503    0  0.00000000000E+00  0.00000000000E+00  0.59164170684E+02  0.59164170684E+02  0.00000000000E+00 0. -1.
         -2   -1    0    0    0  501 -0.00000000000E+00 -0.00000000000E+00 -0.11743353814E+02  0.11743353814E+02  0.00000000000E+00 0.  1.
         21    1    1    2  502  501  0.44406879239E+01  0.19658313614E+02  0.85980583073E+00  0.20171967416E+02  0.00000000000E+00 0.  1.
         21    1    1    2  503  502 -0.44406879239E+01 -0.19658313614E+02  0.46561011039E+02  0.50735557081E+02  0.00000000000E+00 0. -1.
</event>
<event>
 4    1  0.5740469E+002  0.2137069E+02  0.7546771E-02  0.1514038E+00
          2   -1    0    0  503    0  0.00000000000E+00  0.00000000000E+00  0.11175844046E+04  0.11175844046E+04  0.00000000000E+00 0.  1.
         -2   -1    0    0    0  501 -0.00000000000E+00 -0.00000000000E+00 -0.17520086153E+01  0.17520086153E+01  0.00000000000E+00 0. -1.
         21    1    1    2  502  501 -0.12836237108E+02  0.17086178764E+02  0.67846683820E+02  0.71132826411E+02  0.00000000000E+00 0. -1.
         21    1    1    2  503  502  0.12836237108E+02 -0.17086178764E+02  0.10479857121E+04  0.10482035868E+04  0.00000000000E+00 0.  1.
</event>
<event>
 4    1  0.5740469E+002  0.2469223E+02  0.7546771E-02  0.1472276E+00
          2   -1    0    0  502    0  0.00000000000E+00  0.00000000000E+00  0.19493296443E+03  0.19493296443E+03  0.00000000000E+00 0.  1.
         -2   -1    0    0    0  501 -0.00000000000E+00 -0.00000000000E+00 -0.31313190989E+01  0.31313190989E+01  0.00000000000E+00 0. -1.
         21    1    1    2  502  503  0.20967056604E+02  0.13041815536E+02  0.99232610108E+02  0.10225858069E+03  0.00000000000E+00 0. -1.
         21    1    1    2  503  501 -0.20967056604E+02 -0.13041815536E+02  0.92569035227E+02  0.95805702847E+02  0.00000000000E+00 0.  1.
</event>
<event>
 4    1  0.5740469E+002  0.2129661E+02  0.7546771E-02  0.1515072E+00
          2   -1    0    0  502    0  0.00000000000E+00  0.00000000000E+00  0.11237351642E+03  0.11237351642E+03  0.00000000000E+00 0.  1.
         -2   -1    0    0    0  501 -0.00000000000E+00 -0.00000000000E+00 -0.73928186820E+01  0.73928186820E+01  0.00000000000E+00 0. -1.
         21    1    1    2  502  503 -0.16523012973E+02  0.13436351786E+02  0.92841899453E+02  0.95253156384E+02  0.00000000000E+00 0.  1.
         21    1    1    2  503  501  0.16523012973E+02 -0.13436351786E+02  0.12138798283E+02  0.24513178716E+02  0.00000000000E+00 0. -1.
</event>
<event>
 4    1  0.5740469E+002  0.8866706E+02  0.7546771E-02  0.1185042E+00
          2   -1    0    0  503    0  0.00000000000E+00  0.00000000000E+00  0.54009224322E+03  0.54009224322E+03  0.00000000000E+00 0. -1.
         -2   -1    0    0    0  501 -0.00000000000E+00 -0.00000000000E+00 -0.16470364144E+03  0.16470364144E+03  0.00000000000E+00 0.  1.
         21    1    1    2  502  501 -0.83941500206E+02  0.28559979578E+02 -0.14877102145E+03  0.17318967843E+03  0.00000000000E+00 0.  1.
         21    1    1    2  503  502  0.83941500206E+02 -0.28559979578E+02  0.52415962322E+03  0.53160620623E+03  0.00000000000E+00 0. -1.
</event>
<event>
 4    1  0.5740469E+002  0.2027132E+02  0.7546771E-02  0.1529928E+00
          2   -1    0    0  503    0  0.00000000000E+00  0.00000000000E+00  0.18243784914E+03  0.18243784914E+03  0.00000000000E+00 0.  1.
         -2   -1    0    0    0  501 -0.00000000000E+00 -0.00000000000E+00 -0.65167698681E+01  0.65167698681E+01  0.00000000000E+00 0. -1.
         21    1    1    2  502  501 -0.67356354219E+01  0.19119563003E+02  0.16438595210E+03  0.16563111942E+03  0.00000000000E+00 0.  1.
         21    1    1    2  503  502  0.67356354219E+01 -0.19119563003E+02  0.11535127172E+02  0.23323499584E+02  0.00000000000E+00 0. -1.
</event>
<event>
 4    1  0.5740469E+002  0.2371748E+02  0.7546771E-02  0.1483680E+00
          2   -1    0    0  502    0  0.00000000000E+00  0.00000000000E+00  0.16929426109E+03  0.16929426109E+03  0.00000000000E+00 0. -1.
         -2   -1    0    0    0  501 -0.00000000000E+00 -0.00000000000E+00 -0.21123300692E+02  0.21123300692E+02  0.00000000000E+00 0.  1.
         21    1    1    2  502  503 -0.17653559309E+02  0.15838893016E+02  0.16148581732E+03  0.16321822166E+03  0.00000000000E+00 0. -1.
         21    1    1    2  503  501  0.17653559309E+02 -0.15838893016E+02 -0.13314856918E+02  0.27199340121E+02  0.00000000000E+00 0.  1.
</event>
<event>
 4    1  0.5740469E+002  0.3907538E+02  0.7546771E-02  0.1353991E+00
          2   -1    0    0  503    0  0.00000000000E+00  0.00000000000E+00  0.82616222489E+01  0.82616222489E+01  0.00000000000E+00 0. -1.
         -2   -1    0    0    0  501 -0.00000000000E+00 -0.00000000000E+00 -0.34063216492E+03  0.34063216492E+03  0.00000000000E+00 0.  1.
         21    1    1    2  502  501 -0.11723068419E+02 -0.37275388931E+02 -0.28417000841E+03  0.28684399703E+03  0.00000000000E+00 0.  1.
         21    1    1    2  503  502  0.11723068419E+02  0.37275388931E+02 -0.48200534261E+02  0.62049790137E+02  0.00000000000E+00 0. -1.
</event>
<event>
 4    1  0.5740469E+002  0.2575212E+02  0.7546771E-02  0.1460563E+00
          2   -1    0    0  503    0  0.00000000000E+00  0.00000000000E+00  0.39269233668E+03  0.39269233668E+03  0.00000000000E+00 0.  1.
         -2   -1    0    0    0  501 -0.00000000000E+00 -0.00000000000E+00 -0.35482429052E+01  0.35482429052E+01  0.00000000000E+00 0. -1.
         21    1    1    2  502  501  0.17480927592E+02  0.18910022694E+02  0.51150039211E+02  0.57266904046E+02  0.00000000000E+00 0. -1.
         21    1    1    2  503  502 -0.17480927592E+02 -0.18910022694E+02  0.33799405456E+03  0.33897367554E+03  0.00000000000E+00 0.  1.
</event>
<event>
 4    1  0.5740469E+002  0.3838850E+02  0.7546771E-02  0.1358197E+00
          2   -1    0    0  502    0  0.00000000000E+00  0.00000000000E+00  0.18162844327E+04  0.18162844327E+04  0.00000000000E+00 0.  1.
         -2   -1    0    0    0  501 -0.00000000000E+00 -0.00000000000E+00 -0.68127711783E+01  0.68127711783E+01  0.00000000000E+00 0. -1.
         21    1    1    2  502  503  0.38161100896E+02 -0.41722132324E+01  0.17602836563E+04  0.17607021973E+04  0.00000000000E+00 0.  1.
         21    1    1    2  503  501 -0.38161100896E+02  0.41722132324E+01  0.49188005155E+02  0.62395006499E+02  0.00000000000E+00 0. -1.
</event>
<event>
 4    1  0.5740469E+002  0.2235606E+02  0.7546771E-02  0.1500746E+00
          2   -1    0    0  502    0  0.00000000000E+00  0.00000000000E+00  0.19657995096E+01  0.19657995096E+01  0.00000000000E+00 0.  1.
         -2   -1    0    0    0  501 -0.00000000000E+00 -0.00000000000E+00 -0.33840554096E+03  0.33840554096E+03  0.00000000000E+00 0. -1.
         21    1    1    2  502  503  0.15650662947E+02 -0.15964023185E+02 -0.83348666251E+02  0.86294805480E+02  0.00000000000E+00 0.  1.
         21    1    1    2  503  501 -0.15650662947E+02  0.15964023185E+02 -0.25309107520E+03  0.25407653499E+03  0.00000000000E+00 0. -1.
</event>
<event>
 4    1  0.5740469E+002  0.2146630E+02  0.7546771E-02  0.1512710E+00
          2   -1    0    0  503    0  0.00000000000E+00  0.00000000000E+00  0.55903524032E+01  0.55903524032E+01  0.00000000000E+00 0. -1.
         -2   -1    0    0    0  501 -0.00000000000E+00 -0.00000000000E+00 -0.11555562747E+03  0.11555562747E+03  0.00000000000E+00 0.  1.
         21    1    1    2  502  501 -0.14119411957E+02  0.16169244101E+02 -0.87414943592E+02  0.90012080367E+02  0.00000000000E+00 0.  1.
         21    1    1    2  503  502  0.14119411957E+02 -0.16169244101E+02 -0.22550331473E+02  0.31133899505E+02  0.00000000000E+00 0. -1.
</event>
<event>
 4    1  0.5740469E+002  0.3487573E+02  0.7546771E-02  0.1381439E+00
          2   -1    0    0  503    0  0.00000000000E+00  0.00000000000E+00  0.14124316547E+04  0.14124316547E+04  0.00000000000E+00 0. -1.
         -2   -1    0    0    0  501 -0.00000000000E+00 -0.00000000000E+00 -0.89350750132E+00  0.89350750132E+00  0.00000000000E+00 0.  1.
         21    1    1    2  502  501  0.24538540904E+02  0.24782589049E+02  0.84024508744E+03  0.84096856284E+03  0.00000000000E+00 0. -1.
         21    1    1    2  503  502 -0.24538540904E+02 -0.24782589049E+02  0.57129305971E+03  0.57235659932E+03  0.00000000000E+00 0.  1.
</event>
<event>
 4    1  0.5740469E+002  0.3745408E+02  0.7546771E-02  0.1364087E+00
          2   -1    0    0  502    0  0.00000000000E+00  0.00000000000E+00  0.13935605780E+04  0.13935605780E+04  0.00000000000E+00 0.  1.
         -2   -1    0    0    0  501 -0.00000000000E+00 -0.00000000000E+00 -0.11939986778E+01  0.11939986778E+01  0.00000000000E+00 0. -1.
         21    1    1    2  502  503  0.21385492219E+01 -0.37392977740E+02  0.41992998859E+03  0.42159696808E+03  0.00000000000E+00 0.  1.
         21    1    1    2  503  501 -0.21385492219E+01  0.37392977740E+02  0.97243659069E+03  0.97315760856E+03  0.00000000000E+00 0. -1.
</event>
<event>
 4    1  0.5740469E+002  0.3891612E+02  0.7546771E-02  0.1354957E+00
          2   -1    0    0  502    0  0.00000000000E+00  0.00000000000E+00  0.13311703074E+04  0.13311703074E+04  0.00000000000E+00 0.  1.
         -2   -1    0    0    0  501 -0.00000000000E+00 -0.00000000000E+00 -0.12556033779E+01  0.12556033779E+01  0.00000000000E+00 0. -1.
         21    1    1    2  502  503  0.27790012398E+02  0.27242972462E+02  0.86911290431E+03  0.86998373823E+03  0.00000000000E+00 0.  1.
         21    1    1    2  503  501 -0.27790012398E+02 -0.27242972462E+02  0.46080179973E+03  0.46244217257E+03  0.00000000000E+00 0. -1.
</event>
<event>
 4    1  0.5740469E+002  0.2106851E+02  0.7546771E-02  0.1518289E+00
          2   -1    0    0  502    0  0.00000000000E+00  0.00000000000E+00  0.23764284651E+02  0.23764284651E+02  0.00000000000E+00 0.  1.
         -2   -1    0    0    0  501 -0.00000000000E+00 -0.00000000000E+00 -0.45810792390E+02  0.45810792390E+02  0.00000000000E+00 0. -1.
         21    1    1    2  502  503  0.14949145485E+02  0.14846055316E+02  0.15748860152E+02  0.26304161368E+02  0.00000000000E+00 0.  1.
         21    1    1    2  503  501 -0.14949145485E+02 -0.14846055316E+02 -0.37795367891E+02  0.43270915673E+02  0.00000000000E+00 0. -1.
</event>
<event>
 4    1  0.5740469E+002  0.3903661E+02  0.7546771E-02  0.1354226E+00
          2   -1    0    0  502    0  0.00000000000E+00  0.00000000000E+00  0.13043893127E+03  0.13043893127E+03  0.00000000000E+00 0. -1.
         -2   -1    0    0    0  501 -0.00000000000E+00 -0.00000000000E+00 -0.12545765815E+02  0.12545765815E+02  0.00000000000E+00 0.  1.
         21    1    1    2  502  503 -0.35859886417E+02  0.15424839240E+02  0.77699763748E+02  0.86954645683E+02  0.00000000000E+00 0. -1.
         21    1    1    2  503  501  0.35859886417E+02 -0.15424839240E+02  0.40193401712E+02  0.56030051406E+02  0.00000000000E+00 0.  1.
</event>
<event>
 4    1  0.5740469E+002  0.2668512E+02  0.7546771E-02  0.1450797E+00
          2   -1    0    0  503    0  0.00000000000E+00  0.00000000000E+00  0.53538395704E+02  0.53538395704E+02  0.00000000000E+00 0. -1.
         -2   -1    0    0    0  501 -0.00000000000E+00 -0.00000000000E+00 -0.94183598750E+02  0.94183598750E+02  0.00000000000E+00 0.  1.
         21    1    1    2  502  501  0.18208229487E+02  0.19507850297E+02 -0.88769850133E+02  0.92694024279E+02  0.00000000000E+00 0.  1.
         21    1    1    2  503  502 -0.18208229487E+02 -0.19507850297E+02  0.48124647087E+02  0.55027970175E+02  0.00000000000E+00 0. -1.
</event>
<event>
 4    1  0.5740469E+002  0.4157219E+02  0.7546771E-02  0.1339511E+00
          2   -1    0    0  502    0  0.00000000000E+00  0.00000000000E+00  0.62704933034E+01  0.62704933034E+01  0.00000000000E+00 0.  1.
         -2   -1    0    0    0  501 -0.00000000000E+00 -0.00000000000E+00 -0.57854547743E+03  0.57854547743E+03  0.00000000000E+00 0. -1.
         21    1    1    2  502  503  0.35377845397E+02  0.21832439100E+02 -0.74549336680E+02  0.85357196190E+02  0.00000000000E+00 0.  1.
         21    1    1    2  503  501 -0.35377845397E+02 -0.21832439100E+02 -0.49772564745E+03  0.49945877455E+03  0.00000000000E+00 0. -1.
</event>
<event>
 4    1  0.5740469E+002  0.2104835E+02  0.7546771E-02  0.1518576E+00
          2   -1    0    0  502    0  0.00000000000E+00  0.00000000000E+00  0.33306937840E+02  0.33306937840E+02  0.00000000000E+00 0. -1.
         -2   -1    0    0    0  501 -0.00000000000E+00 -0.00000000000E+00 -0.11892622171E+03  0.11892622171E+03  0.00000000000E+00 0.  1.
         21    1    1    2  502  503 -0.20783538228E+01  0.20945490407E+02  0.28924050874E+02  0.35771970060E+02  0.00000000000E+00 0. -1.
         21    1    1    2  503  501  0.20783538228E+01 -0.20945490407E+02 -0.11454333474E+03  0.11646118949E+03  0.00000000000E+00 0.  1.
</event>
<event>
 4    1  0.5740469E+002  0.3181924E+02  0.7546771E-02  0.1404419E+00
          2   -1    0    0  503    0  0.00000000000E+00  0.00000000000E+00  0.15182859913E+04  0.15182859913E+04  0.00000000000E+00 0. -1.
         -2   -1    0    0    0  501 -0.00000000000E+00 -0.00000000000E+00 -0.85414855097E+00  0.85414855097E+00  0.00000000000E+00 0.  1.
         21    1    1    2  502  501 -0.30870206512E+02  0.77132470491E+01  0.40302538874E+03  0.40427951691E+03  0.00000000000E+00 0. -1.
         21    1    1    2  503  502  0.30870206512E+02 -0.77132470491E+01  0.11144064540E+04  0.11148606229E+04  0.00000000000E+00 0.  1.
</event>
<event>
 4    1  0.5740469E+002  0.2137974E+02  0.7546771E-02  0.1513912E+00
          2   -1    0    0  503    0  0.00000000000E+00  0.00000000000E+00  0.38324909636E+03  0.38324909636E+03  0.00000000000E+00 0. -1.
         -2   -1    0    0    0  501 -0.00000000000E+00 -0.00000000000E+00 -0.45779754784E+01  0.45779754784E+01  0.00000000000E+00 0.  1.
         21    1    1    2  502  501  0.83160918687E+01  0.19696087047E+02  0.22584065578E+02  0.31098766004E+02  0.00000000000E+00 0.  1.
         21    1    1    2  503  502 -0.83160918687E+01 -0.19696087047E+02  0.35608705531E+03  0.35672830584E+03  0.00000000000E+00 0. -1.
</event>
<event>
 4    1  0.5740469E+002  0.4740692E+02  0.7546771E-02  0.1309824E+00
          2   -1    0    0  502    0  0.00000000000E+00  0.00000000000E+00  0.10081968360E+04  0.10081968360E+04  0.00000000000E+00 0.  1.
         -2   -1    0    0    0  501 -0.00000000000E+00 -0.00000000000E+00 -0.29656408469E+01  0.29656408469E+01  0.00000000000E+00 0. -1.
         21    1    1    2  502  503 -0.19168424086E+02  0.43358824592E+02  0.75456715798E+03  0.75605490016E+03  0.00000000000E+00 0.  1.
         21    1    1    2  503  501  0.19168424086E+02 -0.43358824592E+02  0.25066403718E+03  0.25510757670E+03  0.00000000000E+00 0. -1.
</event>
<event>
 4    1  0.5740469E+002  0.2172332E+02  0.7546771E-02  0.1509183E+00
          2   -1    0    0  502    0  0.00000000000E+00  0.00000000000E+00  0.17958515677E+03  0.17958515677E+03  0.00000000000E+00 0.  1.
         -2   -1    0    0    0  501 -0.00000000000E+00 -0.00000000000E+00 -0.39612633471E+01  0.39612633471E+01  0.00000000000E+00 0. -1.
         21    1    1    2  502  503 -0.52376259956E+01  0.21082453105E+02  0.14105952624E+03  0.14272243166E+03  0.00000000000E+00 0.  1.
         21    1    1    2  503  501  0.52376259956E+01 -0.21082453105E+02  0.34564367179E+02  0.40823988456E+02  0.00000000000E+00 0. -1.
</event>
<event>
 4    1  0.5740469E+002  0.2393806E+02  0.7546771E-02  0.1481043E+00
          2   -1    0    0  503    0  0.00000000000E+00  0.00000000000E+00  0.46354464120E+03  0.46354464120E+03  0.00000000000E+00 0. -1.
         -2   -1    0    0    0  501 -0.00000000000E+00 -0.00000000000E+00 -0.15270568975E+01  0.15270568975E+01  0.00000000000E+00 0.  1.
         21    1    1    2  502  501 -0.16182996621E+01 -0.23883292996E+02  0.12952251615E+03  0.13171603079E+03  0.00000000000E+00 0.  1.
         21    1    1    2  503  502  0.16182996621E+01  0.23883292996E+02  0.33249506815E+03  0.33335566730E+03  0.00000000000E+00 0. -1.
</event>
<event>
 4    1  0.5740469E+002  0.2869003E+02  0.7546771E-02  0.1431332E+00
          2   -1    0    0  502    0  0.00000000000E+00  0.00000000000E+00  0.23568430773E+04  0.23568430773E+04  0.00000000000E+00 0. -1.
         -2   -1    0    0    0  501 -0.00000000000E+00 -0.00000000000E+00 -0.36249919803E+00  0.36249919803E+00  0.00000000000E+00 0.  1.
         21    1    1    2  502  503 -0.11165493456E+02  0.26428200519E+02  0.14035989312E+04  0.14038921175E+04  0.00000000000E+00 0. -1.
         21    1    1    2  503  501  0.11165493456E+02 -0.26428200519E+02  0.95288164690E+03  0.95331345895E+03  0.00000000000E+00 0.  1.
</event>
<event>
 4    1  0.5740469E+002  0.4269807E+02  0.7546771E-02  0.1333361E+00
          2   -1    0    0  503    0  0.00000000000E+00  0.00000000000E+00  0.41608428498E+01  0.41608428498E+01  0.00000000000E+00 0.  1.
         -2   -1    0    0    0  501 -0.00000000000E+00 -0.00000000000E+00 -0.10646904339E+04  0.10646904339E+04  0.00000000000E+00 0. -1.
         21    1    1    2  502  501  0.38486372481E+02 -0.18491198216E+02 -0.94022889795E+03  0.94119791002E+03  0.00000000000E+00 0. -1.
         21    1    1    2  503  502 -0.38486372481E+02  0.18491198216E+02 -0.12030069311E+03  0.12765336674E+03  0.00000000000E+00 0.  1.
</event>
<event>
 4    1  0.5740469E+002  0.2249288E+02  0.7546771E-02  0.1498966E+00
          2   -1    0    0  502    0  0.00000000000E+00  0.00000000000E+00  0.91899342573E+03  0.91899342573E+03  0.00000000000E+00 0. -1.
         -2   -1    0    0    0  501 -0.00000000000E+00 -0.00000000000E+00 -0.12243236989E+01  0.12243236989E+01  0.00000000000E+00 0.  1.
         21    1    1    2  502  503 -0.90694782461E+01 -0.20583350407E+02  0.80021674528E+03  0.80053280331E+03  0.00000000000E+00 0. -1.
         21    1    1    2  503  501  0.90694782461E+01  0.20583350407E+02  0.11755235675E+03  0.11968494612E+03  0.00000000000E+00 0.  1.
</event>
<event>
 4    1  0.5740469E+002  0.3294364E+02  0.7546771E-02  0.1395626E+00
          2   -1    0    0  503    0  0.00000000000E+00  0.00000000000E+00  0.17866940078E+03  0.17866940078E+03  0.00000000000E+00 0. -1.
         -2   -1    0    0    0  501 -0.00000000000E+00 -0.00000000000E+00 -0.98699054983E+02  0.98699054983E+02  0.00000000000E+00 0.  1.
         21    1    1    2  502  501  0.16342088271E+02 -0.28604537185E+02 -0.94363759193E+02  0.99948999223E+02  0.00000000000E+00 0.  1.
         21    1    1    2  503  502 -0.16342088271E+02  0.28604537185E+02  0.17433410499E+03  0.17741945654E+03  0.00000000000E+00 0. -1.
</event>
<event>
 4    1  0.5740469E+002  0.2195503E+02  0.7546771E-02  0.1506054E+00
          2   -1    0    0  502    0  0.00000000000E+00  0.00000000000E+00  0.84709215806E+03  0.84709215806E+03  0.00000000000E+00 0.  1.
         -2   -1    0    0    0  501 -0.00000000000E+00 -0.00000000000E+00 -0.12783574548E+01  0.12783574548E+01  0.00000000000E+00 0. -1.
         21    1    1    2  502  503 -0.84409715367E+01  0.20267540598E+02  0.73888133946E+03  0.73920745194E+03  0.00000000000E+00 0.  1.
         21    1    1    2  503  501  0.84409715367E+01 -0.20267540598E+02  0.10693246115E+03  0.10916306358E+03  0.00000000000E+00 0. -1.
</event>
<event>
 4    1  0.5740469E+002  0.2382085E+02  0.7546771E-02  0.1482440E+00
          2   -1    0    0  503    0  0.00000000000E+00  0.00000000000E+00  0.22399875941E+03  0.22399875941E+03  0.00000000000E+00 0. -1.
         -2   -1    0    0    0  501 -0.00000000000E+00 -0.00000000000E+00 -0.70489293629E+01  0.70489293629E+01  0.00000000000E+00 0.  1.
         21    1    1    2  502  501 -0.11860654570E+02 -0.20658116464E+02  0.16010597493E+02  0.28701430883E+02  0.00000000000E+00 0.  1.
         21    1    1    2  503  502  0.11860654570E+02  0.20658116464E+02  0.20093923255E+03  0.20234625789E+03  0.00000000000E+00 0. -1.
</event>
<event>
 4    1  0.5740469E+002  0.2287726E+02  0.7546771E-02  0.1494045E+00
          2   -1    0    0  503    0  0.00000000000E+00  0.00000000000E+00  0.53946284025E+03  0.53946284025E+03  0.00000000000E+00 0. -1.
         -2   -1    0    0    0  501 -0.00000000000E+00 -0.00000000000E+00 -0.23570245726E+01  0.23570245726E+01  0.00000000000E+00 0.  1.
         21    1    1    2  502  501  0.22113288295E+02  0.58627075848E+01  0.60746536968E+02  0.64911559934E+02  0.00000000000E+00 0.  1.
         21    1    1    2  503  502 -0.22113288295E+02 -0.58627075848E+01  0.47635927871E+03  0.47690830489E+03  0.00000000000E+00 0. -1.
</event>
<event>
 4    1  0.5740469E+002  0.2737428E+02  0.7546771E-02  0.1443884E+00
          2   -1    0    0  502    0  0.00000000000E+00  0.00000000000E+00  0.45315735533E+02  0.45315735533E+02  0.00000000000E+00 0. -1.
         -2   -1    0    0    0  501 -0.00000000000E+00 -0.00000000000E+00 -0.19680212610E+02  0.19680212610E+02  0.00000000000E+00 0.  1.
         21    1    1    2  502  503 -0.18296637560E+02  0.20361345559E+02  0.25806937245E+02  0.37621129023E+02  0.00000000000E+00 0. -1.
         21    1    1    2  503  501  0.18296637560E+02 -0.20361345559E+02 -0.17141432282E+00  0.27374819120E+02  0.00000000000E+00 0.  1.
</event>
<event>
 4    1  0.5740469E+002  0.3966430E+02  0.7546771E-02  0.1350464E+00
          2   -1    0    0  502    0  0.00000000000E+00  0.00000000000E+00  0.12610519608E+04  0.12610519608E+04  0.00000000000E+00 0.  1.
         -2   -1    0    0    0  501 -0.00000000000E+00 -0.00000000000E+00 -0.17820473675E+01  0.17820473675E+01  0.00000000000E+00 0. -1.
         21    1    1    2  502  503 -0.38543975202E+02  0.93604968205E+01  0.97543040463E+03  0.97623651397E+03  0.00000000000E+00 0.  1.
         21    1    1    2  503  501  0.38543975202E+02 -0.93604968205E+01  0.28383950881E+03  0.28659749421E+03  0.00000000000E+00 0. -1.
</event>
<event>
 4    1  0.5740469E+002  0.5308083E+02  0.7546771E-02  0.1285340E+00
          2   -1    0    0  503    0  0.00000000000E+00  0.00000000000E+00  0.30135587953E+03  0.30135587953E+03  0.00000000000E+00 0.  1.
         -2   -1    0    0    0  501 -0.00000000000E+00 -0.00000000000E+00 -0.52456852501E+02  0.52456852501E+02  0.00000000000E+00 0. -1.
         21    1    1    2  502  501  0.45571242664E+02  0.27218302777E+02 -0.35918308384E+02  0.64091333588E+02  0.00000000000E+00 0. -1.
         21    1    1    2  503  502 -0.45571242664E+02 -0.27218302777E+02  0.28481733541E+03  0.28972139844E+03  0.00000000000E+00 0.  1.
</event>
<event>
 4    1  0.5740469E+002  0.3317943E+02  0.7546771E-02  0.1393835E+00
          2   -1    0    0  503    0  0.00000000000E+00  0.00000000000E+00  0.33124707359E+04  0.33124707359E+04  0.00000000000E+00 0.  1.
         -2   -1    0    0    0  501 -0.00000000000E+00 -0.00000000000E+00 -0.33571561467E+00  0.33571561467E+00  0.00000000000E+00 0. -1.
         21    1    1    2  502  501  0.14583238638E+02  0.29802748098E+02  0.18221022632E+04  0.18224043273E+04  0.00000000000E+00 0.  1.
         21    1    1    2  503  502 -0.14583238638E+02 -0.29802748098E+02  0.14900327570E+04  0.14904021241E+04  0.00000000000E+00 0. -1.
</event>
<event>
 4    1  0.5740469E+002  0.2663689E+02  0.7546771E-02  0.1451290E+00
          2   -1    0    0  503    0  0.00000000000E+00  0.00000000000E+00  0.19614147858E+04  0.19614147858E+04  0.00000000000E+00 0.  1.
         -2   -1    0    0    0  501 -0.00000000000E+00 -0.00000000000E+00 -0.11751297716E+01  0.11751297716E+01  0.00000000000E+00 0. -1.
         21    1    1    2  502  501  0.46678562997E+00  0.26632803860E+02  0.16371466733E+03  0.16586746645E+03  0.00000000000E+00 0. -1.
         21    1    1    2  503  502 -0.46678562997E+00 -0.26632803860E+02  0.17965249887E+04  0.17967224491E+04  0.00000000000E+00 0.  1.
</event>
<event>
 4    1  0.5740469E+002  0.2121516E+02  0.7546771E-02  0.1516215E+00
          2   -1    0    0  503    0  0.00000000000E+00  0.00000000000E+00  0.13537201273E+04  0.13537201273E+04  0.00000000000E+00 0. -1.
         -2   -1    0    0    0  501 -0.00000000000E+00 -0.00000000000E+00 -0.65427626469E+00  0.65427626469E+00  0.00000000000E+00 0.  1.
         21    1    1    2  502  501  0.21163495148E+02  0.14796667879E+01  0.20161384429E+03  0.20272697194E+03  0.00000000000E+00 0. -1.
         21    1    1    2  503  502 -0.21163495148E+02 -0.14796667879E+01  0.11514520068E+04  0.11516474316E+04  0.00000000000E+00 0.  1.
</event>
<event>
 4    1  0.5740469E+002  0.3986985E+02  0.7546771E-02  0.1349250E+00
          2   -1    0    0  503    0  0.00000000000E+00  0.00000000000E+00  0.66748451957E+03  0.66748451957E+03  0.00000000000E+00 0. -1.
         -2   -1    0    0    0  501 -0.00000000000E+00 -0.00000000000E+00 -0.33271682465E+01  0.33271682465E+01  0.00000000000E+00 0.  1.
         21    1    1    2  502  501  0.39233359269E+02 -0.70956747448E+01  0.15326289305E+03  0.15836388308E+03  0.00000000000E+00 0.  1.
         21    1    1    2  503  502 -0.39233359269E+02  0.70956747448E+01  0.51089445827E+03  0.51244780473E+03  0.00000000000E+00 0. -1.
</event>
<event>
 4    1  0.5740469E+002  0.3108219E+02  0.7546771E-02  0.1410420E+00
          2   -1    0    0  503    0  0.00000000000E+00  0.00000000000E+00  0.15847793209E+04  0.15847793209E+04  0.00000000000E+00 0.  1.
         -2   -1    0    0    0  501 -0.00000000000E+00 -0.00000000000E+00 -0.72685502905E+00  0.72685502905E+00  0.00000000000E+00 0. -1.
         21    1    1    2  502  501  0.66088607486E+01 -0.30371456998E+02  0.47363926751E+03  0.47465804340E+03  0.00000000000E+00 0. -1.
         21    1    1    2  503  502 -0.66088607486E+01  0.30371456998E+02  0.11104131984E+04  0.11108481326E+04  0.00000000000E+00 0.  1.
</event>
<event>
 4    1  0.5740469E+002  0.2219198E+02  0.7546771E-02  0.1502902E+00
          2   -1    0    0  503    0  0.00000000000E+00  0.00000000000E+00  0.64663553243E+03  0.64663553243E+03  0.00000000000E+00 0. -1.
         -2   -1    0    0    0  501 -0.00000000000E+00 -0.00000000000E+00 -0.24978400854E+01  0.24978400854E+01  0.00000000000E+00 0.  1.
         21    1    1    2  502  501  0.22144734696E+02 -0.14473039970E+01  0.51470406031E+02  0.56050750759E+02  0.00000000000E+00 0.  1.
         21    1    1    2  503  502 -0.22144734696E+02  0.14473039970E+01  0.59266728632E+03  0.59308262176E+03  0.00000000000E+00 0. -1.
</event>
<event>
 4    1  0.5740469E+002  0.2669754E+02  0.7546771E-02  0.1450670E+00
          2   -1    0    0  502    0  0.00000000000E+00  0.00000000000E+00  0.40848272253E+01  0.40848272253E+01  0.00000000000E+00 0.  1.
         -2   -1    0    0    0  501 -0.00000000000E+00 -0.00000000000E+00 -0.27762015240E+03  0.27762015240E+03  0.00000000000E+00 0. -1.
         21    1    1    2  502  503  0.25475916270E+02  0.79835183424E+01 -0.50919062357E+02  0.57493562998E+02  0.00000000000E+00 0.  1.
         21    1    1    2  503  501 -0.25475916270E+02 -0.79835183424E+01 -0.22261626282E+03  0.22421141663E+03  0.00000000000E+00 0. -1.
</event>
<event>
 4    1  0.5740469E+002  0.2994546E+02  0.7546771E-02  0.1420071E+00
          2   -1    0    0  502    0  0.00000000000E+00  0.00000000000E+00  0.43488537635E+03  0.43488537635E+03  0.00000000000E+00 0. -1.
         -2   -1    0    0    0  501 -0.00000000000E+00 -0.00000000000E+00 -0.37586864508E+01  0.37586864508E+01  0.00000000000E+00 0.  1.
         21    1    1    2  502  503  0.65788558741E+01  0.29213857683E+02  0.36291867058E+03  0.36415201809E+03  0.00000000000E+00 0. -1.
         21    1    1    2  503  501 -0.65788558741E+01 -0.29213857683E+02  0.68208019317E+02  0.74492044707E+02  0.00000000000E+00 0.  1.
</event>
<event>
 4    1  0.5740469E+002  0.4132763E+02  0.7546771E-02  0.1340877E+00
          2   -1    0    0  503    0  0.00000000000E+00  0.00000000000E+00  0.41283498325E+03  0.41283498325E+03  0.00000000000E+00 0.  1.
         -2   -1    0    0    0  501 -0.00000000000E+00 -0.00000000000E+00 -0.85439590833E+01  0.85439590833E+01  0.00000000000E+00 0. -1.
         21    1    1    2  502  501  0.28588784244E+02  0.29843831834E+02  0.50833340796E+02  0.65513368251E+02  0.00000000000E+00 0. -1.
         21    1    1    2  503  502 -0.28588784244E+02 -0.29843831834E+02  0.35345768337E+03  0.35586557408E+03  0.00000000000E+00 0.  1.
</event>
<event>
 4    1  0.5740469E+002  0.2398488E+02  0.7546771E-02  0.1480488E+00
          2   -1    0    0  503    0  0.00000000000E+00  0.00000000000E+00  0.83060233870E+03  0.83060233870E+03  0.00000000000E+00 0.  1.
         -2   -1    0    0    0  501 -0.00000000000E+00 -0.00000000000E+00 -0.11370122532E+01  0.11370122532E+01  0.00000000000E+00 0. -1.
         21    1    1    2  502  501 -0.49909941650E+01  0.23459845281E+02  0.15473576095E+03  0.15658362009E+03  0.00000000000E+00 0. -1.
         21    1    1    2  503  502  0.49909941650E+01 -0.23459845281E+02  0.67472956550E+03  0.67515573086E+03  0.00000000000E+00 0.  1.
</event>
<event>
 4    1  0.5740469E+002  0.2962731E+02  0.7546771E-02  0.1422863E+00
          2   -1    0    0  503    0  0.00000000000E+00  0.00000000000E+00  0.11832515221E+04  0.11832515221E+04  0.00000000000E+00 0.  1.
         -2   -1    0    0    0  501 -0.00000000000E+00 -0.00000000000E+00 -0.17363550086E+01  0.17363550086E+01  0.00000000000E+00 0. -1.
         21    1    1    2  502  501  0.55109626087E-01 -0.29627257481E+02  0.14235159234E+03  0.14540204010E+03  0.00000000000E+00 0. -1.
         21    1    1    2  503  502 -0.55109626087E-01  0.29627257481E+02  0.10391635748E+04  0.10395858370E+04  0.00000000000E+00 0.  1.
</event>
<event>
 4    1  0.5740469E+002  0.2044684E+02  0.7546771E-02  0.1527311E+00
          2   -1    0    0  502    0  0.00000000000E+00  0.00000000000E+00  0.16173783694E+03  0.16173783694E+03  0.00000000000E+00 0. -1.
         -2   -1    0    0    0  501 -0.00000000000E+00 -0.00000000000E+00 -0.25848927002E+01  0.25848927002E+01  0.00000000000E+00 0.  1.
         21    1    1    2  502  503 -0.20477773490E+01  0.20344040049E+02  0.79415919023E+02  0.82005862911E+02  0.00000000000E+00 0.  1.
         21    1    1    2  503  501  0.20477773490E+01 -0.20344040049E+02  0.79737025215E+02  0.82316866727E+02  0.00000000000E+00 0. -1.
</event>
<event>
 4    1  0.5740469E+002  0.2147399E+02  0.7546771E-02  0.1512604E+00
          2   -1    0    0  503    0  0.00000000000E+00  0.00000000000E+00  0.35176633607E+02  0.35176633607E+02  0.00000000000E+00 0. -1.
         -2   -1    0    0    0  501 -0.00000000000E+00 -0.00000000000E+00 -0.13328779398E+02  0.13328779398E+02  0.00000000000E+00 0.  1.
         21    1    1    2  502  501  0.18678439059E+02 -0.10594728285E+02  0.78100162643E+01  0.22850135824E+02  0.00000000000E+00 0.  1.
         21    1    1    2  503  502 -0.18678439059E+02  0.10594728285E+02  0.14037837945E+02  0.25655277182E+02  0.00000000000E+00 0. -1.
</event>
<event>
 4    1  0.5740469E+002  0.2111028E+02  0.7546771E-02  0.1517696E+00
          2   -1    0    0  503    0  0.00000000000E+00  0.00000000000E+00  0.31366897090E+02  0.31366897090E+02  0.00000000000E+00 0.  1.
         -2   -1    0    0    0  501 -0.00000000000E+00 -0.00000000000E+00 -0.73239800405E+02  0.73239800405E+02  0.00000000000E+00 0. -1.
         21    1    1    2  502  501  0.20090851874E+02 -0.64808533827E+01 -0.67893515968E+02  0.71099741913E+02  0.00000000000E+00 0. -1.
         21    1    1    2  503  502 -0.20090851874E+02  0.64808533827E+01  0.26020612653E+02  0.33506955583E+02  0.00000000000E+00 0.  1.
</event>
<event>
 4    1  0.5740469E+002  0.2503172E+02  0.7546771E-02  0.1468449E+00
          2   -1    0    0  503    0  0.00000000000E+00  0.00000000000E+00  0.88185040953E+02  0.88185040953E+02  0.00000000000E+00 0. -1.
         -2   -1    0    0    0  501 -0.00000000000E+00 -0.00000000000E+00 -0.78424302229E+01  0.78424302229E+01  0.00000000000E+00 0.  1.
         21    1    1    2  502  501  0.24637161027E+02 -0.44268636690E+01  0.25451794250E+02  0.35698468538E+02  0.00000000000E+00 0.  1.
         21    1    1    2  503  502 -0.24637161027E+02  0.44268636690E+01  0.54890816480E+02  0.60329002637E+02  0.00000000000E+00 0. -1.
</event>
<event>
 4    1  0.5740469E+002  0.3008953E+02  0.7546771E-02  0.1418820E+00
          2   -1    0    0  503    0  0.00000000000E+00  0.00000000000E+00  0.26647384783E+04  0.26647384783E+04  0.00000000000E+00 0.  1.
         -2   -1    0    0    0  501 -0.00000000000E+00 -0.00000000000E+00 -0.49504136074E+00  0.49504136074E+00  0.00000000000E+00 0. -1.
         21    1    1    2  502  501  0.25426610929E+02 -0.16089347357E+02  0.58577617621E+03  0.58654847051E+03  0.00000000000E+00 0. -1.
         21    1    1    2  503  502 -0.25426610929E+02  0.16089347357E+02  0.20784672607E+04  0.20786850491E+04  0.00000000000E+00 0.  1.
</event>
<event>
 4    1  0.5740469E+002  0.2449860E+02  0.7546771E-02  0.1474491E+00
          2   -1    0    0  502    0  0.00000000000E+00  0.00000000000E+00  0.16945799232E+04  0.16945799232E+04  0.00000000000E+00 0. -1.
         -2   -1    0    0    0  501 -0.00000000000E+00 -0.00000000000E+00 -0.39717777321E+00  0.39717777321E+00  0.00000000000E+00 0.  1.
         21    1    1    2  502  503  0.16012395408E+02  0.18541430833E+02  0.56823612829E+03  0.56876399232E+03  0.00000000000E+00 0.  1.
         21    1    1    2  503  501 -0.16012395408E+02 -0.18541430833E+02  0.11259466172E+04  0.11262131087E+04  0.00000000000E+00 0. -1.
</event>
<event>
 4    1  0.5740469E+002  0.5188648E+02  0.7546771E-02  0.1290194E+00
          2   -1    0    0  503    0  0.00000000000E+00  0.00000000000E+00  0.98607929040E+02  0.98607929040E+02  0.00000000000E+00 0.  1.
         -2   -1    0    0    0  501 -0.00000000000E+00 -0.00000000000E+00 -0.67210635931E+02  0.67210635931E+02  0.00000000000E+00 0. -1.
         21    1    1    2  502  501 -0.34203944482E+02  0.39016629879E+02 -0.48188993917E+02  0.70812331976E+02  0.00000000000E+00 0. -1.
         21    1    1    2  503  502  0.34203944482E+02 -0.39016629879E+02  0.79586287026E+02  0.95006232994E+02  0.00000000000E+00 0.  1.
</event>
<event>
 4    1  0.5740469E+002  0.3235292E+02  0.7546771E-02  0.1400194E+00
          2   -1    0    0  502    0  0.00000000000E+00  0.00000000000E+00  0.41692914121E+03  0.41692914121E+03  0.00000000000E+00 0.  1.
         -2   -1    0    0    0  501 -0.00000000000E+00 -0.00000000000E+00 -0.35423909919E+01  0.35423909919E+01  0.00000000000E+00 0. -1.
         21    1    1    2  502  503 -0.38238673913E+01 -0.32126144363E+02  0.32016047713E+03  0.32179099153E+03  0.00000000000E+00 0.  1.
         21    1    1    2  503  501  0.38238673913E+01  0.32126144363E+02  0.93226273086E+02  0.98680540670E+02  0.00000000000E+00 0. -1.
</event>
<event>
 4    1  0.5740469E+002  0.2268494E+02  0.7546771E-02  0.1496493E+00
          2   -1    0    0  503    0  0.00000000000E+00  0.00000000000E+00  0.18592160828E+04  0.18592160828E+04  0.00000000000E+00 0. -1.
         -2   -1    0    0    0  501 -0.00000000000E+00 -0.00000000000E+00 -0.64671986605E+00  0.64671986605E+00  0.00000000000E+00 0.  1.
         21    1    1    2  502  501  0.14350571461E+02 -0.17568943669E+02  0.22596248977E+03  0.22709833435E+03  0.00000000000E+00 0.  1.
         21    1    1    2  503  502 -0.14350571461E+02  0.17568943669E+02  0.16326068732E+04  0.16327644683E+04  0.00000000000E+00 0. -1.
</event>
<event>
 4    1  0.5740469E+002  0.2631778E+02  0.7546771E-02  0.1454584E+00
          2   -1    0    0  503    0  0.00000000000E+00  0.00000000000E+00  0.10044071068E+02  0.10044071068E+02  0.00000000000E+00 0. -1.
         -2   -1    0    0    0  501 -0.00000000000E+00 -0.00000000000E+00 -0.41763365485E+03  0.41763365485E+03  0.00000000000E+00 0.  1.
         21    1    1    2  502  501 -0.13399862852E+02  0.22651031357E+02 -0.39918342831E+03  0.40005004060E+03  0.00000000000E+00 0.  1.
         21    1    1    2  503  502  0.13399862852E+02 -0.22651031357E+02 -0.84061554635E+01  0.27627685311E+02  0.00000000000E+00 0. -1.
</event>
<event>
 4    1  0.5740469E+002  0.3034432E+02  0.7546771E-02  0.1416627E+00
          2   -1    0    0  503    0  0.00000000000E+00  0.00000000000E+00  0.16529380157E+02  0.16529380157E+02  0.00000000000E+00 0.  1.
         -2   -1    0    0    0  501 -0.00000000000E+00 -0.00000000000E+00 -0.63082527586E+02  0.63082527586E+02  0.00000000000E+00 0. -1.
         21    1    1    2  502  501 -0.29409198921E+02 -0.74750810754E+01 -0.96642136938E+01  0.31846111922E+02  0.00000000000E+00 0.  1.
         21    1    1    2  503  502  0.29409198921E+02  0.74750810754E+01 -0.36888933735E+02  0.47765795820E+02  0.00000000000E+00 0. -1.
</event>
<event>
 4    1  0.5740469E+002  0.2407851E+02  0.7546771E-02  0.1479382E+00
          2   -1    0    0  503    0  0.00000000000E+00  0.00000000000E+00  0.81948733128E+01  0.81948733128E+01  0.00000000000E+00 0. -1.
         -2   -1    0    0    0  501 -0.00000000000E+00 -0.00000000000E+00 -0.73817451702E+02  0.73817451702E+02  0.00000000000E+00 0.  1.
         21    1    1    2  502  501 -0.15910884586E+02 -0.18072585066E+02 -0.41172481584E+02  0.47696413063E+02  0.00000000000E+00 0. -1.
         21    1    1    2  503  502  0.15910884586E+02  0.18072585066E+02 -0.24450096805E+02  0.34315911951E+02  0.00000000000E+00 0.  1.
</event>
<event>
 4    1  0.5740469E+002  0.3354148E+02  0.7546771E-02  0.1391117E+00
          2   -1    0    0  502    0  0.00000000000E+00  0.00000000000E+00  0.48229871660E+03  0.48229871660E+03  0.00000000000E+00 0. -1.
         -2   -1    0    0    0  501 -0.00000000000E+00 -0.00000000000E+00 -0.14808549703E+02  0.14808549703E+02  0.00000000000E+00 0.  1.
         21    1    1    2  502  503  0.21880977727E+02 -0.25421516661E+02  0.46188428237E+03  0.46310055172E+03  0.00000000000E+00 0. -1.
         21    1    1    2  503  501 -0.21880977727E+02  0.25421516661E+02  0.56058845213E+01  0.34006714585E+02  0.00000000000E+00 0.  1.
</event>
<event>
 4    1  0.5740469E+002  0.2737454E+02  0.7546771E-02  0.1443882E+00
          2   -1    0    0  502    0  0.00000000000E+00  0.00000000000E+00  0.44359119200E+03  0.44359119200E+03  0.00000000000E+00 0. -1.
         -2   -1    0    0    0  501 -0.00000000000E+00 -0.00000000000E+00 -0.20291015384E+01  0.20291015384E+01  0.00000000000E+00 0.  1.
         21    1    1    2  502  503  0.24187777748E+02  0.12818604448E+02  0.31195823866E+03  0.31315700197E+03  0.00000000000E+00 0. -1.
         21    1    1    2  503  501 -0.24187777748E+02 -0.12818604448E+02  0.12960385180E+03  0.13246329157E+03  0.00000000000E+00 0.  1.
</event>
<event>
 4    1  0.5740469E+002  0.2739362E+02  0.7546771E-02  0.1443694E+00
          2   -1    0    0  502    0  0.00000000000E+00  0.00000000000E+00  0.16503889628E+04  0.16503889628E+04  0.00000000000E+00 0. -1.
         -2   -1    0    0    0  501 -0.00000000000E+00 -0.00000000000E+00 -0.47424180940E+00  0.47424180940E+00  0.00000000000E+00 0.  1.
         21    1    1    2  502  503 -0.26253023196E+02  0.78223403365E+01  0.99257090776E+03  0.99294884922E+03  0.00000000000E+00 0. -1.
         21    1    1    2  503  501  0.26253023196E+02 -0.78223403365E+01  0.65734381324E+03  0.65791435540E+03  0.00000000000E+00 0.  1.
</event>
<event>
 4    1  0.5740469E+002  0.2515814E+02  0.7546771E-02  0.1467042E+00
          2   -1    0    0  503    0  0.00000000000E+00  0.00000000000E+00  0.56571203895E+02  0.56571203895E+02  0.00000000000E+00 0. -1.
         -2   -1    0    0    0  501 -0.00000000000E+00 -0.00000000000E+00 -0.13916769939E+02  0.13916769939E+02  0.00000000000E+00 0.  1.
         21    1    1    2  502  501  0.16048538877E+02 -0.19374637643E+02  0.57216266915E+01  0.25800565805E+02  0.00000000000E+00 0.  1.
         21    1    1    2  503  502 -0.16048538877E+02  0.19374637643E+02  0.36932807264E+02  0.44687408028E+02  0.00000000000E+00 0. -1.
</event>
<event>
 4    1  0.5740469E+002  0.3648438E+02  0.7546771E-02  0.1370417E+00
          2   -1    0    0  502    0  0.00000000000E+00  0.00000000000E+00  0.10382284679E+04  0.10382284679E+04  0.00000000000E+00 0. -1.
         -2   -1    0    0    0  501 -0.00000000000E+00 -0.00000000000E+00 -0.14320377806E+01  0.14320377806E+01  0.00000000000E+00 0.  1.
         21    1    1    2  502  503 -0.22653678389E+01  0.36413983625E+02  0.68660500078E+03  0.68757365946E+03  0.00000000000E+00 0. -1.
         21    1    1    2  503  501  0.22653678389E+01 -0.36413983625E+02  0.35019142935E+03  0.35208684623E+03  0.00000000000E+00 0.  1.
</event>
<event>
 4    1  0.5740469E+002  0.2605351E+02  0.7546771E-02  0.1457355E+00
          2   -1    0    0  503    0  0.00000000000E+00  0.00000000000E+00  0.18642279789E+04  0.18642279789E+04  0.00000000000E+00 0.  1.
         -2   -1    0    0    0  501 -0.00000000000E+00 -0.00000000000E+00 -0.88425390113E+00  0.88425390113E+00  0.00000000000E+00 0. -1.
         21    1    1    2  502  501  0.25605092018E+02 -0.48129879520E+01  0.21643828812E+03  0.21800072971E+03  0.00000000000E+00 0. -1.
         21    1    1    2  503  502 -0.25605092018E+02  0.48129879520E+01  0.16469054369E+04  0.16471115031E+04  0.00000000000E+00 0.  1.
</event>
<event>
 4    1  0.5740469E+002  0.2654915E+02  0.7546771E-02  0.1452190E+00
          2   -1    0    0  503    0  0.00000000000E+00  0.00000000000E+00  0.70348756913E+02  0.70348756913E+02  0.00000000000E+00 0. -1.
         -2   -1    0    0    0  501 -0.00000000000E+00 -0.00000000000E+00 -0.10121352049E+02  0.10121352049E+02  0.00000000000E+00 0.  1.
         21    1    1    2  502  501  0.25417412888E+02  0.76689409356E+01  0.34150396867E+02  0.43256295948E+02  0.00000000000E+00 0.  1.
         21    1    1    2  503  502 -0.25417412888E+02 -0.76689409356E+01  0.26077007996E+02  0.37213813014E+02  0.00000000000E+00 0. -1.
</event>
<event>
 4    1  0.5740469E+002  0.3248966E+02  0.7546771E-02  0.1399126E+00
          2   -1    0    0  502    0  0.00000000000E+00  0.00000000000E+00  0.45266209858E+02  0.45266209858E+02  0.00000000000E+00 0.  1.
         -2   -1    0    0    0  501 -0.00000000000E+00 -0.00000000000E+00 -0.23911837537E+02  0.23911837537E+02  0.00000000000E+00 0. -1.
         21    1    1    2  502  503  0.32406666696E+02 -0.23208015060E+01  0.52324745925E+01  0.32908311356E+02  0.00000000000E+00 0. -1.
         21    1    1    2  503  501 -0.32406666696E+02  0.23208015060E+01  0.16121897728E+02  0.36269736039E+02  0.00000000000E+00 0.  1.
</event>
<event>
 4    1  0.5740469E+002  0.2153288E+02  0.7546771E-02  0.1511791E+00
          2   -1    0    0  502    0  0.00000000000E+00  0.00000000000E+00  0.44091541995E+03  0.44091541995E+03  0.00000000000E+00 0.  1.
         -2   -1    0    0    0  501 -0.00000000000E+00 -0.00000000000E+00 -0.39729230922E+02  0.39729230922E+02  0.00000000000E+00 0. -1.
         21    1    1    2  502  503  0.13326885798E+02 -0.16913283583E+02  0.43771353420E+03  0.43824285855E+03  0.00000000000E+00 0.  1.
         21    1    1    2  503  501 -0.13326885798E+02  0.16913283583E+02 -0.36527345175E+02  0.42401792322E+02  0.00000000000E+00 0. -1.
</event>
<event>
 4    1  0.5740469E+002  0.2090489E+02  0.7546771E-02  0.1520627E+00
          2   -1    0    0  503    0  0.00000000000E+00  0.00000000000E+00  0.39739662114E+02  0.39739662114E+02  0.00000000000E+00 0.  1.
         -2   -1    0    0    0  501 -0.00000000000E+00 -0.00000000000E+00 -0.11650671543E+02  0.11650671543E+02  0.00000000000E+00 0. -1.
         21    1    1    2  502  501 -0.12366367288E+02  0.16854888146E+02  0.79578372136E+01  0.22368313916E+02  0.00000000000E+00 0. -1.
         21    1    1    2  503  502  0.12366367288E+02 -0.16854888146E+02  0.20131153358E+02  0.29022019741E+02  0.00000000000E+00 0.  1.
</event>
<event>
 4    1  0.5740469E+002  0.2313163E+02  0.7546771E-02  0.1490852E+00
          2   -1    0    0  503    0  0.00000000000E+00  0.00000000000E+00  0.26005466500E+03  0.26005466500E+03  0.00000000000E+00 0. -1.
         -2   -1    0    0    0  501 -0.00000000000E+00 -0.00000000000E+00 -0.10699707227E+02  0.10699707227E+02  0.00000000000E+00 0.  1.
         21    1    1    2  502  501 -0.15696241591E+02 -0.16991189639E+02  0.30110104076E+01  0.23326780942E+02  0.00000000000E+00 0.  1.
         21    1    1    2  503  502  0.15696241591E+02  0.16991189639E+02  0.24634394736E+03  0.24742759128E+03  0.00000000000E+00 0. -1.
</event>
<event>
 4    1  0.5740469E+002  0.2877821E+02  0.7546771E-02  0.1430519E+00
          2   -1    0    0  503    0  0.00000000000E+00  0.00000000000E+00  0.13595801120E+03  0.13595801120E+03  0.00000000000E+00 0. -1.
         -2   -1    0    0    0  501 -0.00000000000E+00 -0.00000000000E+00 -0.10380035220E+02  0.10380035220E+02  0.00000000000E+00 0.  1.
         21    1    1    2  502  501 -0.25292875878E+02 -0.13727923654E+02  0.15758079839E+02  0.32810098114E+02  0.00000000000E+00 0.  1.
         21    1    1    2  503  502  0.25292875878E+02  0.13727923654E+02  0.10981989614E+03  0.11352794831E+03  0.00000000000E+00 0. -1.
</event>
<event>
 4    1  0.5740469E+002  0.2006162E+02  0.7546771E-02  0.1533096E+00
          2   -1    0    0  503    0  0.00000000000E+00  0.00000000000E+00  0.46545922867E+02  0.46545922867E+02  0.00000000000E+00 0. -1.
         -2   -1    0    0    0  501 -0.00000000000E+00 -0.00000000000E+00 -0.20899286185E+02  0.20899286185E+02  0.00000000000E+00 0.  1.
         21    1    1    2  502  501 -0.18798310540E+02 -0.70065671748E+01 -0.12997460039E+02  0.23904025397E+02  0.00000000000E+00 0.  1.
         21    1    1    2  503  502  0.18798310540E+02  0.70065671748E+01  0.38644096721E+02  0.43541183655E+02  0.00000000000E+00 0. -1.
</event>
<event>
 4    1  0.5740469E+002  0.2322266E+02  0.7546771E-02  0.1489721E+00
          2   -1    0    0  503    0  0.00000000000E+00  0.00000000000E+00  0.19017774709E+03  0.19017774709E+03  0.00000000000E+00 0.  1.
         -2   -1    0    0    0  501 -0.00000000000E+00 -0.00000000000E+00 -0.48182291191E+01  0.48182291191E+01  0.00000000000E+00 0. -1.
         21    1    1    2  502  501 -0.22858751917E+02 -0.40950362312E+01  0.30139605977E+02  0.38048491552E+02  0.00000000000E+00 0. -1.
         21    1    1    2  503  502  0.22858751917E+02  0.40950362312E+01  0.15521991200E+03  0.15694748466E+03  0.00000000000E+00 0.  1.
</event>
<event>
 4    1  0.5740469E+002  0.2299903E+02  0.7546771E-02  0.1492510E+00
          2   -1    0    0  502    0  0.00000000000E+00  0.00000000000E+00  0.52081103827E+03  0.52081103827E+03  0.00000000000E+00 0.  1.
         -2   -1    0    0    0  501 -0.00000000000E+00 -0.00000000000E+00 -0.20741119938E+01  0.20741119938E+01  0.00000000000E+00 0. -1.
         21    1    1    2  502  503  0.88186247259E+01 -0.21241163914E+02  0.44613558374E+03  0.44672800927E+03  0.00000000000E+00 0.  1.
         21    1    1    2  503  501 -0.88186247259E+01  0.21241163914E+02  0.72601342544E+02  0.76157141002E+02  0.00000000000E+00 0. -1.
</event>
<event>
 4    1  0.5740469E+002  0.1081471E+03  0.7546771E-02  0.1150393E+00
          2   -1    0    0  502    0  0.00000000000E+00  0.00000000000E+00  0.24379108939E+04  0.24379108939E+04  0.00000000000E+00 0. -1.
         -2   -1    0    0    0  501 -0.00000000000E+00 -0.00000000000E+00 -0.50768756829E+01  0.50768756829E+01  0.00000000000E+00 0.  1.
         21    1    1    2  502  503  0.46670689498E+02  0.97558368536E+02  0.15029770970E+04  0.15068629476E+04  0.00000000000E+00 0.  1.
         21    1    1    2  503  501 -0.46670689498E+02 -0.97558368536E+02  0.92985692120E+03  0.93612482204E+03  0.00000000000E+00 0. -1.
</event>
<event>
 4    1  0.5740469E+002  0.3617377E+02  0.7546771E-02  0.1372494E+00
          2   -1    0    0  503    0  0.00000000000E+00  0.00000000000E+00  0.10675406288E+03  0.10675406288E+03  0.00000000000E+00 0.  1.
         -2   -1    0    0    0  501 -0.00000000000E+00 -0.00000000000E+00 -0.13158887466E+02  0.13158887466E+02  0.00000000000E+00 0. -1.
         21    1    1    2  502  501  0.31080579963E+02 -0.18507810875E+02  0.31105737067E+02  0.47708577768E+02  0.00000000000E+00 0. -1.
         21    1    1    2  503  502 -0.31080579963E+02  0.18507810875E+02  0.62489438347E+02  0.72204372576E+02  0.00000000000E+00 0.  1.
</event>
<event>
 4    1  0.5740469E+002  0.5120126E+02  0.7546771E-02  0.1293047E+00
          2   -1    0    0  502    0  0.00000000000E+00  0.00000000000E+00  0.15232281602E+03  0.15232281602E+03  0.00000000000E+00 0.  1.
         -2   -1    0    0    0  501 -0.00000000000E+00 -0.00000000000E+00 -0.39657819438E+02  0.39657819438E+02  0.00000000000E+00 0. -1.
         21    1    1    2  502  503  0.24898706625E+02 -0.44739505737E+02  0.12855028405E+03  0.13837176191E+03  0.00000000000E+00 0.  1.
         21    1    1    2  503  501 -0.24898706625E+02  0.44739505737E+02 -0.15885287467E+02  0.53608873548E+02  0.00000000000E+00 0. -1.
</event>
<event>
 4    1  0.5740469E+002  0.2524393E+02  0.7546771E-02  0.1466093E+00
          2   -1    0    0  502    0  0.00000000000E+00  0.00000000000E+00  0.23895907177E+02  0.23895907177E+02  0.00000000000E+00 0. -1.
         -2   -1    0    0    0  501 -0.00000000000E+00 -0.00000000000E+00 -0.34035993721E+02  0.34035993721E+02  0.00000000000E+00 0.  1.
         21    1    1    2  502  503 -0.24613494398E+02  0.56063962796E+01  0.84069657369E+01  0.26607007697E+02  0.00000000000E+00 0. -1.
         21    1    1    2  503  501  0.24613494398E+02 -0.56063962796E+01 -0.18547052281E+02  0.31324893200E+02  0.00000000000E+00 0.  1.
</event>
<event>
 4    1  0.5740469E+002  0.2184201E+02  0.7546771E-02  0.1507575E+00
          2   -1    0    0  502    0  0.00000000000E+00  0.00000000000E+00  0.21188218389E+04  0.21188218389E+04  0.00000000000E+00 0.  1.
         -2   -1    0    0    0  501 -0.00000000000E+00 -0.00000000000E+00 -0.27420425985E+00  0.27420425985E+00  0.00000000000E+00 0. -1.
         21    1    1    2  502  503  0.14231350104E+02  0.16569307391E+02  0.15073780034E+04  0.15075362412E+04  0.00000000000E+00 0. -1.
         21    1    1    2  503  501 -0.14231350104E+02 -0.16569307391E+02  0.61116963115E+03  0.61155980191E+03  0.00000000000E+00 0.  1.
</event>
<event>
 4    1  0.5740469E+002  0.7322257E+02  0.7546771E-02  0.1220521E+00
          2   -1    0    0  503    0  0.00000000000E+00  0.00000000000E+00  0.14405536364E+04  0.14405536364E+04  0.00000000000E+00 0.  1.
         -2   -1    0    0    0  501 -0.00000000000E+00 -0.00000000000E+00 -0.14437642447E+02  0.14437642447E+02  0.00000000000E+00 0. -1.
         21    1    1    2  502  501 -0.18638456628E+02  0.70810680579E+02  0.86308320084E+02  0.11318423329E+03  0.00000000000E+00 0. -1.
         21    1    1    2  503  502  0.18638456628E+02 -0.70810680579E+02  0.13398076739E+04  0.13418070456E+04  0.00000000000E+00 0.  1.
</event>
<event>
 4    1  0.5740469E+002  0.3449438E+02  0.7546771E-02  0.1384153E+00
          2   -1    0    0  503    0  0.00000000000E+00  0.00000000000E+00  0.54954150021E+02  0.54954150021E+02  0.00000000000E+00 0.  1.
         -2   -1    0    0    0  501 -0.00000000000E+00 -0.00000000000E+00 -0.68903186489E+02  0.68903186489E+02  0.00000000000E+00 0. -1.
         21    1    1    2  502  501 -0.14214198054E+02 -0.31429581922E+02 -0.58258162888E+02  0.67704324745E+02  0.00000000000E+00 0. -1.
         21    1    1    2  503  502  0.14214198054E+02  0.31429581922E+02  0.44309126420E+02  0.56153011765E+02  0.00000000000E+00 0.  1.
</event>
<event>
 4    1  0.5740469E+002  0.2016171E+02  0.7546771E-02  0.1531578E+00
          2   -1    0    0  502    0  0.00000000000E+00  0.00000000000E+00  0.15953434992E+02  0.15953434992E+02  0.00000000000E+00 0. -1.
         -2   -1    0    0    0  501 -0.00000000000E+00 -0.00000000000E+00 -0.10219693042E+03  0.10219693042E+03  0.00000000000E+00 0.  1.
         21    1    1    2  502  503  0.16605779430E+02  0.11434283056E+02  0.80619362041E+01  0.21713810233E+02  0.00000000000E+00 0. -1.
         21    1    1    2  503  501 -0.16605779430E+02 -0.11434283056E+02 -0.94305431632E+02  0.96436555179E+02  0.00000000000E+00 0.  1.
</event>
<event>
 4    1  0.5740469E+002  0.2913378E+02  0.7546771E-02  0.1427276E+00
          2   -1    0    0  502    0  0.00000000000E+00  0.00000000000E+00  0.17502130615E+03  0.17502130615E+03  0.00000000000E+00 0.  1.
         -2   -1    0    0    0  501 -0.00000000000E+00 -0.00000000000E+00 -0.11368859195E+02  0.11368859195E+02  0.00000000000E+00 0. -1.
         21    1    1    2  502  503 -0.15812362486E+02  0.24469299508E+02  0.15239860952E+03  0.15515835011E+03  0.00000000000E+00 0.  1.
         21    1    1    2  503  501  0.15812362486E+02 -0.24469299508E+02  0.11253837435E+02  0.31231815234E+02  0.00000000000E+00 0. -1.
</event>
<event>
 4    1  0.5740469E+002  0.2258999E+02  0.7546771E-02  0.1497712E+00
          2   -1    0    0  502    0  0.00000000000E+00  0.00000000000E+00  0.45120788321E+03  0.45120788321E+03  0.00000000000E+00 0. -1.
         -2   -1    0    0    0  501 -0.00000000000E+00 -0.00000000000E+00 -0.10227412964E+02  0.10227412964E+02  0.00000000000E+00 0.  1.
         21    1    1    2  502  503  0.14038211914E+02 -0.17698481104E+02  0.43807749001E+03  0.43865954325E+03  0.00000000000E+00 0. -1.
         21    1    1    2  503  501 -0.14038211914E+02  0.17698481104E+02  0.29029802346E+01  0.22775752926E+02  0.00000000000E+00 0.  1.
</event>
<event>
 4    1  0.5740469E+002  0.3765165E+02  0.7546771E-02  0.1362825E+00
          2   -1    0    0  503    0  0.00000000000E+00  0.00000000000E+00  0.26573579721E+04  0.26573579721E+04  0.00000000000E+00 0.  1.
         -2   -1    0    0    0  501 -0.00000000000E+00 -0.00000000000E+00 -0.33563576109E+01  0.33563576109E+01  0.00000000000E+00 0. -1.
         21    1    1    2  502  501 -0.19412088540E+02  0.32261698640E+02  0.10694360985E+03  0.11337804932E+03  0.00000000000E+00 0. -1.
         21    1    1    2  503  502  0.19412088540E+02 -0.32261698640E+02  0.25470580046E+04  0.25473362804E+04  0.00000000000E+00 0.  1.
</event>
<event>
 4    1  0.5740469E+002  0.2331226E+02  0.7546771E-02  0.1488614E+00
          2   -1    0    0  502    0  0.00000000000E+00  0.00000000000E+00  0.97358520410E+01  0.97358520410E+01  0.00000000000E+00 0. -1.
         -2   -1    0    0    0  501 -0.00000000000E+00 -0.00000000000E+00 -0.12478543570E+03  0.12478543570E+03  0.00000000000E+00 0.  1.
         21    1    1    2  502  503  0.30603649097E+01  0.23110508396E+02 -0.75221653570E+01  0.24495803791E+02  0.00000000000E+00 0. -1.
         21    1    1    2  503  501 -0.30603649097E+01 -0.23110508396E+02 -0.10752741830E+03  0.11002548395E+03  0.00000000000E+00 0.  1.
</event>
<event>
 4    1  0.5740469E+002  0.2481403E+02  0.7546771E-02  0.1470895E+00
          2   -1    0    0  502    0  0.00000000000E+00  0.00000000000E+00  0.51692798810E+03  0.51692798810E+03  0.00000000000E+00 0.  1.
         -2   -1    0    0    0  501 -0.00000000000E+00 -0.00000000000E+00 -0.13151981122E+01  0.13151981122E+01  0.00000000000E+00 0. -1.
         21    1    1    2  502  503 -0.21488816413E+02  0.12408329536E+02  0.33738804102E+03  0.33829931436E+03  0.00000000000E+00 0.  1.
         21    1    1    2  503  501  0.21488816413E+02 -0.12408329536E+02  0.17822474897E+03  0.17994387186E+03  0.00000000000E+00 0. -1.
</event>
<event>
 4    1  0.5740469E+002  0.2817924E+02  0.7546771E-02  0.1436109E+00
          2   -1    0    0  503    0  0.00000000000E+00  0.00000000000E+00  0.11030208789E+04  0.11030208789E+04  0.00000000000E+00 0. -1.
         -2   -1    0    0    0  501 -0.00000000000E+00 -0.00000000000E+00 -0.72525647043E+00  0.72525647043E+00  0.00000000000E+00 0.  1.
         21    1    1    2  502  501 -0.25566146943E+02  0.11850810027E+02  0.59855616767E+03  0.59921912138E+03  0.00000000000E+00 0. -1.
         21    1    1    2  503  502  0.25566146943E+02 -0.11850810027E+02  0.50373945474E+03  0.50452701398E+03  0.00000000000E+00 0.  1.
</event>
<event>
 4    1  0.5740469E+002  0.2949121E+02  0.7546771E-02  0.1424070E+00
          2   -1    0    0  503    0  0.00000000000E+00  0.00000000000E+00  0.13133701382E+02  0.13133701382E+02  0.00000000000E+00 0. -1.
         -2   -1    0    0    0  501 -0.00000000000E+00 -0.00000000000E+00 -0.93440507358E+02  0.93440507358E+02  0.00000000000E+00 0.  1.
         21    1    1    2  502  501  0.28762948549E+02 -0.65134006844E+01 -0.11393211899E+02  0.31615453105E+02  0.00000000000E+00 0.  1.
         21    1    1    2  503  502 -0.28762948549E+02  0.65134006844E+01 -0.68913594077E+02  0.74958755635E+02  0.00000000000E+00 0. -1.
</event>
<event>
 4    1  0.5740469E+002  0.2648835E+02  0.7546771E-02  0.1452817E+00
          2   -1    0    0  502    0  0.00000000000E+00  0.00000000000E+00  0.77811693349E+03  0.77811693349E+03  0.00000000000E+00 0.  1.
         -2   -1    0    0    0  501 -0.00000000000E+00 -0.00000000000E+00 -0.11061046185E+01  0.11061046185E+01  0.00000000000E+00 0. -1.
         21    1    1    2  502  503 -0.93817043657E+00 -0.26471730665E+02  0.55598916984E+03  0.55661978914E+03  0.00000000000E+00 0.  1.
         21    1    1    2  503  501  0.93817043657E+00  0.26471730665E+02  0.22102165904E+03  0.22260324897E+03  0.00000000000E+00 0. -1.
</event>
<event>
 4    1  0.5740469E+002  0.2803466E+02  0.7546771E-02  0.1437483E+00
          2   -1    0    0  502    0  0.00000000000E+00  0.00000000000E+00  0.11217866094E+02  0.11217866094E+02  0.00000000000E+00 0. -1.
         -2   -1    0    0    0  501 -0.00000000000E+00 -0.00000000000E+00 -0.17165390846E+03  0.17165390846E+03  0.00000000000E+00 0.  1.
         21    1    1    2  502  503 -0.73106588225E+01 -0.27064673288E+02 -0.98751435837E+01  0.29723067362E+02  0.00000000000E+00 0. -1.
         21    1    1    2  503  501  0.73106588225E+01  0.27064673288E+02 -0.15056089878E+03  0.15314870719E+03  0.00000000000E+00 0.  1.
</event>
<event>
 4    1  0.5740469E+002  0.2834349E+02  0.7546771E-02  0.1434560E+00
          2   -1    0    0  503    0  0.00000000000E+00  0.00000000000E+00  0.41197896245E+02  0.41197896245E+02  0.00000000000E+00 0.  1.
         -2   -1    0    0    0  501 -0.00000000000E+00 -0.00000000000E+00 -0.19975199910E+02  0.19975199910E+02  0.00000000000E+00 0. -1.
         21    1    1    2  502  501 -0.95604109228E+01 -0.26682425217E+02  0.58930396378E+01  0.28949631925E+02  0.00000000000E+00 0. -1.
         21    1    1    2  503  502  0.95604109228E+01  0.26682425217E+02  0.15329656697E+02  0.32223464229E+02  0.00000000000E+00 0.  1.
</event>
<event>
 4    1  0.5740469E+002  0.2591329E+02  0.7546771E-02  0.1458841E+00
          2   -1    0    0  503    0  0.00000000000E+00  0.00000000000E+00  0.96888932048E+03  0.96888932048E+03  0.00000000000E+00 0. -1.
         -2   -1    0    0    0  501 -0.00000000000E+00 -0.00000000000E+00 -0.49106351599E+01  0.49106351599E+01  0.00000000000E+00 0.  1.
         21    1    1    2  502  501  0.19895261799E+02  0.16603521825E+02  0.30754799653E+02  0.40216365832E+02  0.00000000000E+00 0.  1.
         21    1    1    2  503  502 -0.19895261799E+02 -0.16603521825E+02  0.93322388567E+03  0.93358358981E+03  0.00000000000E+00 0. -1.
</event>
<event>
 4    1  0.5740469E+002  0.2768343E+02  0.7546771E-02  0.1440861E+00
          2   -1    0    0  503    0  0.00000000000E+00  0.00000000000E+00  0.17908784598E+03  0.17908784598E+03  0.00000000000E+00 0.  1.
         -2   -1    0    0    0  501 -0.00000000000E+00 -0.00000000000E+00 -0.18652782873E+02  0.18652782873E+02  0.00000000000E+00 0. -1.
         21    1    1    2  502  501 -0.19538603095E+01 -0.27614390201E+02 -0.65735258385E+01  0.28453178350E+02  0.00000000000E+00 0. -1.
         21    1    1    2  503  502  0.19538603095E+01  0.27614390201E+02  0.16700858894E+03  0.16928745050E+03  0.00000000000E+00 0.  1.
</event>
<event>
 4    1  0.5740469E+002  0.5217828E+02  0.7546771E-02  0.1288995E+00
          2   -1    0    0  503    0  0.00000000000E+00  0.00000000000E+00  0.10693362805E+04  0.10693362805E+04  0.00000000000E+00 0.  1.
         -2   -1    0    0    0  501 -0.00000000000E+00 -0.00000000000E+00 -0.25742869292E+01  0.25742869292E+01  0.00000000000E+00 0. -1.
         21    1    1    2  502  501 -0.48188309079E+02  0.20011485474E+02  0.47723903607E+03  0.48008298265E+03  0.00000000000E+00 0.  1.
         21    1    1    2  503  502  0.48188309079E+02 -0.20011485474E+02  0.58952295745E+03  0.59182758473E+03  0.00000000000E+00 0. -1.
</event>
<event>
 4    1  0.5740469E+002  0.2310334E+02  0.7546771E-02  0.1491205E+00
          2   -1    0    0  503    0  0.00000000000E+00  0.00000000000E+00  0.32151898522E+03  0.32151898522E+03  0.00000000000E+00 0.  1.
         -2   -1    0    0    0  501 -0.00000000000E+00 -0.00000000000E+00 -0.18800547326E+01  0.18800547326E+01  0.00000000000E+00 0. -1.
         21    1    1    2  502  501  0.13286976679E+02  0.18900283090E+02  0.10451540356E+03  0.10703846987E+03  0.00000000000E+00 0.  1.
         21    1    1    2  503  502 -0.13286976679E+02 -0.18900283090E+02  0.21512352692E+03  0.21636057008E+03  0.00000000000E+00 0. -1.
</event>
<event>
 4    1  0.5740469E+002  0.2744735E+02  0.7546771E-02  0.1443165E+00
          2   -1    0    0  503    0  0.00000000000E+00  0.00000000000E+00  0.43473603115E+03  0.43473603115E+03  0.00000000000E+00 0. -1.
         -2   -1    0    0    0  501 -0.00000000000E+00 -0.00000000000E+00 -0.32901706092E+01  0.32901706092E+01  0.00000000000E+00 0.  1.
         21    1    1    2  502  501 -0.49939477102E+01  0.26989213143E+02  0.65047672439E+02  0.70601393963E+02  0.00000000000E+00 0.  1.
         21    1    1    2  503  502  0.49939477102E+01 -0.26989213143E+02  0.36639818811E+03  0.36742480780E+03  0.00000000000E+00 0. -1.
</event>
<event>
 4    1  0.5740469E+002  0.2568037E+02  0.7546771E-02  0.1461334E+00
          2   -1    0    0  503    0  0.00000000000E+00  0.00000000000E+00  0.85628875598E+03  0.85628875598E+03  0.00000000000E+00 0.  1.
         -2   -1    0    0    0  501 -0.00000000000E+00 -0.00000000000E+00 -0.82727089264E+00  0.82727089264E+00  0.00000000000E+00 0. -1.
         21    1    1    2  502  501 -0.68567085341E+01 -0.24748069641E+02  0.54033014845E+03  0.54094006205E+03  0.00000000000E+00 0.  1.
         21    1    1    2  503  502  0.68567085341E+01  0.24748069641E+02  0.31513133663E+03  0.31617596482E+03  0.00000000000E+00 0. -1.
</event>
<event>
 4    1  0.5740469E+002  0.2304658E+02  0.7546771E-02  0.1491914E+00
          2   -1    0    0  503    0  0.00000000000E+00  0.00000000000E+00  0.60483930805E+03  0.60483930805E+03  0.00000000000E+00 0.  1.
         -2   -1    0    0    0  501 -0.00000000000E+00 -0.00000000000E+00 -0.14958825768E+01  0.14958825768E+01  0.00000000000E+00 0. -1.
         21    1    1    2  502  501  0.15320341392E+02 -0.17217204470E+02  0.10685277581E+03  0.10930992951E+03  0.00000000000E+00 0. -1.
         21    1    1    2  503  502 -0.15320341392E+02  0.17217204470E+02  0.49649064966E+03  0.49702526112E+03  0.00000000000E+00 0.  1.
</event>
<event>
 4    1  0.5740469E+002  0.2443664E+02  0.7546771E-02  0.1475205E+00
          2   -1    0    0  502    0  0.00000000000E+00  0.00000000000E+00  0.28228435127E+03  0.28228435127E+03  0.00000000000E+00 0.  1.
         -2   -1    0    0    0  501 -0.00000000000E+00 -0.00000000000E+00 -0.23130676018E+01  0.23130676018E+01  0.00000000000E+00 0. -1.
         21    1    1    2  502  503  0.24172604154E+02  0.35825455045E+01  0.98389344991E+02  0.10137856101E+03  0.00000000000E+00 0. -1.
         21    1    1    2  503  501 -0.24172604154E+02 -0.35825455045E+01  0.18158193867E+03  0.18321885786E+03  0.00000000000E+00 0.  1.
</event>
<event>
 4    1  0.5740469E+002  0.2862811E+02  0.7546771E-02  0.1431905E+00
          2   -1    0    0  503    0  0.00000000000E+00  0.00000000000E+00  0.46693905508E+02  0.46693905508E+02  0.00000000000E+00 0.  1.
         -2   -1    0    0    0  501 -0.00000000000E+00 -0.00000000000E+00 -0.42870837021E+02  0.42870837021E+02  0.00000000000E+00 0. -1.
         21    1    1    2  502  501 -0.17810904500E+02 -0.22412947327E+02 -0.32503524437E+02  0.43313365464E+02  0.00000000000E+00 0. -1.
         21    1    1    2  503  502  0.17810904500E+02  0.22412947327E+02  0.36326592924E+02  0.46251377065E+02  0.00000000000E+00 0.  1.
</event>
<event>
 4    1  0.5740469E+002  0.2066997E+02  0.7546771E-02  0.1524029E+00
          2   -1    0    0  503    0  0.00000000000E+00  0.00000000000E+00  0.10922125263E+04  0.10922125263E+04  0.00000000000E+00 0. -1.
         -2   -1    0    0    0  501 -0.00000000000E+00 -0.00000000000E+00 -0.57229678255E+00  0.57229678255E+00  0.00000000000E+00 0.  1.
         21    1    1    2  502  501  0.56119387569E+01  0.19893565030E+02  0.23843867108E+03  0.23933292221E+03  0.00000000000E+00 0.  1.
         21    1    1    2  503  502 -0.56119387569E+01 -0.19893565030E+02  0.85320155844E+03  0.85345190087E+03  0.00000000000E+00 0. -1.
</event>
<event>
 4    1  0.5740469E+002  0.3097479E+02  0.7546771E-02  0.1411310E+00
          2   -1    0    0  503    0  0.00000000000E+00  0.00000000000E+00  0.60271599065E+01  0.60271599065E+01  0.00000000000E+00 0.  1.
         -2   -1    0    0    0  501 -0.00000000000E+00 -0.00000000000E+00 -0.15932211481E+03  0.15932211481E+03  0.00000000000E+00 0. -1.
         21    1    1    2  502  501 -0.27880715028E+02 -0.13494569526E+02 -0.79066627393E+02  0.84917426035E+02  0.00000000000E+00 0. -1.
         21    1    1    2  503  502  0.27880715028E+02  0.13494569526E+02 -0.74228327507E+02  0.80431848677E+02  0.00000000000E+00 0.  1.
</event>
<event>
 4    1  0.5740469E+002  0.2369780E+02  0.7546771E-02  0.1483917E+00
          2   -1    0    0  503    0  0.00000000000E+00  0.00000000000E+00  0.47951761140E+03  0.47951761140E+03  0.00000000000E+00 0.  1.
         -2   -1    0    0    0  501 -0.00000000000E+00 -0.00000000000E+00 -0.15737305612E+01  0.15737305612E+01  0.00000000000E+00 0. -1.
         21    1    1    2  502  501 -0.78572573893E+01  0.22357310226E+02  0.11730848489E+03  0.11967817864E+03  0.00000000000E+00 0. -1.
         21    1    1    2  503  502  0.78572573893E+01 -0.22357310226E+02  0.36063539595E+03  0.36141316333E+03  0.00000000000E+00 0.  1.
</event>
<event>
 4    1  0.5740469E+002  0.2039145E+02  0.7546771E-02  0.1528133E+00
          2   -1    0    0  503    0  0.00000000000E+00  0.00000000000E+00  0.32633202922E+03  0.32633202922E+03  0.00000000000E+00 0.  1.
         -2   -1    0    0    0  501 -0.00000000000E+00 -0.00000000000E+00 -0.40238312172E+01  0.40238312172E+01  0.00000000000E+00 0. -1.
         21    1    1    2  502  501  0.18172835122E+02  0.92498172078E+01  0.24611029559E+02  0.31961129997E+02  0.00000000000E+00 0. -1.
         21    1    1    2  503  502 -0.18172835122E+02 -0.92498172078E+01  0.29769716844E+03  0.29839473044E+03  0.00000000000E+00 0.  1.
</event>
<event>
 4    1  0.5740469E+002  0.2896110E+02  0.7546771E-02  0.1428844E+00
          2   -1    0    0  503    0  0.00000000000E+00  0.00000000000E+00  0.93828083187E+02  0.93828083187E+02  0.00000000000E+00 0.  1.
         -2   -1    0    0    0  501 -0.00000000000E+00 -0.00000000000E+00 -0.18452161557E+02  0.18452161557E+02  0.00000000000E+00 0. -1.
         21    1    1    2  502  501 -0.28961062453E+02 -0.43734834570E-01 -0.26216234741E+01  0.29079511013E+02  0.00000000000E+00 0. -1.
         21    1    1    2  503  502  0.28961062453E+02  0.43734834570E-01  0.77997545104E+02  0.83200733731E+02  0.00000000000E+00 0.  1.
</event>
<event>
 4    1  0.5740469E+002  0.2004579E+02  0.7546771E-02  0.1533337E+00
          2   -1    0    0  503    0  0.00000000000E+00  0.00000000000E+00  0.45682984094E+03  0.45682984094E+03  0.00000000000E+00 0.  1.
         -2   -1    0    0    0  501 -0.00000000000E+00 -0.00000000000E+00 -0.88292427099E+00  0.88292427099E+00  0.00000000000E+00 0. -1.
         21    1    1    2  502  501 -0.14422908936E+02  0.13921680999E+02  0.24198846579E+03  0.24281732039E+03  0.00000000000E+00 0.  1.
         21    1    1    2  503  502  0.14422908936E+02 -0.13921680999E+02  0.21395845088E+03  0.21489544483E+03  0.00000000000E+00 0. -1.
</event>
<event>
 4    1  0.5740469E+002  0.3710858E+02  0.7546771E-02  0.1366317E+00
          2   -1    0    0  503    0  0.00000000000E+00  0.00000000000E+00  0.97307229930E+02  0.97307229930E+02  0.00000000000E+00 0. -1.
         -2   -1    0    0    0  501 -0.00000000000E+00 -0.00000000000E+00 -0.20785134635E+02  0.20785134635E+02  0.00000000000E+00 0.  1.
         21    1    1    2  502  501  0.29366437148E+02 -0.22686093660E+02  0.49038087446E+01  0.37431187752E+02  0.00000000000E+00 0.  1.
         21    1    1    2  503  502 -0.29366437148E+02  0.22686093660E+02  0.71618286551E+02  0.80661176813E+02  0.00000000000E+00 0. -1.
</event>
<event>
 4    1  0.5740469E+002  0.2031598E+02  0.7546771E-02  0.1529259E+00
          2   -1    0    0  502    0  0.00000000000E+00  0.00000000000E+00  0.45116268114E+02  0.45116268114E+02  0.00000000000E+00 0. -1.
         -2   -1    0    0    0  501 -0.00000000000E+00 -0.00000000000E+00 -0.13586183153E+02  0.13586183153E+02  0.00000000000E+00 0.  1.
         21    1    1    2  502  503  0.10656416007E+02  0.17296819962E+02  0.32540070006E+02  0.38361378219E+02  0.00000000000E+00 0. -1.
         21    1    1    2  503  501 -0.10656416007E+02 -0.17296819962E+02 -0.10099850449E+01  0.20341073047E+02  0.00000000000E+00 0.  1.
</event>
<event>
 4    1  0.5740469E+002  0.2163582E+02  0.7546771E-02  0.1510377E+00
          2   -1    0    0  503    0  0.00000000000E+00  0.00000000000E+00  0.14187778408E+03  0.14187778408E+03  0.00000000000E+00 0. -1.
         -2   -1    0    0    0  501 -0.00000000000E+00 -0.00000000000E+00 -0.33049520849E+01  0.33049520849E+01  0.00000000000E+00 0.  1.
         21    1    1    2  502  501 -0.10555558787E+02 -0.18886205802E+02  0.66305514579E+02  0.69746181648E+02  0.00000000000E+00 0.  1.
         21    1    1    2  503  502  0.10555558787E+02  0.18886205802E+02  0.72267317418E+02  0.75436554519E+02  0.00000000000E+00 0. -1.
</event>
<event>
 4    1  0.5740469E+002  0.2455075E+02  0.7546771E-02  0.1473892E+00
          2   -1    0    0  503    0  0.00000000000E+00  0.00000000000E+00  0.35980470593E+02  0.35980470593E+02  0.00000000000E+00 0. -1.
         -2   -1    0    0    0  501 -0.00000000000E+00 -0.00000000000E+00 -0.31688217161E+02  0.31688217161E+02  0.00000000000E+00 0.  1.
         21    1    1    2  502  501  0.23793623729E+02 -0.60500393683E+01 -0.21082916512E+02  0.32360915858E+02  0.00000000000E+00 0.  1.
         21    1    1    2  503  502 -0.23793623729E+02  0.60500393683E+01  0.25375169944E+02  0.35307771895E+02  0.00000000000E+00 0. -1.
</event>
<event>
 4    1  0.5740469E+002  0.2040030E+02  0.7546771E-02  0.1528002E+00
          2   -1    0    0  502    0  0.00000000000E+00  0.00000000000E+00  0.10482973952E+02  0.10482973952E+02  0.00000000000E+00 0.  1.
         -2   -1    0    0    0  501 -0.00000000000E+00 -0.00000000000E+00 -0.47270646370E+02  0.47270646370E+02  0.00000000000E+00 0. -1.
         21    1    1    2  502  503  0.15183423877E+02 -0.13624831363E+02 -0.68373844103E+01  0.21515627248E+02  0.00000000000E+00 0. -1.
         21    1    1    2  503  501 -0.15183423877E+02  0.13624831363E+02 -0.29950288008E+02  0.36237993075E+02  0.00000000000E+00 0.  1.
</event>
<event>
 4    1  0.5740469E+002  0.2755933E+02  0.7546771E-02  0.1442069E+00
          2   -1    0    0  503    0  0.00000000000E+00  0.00000000000E+00  0.23629170437E+04  0.23629170437E+04  0.00000000000E+00 0.  1.
         -2   -1    0    0    0  501 -0.00000000000E+00 -0.00000000000E+00 -0.48371490001E+00  0.48371490001E+00  0.00000000000E+00 0. -1.
         21    1    1    2  502  501 -0.26169443788E+02  0.86415660750E+01  0.49675454459E+03  0.49751843587E+03  0.00000000000E+00 0. -1.
         21    1    1    2  503  502  0.26169443788E+02 -0.86415660750E+01  0.18656787842E+04  0.18658823227E+04  0.00000000000E+00 0.  1.
</event>
<event>
 4    1  0.5740469E+002  0.2317190E+02  0.7546771E-02  0.1490351E+00
          2   -1    0    0  503    0  0.00000000000E+00  0.00000000000E+00  0.28560290810E+04  0.28560290810E+04  0.00000000000E+00 0. -1.
         -2   -1    0    0    0  501 -0.00000000000E+00 -0.00000000000E+00 -0.18875489289E+00  0.18875489289E+00  0.00000000000E+00 0.  1.
         21    1    1    2  502  501  0.20829775358E+02 -0.10151717702E+02  0.13376784181E+04  0.13378791003E+04  0.00000000000E+00 0. -1.
         21    1    1    2  503  502 -0.20829775358E+02  0.10151717702E+02  0.15181619081E+04  0.15183387356E+04  0.00000000000E+00 0.  1.
</event>
<event>
 4    1  0.5740469E+002  0.2398665E+02  0.7546771E-02  0.1480467E+00
          2   -1    0    0  503    0  0.00000000000E+00  0.00000000000E+00  0.31932185815E+01  0.31932185815E+01  0.00000000000E+00 0.  1.
         -2   -1    0    0    0  501 -0.00000000000E+00 -0.00000000000E+00 -0.22705688106E+03  0.22705688106E+03  0.00000000000E+00 0. -1.
         21    1    1    2  502  501 -0.93747407008E+01 -0.22078809025E+02 -0.16424053392E+03  0.16598286826E+03  0.00000000000E+00 0. -1.
         21    1    1    2  503  502  0.93747407008E+01  0.22078809025E+02 -0.59623128555E+02  0.64267231385E+02  0.00000000000E+00 0.  1.
</event>
<event>
 4    1  0.5740469E+002  0.2506284E+02  0.7546771E-02  0.1468102E+00
          2   -1    0    0  503    0  0.00000000000E+00  0.00000000000E+00  0.74270159887E+03  0.74270159887E+03  0.00000000000E+00 0.  1.
         -2   -1    0    0    0  501 -0.00000000000E+00 -0.00000000000E+00 -0.21164130898E+01  0.21164130898E+01  0.00000000000E+00 0. -1.
         21    1    1    2  502  501  0.10560153727E+02 -0.22729480856E+02  0.81734193510E+02  0.85490493831E+02  0.00000000000E+00 0. -1.
         21    1    1    2  503  502 -0.10560153727E+02  0.22729480856E+02  0.65885099227E+03  0.65932751813E+03  0.00000000000E+00 0.  1.
</event>
<event>
 4    1  0.5740469E+002  0.5557138E+02  0.7546771E-02  0.1275670E+00
          2   -1    0    0  503    0  0.00000000000E+00  0.00000000000E+00  0.21893400424E+04  0.21893400424E+04  0.00000000000E+00 0.  1.
         -2   -1    0    0    0  501 -0.00000000000E+00 -0.00000000000E+00 -0.24404470252E+01  0.24404470252E+01  0.00000000000E+00 0. -1.
         21    1    1    2  502  501 -0.16818110800E+02 -0.52965359739E+02  0.18053659209E+04  0.18062209960E+04  0.00000000000E+00 0.  1.
         21    1    1    2  503  502  0.16818110800E+02  0.52965359739E+02  0.38153367457E+03  0.38555949348E+03  0.00000000000E+00 0. -1.
</event>
<event>
 4    1  0.5740469E+002  0.2958097E+02  0.7546771E-02  0.1423273E+00
          2   -1    0    0  502    0  0.00000000000E+00  0.00000000000E+00  0.14969467016E+02  0.14969467016E+02  0.00000000000E+00 0.  1.
         -2   -1    0    0    0  501 -0.00000000000E+00 -0.00000000000E+00 -0.62365728271E+02  0.62365728271E+02  0.00000000000E+00 0. -1.
         21    1    1    2  502  503  0.49253231724E+01  0.29168044417E+02 -0.14014741496E+02  0.32732958966E+02  0.00000000000E+00 0.  1.
         21    1    1    2  503  501 -0.49253231724E+01 -0.29168044417E+02 -0.33381519759E+02  0.44602236321E+02  0.00000000000E+00 0. -1.
</event>
<event>
 4    1  0.5740469E+002  0.2556554E+02  0.7546771E-02  0.1462575E+00
          2   -1    0    0  502    0  0.00000000000E+00  0.00000000000E+00  0.57708796792E+03  0.57708796792E+03  0.00000000000E+00 0.  1.
         -2   -1    0    0    0  501 -0.00000000000E+00 -0.00000000000E+00 -0.16863070989E+01  0.16863070989E+01  0.00000000000E+00 0. -1.
         21    1    1    2  502  503 -0.16602703070E+02 -0.19440854758E+02  0.45352962326E+03  0.45424961833E+03  0.00000000000E+00 0.  1.
         21    1    1    2  503  501  0.16602703070E+02  0.19440854758E+02  0.12187203756E+03  0.12452465669E+03  0.00000000000E+00 0. -1.
</event>
<event>
 4    1  0.5740469E+002  0.2172944E+02  0.7546771E-02  0.1509100E+00
          2   -1    0    0  503    0  0.00000000000E+00  0.00000000000E+00  0.25192878332E+04  0.25192878332E+04  0.00000000000E+00 0.  1.
         -2   -1    0    0    0  501 -0.00000000000E+00 -0.00000000000E+00 -0.20309905839E+00  0.20309905839E+00  0.00000000000E+00 0. -1.
         21    1    1    2  502  501 -0.38848611347E+01  0.21379348120E+02  0.16095425258E+04  0.16096891971E+04  0.00000000000E+00 0.  1.
         21    1    1    2  503  502  0.38848611347E+01 -0.21379348120E+02  0.90954220829E+03  0.90980173517E+03  0.00000000000E+00 0. -1.
</event>
<event>
 4    1  0.5740469E+002  0.2402907E+02  0.7546771E-02  0.1479965E+00
          2   -1    0    0  503    0  0.00000000000E+00  0.00000000000E+00  0.65125706674E+03  0.65125706674E+03  0.00000000000E+00 0. -1.
         -2   -1    0    0    0  501 -0.00000000000E+00 -0.00000000000E+00 -0.27068458455E+01  0.27068458455E+01  0.00000000000E+00 0.  1.
         21    1    1    2  502  501  0.11030145294E+02  0.21347882868E+02  0.56136983067E+02  0.61063549488E+02  0.00000000000E+00 0.  1.
         21    1    1    2  503  502 -0.11030145294E+02 -0.21347882868E+02  0.59241323782E+03  0.59290036309E+03  0.00000000000E+00 0. -1.
</event>
<event>
 4    1  0.5740469E+002  0.2145903E+02  0.7546771E-02  0.1512811E+00
          2   -1    0    0  503    0  0.00000000000E+00  0.00000000000E+00  0.36737822131E+03  0.36737822131E+03  0.00000000000E+00 0.  1.
         -2   -1    0    0    0  501 -0.00000000000E+00 -0.00000000000E+00 -0.18912366741E+01  0.18912366741E+01  0.00000000000E+00 0. -1.
         21    1    1    2  502  501 -0.19352994055E+02 -0.92710011007E+01  0.75522817611E+02  0.78512329097E+02  0.00000000000E+00 0. -1.
         21    1    1    2  503  502  0.19352994055E+02  0.92710011007E+01  0.28996416703E+03  0.29075712889E+03  0.00000000000E+00 0.  1.
</event>
<event>
 4    1  0.5740469E+002  0.3193202E+02  0.7546771E-02  0.1403518E+00
          2   -1    0    0  503    0  0.00000000000E+00  0.00000000000E+00  0.24659413828E+03  0.24659413828E+03  0.00000000000E+00 0. -1.
         -2   -1    0    0    0  501 -0.00000000000E+00 -0.00000000000E+00 -0.79640335458E+01  0.79640335458E+01  0.00000000000E+00 0.  1.
         21    1    1    2  502  501  0.28224170282E+02 -0.14934851951E+02  0.31060295701E+02  0.44546554973E+02  0.00000000000E+00 0.  1.
         21    1    1    2  503  502 -0.28224170282E+02  0.14934851951E+02  0.20756980903E+03  0.21001161685E+03  0.00000000000E+00 0. -1.
</event>
<event>
 4    1  0.5740469E+002  0.2114263E+02  0.7546771E-02  0.1517238E+00
          2   -1    0    0  502    0  0.00000000000E+00  0.00000000000E+00  0.10055619963E+03  0.10055619963E+03  0.00000000000E+00 0.  1.
         -2   -1    0    0    0  501 -0.00000000000E+00 -0.00000000000E+00 -0.51295117347E+01  0.51295117347E+01  0.00000000000E+00 0. -1.
         21    1    1    2  502  503  0.20426843106E+02 -0.54548139179E+01  0.67011547614E+02  0.70267762365E+02  0.00000000000E+00 0.  1.
         21    1    1    2  503  501 -0.20426843106E+02  0.54548139179E+01  0.28415140283E+02  0.35417949001E+02  0.00000000000E+00 0. -1.
</event>
<event>
 4    1  0.5740469E+002  0.2012337E+02  0.7546771E-02  0.1532158E+00
          2   -1    0    0  503    0  0.00000000000E+00  0.00000000000E+00  0.12388684099E+02  0.12388684099E+02  0.00000000000E+00 0. -1.
         -2   -1    0    0    0  501 -0.00000000000E+00 -0.00000000000E+00 -0.48084352166E+02  0.48084352166E+02  0.00000000000E+00 0.  1.
         21    1    1    2  502  501  0.12822086551E+01  0.20082482900E+02 -0.34957891959E+02  0.40336142461E+02  0.00000000000E+00 0.  1.
         21    1    1    2  503  502 -0.12822086551E+01 -0.20082482900E+02 -0.73777610798E+00  0.20136893803E+02  0.00000000000E+00 0. -1.
</event>
<event>
 4    1  0.5740469E+002  0.2025020E+02  0.7546771E-02  0.1530245E+00
          2   -1    0    0  502    0  0.00000000000E+00  0.00000000000E+00  0.48447610789E+02  0.48447610789E+02  0.00000000000E+00 0. -1.
         -2   -1    0    0    0  501 -0.00000000000E+00 -0.00000000000E+00 -0.99244877207E+01  0.99244877207E+01  0.00000000000E+00 0.  1.
         21    1    1    2  502  503 -0.17486532234E+02  0.10212328387E+02  0.30456968485E+02  0.36574545656E+02  0.00000000000E+00 0.  1.
         21    1    1    2  503  501  0.17486532234E+02 -0.10212328387E+02  0.80661545831E+01  0.21797552854E+02  0.00000000000E+00 0. -1.
</event>
<event>
 4    1  0.5740469E+002  0.4245500E+02  0.7546771E-02  0.1334670E+00
          2   -1    0    0  502    0  0.00000000000E+00  0.00000000000E+00  0.54668615876E+03  0.54668615876E+03  0.00000000000E+00 0. -1.
         -2   -1    0    0    0  501 -0.00000000000E+00 -0.00000000000E+00 -0.56244710402E+01  0.56244710402E+01  0.00000000000E+00 0.  1.
         21    1    1    2  502  503  0.42451052599E+02  0.57914285790E+00  0.44817633673E+03  0.45018269189E+03  0.00000000000E+00 0. -1.
         21    1    1    2  503  501 -0.42451052599E+02 -0.57914285790E+00  0.92885350993E+02  0.10212793791E+03  0.00000000000E+00 0.  1.
</event>
<event>
 4    1  0.5740469E+002  0.2492271E+02  0.7546771E-02  0.1469670E+00
          2   -1    0    0  502    0  0.00000000000E+00  0.00000000000E+00  0.95447307984E+03  0.95447307984E+03  0.00000000000E+00 0.  1.
         -2   -1    0    0    0  501 -0.00000000000E+00 -0.00000000000E+00 -0.77141233858E+00  0.77141233858E+00  0.00000000000E+00 0. -1.
         21    1    1    2  502  503 -0.20762096656E+02  0.13786841272E+02  0.66573372913E+03  0.66620007487E+03  0.00000000000E+00 0.  1.
         21    1    1    2  503  501  0.20762096656E+02 -0.13786841272E+02  0.28796793837E+03  0.28904441731E+03  0.00000000000E+00 0. -1.
</event>
<event>
 4    1  0.5740469E+002  0.2153574E+02  0.7546771E-02  0.1511752E+00
          2   -1    0    0  502    0  0.00000000000E+00  0.00000000000E+00  0.10865420681E+04  0.10865420681E+04  0.00000000000E+00 0. -1.
         -2   -1    0    0    0  501 -0.00000000000E+00 -0.00000000000E+00 -0.10347211850E+01  0.10347211850E+01  0.00000000000E+00 0.  1.
         21    1    1    2  502  503  0.42504484492E+01  0.21112120338E+02  0.95955095659E+03  0.95979259543E+03  0.00000000000E+00 0. -1.
         21    1    1    2  503  501 -0.42504484492E+01 -0.21112120338E+02  0.12595639035E+03  0.12778419389E+03  0.00000000000E+00 0.  1.
</event>
<event>
 4    1  0.5740469E+002  0.2838076E+02  0.7546771E-02  0.1434210E+00
          2   -1    0    0  503    0  0.00000000000E+00  0.00000000000E+00  0.35217276473E+03  0.35217276473E+03  0.00000000000E+00 0. -1.
         -2   -1    0    0    0  501 -0.00000000000E+00 -0.00000000000E+00 -0.24241192240E+01  0.24241192240E+01  0.00000000000E+00 0.  1.
         21    1    1    2  502  501 -0.26289323955E+02 -0.10692932926E+02  0.21702067593E+03  0.21886854765E+03  0.00000000000E+00 0. -1.
         21    1    1    2  503  502  0.26289323955E+02  0.10692932926E+02  0.13272796958E+03  0.13572833631E+03  0.00000000000E+00 0.  1.
</event>
<event>
 4    1  0.5740469E+002  0.2269317E+02  0.7546771E-02  0.1496387E+00
          2   -1    0    0  502    0  0.00000000000E+00  0.00000000000E+00  0.11677091012E+01  0.11677091012E+01  0.00000000000E+00 0. -1.
         -2   -1    0    0    0  501 -0.00000000000E+00 -0.00000000000E+00 -0.48543504614E+03  0.48543504614E+03  0.00000000000E+00 0.  1.
         21    1    1    2  502  503  0.13707482403E+02 -0.18085489446E+02 -0.16853721319E+03  0.17005814368E+03  0.00000000000E+00 0.  1.
         21    1    1    2  503  501 -0.13707482403E+02  0.18085489446E+02 -0.31573012385E+03  0.31654461156E+03  0.00000000000E+00 0. -1.
</event>
<event>
 4    1  0.5740469E+002  0.2372353E+02  0.7546771E-02  0.1483607E+00
          2   -1    0    0  502    0  0.00000000000E+00  0.00000000000E+00  0.45588716223E+03  0.45588716223E+03  0.00000000000E+00 0. -1.
         -2   -1    0    0    0  501 -0.00000000000E+00 -0.00000000000E+00 -0.13198395041E+01  0.13198395041E+01  0.00000000000E+00 0.  1.
         21    1    1    2  502  503  0.23162250643E+02  0.51298952851E+01  0.16916375304E+03  0.17081914712E+03  0.00000000000E+00 0.  1.
         21    1    1    2  503  501 -0.23162250643E+02 -0.51298952851E+01  0.28540356969E+03  0.28638785462E+03  0.00000000000E+00 0. -1.
</event>
<event>
 4    1  0.5740469E+002  0.2440141E+02  0.7546771E-02  0.1475612E+00
          2   -1    0    0  502    0  0.00000000000E+00  0.00000000000E+00  0.19033438641E+02  0.19033438641E+02  0.00000000000E+00 0. -1.
         -2   -1    0    0    0  501 -0.00000000000E+00 -0.00000000000E+00 -0.32725783955E+02  0.32725783955E+02  0.00000000000E+00 0.  1.
         21    1    1    2  502  503 -0.10864482082E+02  0.21849296620E+02 -0.14128122891E+01  0.24442274285E+02  0.00000000000E+00 0. -1.
         21    1    1    2  503  501  0.10864482082E+02 -0.21849296620E+02 -0.12279533026E+02  0.27316948311E+02  0.00000000000E+00 0.  1.
</event>
<event>
 4    1  0.5740469E+002  0.2813147E+02  0.7546771E-02  0.1436562E+00
          2   -1    0    0  503    0  0.00000000000E+00  0.00000000000E+00  0.16697647959E+04  0.16697647959E+04  0.00000000000E+00 0.  1.
         -2   -1    0    0    0  501 -0.00000000000E+00 -0.00000000000E+00 -0.13221721271E+02  0.13221721271E+02  0.00000000000E+00 0. -1.
         21    1    1    2  502  501  0.25926207784E+02  0.10918399302E+02  0.19980305697E+01  0.28202337129E+02  0.00000000000E+00 0. -1.
         21    1    1    2  503  502 -0.25926207784E+02 -0.10918399302E+02  0.16545450441E+04  0.16547841801E+04  0.00000000000E+00 0.  1.
</event>
<event>
 4    1  0.5740469E+002  0.2170047E+02  0.7546771E-02  0.1509494E+00
          2   -1    0    0  503    0  0.00000000000E+00  0.00000000000E+00  0.51611550501E+02  0.51611550501E+02  0.00000000000E+00 0. -1.
         -2   -1    0    0    0  501 -0.00000000000E+00 -0.00000000000E+00 -0.27979640307E+02  0.27979640307E+02  0.00000000000E+00 0.  1.
         21    1    1    2  502  501  0.13364518229E+02 -0.17096789307E+02 -0.20852836929E+02  0.30095703349E+02  0.00000000000E+00 0.  1.
         21    1    1    2  503  502 -0.13364518229E+02  0.17096789307E+02  0.44484747123E+02  0.49495487458E+02  0.00000000000E+00 0. -1.
</event>
<event>
 4    1  0.5740469E+002  0.2115740E+02  0.7546771E-02  0.1517029E+00
          2   -1    0    0  503    0  0.00000000000E+00  0.00000000000E+00  0.16246092380E+03  0.16246092380E+03  0.00000000000E+00 0.  1.
         -2   -1    0    0    0  501 -0.00000000000E+00 -0.00000000000E+00 -0.43929528739E+02  0.43929528739E+02  0.00000000000E+00 0. -1.
         21    1    1    2  502  501 -0.12768832567E+02  0.16869871950E+02 -0.40640824857E+02  0.45818253020E+02  0.00000000000E+00 0. -1.
         21    1    1    2  503  502  0.12768832567E+02 -0.16869871950E+02  0.15917221992E+03  0.16057219952E+03  0.00000000000E+00 0.  1.
</event>
<event>
 4    1  0.5740469E+002  0.3234593E+02  0.7546771E-02  0.1400248E+00
          2   -1    0    0  502    0  0.00000000000E+00  0.00000000000E+00  0.20907412448E+04  0.20907412448E+04  0.00000000000E+00 0. -1.
         -2   -1    0    0    0  501 -0.00000000000E+00 -0.00000000000E+00 -0.92862881234E+00  0.92862881234E+00  0.00000000000E+00 0.  1.
         21    1    1    2  502  503 -0.60362129846E+01  0.31777714826E+02  0.17550845659E+04  0.17553826057E+04  0.00000000000E+00 0. -1.
         21    1    1    2  503  501  0.60362129846E+01 -0.31777714826E+02  0.33472805013E+03  0.33628726792E+03  0.00000000000E+00 0.  1.
</event>
<event>
 4    1  0.5740469E+002  0.3418810E+02  0.7546771E-02  0.1386363E+00
          2   -1    0    0  502    0  0.00000000000E+00  0.00000000000E+00  0.23268083787E+03  0.23268083787E+03  0.00000000000E+00 0. -1.
         -2   -1    0    0    0  501 -0.00000000000E+00 -0.00000000000E+00 -0.90591113286E+01  0.90591113286E+01  0.00000000000E+00 0.  1.
         21    1    1    2  502  503  0.26218611371E+00 -0.34187090041E+02  0.19248624155E+03  0.19549879553E+03  0.00000000000E+00 0. -1.
         21    1    1    2  503  501 -0.26218611371E+00  0.34187090041E+02  0.31135484990E+02  0.46241153669E+02  0.00000000000E+00 0.  1.
</event>
<event>
 4    1  0.5740469E+002  0.2111512E+02  0.7546771E-02  0.1517628E+00
          2   -1    0    0  502    0  0.00000000000E+00  0.00000000000E+00  0.50664000500E+02  0.50664000500E+02  0.00000000000E+00 0.  1.
         -2   -1    0    0    0  501 -0.00000000000E+00 -0.00000000000E+00 -0.10727766929E+02  0.10727766929E+02  0.00000000000E+00 0. -1.
         21    1    1    2  502  503 -0.16786315650E+02  0.12808892517E+02  0.32980049490E+02  0.39160334332E+02  0.00000000000E+00 0.  1.
         21    1    1    2  503  501  0.16786315650E+02 -0.12808892517E+02  0.69561840812E+01  0.22231433097E+02  0.00000000000E+00 0. -1.
</event>
<event>
 4    1  0.5740469E+002  0.2062832E+02  0.7546771E-02  0.1524638E+00
          2   -1    0    0  503    0  0.00000000000E+00  0.00000000000E+00  0.14503534090E+04  0.14503534090E+04  0.00000000000E+00 0.  1.
         -2   -1    0    0    0  501 -0.00000000000E+00 -0.00000000000E+00 -0.31580782203E+00  0.31580782203E+00  0.00000000000E+00 0. -1.
         21    1    1    2  502  501  0.31029256430E+01 -0.20393609935E+02  0.53179157695E+03  0.53219151514E+03  0.00000000000E+00 0. -1.
         21    1    1    2  503  502 -0.31029256430E+01  0.20393609935E+02  0.91824602428E+03  0.91847770173E+03  0.00000000000E+00 0.  1.
</event>
<event>
 4    1  0.5740469E+002  0.2401005E+02  0.7546771E-02  0.1480190E+00
          2   -1    0    0  502    0  0.00000000000E+00  0.00000000000E+00  0.13124204442E+03  0.13124204442E+03  0.00000000000E+00 0. -1.
         -2   -1    0    0    0  501 -0.00000000000E+00 -0.00000000000E+00 -0.47394781967E+01  0.47394781967E+01  0.00000000000E+00 0.  1.
         21    1    1    2  502  503  0.13594296344E+02  0.19790849707E+02  0.81647412556E+02  0.85104539258E+02  0.00000000000E+00 0.  1.
         21    1    1    2  503  501 -0.13594296344E+02 -0.19790849707E+02  0.44855153668E+02  0.50876983360E+02  0.00000000000E+00 0. -1.
</event>
<event>
 4    1  0.5740469E+002  0.2413097E+02  0.7546771E-02  0.1478765E+00
          2   -1    0    0  502    0  0.00000000000E+00  0.00000000000E+00  0.72925897761E+03  0.72925897761E+03  0.00000000000E+00 0. -1.
         -2   -1    0    0    0  501 -0.00000000000E+00 -0.00000000000E+00 -0.13389961703E+01  0.13389961703E+01  0.00000000000E+00 0.  1.
         21    1    1    2  502  503  0.22197397013E+02  0.94646454081E+01  0.59605203831E+03  0.59654030570E+03  0.00000000000E+00 0. -1.
         21    1    1    2  503  501 -0.22197397013E+02 -0.94646454081E+01  0.13186794313E+03  0.13405766808E+03  0.00000000000E+00 0.  1.
</event>
<event>
 4    1  0.5740469E+002  0.2052260E+02  0.7546771E-02  0.1526191E+00
          2   -1    0    0  502    0  0.00000000000E+00  0.00000000000E+00  0.97315741153E+03  0.97315741153E+03  0.00000000000E+00 0. -1.
         -2   -1    0    0    0  501 -0.00000000000E+00 -0.00000000000E+00 -0.10509354626E+01  0.10509354626E+01  0.00000000000E+00 0.  1.
         21    1    1    2  502  503 -0.19918543726E+02  0.49425549583E+01  0.85962803414E+03  0.85987297568E+03  0.00000000000E+00 0. -1.
         21    1    1    2  503  501  0.19918543726E+02 -0.49425549583E+01  0.11247844193E+03  0.11433537131E+03  0.00000000000E+00 0.  1.
</event>
<event>
 4    1  0.5740469E+002  0.4897113E+02  0.7546771E-02  0.1302696E+00
          2   -1    0    0  502    0  0.00000000000E+00  0.00000000000E+00  0.73391764520E+02  0.73391764520E+02  0.00000000000E+00 0.  1.
         -2   -1    0    0    0  501 -0.00000000000E+00 -0.00000000000E+00 -0.32706338810E+02  0.32706338810E+02  0.00000000000E+00 0. -1.
         21    1    1    2  502  503 -0.48806358387E+02  0.40138406327E+01  0.21950325035E+02  0.53665522496E+02  0.00000000000E+00 0. -1.
         21    1    1    2  503  501  0.48806358387E+02 -0.40138406327E+01  0.18735100674E+02  0.52432580834E+02  0.00000000000E+00 0.  1.
</event>
<event>
 4    1  0.5740469E+002  0.2305716E+02  0.7546771E-02  0.1491782E+00
          2   -1    0    0  502    0  0.00000000000E+00  0.00000000000E+00  0.17488147453E+03  0.17488147453E+03  0.00000000000E+00 0.  1.
         -2   -1    0    0    0  501 -0.00000000000E+00 -0.00000000000E+00 -0.10729436525E+02  0.10729436525E+02  0.00000000000E+00 0. -1.
         21    1    1    2  502  503  0.12137947239E+02 -0.19603643750E+02  0.16064180312E+03  0.16228808189E+03  0.00000000000E+00 0.  1.
         21    1    1    2  503  501 -0.12137947239E+02  0.19603643750E+02  0.35102348793E+01  0.23322829167E+02  0.00000000000E+00 0. -1.
</event>
<event>
 4    1  0.5740469E+002  0.2202694E+02  0.7546771E-02  0.1505092E+00
          2   -1    0    0  503    0  0.00000000000E+00  0.00000000000E+00  0.17565393310E+03  0.17565393310E+03  0.00000000000E+00 0. -1.
         -2   -1    0    0    0  501 -0.00000000000E+00 -0.00000000000E+00 -0.45032733108E+01  0.45032733108E+01  0.00000000000E+00 0.  1.
         21    1    1    2  502  501  0.26204608285E+01 -0.21870508274E+02  0.29564782656E+02  0.36868174902E+02  0.00000000000E+00 0.  1.
         21    1    1    2  503  502 -0.26204608285E+01  0.21870508274E+02  0.14158587714E+03  0.14328903151E+03  0.00000000000E+00 0. -1.
</event>
<event>
 4    1  0.5740469E+002  0.2155018E+02  0.7546771E-02  0.1511553E+00
          2   -1    0    0  502    0  0.00000000000E+00  0.00000000000E+00  0.10753374471E+02  0.10753374471E+02  0.00000000000E+00 0. -1.
         -2   -1    0    0    0  501 -0.00000000000E+00 -0.00000000000E+00 -0.21871103905E+03  0.21871103905E+03  0.00000000000E+00 0.  1.
         21    1    1    2  502  503 -0.15869063801E+01  0.21491670621E+02 -0.11966547428E+01  0.21583376949E+02  0.00000000000E+00 0. -1.
         21    1    1    2  503  501  0.15869063801E+01 -0.21491670621E+02 -0.20676100984E+03  0.20788103657E+03  0.00000000000E+00 0.  1.
</event>
<event>
 4    1  0.5740469E+002  0.2168938E+02  0.7546771E-02  0.1509646E+00
          2   -1    0    0  503    0  0.00000000000E+00  0.00000000000E+00  0.29274782678E+02  0.29274782678E+02  0.00000000000E+00 0.  1.
         -2   -1    0    0    0  501 -0.00000000000E+00 -0.00000000000E+00 -0.16459589807E+02  0.16459589807E+02  0.00000000000E+00 0. -1.
         21    1    1    2  502  501  0.16307968479E+02 -0.14299627839E+02  0.99282410224E+01  0.23853703319E+02  0.00000000000E+00 0.  1.
         21    1    1    2  503  502 -0.16307968479E+02  0.14299627839E+02  0.28869518486E+01  0.21880669167E+02  0.00000000000E+00 0. -1.
</event>
<event>
 4    1  0.5740469E+002  0.4648991E+02  0.7546771E-02  0.1314153E+00
          2   -1    0    0  502    0  0.00000000000E+00  0.00000000000E+00  0.17734568412E+03  0.17734568412E+03  0.00000000000E+00 0. -1.
         -2   -1    0    0    0  501 -0.00000000000E+00 -0.00000000000E+00 -0.20764861033E+02  0.20764861033E+02  0.00000000000E+00 0.  1.
         21    1    1    2  502  503  0.38997446235E+02 -0.25308321962E+02  0.14195567912E+03  0.14937445165E+03  0.00000000000E+00 0. -1.
         21    1    1    2  503  501 -0.38997446235E+02  0.25308321962E+02  0.14625143970E+02  0.48736093499E+02  0.00000000000E+00 0.  1.
</event>
<event>
 4    1  0.5740469E+002  0.2412586E+02  0.7546771E-02  0.1478825E+00
          2   -1    0    0  503    0  0.00000000000E+00  0.00000000000E+00  0.18288746016E+03  0.18288746016E+03  0.00000000000E+00 0.  1.
         -2   -1    0    0    0  501 -0.00000000000E+00 -0.00000000000E+00 -0.33184311735E+01  0.33184311735E+01  0.00000000000E+00 0. -1.
         21    1    1    2  502  501  0.24120913143E+02 -0.48856731750E+00  0.70947982285E+02  0.74937796466E+02  0.00000000000E+00 0.  1.
         21    1    1    2  503  502 -0.24120913143E+02  0.48856731750E+00  0.10862104670E+03  0.11126809486E+03  0.00000000000E+00 0. -1.
</event>
<event>
 4    1  0.5740469E+002  0.2689433E+02  0.7546771E-02  0.1448672E+00
          2   -1    0    0  502    0  0.00000000000E+00  0.00000000000E+00  0.15275515681E+04  0.15275515681E+04  0.00000000000E+00 0. -1.
         -2   -1    0    0    0  501 -0.00000000000E+00 -0.00000000000E+00 -0.55243738509E+00  0.55243738509E+00  0.00000000000E+00 0.  1.
         21    1    1    2  502  503  0.14568921500E+01 -0.26854845016E+02  0.10523051085E+04  0.10526487290E+04  0.00000000000E+00 0.  1.
         21    1    1    2  503  501 -0.14568921500E+01  0.26854845016E+02  0.47469402223E+03  0.47545527652E+03  0.00000000000E+00 0. -1.
</event>
<event>
 4    1  0.5740469E+002  0.2269669E+02  0.7546771E-02  0.1496342E+00
          2   -1    0    0  503    0  0.00000000000E+00  0.00000000000E+00  0.19060171201E+03  0.19060171201E+03  0.00000000000E+00 0. -1.
         -2   -1    0    0    0  501 -0.00000000000E+00 -0.00000000000E+00 -0.43802760295E+01  0.43802760295E+01  0.00000000000E+00 0.  1.
         21    1    1    2  502  501  0.10533289221E+02 -0.20104470852E+02  0.32777790179E+02  0.39868828163E+02  0.00000000000E+00 0.  1.
         21    1    1    2  503  502 -0.10533289221E+02  0.20104470852E+02  0.15344364581E+03  0.15511315988E+03  0.00000000000E+00 0. -1.
</event>
<event>
 4    1  0.5740469E+002  0.2162264E+02  0.7546771E-02  0.1510558E+00
          2   -1    0    0  502    0  0.00000000000E+00  0.00000000000E+00  0.29170803857E+02  0.29170803857E+02  0.00000000000E+00 0.  1.
         -2   -1    0    0    0  501 -0.00000000000E+00 -0.00000000000E+00 -0.22034271179E+03  0.22034271179E+03  0.00000000000E+00 0. -1.
         21    1    1    2  502  503 -0.13449762876E+02 -0.16930517512E+02  0.24547775279E+02  0.32712869269E+02  0.00000000000E+00 0.  1.
         21    1    1    2  503  501  0.13449762876E+02  0.16930517512E+02 -0.21571968321E+03  0.21680064638E+03  0.00000000000E+00 0. -1.
</event>
<event>
 4    1  0.5740469E+002  0.2178434E+02  0.7546771E-02  0.1508355E+00
          2   -1    0    0  503    0  0.00000000000E+00  0.00000000000E+00  0.15700493775E+04  0.15700493775E+04  0.00000000000E+00 0. -1.
         -2   -1    0    0    0  501 -0.00000000000E+00 -0.00000000000E+00 -0.10990688008E+02  0.10990688008E+02  0.00000000000E+00 0.  1.
         21    1    1    2  502  501 -0.14455047908E+02  0.16297511062E+02 -0.44812615546E-01  0.21784381676E+02  0.00000000000E+00 0.  1.
         21    1    1    2  503  502  0.14455047908E+02 -0.16297511062E+02  0.15591035021E+04  0.15592556839E+04  0.00000000000E+00 0. -1.
</event>
<event>
 4    1  0.5740469E+002  0.2577007E+02  0.7546771E-02  0.1460370E+00
          2   -1    0    0  503    0  0.00000000000E+00  0.00000000000E+00  0.14499145535E+03  0.14499145535E+03  0.00000000000E+00 0.  1.
         -2   -1    0    0    0  501 -0.00000000000E+00 -0.00000000000E+00 -0.24573733924E+02  0.24573733924E+02  0.00000000000E+00 0. -1.
         21    1    1    2  502  501  0.11115872269E+02  0.23249388503E+02 -0.16265419628E+02  0.30473932430E+02  0.00000000000E+00 0. -1.
         21    1    1    2  503  502 -0.11115872269E+02 -0.23249388503E+02  0.13668314105E+03  0.13909125684E+03  0.00000000000E+00 0.  1.
</event>
<event>
 4    1  0.5740469E+002  0.5165536E+02  0.7546771E-02  0.1291151E+00
          2   -1    0    0  502    0  0.00000000000E+00  0.00000000000E+00  0.46598850260E+03  0.46598850260E+03  0.00000000000E+00 0. -1.
         -2   -1    0    0    0  501 -0.00000000000E+00 -0.00000000000E+00 -0.78710560942E+01  0.78710560942E+01  0.00000000000E+00 0.  1.
         21    1    1    2  502  503  0.40795730271E+02 -0.31685711757E+02  0.35274367793E+03  0.35650578994E+03  0.00000000000E+00 0.  1.
         21    1    1    2  503  501 -0.40795730271E+02  0.31685711757E+02  0.10537376857E+03  0.11735376876E+03  0.00000000000E+00 0. -1.
</event>
<event>
 4    1  0.5740469E+002  0.2318129E+02  0.7546771E-02  0.1490234E+00
          2   -1    0    0  502    0  0.00000000000E+00  0.00000000000E+00  0.88627941801E+03  0.88627941801E+03  0.00000000000E+00 0.  1.
         -2   -1    0    0    0  501 -0.00000000000E+00 -0.00000000000E+00 -0.10447288685E+01  0.10447288685E+01  0.00000000000E+00 0. -1.
         21    1    1    2  502  503 -0.22411463398E+02  0.59243825670E+01  0.73001846705E+03  0.73038642801E+03  0.00000000000E+00 0.  1.
         21    1    1    2  503  501  0.22411463398E+02 -0.59243825670E+01  0.15521622209E+03  0.15693771886E+03  0.00000000000E+00 0. -1.
</event>
<event>
 4    1  0.5740469E+002  0.5147930E+02  0.7546771E-02  0.1291883E+00
          2   -1    0    0  503    0  0.00000000000E+00  0.00000000000E+00  0.37549347276E+04  0.37549347276E+04  0.00000000000E+00 0. -1.
         -2   -1    0    0    0  501 -0.00000000000E+00 -0.00000000000E+00 -0.23730861740E+01  0.23730861740E+01  0.00000000000E+00 0.  1.
         21    1    1    2  502  501  0.35050329265E+01  0.51359836286E+02  0.30157626166E+03  0.30593848995E+03  0.00000000000E+00 0.  1.
         21    1    1    2  503  502 -0.35050329265E+01 -0.51359836286E+02  0.34509853798E+04  0.34513693239E+04  0.00000000000E+00 0. -1.
</event>
<event>
 4    1  0.5740469E+002  0.2498071E+02  0.7546771E-02  0.1469019E+00
          2   -1    0    0  503    0  0.00000000000E+00  0.00000000000E+00  0.24433016760E+04  0.24433016760E+04  0.00000000000E+00 0.  1.
         -2   -1    0    0    0  501 -0.00000000000E+00 -0.00000000000E+00 -0.26372797689E+00  0.26372797689E+00  0.00000000000E+00 0. -1.
         21    1    1    2  502  501  0.23515739004E+02 -0.84288680337E+01  0.14385435643E+04  0.14387604464E+04  0.00000000000E+00 0.  1.
         21    1    1    2  503  502 -0.23515739004E+02  0.84288680337E+01  0.10044943837E+04  0.10048049576E+04  0.00000000000E+00 0. -1.
</event>
<event>
 4    1  0.5740469E+002  0.2200885E+02  0.7546771E-02  0.1505334E+00
          2   -1    0    0  502    0  0.00000000000E+00  0.00000000000E+00  0.10538416816E+04  0.10538416816E+04  0.00000000000E+00 0.  1.
         -2   -1    0    0    0  501 -0.00000000000E+00 -0.00000000000E+00 -0.58085453913E+01  0.58085453913E+01  0.00000000000E+00 0. -1.
         21    1    1    2  502  503 -0.19750545075E+02  0.97111044603E+01  0.10324466466E+04  0.10326812033E+04  0.00000000000E+00 0.  1.
         21    1    1    2  503  501  0.19750545075E+02 -0.97111044603E+01  0.15586489619E+02  0.26969023698E+02  0.00000000000E+00 0. -1.
</event>
<event>
 4    1  0.5740469E+002  0.2551762E+02  0.7546771E-02  0.1463095E+00
          2   -1    0    0  503    0  0.00000000000E+00  0.00000000000E+00  0.81788534459E+00  0.81788534459E+00  0.00000000000E+00 0.  1.
         -2   -1    0    0    0  501 -0.00000000000E+00 -0.00000000000E+00 -0.80463383631E+03  0.80463383631E+03  0.00000000000E+00 0. -1.
         21    1    1    2  502  501 -0.24477577603E+02  0.72108942924E+01 -0.44329254679E+03  0.44402638530E+03  0.00000000000E+00 0.  1.
         21    1    1    2  503  502  0.24477577603E+02 -0.72108942924E+01 -0.36052340418E+03  0.36142533636E+03  0.00000000000E+00 0. -1.
</event>
<event>
 4    1  0.5740469E+002  0.2003935E+02  0.7546771E-02  0.1533435E+00
          2   -1    0    0  502    0  0.00000000000E+00  0.00000000000E+00  0.50088078105E+03  0.50088078105E+03  0.00000000000E+00 0. -1.
         -2   -1    0    0    0  501 -0.00000000000E+00 -0.00000000000E+00 -0.27542430829E+01  0.27542430829E+01  0.00000000000E+00 0.  1.
         21    1    1    2  502  503 -0.16180453835E+02 -0.11822364902E+02  0.46108522063E+03  0.46152048284E+03  0.00000000000E+00 0. -1.
         21    1    1    2  503  501  0.16180453835E+02  0.11822364902E+02  0.37041317337E+02  0.42114541292E+02  0.00000000000E+00 0.  1.
</event>
<event>
 4    1  0.5740469E+002  0.3836636E+02  0.7546771E-02  0.1358334E+00
          2   -1    0    0  502    0  0.00000000000E+00  0.00000000000E+00  0.12882159070E+04  0.12882159070E+04  0.00000000000E+00 0.  1.
         -2   -1    0    0    0  501 -0.00000000000E+00 -0.00000000000E+00 -0.16801118753E+01  0.16801118753E+01  0.00000000000E+00 0. -1.
         21    1    1    2  502  503 -0.19373755916E+02 -0.33115485556E+02  0.10080471235E+04  0.10087769729E+04  0.00000000000E+00 0.  1.
         21    1    1    2  503  501  0.19373755916E+02  0.33115485556E+02  0.27848867161E+03  0.28111904599E+03  0.00000000000E+00 0. -1.
</event>
<event>
 4    1  0.5740469E+002  0.2952164E+02  0.7546771E-02  0.1423800E+00
          2   -1    0    0  503    0  0.00000000000E+00  0.00000000000E+00  0.78997003335E+02  0.78997003335E+02  0.00000000000E+00 0.  1.
         -2   -1    0    0    0  501 -0.00000000000E+00 -0.00000000000E+00 -0.60583048259E+02  0.60583048259E+02  0.00000000000E+00 0. -1.
         21    1    1    2  502  501  0.26875420219E+02 -0.12216342274E+02 -0.53909453036E+02  0.61463455461E+02  0.00000000000E+00 0. -1.
         21    1    1    2  503  502 -0.26875420219E+02  0.12216342274E+02  0.72323408112E+02  0.78116596133E+02  0.00000000000E+00 0.  1.
</event>
<event>
 4    1  0.5740469E+002  0.2470420E+02  0.7546771E-02  0.1472140E+00
          2   -1    0    0  503    0  0.00000000000E+00  0.00000000000E+00  0.54887894508E+01  0.54887894508E+01  0.00000000000E+00 0. -1.
         -2   -1    0    0    0  501 -0.00000000000E+00 -0.00000000000E+00 -0.24583493224E+03  0.24583493224E+03  0.00000000000E+00 0.  1.
         21    1    1    2  502  501 -0.18980674415E+02  0.15812381186E+02 -0.21317180149E+03  0.21459849569E+03  0.00000000000E+00 0.  1.
         21    1    1    2  503  502  0.18980674415E+02 -0.15812381186E+02 -0.27174341295E+02  0.36725226001E+02  0.00000000000E+00 0. -1.
</event>
<event>
 4    1  0.5740469E+002  0.3367996E+02  0.7546771E-02  0.1390089E+00
          2   -1    0    0  502    0  0.00000000000E+00  0.00000000000E+00  0.83316756679E+01  0.83316756679E+01  0.00000000000E+00 0.  1.
         -2   -1    0    0    0  501 -0.00000000000E+00 -0.00000000000E+00 -0.19560508200E+03  0.19560508200E+03  0.00000000000E+00 0. -1.
         21    1    1    2  502  503 -0.21347400609E+02  0.26050492986E+02 -0.37418390708E+02  0.50343576161E+02  0.00000000000E+00 0.  1.
         21    1    1    2  503  501  0.21347400609E+02 -0.26050492986E+02 -0.14985501563E+03  0.15359318151E+03  0.00000000000E+00 0. -1.
</event>
<event>
 4    1  0.5740469E+002  0.3564493E+02  0.7546771E-02  0.1376085E+00
          2   -1    0    0  503    0  0.00000000000E+00  0.00000000000E+00  0.33311659175E+02  0.33311659175E+02  0.00000000000E+00 0. -1.
         -2   -1    0    0    0  501 -0.00000000000E+00 -0.00000000000E+00 -0.63146958485E+02  0.63146958485E+02  0.00000000000E+00 0.  1.
         21    1    1    2  502  501  0.17685482316E+02  0.30948093008E+02 -0.45267123223E+02  0.57616605162E+02  0.00000000000E+00 0.  1.
         21    1    1    2  503  502 -0.17685482316E+02 -0.30948093008E+02  0.15431823914E+02  0.38842012498E+02  0.00000000000E+00 0. -1.
</event>
<event>
 4    1  0.5740469E+002  0.2165008E+02  0.7546771E-02  0.1510182E+00
          2   -1    0    0  503    0  0.00000000000E+00  0.00000000000E+00  0.14548725374E+04  0.14548725374E+04  0.00000000000E+00 0. -1.
         -2   -1    0    0    0  501 -0.00000000000E+00 -0.00000000000E+00 -0.59421592909E+00  0.59421592909E+00  0.00000000000E+00 0.  1.
         21    1    1    2  502  501  0.11141988607E+02  0.18562916869E+02  0.23474142355E+03  0.23573769686E+03  0.00000000000E+00 0.  1.
         21    1    1    2  503  502 -0.11141988607E+02 -0.18562916869E+02  0.12195368980E+04  0.12197290565E+04  0.00000000000E+00 0. -1.
</event>
<event>
 4    1  0.5740469E+002  0.2298839E+02  0.7546771E-02  0.1492644E+00
          2   -1    0    0  503    0  0.00000000000E+00  0.00000000000E+00  0.50450699769E+03  0.50450699769E+03  0.00000000000E+00 0. -1.
         -2   -1    0    0    0  501 -0.00000000000E+00 -0.00000000000E+00 -0.71984379539E+01  0.71984379539E+01  0.00000000000E+00 0.  1.
         21    1    1    2  502  501 -0.17479117602E+02 -0.14931389425E+02  0.12148404310E+02  0.26000955167E+02  0.00000000000E+00 0.  1.
         21    1    1    2  503  502  0.17479117602E+02  0.14931389425E+02  0.48516015543E+03  0.48570448048E+03  0.00000000000E+00 0. -1.
</event>
<event>
 4    1  0.5740469E+002  0.2692176E+02  0.7546771E-02  0.1448396E+00
          2   -1    0    0  503    0  0.00000000000E+00  0.00000000000E+00  0.95893514157E+02  0.95893514157E+02  0.00000000000E+00 0.  1.
         -2   -1    0    0    0  501 -0.00000000000E+00 -0.00000000000E+00 -0.30264073165E+02  0.30264073165E+02  0.00000000000E+00 0. -1.
         21    1    1    2  502  501 -0.18516109340E+02  0.19543159684E+02 -0.21822536744E+02  0.34655511906E+02  0.00000000000E+00 0. -1.
         21    1    1    2  503  502  0.18516109340E+02 -0.19543159684E+02  0.87451977736E+02  0.91502075417E+02  0.00000000000E+00 0.  1.
</event>
<event>
 4    1  0.5740469E+002  0.2309906E+02  0.7546771E-02  0.1491258E+00
          2   -1    0    0  503    0  0.00000000000E+00  0.00000000000E+00  0.31465078992E+02  0.31465078992E+02  0.00000000000E+00 0. -1.
         -2   -1    0    0    0  501 -0.00000000000E+00 -0.00000000000E+00 -0.78253477955E+02  0.78253477955E+02  0.00000000000E+00 0.  1.
         21    1    1    2  502  501 -0.20630990283E+02  0.10388881353E+02 -0.71947027756E+02  0.75564154324E+02  0.00000000000E+00 0.  1.
         21    1    1    2  503  502  0.20630990283E+02 -0.10388881353E+02  0.25158628793E+02  0.34154402624E+02  0.00000000000E+00 0. -1.
</event>
<event>
 4    1  0.5740469E+002  0.2004416E+02  0.7546771E-02  0.1533362E+00
          2   -1    0    0  502    0  0.00000000000E+00  0.00000000000E+00  0.28837270565E+03  0.28837270565E+03  0.00000000000E+00 0. -1.
         -2   -1    0    0    0  501 -0.00000000000E+00 -0.00000000000E+00 -0.24258663981E+01  0.24258663981E+01  0.00000000000E+00 0.  1.
         21    1    1    2  502  503 -0.19255316445E+02  0.55678679071E+01  0.23783784501E+03  0.23868097721E+03  0.00000000000E+00 0. -1.
         21    1    1    2  503  501  0.19255316445E+02 -0.55678679071E+01  0.48108994243E+02  0.52117594837E+02  0.00000000000E+00 0.  1.
</event>
<event>
 4    1  0.5740469E+002  0.3136034E+02  0.7546771E-02  0.1408132E+00
          2   -1    0    0  502    0  0.00000000000E+00  0.00000000000E+00  0.41006090372E+02  0.41006090372E+02  0.00000000000E+00 0. -1.
         -2   -1    0    0    0  501 -0.00000000000E+00 -0.00000000000E+00 -0.75774607618E+02  0.75774607618E+02  0.00000000000E+00 0.  1.
         21    1    1    2  502  503 -0.31237985619E+02  0.27674897549E+01  0.30889009544E+02  0.44018196870E+02  0.00000000000E+00 0. -1.
         21    1    1    2  503  501  0.31237985619E+02 -0.27674897549E+01 -0.65657526790E+02  0.72762501120E+02  0.00000000000E+00 0.  1.
</event>
<event>
 4    1  0.5740469E+002  0.2004687E+02  0.7546771E-02  0.1533320E+00
          2   -1    0    0  503    0  0.00000000000E+00  0.00000000000E+00  0.13150519846E+04  0.13150519846E+04  0.00000000000E+00 0.  1.
         -2   -1    0    0    0  501 -0.00000000000E+00 -0.00000000000E+00 -0.56056273209E+00  0.56056273209E+00  0.00000000000E+00 0. -1.
         21    1    1    2  502  501  0.18537785135E+02 -0.76306869904E+01  0.21361029236E+03  0.21454890786E+03  0.00000000000E+00 0. -1.
         21    1    1    2  503  502 -0.18537785135E+02  0.76306869904E+01  0.11008811295E+04  0.11010636395E+04  0.00000000000E+00 0.  1.
</event>
<event>
 4    1  0.5740469E+002  0.2099700E+02  0.7546771E-02  0.1519308E+00
          2   -1    0    0  502    0  0.00000000000E+00  0.00000000000E+00  0.23963477208E+01  0.23963477208E+01  0.00000000000E+00 0.  1.
         -2   -1    0    0    0  501 -0.00000000000E+00 -0.00000000000E+00 -0.22054035773E+03  0.22054035773E+03  0.00000000000E+00 0. -1.
         21    1    1    2  502  503 -0.20844480674E+02 -0.25261917964E+01 -0.63685397777E+02  0.67057467218E+02  0.00000000000E+00 0.  1.
         21    1    1    2  503  501  0.20844480674E+02  0.25261917964E+01 -0.15445861223E+03  0.15587923823E+03  0.00000000000E+00 0. -1.
</event>
<event>
 4    1  0.5740469E+002  0.2119116E+02  0.7546771E-02  0.1516553E+00
          2   -1    0    0  502    0  0.00000000000E+00  0.00000000000E+00  0.24814816347E+03  0.24814816347E+03  0.00000000000E+00 0.  1.
         -2   -1    0    0    0  501 -0.00000000000E+00 -0.00000000000E+00 -0.30511650534E+01  0.30511650534E+01  0.00000000000E+00 0. -1.
         21    1    1    2  502  503 -0.52815978392E+01 -0.20522425564E+02  0.20266627275E+03  0.20377115433E+03  0.00000000000E+00 0.  1.
         21    1    1    2  503  501  0.52815978392E+01  0.20522425564E+02  0.42430725675E+02  0.47428174201E+02  0.00000000000E+00 0. -1.
</event>
<event>
 4    1  0.5740469E+002  0.2585135E+02  0.7546771E-02  0.1459501E+00
          2   -1    0    0  502    0  0.00000000000E+00  0.00000000000E+00  0.46072798633E+03  0.46072798633E+03  0.00000000000E+00 0. -1.
         -2   -1    0    0    0  501 -0.00000000000E+00 -0.00000000000E+00 -0.32655045141E+01  0.32655045141E+01  0.00000000000E+00 0.  1.
         21    1    1    2  502  503 -0.22172815021E+01 -0.25756085317E+02  0.40169055757E+03  0.40252154763E+03  0.00000000000E+00 0. -1.
         21    1    1    2  503  501  0.22172815021E+01  0.25756085317E+02  0.55771924254E+02  0.61471943219E+02  0.00000000000E+00 0.  1.
</event>
<event>
 4    1  0.5740469E+002  0.2898633E+02  0.7546771E-02  0.1428614E+00
          2   -1    0    0  502    0  0.00000000000E+00  0.00000000000E+00  0.10936893302E+04  0.10936893302E+04  0.00000000000E+00 0. -1.
         -2   -1    0    0    0  501 -0.00000000000E+00 -0.00000000000E+00 -0.16992545837E+01  0.16992545837E+01  0.00000000000E+00 0.  1.
         21    1    1    2  502  503 -0.28848660824E+02  0.28217240112E+01  0.95139999216E+03  0.95184145341E+03  0.00000000000E+00 0. -1.
         21    1    1    2  503  501  0.28848660824E+02 -0.28217240112E+01  0.14059008344E+03  0.14354713135E+03  0.00000000000E+00 0.  1.
</event>
<event>
 4    1  0.5740469E+002  0.2225652E+02  0.7546771E-02  0.1502051E+00
          2   -1    0    0  503    0  0.00000000000E+00  0.00000000000E+00  0.63311275062E+02  0.63311275062E+02  0.00000000000E+00 0.  1.
         -2   -1    0    0    0  501 -0.00000000000E+00 -0.00000000000E+00 -0.66113651929E+02  0.66113651929E+02  0.00000000000E+00 0. -1.
         21    1    1    2  502  501  0.58790773526E+01 -0.21466004379E+02 -0.62163987011E+02  0.66028131699E+02  0.00000000000E+00 0. -1.
         21    1    1    2  503  502 -0.58790773526E+01  0.21466004379E+02  0.59361610144E+02  0.63396795292E+02  0.00000000000E+00 0.  1.
</event>
<event>
 4    1  0.5740469E+002  0.2061619E+02  0.7546771E-02  0.1524816E+00
          2   -1    0    0  502    0  0.00000000000E+00  0.00000000000E+00  0.13029700505E+04  0.13029700505E+04  0.00000000000E+00 0.  1.
         -2   -1    0    0    0  501 -0.00000000000E+00 -0.00000000000E+00 -0.34836289009E+00  0.34836289009E+00  0.00000000000E+00 0. -1.
         21    1    1    2  502  503  0.19862898758E+02  0.55219877595E+01  0.48693771110E+03  0.48737394431E+03  0.00000000000E+00 0. -1.
         21    1    1    2  503  501 -0.19862898758E+02 -0.55219877595E+01  0.81568397650E+03  0.81594446907E+03  0.00000000000E+00 0.  1.
</event>
<event>
 4    1  0.5740469E+002  0.2043276E+02  0.7546771E-02  0.1527520E+00
          2   -1    0    0  503    0  0.00000000000E+00  0.00000000000E+00  0.68873060422E+01  0.68873060422E+01  0.00000000000E+00 0.  1.
         -2   -1    0    0    0  501 -0.00000000000E+00 -0.00000000000E+00 -0.73094386649E+02  0.73094386649E+02  0.00000000000E+00 0. -1.
         21    1    1    2  502  501 -0.20313425186E+02 -0.22050522195E+01 -0.49625287347E+02  0.53667184036E+02  0.00000000000E+00 0. -1.
         21    1    1    2  503  502  0.20313425186E+02  0.22050522195E+01 -0.16581793260E+02  0.26314508655E+02  0.00000000000E+00 0.  1.
</event>
<event>
 4    1  0.5740469E+002  0.4196155E+02  0.7546771E-02  0.1337359E+00
          2   -1    0    0  503    0  0.00000000000E+00  0.00000000000E+00  0.99687410505E+01  0.99687410505E+01  0.00000000000E+00 0.  1.
         -2   -1    0    0    0  501 -0.00000000000E+00 -0.00000000000E+00 -0.23644283152E+03  0.23644283152E+03  0.00000000000E+00 0. -1.
         21    1    1    2  502  501  0.33274899744E+02 -0.25564679069E+02 -0.17520508321E+03  0.18015990939E+03  0.00000000000E+00 0. -1.
         21    1    1    2  503  502 -0.33274899744E+02  0.25564679069E+02 -0.51269007263E+02  0.66251663184E+02  0.00000000000E+00 0.  1.
</event>
<event>
 4    1  0.5740469E+002  0.2117563E+02  0.7546771E-02  0.1516772E+00
          2   -1    0    0  502    0  0.00000000000E+00  0.00000000000E+00  0.15324880278E+02  0.15324880278E+02  0.00000000000E+00 0. -1.
         -2   -1    0    0    0  501 -0.00000000000E+00 -0.00000000000E+00 -0.39334747660E+02  0.39334747660E+02  0.00000000000E+00 0.  1.
         21    1    1    2  502  503 -0.66833348629E+00  0.21165082394E+02 -0.25836253759E+02  0.33405379666E+02  0.00000000000E+00 0.  1.
         21    1    1    2  503  501  0.66833348629E+00 -0.21165082394E+02  0.18263863766E+01  0.21254248271E+02  0.00000000000E+00 0. -1.
</event>
<event>
 4    1  0.5740469E+002  0.2068968E+02  0.7546771E-02  0.1523742E+00
          2   -1    0    0  503    0  0.00000000000E+00  0.00000000000E+00  0.11390455203E+04  0.11390455203E+04  0.00000000000E+00 0. -1.
         -2   -1    0    0    0  501 -0.00000000000E+00 -0.00000000000E+00 -0.60732870127E+00  0.60732870127E+00  0.00000000000E+00 0.  1.
         21    1    1    2  502  501  0.20663396020E+02  0.10425531310E+01  0.21739527560E+03  0.21837758289E+03  0.00000000000E+00 0.  1.
         21    1    1    2  503  502 -0.20663396020E+02 -0.10425531310E+01  0.92104291604E+03  0.92127526616E+03  0.00000000000E+00 0. -1.
</event>
<event>
 4    1  0.5740469E+002  0.2041863E+02  0.7546771E-02  0.1527729E+00
          2   -1    0    0  502    0  0.00000000000E+00  0.00000000000E+00  0.33934812989E+02  0.33934812989E+02  0.00000000000E+00 0.  1.
         -2   -1    0    0    0  501 -0.00000000000E+00 -0.00000000000E+00 -0.38297258860E+02  0.38297258860E+02  0.00000000000E+00 0. -1.
         21    1    1    2  502  503 -0.31608704228E+01 -0.20172491182E+02  0.27583206296E+02  0.34318417386E+02  0.00000000000E+00 0.  1.
         21    1    1    2  503  501  0.31608704228E+01  0.20172491182E+02 -0.31945652167E+02  0.37913654462E+02  0.00000000000E+00 0. -1.
</event>
<event>
 4    1  0.5740469E+002  0.3171752E+02  0.7546771E-02  0.1405236E+00
          2   -1    0    0  503    0  0.00000000000E+00  0.00000000000E+00  0.36987004010E+03  0.36987004010E+03  0.00000000000E+00 0.  1.
         -2   -1    0    0    0  501 -0.00000000000E+00 -0.00000000000E+00 -0.27652617030E+01  0.27652617030E+01  0.00000000000E+00 0. -1.
         21    1    1    2  502  501 -0.31693945306E+02  0.12226238108E+01  0.15968301088E+03  0.16280253359E+03  0.00000000000E+00 0.  1.
         21    1    1    2  503  502  0.31693945306E+02 -0.12226238108E+01  0.20742176751E+03  0.20983276821E+03  0.00000000000E+00 0. -1.
</event>
<event>
 4    1  0.5740469E+002  0.6815240E+02  0.7546771E-02  0.1234395E+00
          2   -1    0    0  503    0  0.00000000000E+00  0.00000000000E+00  0.20985647137E+04  0.20985647137E+04  0.00000000000E+00 0. -1.
         -2   -1    0    0    0  501 -0.00000000000E+00 -0.00000000000E+00 -0.22621396991E+01  0.22621396991E+01  0.00000000000E+00 0.  1.
         21    1    1    2  502  501 -0.60181123240E+02 -0.31984084075E+02  0.89380519824E+03  0.89639973317E+03  0.00000000000E+00 0. -1.
         21    1    1    2  503  502  0.60181123240E+02  0.31984084075E+02  0.12024973758E+04  0.12044271203E+04  0.00000000000E+00 0.  1.
</event>
<event>
 4    1  0.5740469E+002  0.2007495E+02  0.7546771E-02  0.1532893E+00
          2   -1    0    0  502    0  0.00000000000E+00  0.00000000000E+00  0.69784176558E+03  0.69784176558E+03  0.00000000000E+00 0. -1.
         -2   -1    0    0    0  501 -0.00000000000E+00 -0.00000000000E+00 -0.27641808348E+01  0.27641808348E+01  0.00000000000E+00 0.  1.
         21    1    1    2  502  503 -0.15129859764E+02 -0.13194358447E+02  0.65910710209E+03  0.65941275069E+03  0.00000000000E+00 0. -1.
         21    1    1    2  503  501  0.15129859764E+02  0.13194358447E+02  0.35970482656E+02  0.41193195723E+02  0.00000000000E+00 0.  1.
</event>
<event>
 4    1  0.5740469E+002  0.2299325E+02  0.7546771E-02  0.1492583E+00
          2   -1    0    0  503    0  0.00000000000E+00  0.00000000000E+00  0.29427555359E+03  0.29427555359E+03  0.00000000000E+00 0. -1.
         -2   -1    0    0    0  501 -0.00000000000E+00 -0.00000000000E+00 -0.18108355045E+01  0.18108355045E+01  0.00000000000E+00 0.  1.
         21    1    1    2  502  501  0.15848615749E+02  0.16658655740E+02  0.15936788853E+03  0.16101805279E+03  0.00000000000E+00 0.  1.
         21    1    1    2  503  502 -0.15848615749E+02 -0.16658655740E+02  0.13309682956E+03  0.13506833630E+03  0.00000000000E+00 0. -1.
</event>
<event>
 4    1  0.5740469E+002  0.2279790E+02  0.7546771E-02  0.1495052E+00
          2   -1    0    0  502    0  0.00000000000E+00  0.00000000000E+00  0.68379925532E+02  0.68379925532E+02  0.00000000000E+00 0. -1.
         -2   -1    0    0    0  501 -0.00000000000E+00 -0.00000000000E+00 -0.89936395618E+01  0.89936395618E+01  0.00000000000E+00 0.  1.
         21    1    1    2  502  503 -0.13530663260E+02  0.18348442520E+02  0.44917562371E+02  0.50371932666E+02  0.00000000000E+00 0. -1.
         21    1    1    2  503  501  0.13530663260E+02 -0.18348442520E+02  0.14468723598E+02  0.27001632427E+02  0.00000000000E+00 0.  1.
</event>
<event>
 4    1  0.5740469E+002  0.2062741E+02  0.7546771E-02  0.1524652E+00
          2   -1    0    0  502    0  0.00000000000E+00  0.00000000000E+00  0.13119519898E+01  0.13119519898E+01  0.00000000000E+00 0.  1.
         -2   -1    0    0    0  501 -0.00000000000E+00 -0.00000000000E+00 -0.33614854175E+03  0.33614854175E+03  0.00000000000E+00 0. -1.
         21    1    1    2  502  503 -0.89271256370E+01 -0.18595602777E+02 -0.13576459540E+03  0.13732266884E+03  0.00000000000E+00 0.  1.
         21    1    1    2  503  501  0.89271256370E+01  0.18595602777E+02 -0.19907199437E+03  0.20013782490E+03  0.00000000000E+00 0. -1.
</event>
<event>
 4    1  0.5740469E+002  0.2786257E+02  0.7546771E-02  0.1439131E+00
          2   -1    0    0  503    0  0.00000000000E+00  0.00000000000E+00  0.38285252968E+03  0.38285252968E+03  0.00000000000E+00 0.  1.
         -2   -1    0    0    0  501 -0.00000000000E+00 -0.00000000000E+00 -0.36457049703E+01  0.36457049703E+01  0.00000000000E+00 0. -1.
         21    1    1    2  502  501 -0.21851157222E+01  0.27776749360E+02  0.60863764703E+02  0.66938183346E+02  0.00000000000E+00 0. -1.
         21    1    1    2  503  502  0.21851157222E+01 -0.27776749360E+02  0.31834306001E+03  0.31956005131E+03  0.00000000000E+00 0.  1.
</event>
<event>
 4    1  0.5740469E+002  0.6094731E+02  0.7546771E-02  0.1256648E+00
          2   -1    0    0  502    0  0.00000000000E+00  0.00000000000E+00  0.81223471832E+02  0.81223471832E+02  0.00000000000E+00 0.  1.
         -2   -1    0    0    0  501 -0.00000000000E+00 -0.00000000000E+00 -0.48319809931E+02  0.48319809931E+02  0.00000000000E+00 0. -1.
         21    1    1    2  502  503  0.47883699493E+02  0.37705773391E+02  0.31439158521E+02  0.68578383713E+02  0.00000000000E+00 0.  1.
         21    1    1    2  503  501 -0.47883699493E+02 -0.37705773391E+02  0.14645033802E+01  0.60964898050E+02  0.00000000000E+00 0. -1.
</event>
<event>
 4    1  0.5740469E+002  0.2312297E+02  0.7546771E-02  0.1490960E+00
          2   -1    0    0  503    0  0.00000000000E+00  0.00000000000E+00  0.18875897521E+03  0.18875897521E+03  0.00000000000E+00 0. -1.
         -2   -1    0    0    0  501 -0.00000000000E+00 -0.00000000000E+00 -0.29846938525E+01  0.29846938525E+01  0.00000000000E+00 0.  1.
         21    1    1    2  502  501 -0.23074545635E+02  0.14957027542E+01  0.11453171664E+03  0.11684256886E+03  0.00000000000E+00 0. -1.
         21    1    1    2  503  502  0.23074545635E+02 -0.14957027542E+01  0.71242564722E+02  0.74901100200E+02  0.00000000000E+00 0.  1.
</event>
<event>
 4    1  0.5740469E+002  0.2111013E+02  0.7546771E-02  0.1517698E+00
          2   -1    0    0  503    0  0.00000000000E+00  0.00000000000E+00  0.12894303413E+02  0.12894303413E+02  0.00000000000E+00 0. -1.
         -2   -1    0    0    0  501 -0.00000000000E+00 -0.00000000000E+00 -0.10832474966E+03  0.10832474966E+03  0.00000000000E+00 0.  1.
         21    1    1    2  502  501  0.25820046013E+01  0.20951633963E+02 -0.97730083845E+02  0.99984033734E+02  0.00000000000E+00 0.  1.
         21    1    1    2  503  502 -0.25820046013E+01 -0.20951633963E+02  0.22996375930E+01  0.21235019344E+02  0.00000000000E+00 0. -1.
</event>
<event>
 4    1  0.5740469E+002  0.2085440E+02  0.7546771E-02  0.1521354E+00
          2   -1    0    0  502    0  0.00000000000E+00  0.00000000000E+00  0.59159017211E+03  0.59159017211E+03  0.00000000000E+00 0.  1.
         -2   -1    0    0    0  501 -0.00000000000E+00 -0.00000000000E+00 -0.78816613972E+00  0.78816613972E+00  0.00000000000E+00 0. -1.
         21    1    1    2  502  503  0.17334648653E+02  0.11593794847E+02  0.21858106076E+03  0.21957364652E+03  0.00000000000E+00 0. -1.
         21    1    1    2  503  501 -0.17334648653E+02 -0.11593794847E+02  0.37222094521E+03  0.37280469173E+03  0.00000000000E+00 0.  1.
</event>
<event>
 4    1  0.5740469E+002  0.2905657E+02  0.7546771E-02  0.1427976E+00
          2   -1    0    0  503    0  0.00000000000E+00  0.00000000000E+00  0.89387721000E+02  0.89387721000E+02  0.00000000000E+00 0.  1.
         -2   -1    0    0    0  501 -0.00000000000E+00 -0.00000000000E+00 -0.96680165928E+01  0.96680165928E+01  0.00000000000E+00 0. -1.
         21    1    1    2  502  501  0.35925211461E+01  0.28833626119E+02  0.32340813292E+02  0.43476573091E+02  0.00000000000E+00 0. -1.
         21    1    1    2  503  502 -0.35925211461E+01 -0.28833626119E+02  0.47378891115E+02  0.55579164501E+02  0.00000000000E+00 0.  1.
</event>
<event>
 4    1  0.5740469E+002  0.2073413E+02  0.7546771E-02  0.1523095E+00
          2   -1    0    0  503    0  0.00000000000E+00  0.00000000000E+00  0.89597100104E+02  0.89597100104E+02  0.00000000000E+00 0.  1.
         -2   -1    0    0    0  501 -0.00000000000E+00 -0.00000000000E+00 -0.17801162471E+02  0.17801162471E+02  0.00000000000E+00 0. -1.
         21    1    1    2  502  501  0.15414507124E+02 -0.13867124438E+02 -0.99969230586E+01  0.23018310987E+02  0.00000000000E+00 0. -1.
         21    1    1    2  503  502 -0.15414507124E+02  0.13867124438E+02  0.81792860691E+02  0.84379951588E+02  0.00000000000E+00 0.  1.
</event>
<event>
 4    1  0.5740469E+002  0.2358298E+02  0.7546771E-02  0.1485305E+00
          2   -1    0    0  502    0  0.00000000000E+00  0.00000000000E+00  0.25877368803E+02  0.25877368803E+02  0.00000000000E+00 0.  1.
         -2   -1    0    0    0  501 -0.00000000000E+00 -0.00000000000E+00 -0.43152427899E+02  0.43152427899E+02  0.00000000000E+00 0. -1.
         21    1    1    2  502  503  0.15386428097E+02  0.17872183253E+02  0.15815756500E+02  0.28395338657E+02  0.00000000000E+00 0.  1.
         21    1    1    2  503  501 -0.15386428097E+02 -0.17872183253E+02 -0.33090815596E+02  0.40634458045E+02  0.00000000000E+00 0. -1.
</event>
<event>
 4    1  0.5740469E+002  0.2476218E+02  0.7546771E-02  0.1471481E+00
          2   -1    0    0  502    0  0.00000000000E+00  0.00000000000E+00  0.11988468818E+03  0.11988468818E+03  0.00000000000E+00 0.  1.
         -2   -1    0    0    0  501 -0.00000000000E+00 -0.00000000000E+00 -0.59172904489E+01  0.59172904489E+01  0.00000000000E+00 0. -1.
         21    1    1    2  502  503  0.79295189793E+01  0.23458226588E+02  0.80150299843E+02  0.83888236546E+02  0.00000000000E+00 0.  1.
         21    1    1    2  503  501 -0.79295189793E+01 -0.23458226588E+02  0.33817097893E+02  0.41913742087E+02  0.00000000000E+00 0. -1.
</event>
<event>
 4    1  0.5740469E+002  0.3285921E+02  0.7546771E-02  0.1396272E+00
          2   -1    0    0  502    0  0.00000000000E+00  0.00000000000E+00  0.85249396593E+03  0.85249396593E+03  0.00000000000E+00 0.  1.
         -2   -1    0    0    0  501 -0.00000000000E+00 -0.00000000000E+00 -0.15290940019E+01  0.15290940019E+01  0.00000000000E+00 0. -1.
         21    1    1    2  502  503  0.15106038640E+01 -0.32824468959E+02  0.60242085776E+03  0.60331634948E+03  0.00000000000E+00 0.  1.
         21    1    1    2  503  501 -0.15106038640E+01  0.32824468959E+02  0.24854401417E+03  0.25070671045E+03  0.00000000000E+00 0. -1.
</event>
<event>
 4    1  0.5740469E+002  0.2978620E+02  0.7546771E-02  0.1421464E+00
          2   -1    0    0  503    0  0.00000000000E+00  0.00000000000E+00  0.25828487820E+04  0.25828487820E+04  0.00000000000E+00 0. -1.
         -2   -1    0    0    0  501 -0.00000000000E+00 -0.00000000000E+00 -0.36064219794E+00  0.36064219794E+00  0.00000000000E+00 0.  1.
         21    1    1    2  502  501 -0.29395791855E+02 -0.48067901515E+01  0.10096787164E+04  0.10101179774E+04  0.00000000000E+00 0.  1.
         21    1    1    2  503  502  0.29395791855E+02  0.48067901515E+01  0.15728094234E+04  0.15730914469E+04  0.00000000000E+00 0. -1.
</event>
<event>
 4    1  0.5740469E+002  0.3174542E+02  0.7546771E-02  0.1405012E+00
          2   -1    0    0  502    0  0.00000000000E+00  0.00000000000E+00  0.11112879468E+04  0.11112879468E+04  0.00000000000E+00 0. -1.
         -2   -1    0    0    0  501 -0.00000000000E+00 -0.00000000000E+00 -0.29231391142E+01  0.29231391142E+01  0.00000000000E+00 0.  1.
         21    1    1    2  502  503  0.14838388895E+01  0.31710717656E+02  0.10168713756E+04  0.10173667804E+04  0.00000000000E+00 0. -1.
         21    1    1    2  503  501 -0.14838388895E+01 -0.31710717656E+02  0.91493432154E+02  0.96844305560E+02  0.00000000000E+00 0.  1.
</event>
<event>
 4    1  0.5740469E+002  0.3517747E+02  0.7546771E-02  0.1379320E+00
          2   -1    0    0  503    0  0.00000000000E+00  0.00000000000E+00  0.14756766145E+04  0.14756766145E+04  0.00000000000E+00 0.  1.
         -2   -1    0    0    0  501 -0.00000000000E+00 -0.00000000000E+00 -0.98375827897E+00  0.98375827897E+00  0.00000000000E+00 0. -1.
         21    1    1    2  502  501  0.13630001648E+02  0.32429579531E+02  0.45370098125E+03  0.45506267146E+03  0.00000000000E+00 0. -1.
         21    1    1    2  503  502 -0.13630001648E+02 -0.32429579531E+02  0.10209918750E+04  0.10215977013E+04  0.00000000000E+00 0.  1.
</event>
<event>
 4    1  0.5740469E+002  0.2369771E+02  0.7546771E-02  0.1483918E+00
          2   -1    0    0  503    0  0.00000000000E+00  0.00000000000E+00  0.84282031533E+01  0.84282031533E+01  0.00000000000E+00 0. -1.
         -2   -1    0    0    0  501 -0.00000000000E+00 -0.00000000000E+00 -0.98757877576E+02  0.98757877576E+02  0.00000000000E+00 0.  1.
         21    1    1    2  502  501  0.23691596346E+02 -0.53813539563E+00 -0.75732018953E+02  0.79353134921E+02  0.00000000000E+00 0.  1.
         21    1    1    2  503  502 -0.23691596346E+02  0.53813539563E+00 -0.14597655470E+02  0.27832945808E+02  0.00000000000E+00 0. -1.
</event>
<event>
 4    1  0.5740469E+002  0.2373562E+02  0.7546771E-02  0.1483462E+00
          2   -1    0    0  502    0  0.00000000000E+00  0.00000000000E+00  0.11392873371E+04  0.11392873371E+04  0.00000000000E+00 0. -1.
         -2   -1    0    0    0  501 -0.00000000000E+00 -0.00000000000E+00 -0.52815753383E+00  0.52815753383E+00  0.00000000000E+00 0.  1.
         21    1    1    2  502  503  0.11707850864E+02  0.20647179554E+02  0.71324336981E+03  0.71363820271E+03  0.00000000000E+00 0. -1.
         21    1    1    2  503  501 -0.11707850864E+02 -0.20647179554E+02  0.42551580973E+03  0.42617729189E+03  0.00000000000E+00 0.  1.
</event>
<event>
 4    1  0.5740469E+002  0.3825098E+02  0.7546771E-02  0.1359051E+00
          2   -1    0    0  502    0  0.00000000000E+00  0.00000000000E+00  0.24645745973E+03  0.24645745973E+03  0.00000000000E+00 0.  1.
         -2   -1    0    0    0  501 -0.00000000000E+00 -0.00000000000E+00 -0.24571127863E+02  0.24571127863E+02  0.00000000000E+00 0. -1.
         21    1    1    2  502  503  0.34705016387E+02 -0.16084123774E+02  0.22895645470E+03  0.23212969510E+03  0.00000000000E+00 0.  1.
         21    1    1    2  503  501 -0.34705016387E+02  0.16084123774E+02 -0.70701228329E+01  0.38898892489E+02  0.00000000000E+00 0. -1.
</event>
<event>
 4    1  0.5740469E+002  0.2897927E+02  0.7546771E-02  0.1428679E+00
          2   -1    0    0  502    0  0.00000000000E+00  0.00000000000E+00  0.26181322332E+03  0.26181322332E+03  0.00000000000E+00 0.  1.
         -2   -1    0    0    0  501 -0.00000000000E+00 -0.00000000000E+00 -0.33537795858E+01  0.33537795858E+01  0.00000000000E+00 0. -1.
         21    1    1    2  502  503 -0.19275571564E+02  0.21639097057E+02  0.15690748949E+03  0.15956114326E+03  0.00000000000E+00 0.  1.
         21    1    1    2  503  501  0.19275571564E+02 -0.21639097057E+02  0.10155195424E+03  0.10560585964E+03  0.00000000000E+00 0. -1.
</event>
<event>
 4    1  0.5740469E+002  0.2491363E+02  0.7546771E-02  0.1469772E+00
          2   -1    0    0  502    0  0.00000000000E+00  0.00000000000E+00  0.49225798936E+03  0.49225798936E+03  0.00000000000E+00 0.  1.
         -2   -1    0    0    0  501 -0.00000000000E+00 -0.00000000000E+00 -0.23056873953E+01  0.23056873953E+01  0.00000000000E+00 0. -1.
         21    1    1    2  502  503 -0.55456320588E+01  0.24288571457E+02  0.41143454500E+03  0.41218815310E+03  0.00000000000E+00 0.  1.
         21    1    1    2  503  501  0.55456320588E+01 -0.24288571457E+02  0.78517756962E+02  0.82375523650E+02  0.00000000000E+00 0. -1.
</event>
<event>
 4    1  0.5740469E+002  0.2027445E+02  0.7546771E-02  0.1529881E+00
          2   -1    0    0  503    0  0.00000000000E+00  0.00000000000E+00  0.14191325874E+04  0.14191325874E+04  0.00000000000E+00 0. -1.
         -2   -1    0    0    0  501 -0.00000000000E+00 -0.00000000000E+00 -0.29647724080E+00  0.29647724080E+00  0.00000000000E+00 0.  1.
         21    1    1    2  502  501  0.18903991726E+02 -0.73275011689E+01  0.81710888954E+03  0.81736037984E+03  0.00000000000E+00 0. -1.
         21    1    1    2  503  502 -0.18903991726E+02  0.73275011689E+01  0.60172722063E+03  0.60206868480E+03  0.00000000000E+00 0.  1.
</event>
<event>
 4    1  0.5740469E+002  0.2299522E+02  0.7546771E-02  0.1492558E+00
          2   -1    0    0  502    0  0.00000000000E+00  0.00000000000E+00  0.27521329696E+03  0.27521329696E+03  0.00000000000E+00 0.  1.
         -2   -1    0    0    0  501 -0.00000000000E+00 -0.00000000000E+00 -0.44458140986E+01  0.44458140986E+01  0.00000000000E+00 0. -1.
         21    1    1    2  502  503 -0.20401828715E+02 -0.10608748881E+02  0.24075161330E+03  0.24184730611E+03  0.00000000000E+00 0.  1.
         21    1    1    2  503  501  0.20401828715E+02  0.10608748881E+02  0.30015869565E+02  0.37811804949E+02  0.00000000000E+00 0. -1.
</event>
<event>
 4    1  0.5740469E+002  0.2153005E+02  0.7546771E-02  0.1511830E+00
          2   -1    0    0  502    0  0.00000000000E+00  0.00000000000E+00  0.68806467020E+02  0.68806467020E+02  0.00000000000E+00 0. -1.
         -2   -1    0    0    0  501 -0.00000000000E+00 -0.00000000000E+00 -0.10270085810E+02  0.10270085810E+02  0.00000000000E+00 0.  1.
         21    1    1    2  502  503 -0.21434138832E+02  0.20299557702E+01  0.52458859469E+02  0.56705158184E+02  0.00000000000E+00 0. -1.
         21    1    1    2  503  501  0.21434138832E+02 -0.20299557702E+01  0.60775217409E+01  0.22371394646E+02  0.00000000000E+00 0.  1.
</event>
<event>
 4    1  0.5740469E+002  0.2166770E+02  0.7546771E-02  0.1509942E+00
          2   -1    0    0  502    0  0.00000000000E+00  0.00000000000E+00  0.11427142554E+04  0.11427142554E+04  0.00000000000E+00 0. -1.
         -2   -1    0    0    0  501 -0.00000000000E+00 -0.00000000000E+00 -0.18647621067E+01  0.18647621067E+01  0.00000000000E+00 0.  1.
         21    1    1    2  502  503 -0.20647400954E+02 -0.65706920975E+01  0.10757517292E+04  0.10759699216E+04  0.00000000000E+00 0. -1.
         21    1    1    2  503  501  0.20647400954E+02  0.65706920975E+01  0.65097764097E+02  0.68609095980E+02  0.00000000000E+00 0.  1.
</event>
<event>
 4    1  0.5740469E+002  0.2360255E+02  0.7546771E-02  0.1485067E+00
          2   -1    0    0  503    0  0.00000000000E+00  0.00000000000E+00  0.36806302115E+03  0.36806302115E+03  0.00000000000E+00 0.  1.
         -2   -1    0    0    0  501 -0.00000000000E+00 -0.00000000000E+00 -0.15201866112E+01  0.15201866112E+01  0.00000000000E+00 0. -1.
         21    1    1    2  502  501 -0.56430543717E+01  0.22918036114E+02  0.19548453061E+03  0.19690424614E+03  0.00000000000E+00 0.  1.
         21    1    1    2  503  502  0.56430543717E+01 -0.22918036114E+02  0.17105830393E+03  0.17267896162E+03  0.00000000000E+00 0. -1.
</event>
<event>
 4    1  0.5740469E+002  0.3587427E+02  0.7546771E-02  0.1374519E+00
          2   -1    0    0  502    0  0.00000000000E+00  0.00000000000E+00  0.25050160013E+02  0.25050160013E+02  0.00000000000E+00 0.  1.
         -2   -1    0    0    0  501 -0.00000000000E+00 -0.00000000000E+00 -0.57802359656E+02  0.57802359656E+02  0.00000000000E+00 0. -1.
         21    1    1    2  502  503 -0.96961444619E+01  0.34539081831E+02 -0.25625964220E+01  0.35965682137E+02  0.00000000000E+00 0. -1.
         21    1    1    2  503  501  0.96961444619E+01 -0.34539081831E+02 -0.30189603221E+02  0.46886837533E+02  0.00000000000E+00 0.  1.
</event>
<event>
 4    1  0.5740469E+002  0.2059035E+02  0.7546771E-02  0.1525195E+00
          2   -1    0    0  502    0  0.00000000000E+00  0.00000000000E+00  0.18281579245E+04  0.18281579245E+04  0.00000000000E+00 0.  1.
         -2   -1    0    0    0  501 -0.00000000000E+00 -0.00000000000E+00 -0.24640229737E+00  0.24640229737E+00  0.00000000000E+00 0. -1.
         21    1    1    2  502  503  0.14934303536E+02 -0.14174949936E+02  0.11356903104E+04  0.11358769492E+04  0.00000000000E+00 0.  1.
         21    1    1    2  503  501 -0.14934303536E+02  0.14174949936E+02  0.69222121184E+03  0.69252737761E+03  0.00000000000E+00 0. -1.
</event>
<event>
 4    1  0.5740469E+002  0.3164528E+02  0.7546771E-02  0.1405818E+00
          2   -1    0    0  503    0  0.00000000000E+00  0.00000000000E+00  0.40336608278E+03  0.40336608278E+03  0.00000000000E+00 0.  1.
         -2   -1    0    0    0  501 -0.00000000000E+00 -0.00000000000E+00 -0.27757745744E+01  0.27757745744E+01  0.00000000000E+00 0. -1.
         21    1    1    2  502  501  0.29343804831E+02  0.11847558632E+02  0.13430647621E+03  0.13798424939E+03  0.00000000000E+00 0. -1.
         21    1    1    2  503  502 -0.29343804831E+02 -0.11847558632E+02  0.26628383200E+03  0.26815760797E+03  0.00000000000E+00 0.  1.
</event>
<event>
 4    1  0.5740469E+002  0.8810827E+02  0.7546771E-02  0.1186180E+00
          2   -1    0    0  503    0  0.00000000000E+00  0.00000000000E+00  0.14527140509E+04  0.14527140509E+04  0.00000000000E+00 0. -1.
         -2   -1    0    0    0  501 -0.00000000000E+00 -0.00000000000E+00 -0.15487510321E+02  0.15487510321E+02  0.00000000000E+00 0.  1.
         21    1    1    2  502  501  0.13900910515E+02  0.87004781000E+02  0.12450922899E+03  0.15253070292E+03  0.00000000000E+00 0.  1.
         21    1    1    2  503  502 -0.13900910515E+02 -0.87004781000E+02  0.13127173116E+04  0.13156708583E+04  0.00000000000E+00 0. -1.
</event>
<event>
 4    1  0.5740469E+002  0.2184970E+02  0.7546771E-02  0.1507471E+00
          2   -1    0    0  502    0  0.00000000000E+00  0.00000000000E+00  0.13521462186E+03  0.13521462186E+03  0.00000000000E+00 0. -1.
         -2   -1    0    0    0  501 -0.00000000000E+00 -0.00000000000E+00 -0.41843640273E+01  0.41843640273E+01  0.00000000000E+00 0.  1.
         21    1    1    2  502  503 -0.13482114048E+02 -0.17194244846E+02  0.93062142105E+02  0.95592738993E+02  0.00000000000E+00 0. -1.
         21    1    1    2  503  501  0.13482114048E+02  0.17194244846E+02  0.37968115726E+02  0.43806246893E+02  0.00000000000E+00 0.  1.
</event>
<event>
 4    1  0.5740469E+002  0.2333552E+02  0.7546771E-02  0.1488327E+00
          2   -1    0    0  502    0  0.00000000000E+00  0.00000000000E+00  0.14114425847E+03  0.14114425847E+03  0.00000000000E+00 0. -1.
         -2   -1    0    0    0  501 -0.00000000000E+00 -0.00000000000E+00 -0.94909711982E+01  0.94909711982E+01  0.00000000000E+00 0.  1.
         21    1    1    2  502  503  0.11809754375E+02 -0.20126503413E+02  0.12385052129E+03  0.12602975070E+03  0.00000000000E+00 0. -1.
         21    1    1    2  503  501 -0.11809754375E+02  0.20126503413E+02  0.78027659766E+01  0.24605478962E+02  0.00000000000E+00 0.  1.
</event>
<event>
 4    1  0.5740469E+002  0.2185163E+02  0.7546771E-02  0.1507445E+00
          2   -1    0    0  502    0  0.00000000000E+00  0.00000000000E+00  0.29853874512E+03  0.29853874512E+03  0.00000000000E+00 0.  1.
         -2   -1    0    0    0  501 -0.00000000000E+00 -0.00000000000E+00 -0.28539227597E+01  0.28539227597E+01  0.00000000000E+00 0. -1.
         21    1    1    2  502  503  0.91714530173E+00  0.21832370793E+02  0.24775371985E+03  0.24871549866E+03  0.00000000000E+00 0.  1.
         21    1    1    2  503  501 -0.91714530173E+00 -0.21832370793E+02  0.47931102503E+02  0.52677169221E+02  0.00000000000E+00 0. -1.
</event>
<event>
 4    1  0.5740469E+002  0.2032228E+02  0.7546771E-02  0.1529165E+00
          2   -1    0    0  502    0  0.00000000000E+00  0.00000000000E+00  0.44201369250E+03  0.44201369250E+03  0.00000000000E+00 0. -1.
         -2   -1    0    0    0  501 -0.00000000000E+00 -0.00000000000E+00 -0.10943700839E+01  0.10943700839E+01  0.00000000000E+00 0.  1.
         21    1    1    2  502  503  0.15979102064E+02  0.12556409154E+02  0.30517966447E+03  0.30585555859E+03  0.00000000000E+00 0. -1.
         21    1    1    2  503  501 -0.15979102064E+02 -0.12556409154E+02  0.13573965795E+03  0.13725250400E+03  0.00000000000E+00 0.  1.
</event>
<event>
 4    1  0.5740469E+002  0.2357595E+02  0.7546771E-02  0.1485390E+00
          2   -1    0    0  503    0  0.00000000000E+00  0.00000000000E+00  0.70480142963E+03  0.70480142963E+03  0.00000000000E+00 0.  1.
         -2   -1    0    0    0  501 -0.00000000000E+00 -0.00000000000E+00 -0.82189275800E+00  0.82189275800E+00  0.00000000000E+00 0. -1.
         21    1    1    2  502  501  0.12403868156E+01  0.23543301963E+02  0.28101037086E+03  0.28199761374E+03  0.00000000000E+00 0. -1.
         21    1    1    2  503  502 -0.12403868156E+01 -0.23543301963E+02  0.42296916602E+03  0.42362570865E+03  0.00000000000E+00 0.  1.
</event>
<event>
 4    1  0.5740469E+002  0.2877225E+02  0.7546771E-02  0.1430574E+00
          2   -1    0    0  503    0  0.00000000000E+00  0.00000000000E+00  0.50460668745E+03  0.50460668745E+03  0.00000000000E+00 0. -1.
         -2   -1    0    0    0  501 -0.00000000000E+00 -0.00000000000E+00 -0.19229463854E+01  0.19229463854E+01  0.00000000000E+00 0.  1.
         21    1    1    2  502  501  0.12715299771E+02  0.25810139803E+02  0.34839423375E+03  0.34958029732E+03  0.00000000000E+00 0. -1.
         21    1    1    2  503  502 -0.12715299771E+02 -0.25810139803E+02  0.15428950732E+03  0.15694933652E+03  0.00000000000E+00 0.  1.
</event>
<event>
 4    1  0.5740469E+002  0.2216832E+02  0.7546771E-02  0.1503214E+00
          2   -1    0    0  502    0  0.00000000000E+00  0.00000000000E+00  0.28556233844E+03  0.28556233844E+03  0.00000000000E+00 0.  1.
         -2   -1    0    0    0  501 -0.00000000000E+00 -0.00000000000E+00 -0.18288646715E+01  0.18288646715E+01  0.00000000000E+00 0. -1.
         21    1    1    2  502  503 -0.21657997233E+02 -0.47292084377E+01  0.17677456909E+03  0.17815914945E+03  0.00000000000E+00 0.  1.
         21    1    1    2  503  501  0.21657997233E+02  0.47292084377E+01  0.10695890467E+03  0.10923205365E+03  0.00000000000E+00 0. -1.
</event>
<event>
 4    1  0.5740469E+002  0.2042560E+02  0.7546771E-02  0.1527626E+00
          2   -1    0    0  502    0  0.00000000000E+00  0.00000000000E+00  0.13570687770E+02  0.13570687770E+02  0.00000000000E+00 0.  1.
         -2   -1    0    0    0  501 -0.00000000000E+00 -0.00000000000E+00 -0.86139151528E+02  0.86139151528E+02  0.00000000000E+00 0. -1.
         21    1    1    2  502  503 -0.77460580030E+01 -0.18899838119E+02  0.36961602125E+01  0.20757333543E+02  0.00000000000E+00 0.  1.
         21    1    1    2  503  501  0.77460580030E+01  0.18899838119E+02 -0.76264623970E+02  0.78952505754E+02  0.00000000000E+00 0. -1.
</event>
<event>
 4    1  0.5740469E+002  0.2871927E+02  0.7546771E-02  0.1431062E+00
          2   -1    0    0  503    0  0.00000000000E+00  0.00000000000E+00  0.10460802008E+04  0.10460802008E+04  0.00000000000E+00 0. -1.
         -2   -1    0    0    0  501 -0.00000000000E+00 -0.00000000000E+00 -0.57030253831E+01  0.57030253831E+01  0.00000000000E+00 0.  1.
         21    1    1    2  502  501  0.24965222290E+02  0.14196262645E+02  0.32001834812E+02  0.42998995667E+02  0.00000000000E+00 0.  1.
         21    1    1    2  503  502 -0.24965222290E+02 -0.14196262645E+02  0.10083753406E+04  0.10087842305E+04  0.00000000000E+00 0. -1.
</event>
<event>
 4    1  0.5740469E+002  0.2726550E+02  0.7546771E-02  0.1444959E+00
          2   -1    0    0  502    0  0.00000000000E+00  0.00000000000E+00  0.55754476155E+02  0.55754476155E+02  0.00000000000E+00 0. -1.
         -2   -1    0    0    0  501 -0.00000000000E+00 -0.00000000000E+00 -0.84710528362E+02  0.84710528362E+02  0.00000000000E+00 0.  1.
         21    1    1    2  502  503  0.25360551152E+02 -0.10012478496E+02  0.49990598770E+02  0.56942666303E+02  0.00000000000E+00 0. -1.
         21    1    1    2  503  501 -0.25360551152E+02  0.10012478496E+02 -0.78946650976E+02  0.83522338214E+02  0.00000000000E+00 0.  1.
</event>
<event>
 4    1  0.5740469E+002  0.3104819E+02  0.7546771E-02  0.1410701E+00
          2   -1    0    0  502    0  0.00000000000E+00  0.00000000000E+00  0.25390655789E+03  0.25390655789E+03  0.00000000000E+00 0. -1.
         -2   -1    0    0    0  501 -0.00000000000E+00 -0.00000000000E+00 -0.38568154934E+01  0.38568154934E+01  0.00000000000E+00 0.  1.
         21    1    1    2  502  503  0.19266191705E+02  0.24347562363E+02  0.14112439444E+03  0.14449942783E+03  0.00000000000E+00 0. -1.
         21    1    1    2  503  501 -0.19266191705E+02 -0.24347562363E+02  0.10892534795E+03  0.11326394555E+03  0.00000000000E+00 0.  1.
</event>
<event>
 4    1  0.5740469E+002  0.3097260E+02  0.7546771E-02  0.1411328E+00
          2   -1    0    0  503    0  0.00000000000E+00  0.00000000000E+00  0.77792829444E+03  0.77792829444E+03  0.00000000000E+00 0. -1.
         -2   -1    0    0    0  501 -0.00000000000E+00 -0.00000000000E+00 -0.27923052210E+01  0.27923052210E+01  0.00000000000E+00 0.  1.
         21    1    1    2  502  501  0.30515270294E+02  0.53028627042E+01  0.95873043807E+02  0.10075188635E+03  0.00000000000E+00 0.  1.
         21    1    1    2  503  502 -0.30515270294E+02 -0.53028627042E+01  0.67926294541E+03  0.67996871331E+03  0.00000000000E+00 0. -1.
</event>
<event>
 4    1  0.5740469E+002  0.3564659E+02  0.7546771E-02  0.1376074E+00
          2   -1    0    0  503    0  0.00000000000E+00  0.00000000000E+00  0.11597579505E+03  0.11597579505E+03  0.00000000000E+00 0.  1.
         -2   -1    0    0    0  501 -0.00000000000E+00 -0.00000000000E+00 -0.12680805606E+02  0.12680805606E+02  0.00000000000E+00 0. -1.
         21    1    1    2  502  501 -0.10722172822E+02  0.33995794959E+02  0.27925765554E+02  0.45282749990E+02  0.00000000000E+00 0. -1.
         21    1    1    2  503  502  0.10722172822E+02 -0.33995794959E+02  0.75369223888E+02  0.83373850663E+02  0.00000000000E+00 0.  1.
</event>
<event>
 4    1  0.5740469E+002  0.3743011E+02  0.7546771E-02  0.1364241E+00
          2   -1    0    0  502    0  0.00000000000E+00  0.00000000000E+00  0.78817002068E+03  0.78817002068E+03  0.00000000000E+00 0.  1.
         -2   -1    0    0    0  501 -0.00000000000E+00 -0.00000000000E+00 -0.29444850465E+01  0.29444850465E+01  0.00000000000E+00 0. -1.
         21    1    1    2  502  503 -0.36850328255E+02  0.65624844162E+01  0.64162903367E+03  0.64271986879E+03  0.00000000000E+00 0.  1.
         21    1    1    2  503  501  0.36850328255E+02 -0.65624844162E+01  0.14359650197E+03  0.14839463694E+03  0.00000000000E+00 0. -1.
</event>
<event>
 4    1  0.5740469E+002  0.2440684E+02  0.7546771E-02  0.1475550E+00
          2   -1    0    0  503    0  0.00000000000E+00  0.00000000000E+00  0.17147991720E+03  0.17147991720E+03  0.00000000000E+00 0. -1.
         -2   -1    0    0    0  501 -0.00000000000E+00 -0.00000000000E+00 -0.42499904622E+01  0.42499904622E+01  0.00000000000E+00 0.  1.
         21    1    1    2  502  501 -0.13489608581E+02 -0.20340211002E+02  0.46066273737E+02  0.52132478354E+02  0.00000000000E+00 0.  1.
         21    1    1    2  503  502  0.13489608581E+02  0.20340211002E+02  0.12116365300E+03  0.12359742931E+03  0.00000000000E+00 0. -1.
</event>
<event>
 4    1  0.5740469E+002  0.3032451E+02  0.7546771E-02  0.1416797E+00
          2   -1    0    0  502    0  0.00000000000E+00  0.00000000000E+00  0.42603978793E+03  0.42603978793E+03  0.00000000000E+00 0.  1.
         -2   -1    0    0    0  501 -0.00000000000E+00 -0.00000000000E+00 -0.49631311957E+01  0.49631311957E+01  0.00000000000E+00 0. -1.
         21    1    1    2  502  503 -0.20727023958E+01  0.30253596236E+02  0.37253862051E+03  0.37377078532E+03  0.00000000000E+00 0.  1.
         21    1    1    2  503  501  0.20727023958E+01 -0.30253596236E+02  0.48538036222E+02  0.57232133812E+02  0.00000000000E+00 0. -1.
</event>
<event>
 4    1  0.5740469E+002  0.2029713E+02  0.7546771E-02  0.1529541E+00
          2   -1    0    0  503    0  0.00000000000E+00  0.00000000000E+00  0.35889932294E+02  0.35889932294E+02  0.00000000000E+00 0. -1.
         -2   -1    0    0    0  501 -0.00000000000E+00 -0.00000000000E+00 -0.78031710927E+02  0.78031710927E+02  0.00000000000E+00 0.  1.
         21    1    1    2  502  501  0.15759187397E+02  0.12791466849E+02 -0.73675545297E+02  0.76420282559E+02  0.00000000000E+00 0.  1.
         21    1    1    2  503  502 -0.15759187397E+02 -0.12791466849E+02  0.31533766663E+02  0.37501360662E+02  0.00000000000E+00 0. -1.
</event>
<event>
 4    1  0.5740469E+002  0.3963036E+02  0.7546771E-02  0.1350666E+00
          2   -1    0    0  502    0  0.00000000000E+00  0.00000000000E+00  0.20608403237E+04  0.20608403237E+04  0.00000000000E+00 0. -1.
         -2   -1    0    0    0  501 -0.00000000000E+00 -0.00000000000E+00 -0.16821531234E+01  0.16821531234E+01  0.00000000000E+00 0.  1.
         21    1    1    2  502  503 -0.39618403832E+02  0.97326746211E+00  0.17922593790E+04  0.17926974777E+04  0.00000000000E+00 0. -1.
         21    1    1    2  503  501  0.39618403832E+02 -0.97326746211E+00  0.26689879156E+03  0.26982499904E+03  0.00000000000E+00 0.  1.
</event>
<event>
 4    1  0.5740469E+002  0.2016054E+02  0.7546771E-02  0.1531596E+00
          2   -1    0    0  503    0  0.00000000000E+00  0.00000000000E+00  0.16067716784E+04  0.16067716784E+04  0.00000000000E+00 0.  1.
         -2   -1    0    0    0  501 -0.00000000000E+00 -0.00000000000E+00 -0.26259042035E+00  0.26259042035E+00  0.00000000000E+00 0. -1.
         21    1    1    2  502  501 -0.56604579384E+01  0.19349585157E+02  0.95714180007E+03  0.95735409994E+03  0.00000000000E+00 0.  1.
         21    1    1    2  503  502  0.56604579384E+01 -0.19349585157E+02  0.64936728790E+03  0.64968016887E+03  0.00000000000E+00 0. -1.
</event>
<event>
 4    1  0.5740469E+002  0.2101526E+02  0.7546771E-02  0.1519047E+00
          2   -1    0    0  503    0  0.00000000000E+00  0.00000000000E+00  0.39214982764E+03  0.39214982764E+03  0.00000000000E+00 0.  1.
         -2   -1    0    0    0  501 -0.00000000000E+00 -0.00000000000E+00 -0.12065250493E+01  0.12065250493E+01  0.00000000000E+00 0. -1.
         21    1    1    2  502  501  0.16859879634E+02 -0.12545335395E+02  0.14472577238E+03  0.14624359874E+03  0.00000000000E+00 0. -1.
         21    1    1    2  503  502 -0.16859879634E+02  0.12545335395E+02  0.24621753022E+03  0.24711275396E+03  0.00000000000E+00 0.  1.
</event>
<event>
 4    1  0.5740469E+002  0.2504799E+02  0.7546771E-02  0.1468267E+00
          2   -1    0    0  502    0  0.00000000000E+00  0.00000000000E+00  0.61107013497E+03  0.61107013497E+03  0.00000000000E+00 0. -1.
         -2   -1    0    0    0  501 -0.00000000000E+00 -0.00000000000E+00 -0.15087592716E+01  0.15087592716E+01  0.00000000000E+00 0.  1.
         21    1    1    2  502  503 -0.59446490560E+01  0.24332344185E+02  0.47790593080E+03  0.47856188787E+03  0.00000000000E+00 0. -1.
         21    1    1    2  503  501  0.59446490560E+01 -0.24332344185E+02  0.13165544489E+03  0.13401700637E+03  0.00000000000E+00 0.  1.
</event>
<event>
 4    1  0.5740469E+002  0.2553368E+02  0.7546771E-02  0.1462921E+00
          2   -1    0    0  502    0  0.00000000000E+00  0.00000000000E+00  0.53346586913E+01  0.53346586913E+01  0.00000000000E+00 0. -1.
         -2   -1    0    0    0  501 -0.00000000000E+00 -0.00000000000E+00 -0.12634552787E+03  0.12634552787E+03  0.00000000000E+00 0.  1.
         21    1    1    2  502  503  0.19715414822E+02  0.16225635401E+02 -0.48599124514E+02  0.54898485674E+02  0.00000000000E+00 0.  1.
         21    1    1    2  503  501 -0.19715414822E+02 -0.16225635401E+02 -0.72411744661E+02  0.76781700884E+02  0.00000000000E+00 0. -1.
</event>
<event>
 4    1  0.5740469E+002  0.6145784E+02  0.7546771E-02  0.1254958E+00
          2   -1    0    0  502    0  0.00000000000E+00  0.00000000000E+00  0.18013583263E+04  0.18013583263E+04  0.00000000000E+00 0. -1.
         -2   -1    0    0    0  501 -0.00000000000E+00 -0.00000000000E+00 -0.41268753722E+01  0.41268753722E+01  0.00000000000E+00 0.  1.
         21    1    1    2  502  503  0.26540773501E+02  0.55431524234E+02  0.15317715766E+04  0.15330039887E+04  0.00000000000E+00 0. -1.
         21    1    1    2  503  501 -0.26540773501E+02 -0.55431524234E+02  0.26545987436E+03  0.27248121299E+03  0.00000000000E+00 0.  1.
</event>
<event>
 4    1  0.5740469E+002  0.2488128E+02  0.7546771E-02  0.1470136E+00
          2   -1    0    0  502    0  0.00000000000E+00  0.00000000000E+00  0.26245337118E+02  0.26245337118E+02  0.00000000000E+00 0. -1.
         -2   -1    0    0    0  501 -0.00000000000E+00 -0.00000000000E+00 -0.35819037517E+02  0.35819037517E+02  0.00000000000E+00 0.  1.
         21    1    1    2  502  503  0.24526309038E+02 -0.41878412067E+01  0.13346797006E+02  0.28234993170E+02  0.00000000000E+00 0. -1.
         21    1    1    2  503  501 -0.24526309038E+02  0.41878412067E+01 -0.22920497405E+02  0.33829381465E+02  0.00000000000E+00 0.  1.
</event>
<event>
 4    1  0.5740469E+002  0.2013237E+02  0.7546771E-02  0.1532022E+00
          2   -1    0    0  502    0  0.00000000000E+00  0.00000000000E+00  0.19397955005E+03  0.19397955005E+03  0.00000000000E+00 0. -1.
         -2   -1    0    0    0  501 -0.00000000000E+00 -0.00000000000E+00 -0.22782699390E+01  0.22782699390E+01  0.00000000000E+00 0.  1.
         21    1    1    2  502  503 -0.19516342302E+02  0.49421435302E+01  0.12409992567E+03  0.12572232877E+03  0.00000000000E+00 0. -1.
         21    1    1    2  503  501  0.19516342302E+02 -0.49421435302E+01  0.67601354440E+02  0.70535491220E+02  0.00000000000E+00 0.  1.
</event>
<event>
 4    1  0.5740469E+002  0.2712638E+02  0.7546771E-02  0.1446343E+00
          2   -1    0    0  502    0  0.00000000000E+00  0.00000000000E+00  0.16681686912E+03  0.16681686912E+03  0.00000000000E+00 0. -1.
         -2   -1    0    0    0  501 -0.00000000000E+00 -0.00000000000E+00 -0.45885800106E+01  0.45885800106E+01  0.00000000000E+00 0.  1.
         21    1    1    2  502  503 -0.26167570068E+02  0.71483498127E+01  0.97970698518E+02  0.10165676759E+03  0.00000000000E+00 0. -1.
         21    1    1    2  503  501  0.26167570068E+02 -0.71483498127E+01  0.64257590590E+02  0.69748681541E+02  0.00000000000E+00 0.  1.
</event>
<event>
 4    1  0.5740469E+002  0.2976923E+02  0.7546771E-02  0.1421613E+00
          2   -1    0    0  503    0  0.00000000000E+00  0.00000000000E+00  0.41186643276E+01  0.41186643276E+01  0.00000000000E+00 0. -1.
         -2   -1    0    0    0  501 -0.00000000000E+00 -0.00000000000E+00 -0.50454893210E+03  0.50454893210E+03  0.00000000000E+00 0.  1.
         21    1    1    2  502  501  0.27458355737E+02 -0.11499826201E+02 -0.44282872345E+03  0.44382821634E+03  0.00000000000E+00 0.  1.
         21    1    1    2  503  502 -0.27458355737E+02  0.11499826201E+02 -0.57601544317E+02  0.64839380088E+02  0.00000000000E+00 0. -1.
</event>
<event>
 4    1  0.5740469E+002  0.2740298E+02  0.7546771E-02  0.1443602E+00
          2   -1    0    0  503    0  0.00000000000E+00  0.00000000000E+00  0.11997462663E+04  0.11997462663E+04  0.00000000000E+00 0.  1.
         -2   -1    0    0    0  501 -0.00000000000E+00 -0.00000000000E+00 -0.24450391445E+01  0.24450391445E+01  0.00000000000E+00 0. -1.
         21    1    1    2  502  501 -0.19133696878E+02  0.19616951919E+02  0.80168901745E+02  0.84722936481E+02  0.00000000000E+00 0. -1.
         21    1    1    2  503  502  0.19133696878E+02 -0.19616951919E+02  0.11171323254E+04  0.11174683690E+04  0.00000000000E+00 0.  1.
</event>
<event>
 4    1  0.5740469E+002  0.2493131E+02  0.7546771E-02  0.1469573E+00
          2   -1    0    0  503    0  0.00000000000E+00  0.00000000000E+00  0.19894609893E+04  0.19894609893E+04  0.00000000000E+00 0. -1.
         -2   -1    0    0    0  501 -0.00000000000E+00 -0.00000000000E+00 -0.32430952920E+00  0.32430952920E+00  0.00000000000E+00 0.  1.
         21    1    1    2  502  501  0.55386217370E+01 -0.24308306348E+02  0.80416685392E+03  0.80455322946E+03  0.00000000000E+00 0.  1.
         21    1    1    2  503  502 -0.55386217370E+01  0.24308306348E+02  0.11849698259E+04  0.11852320694E+04  0.00000000000E+00 0. -1.
</event>
<event>
 4    1  0.5740469E+002  0.2017278E+02  0.7546771E-02  0.1531411E+00
          2   -1    0    0  502    0  0.00000000000E+00  0.00000000000E+00  0.39308262345E+02  0.39308262345E+02  0.00000000000E+00 0.  1.
         -2   -1    0    0    0  501 -0.00000000000E+00 -0.00000000000E+00 -0.32604474636E+02  0.32604474636E+02  0.00000000000E+00 0. -1.
         21    1    1    2  502  503  0.18679513355E+02 -0.76168677985E+01  0.33056306811E+02  0.38725447889E+02  0.00000000000E+00 0.  1.
         21    1    1    2  503  501 -0.18679513355E+02  0.76168677985E+01 -0.26352519102E+02  0.33187289092E+02  0.00000000000E+00 0. -1.
</event>
<event>
 4    1  0.5740469E+002  0.2914174E+02  0.7546771E-02  0.1427204E+00
          2   -1    0    0  502    0  0.00000000000E+00  0.00000000000E+00  0.77609932788E+03  0.77609932788E+03  0.00000000000E+00 0. -1.
         -2   -1    0    0    0  501 -0.00000000000E+00 -0.00000000000E+00 -0.11527683746E+01  0.11527683746E+01  0.00000000000E+00 0.  1.
         21    1    1    2  502  503 -0.29063230263E+02 -0.21376543285E+01  0.47503909477E+03  0.47593211961E+03  0.00000000000E+00 0. -1.
         21    1    1    2  503  501  0.29063230263E+02  0.21376543285E+01  0.29990746473E+03  0.30131997664E+03  0.00000000000E+00 0.  1.
</event>
<event>
 4    1  0.5740469E+002  0.2864458E+02  0.7546771E-02  0.1431752E+00
          2   -1    0    0  502    0  0.00000000000E+00  0.00000000000E+00  0.13801682748E+04  0.13801682748E+04  0.00000000000E+00 0.  1.
         -2   -1    0    0    0  501 -0.00000000000E+00 -0.00000000000E+00 -0.10307471974E+02  0.10307471974E+02  0.00000000000E+00 0. -1.
         21    1    1    2  502  503 -0.69194319761E+01 -0.27796284278E+02  0.13598209992E+04  0.13601226643E+04  0.00000000000E+00 0.  1.
         21    1    1    2  503  501  0.69194319761E+01  0.27796284278E+02  0.10039803554E+02  0.30353082445E+02  0.00000000000E+00 0. -1.
</event>
<event>
 4    1  0.5740469E+002  0.2160898E+02  0.7546771E-02  0.1510745E+00
          2   -1    0    0  502    0  0.00000000000E+00  0.00000000000E+00  0.88938594803E+01  0.88938594803E+01  0.00000000000E+00 0.  1.
         -2   -1    0    0    0  501 -0.00000000000E+00 -0.00000000000E+00 -0.57415727579E+02  0.57415727579E+02  0.00000000000E+00 0. -1.
         21    1    1    2  502  503  0.19025965903E+02  0.10245035828E+02 -0.14562025206E+02  0.26057642175E+02  0.00000000000E+00 0.  1.
         21    1    1    2  503  501 -0.19025965903E+02 -0.10245035828E+02 -0.33959842893E+02  0.40251944884E+02  0.00000000000E+00 0. -1.
</event>
<event>
 4    1  0.5740469E+002  0.7438924E+02  0.7546771E-02  0.1217509E+00
          2   -1    0    0  502    0  0.00000000000E+00  0.00000000000E+00  0.15413315167E+03  0.15413315167E+03  0.00000000000E+00 0. -1.
         -2   -1    0    0    0  501 -0.00000000000E+00 -0.00000000000E+00 -0.13383396040E+03  0.13383396040E+03  0.00000000000E+00 0.  1.
         21    1    1    2  502  503 -0.25170171889E+02 -0.70001580610E+02  0.13331562517E+03  0.15266569606E+03  0.00000000000E+00 0. -1.
         21    1    1    2  503  501  0.25170171889E+02  0.70001580610E+02 -0.11301643390E+03  0.13530141600E+03  0.00000000000E+00 0.  1.
</event>
<event>
 4    1  0.5740469E+002  0.2571679E+02  0.7546771E-02  0.1460942E+00
          2   -1    0    0  503    0  0.00000000000E+00  0.00000000000E+00  0.25228136707E+03  0.25228136707E+03  0.00000000000E+00 0. -1.
         -2   -1    0    0    0  501 -0.00000000000E+00 -0.00000000000E+00 -0.28270093923E+01  0.28270093923E+01  0.00000000000E+00 0.  1.
         21    1    1    2  502  501 -0.51920642518E+01  0.25187216895E+02  0.90335287849E+02  0.93924531709E+02  0.00000000000E+00 0. -1.
         21    1    1    2  503  502  0.51920642518E+01 -0.25187216895E+02  0.15911906983E+03  0.16118384475E+03  0.00000000000E+00 0.  1.
</event>
<event>
 4    1  0.5740469E+002  0.2282086E+02  0.7546771E-02  0.1494760E+00
          2   -1    0    0  502    0  0.00000000000E+00  0.00000000000E+00  0.13846663752E+02  0.13846663752E+02  0.00000000000E+00 0. -1.
         -2   -1    0    0    0  501 -0.00000000000E+00 -0.00000000000E+00 -0.46528069209E+02  0.46528069209E+02  0.00000000000E+00 0.  1.
         21    1    1    2  502  503 -0.14790078081E+02  0.17379442898E+02 -0.31255941761E+01  0.23033905098E+02  0.00000000000E+00 0. -1.
         21    1    1    2  503  501  0.14790078081E+02 -0.17379442898E+02 -0.29555811280E+02  0.37340827864E+02  0.00000000000E+00 0.  1.
</event>
<event>
 4    1  0.5740469E+002  0.2354687E+02  0.7546771E-02  0.1485743E+00
          2   -1    0    0  502    0  0.00000000000E+00  0.00000000000E+00  0.16383298360E+04  0.16383298360E+04  0.00000000000E+00 0.  1.
         -2   -1    0    0    0  501 -0.00000000000E+00 -0.00000000000E+00 -0.43175729846E+00  0.43175729846E+00  0.00000000000E+00 0. -1.
         21    1    1    2  502  503 -0.76125670829E+01  0.22282370818E+02  0.43799111153E+03  0.43862360745E+03  0.00000000000E+00 0. -1.
         21    1    1    2  503  501  0.76125670829E+01 -0.22282370818E+02  0.11999069672E+04  0.12001379859E+04  0.00000000000E+00 0.  1.
</event>
<event>
 4    1  0.5740469E+002  0.2452713E+02  0.7546771E-02  0.1474163E+00
          2   -1    0    0  503    0  0.00000000000E+00  0.00000000000E+00  0.25620070127E+03  0.25620070127E+03  0.00000000000E+00 0. -1.
         -2   -1    0    0    0  501 -0.00000000000E+00 -0.00000000000E+00 -0.28285863380E+01  0.28285863380E+01  0.00000000000E+00 0.  1.
         21    1    1    2  502  501 -0.13886634872E+02 -0.20217351796E+02  0.73305468044E+02  0.77299880898E+02  0.00000000000E+00 0.  1.
         21    1    1    2  503  502  0.13886634872E+02  0.20217351796E+02  0.18006664689E+03  0.18172940671E+03  0.00000000000E+00 0. -1.
</event>
<event>
 4    1  0.5740469E+002  0.2398561E+02  0.7546771E-02  0.1480479E+00
          2   -1    0    0  503    0  0.00000000000E+00  0.00000000000E+00  0.33857398129E+03  0.33857398129E+03  0.00000000000E+00 0.  1.
         -2   -1    0    0    0  501 -0.00000000000E+00 -0.00000000000E+00 -0.25937012900E+01  0.25937012900E+01  0.00000000000E+00 0. -1.
         21    1    1    2  502  501 -0.23981033654E+02  0.46843249578E+00  0.67813797005E+02  0.71930664312E+02  0.00000000000E+00 0. -1.
         21    1    1    2  503  502  0.23981033654E+02 -0.46843249578E+00  0.26816648299E+03  0.26923701827E+03  0.00000000000E+00 0.  1.
</event>
<event>
 4    1  0.5740469E+002  0.2036984E+02  0.7546771E-02  0.1528455E+00
          2   -1    0    0  502    0  0.00000000000E+00  0.00000000000E+00  0.14082249764E+04  0.14082249764E+04  0.00000000000E+00 0.  1.
         -2   -1    0    0    0  501 -0.00000000000E+00 -0.00000000000E+00 -0.10221475074E+01  0.10221475074E+01  0.00000000000E+00 0. -1.
         21    1    1    2  502  503  0.24806391260E+01 -0.20218225851E+02  0.12980534531E+04  0.12982132711E+04  0.00000000000E+00 0.  1.
         21    1    1    2  503  501 -0.24806391260E+01  0.20218225851E+02  0.10914937574E+03  0.11103385273E+03  0.00000000000E+00 0. -1.
</event>
<event>
 4    1  0.5740469E+002  0.2893678E+02  0.7546771E-02  0.1429066E+00
          2   -1    0    0  503    0  0.00000000000E+00  0.00000000000E+00  0.43881689312E+02  0.43881689312E+02  0.00000000000E+00 0. -1.
         -2   -1    0    0    0  501 -0.00000000000E+00 -0.00000000000E+00 -0.39523746197E+02  0.39523746197E+02  0.00000000000E+00 0.  1.
         21    1    1    2  502  501 -0.19401384510E+02 -0.21469125867E+02 -0.27812482751E+02  0.40135660991E+02  0.00000000000E+00 0.  1.
         21    1    1    2  503  502  0.19401384510E+02  0.21469125867E+02  0.32170425866E+02  0.43269774517E+02  0.00000000000E+00 0. -1.
</event>
<event>
 4    1  0.5740469E+002  0.2718234E+02  0.7546771E-02  0.1445785E+00
          2   -1    0    0  503    0  0.00000000000E+00  0.00000000000E+00  0.19765431437E+01  0.19765431437E+01  0.00000000000E+00 0. -1.
         -2   -1    0    0    0  501 -0.00000000000E+00 -0.00000000000E+00 -0.40016840622E+03  0.40016840622E+03  0.00000000000E+00 0.  1.
         21    1    1    2  502  501 -0.13002105288E+02  0.23871002048E+02 -0.14750486236E+03  0.14998854590E+03  0.00000000000E+00 0.  1.
         21    1    1    2  503  502  0.13002105288E+02 -0.23871002048E+02 -0.25068700071E+03  0.25215640346E+03  0.00000000000E+00 0. -1.
</event>
<event>
 4    1  0.5740469E+002  0.2238374E+02  0.7546771E-02  0.1500385E+00
          2   -1    0    0  502    0  0.00000000000E+00  0.00000000000E+00  0.82358181029E+01  0.82358181029E+01  0.00000000000E+00 0.  1.
         -2   -1    0    0    0  501 -0.00000000000E+00 -0.00000000000E+00 -0.61955076782E+02  0.61955076782E+02  0.00000000000E+00 0. -1.
         21    1    1    2  502  503  0.21751392778E+02 -0.52828686836E+01 -0.31576997544E+02  0.38705794957E+02  0.00000000000E+00 0. -1.
         21    1    1    2  503  501 -0.21751392778E+02  0.52828686836E+01 -0.22142261134E+02  0.31485099928E+02  0.00000000000E+00 0.  1.
</event>
<event>
 4    1  0.5740469E+002  0.2362931E+02  0.7546771E-02  0.1484743E+00
          2   -1    0    0  503    0  0.00000000000E+00  0.00000000000E+00  0.21186963621E+02  0.21186963621E+02  0.00000000000E+00 0.  1.
         -2   -1    0    0    0  501 -0.00000000000E+00 -0.00000000000E+00 -0.69929353595E+02  0.69929353595E+02  0.00000000000E+00 0. -1.
         21    1    1    2  502  501 -0.23512108488E+02  0.23505855740E+01 -0.60334599907E+02  0.64796670008E+02  0.00000000000E+00 0. -1.
         21    1    1    2  503  502  0.23512108488E+02 -0.23505855740E+01  0.11592209933E+02  0.26319647209E+02  0.00000000000E+00 0.  1.
</event>
<event>
 4    1  0.5740469E+002  0.2423304E+02  0.7546771E-02  0.1477569E+00
          2   -1    0    0  503    0  0.00000000000E+00  0.00000000000E+00  0.34729222156E+02  0.34729222156E+02  0.00000000000E+00 0.  1.
         -2   -1    0    0    0  501 -0.00000000000E+00 -0.00000000000E+00 -0.26404357540E+02  0.26404357540E+02  0.00000000000E+00 0. -1.
         21    1    1    2  502  501  0.81578074894E+01  0.22818640779E+02 -0.14167683366E+02  0.28070686525E+02  0.00000000000E+00 0. -1.
         21    1    1    2  503  502 -0.81578074894E+01 -0.22818640779E+02  0.22492547983E+02  0.33062893171E+02  0.00000000000E+00 0.  1.
</event>
<event>
 4    1  0.5740469E+002  0.3463654E+02  0.7546771E-02  0.1383137E+00
          2   -1    0    0  503    0  0.00000000000E+00  0.00000000000E+00  0.24851077063E+02  0.24851077063E+02  0.00000000000E+00 0. -1.
         -2   -1    0    0    0  501 -0.00000000000E+00 -0.00000000000E+00 -0.12343339612E+03  0.12343339612E+03  0.00000000000E+00 0.  1.
         21    1    1    2  502  501  0.34636541246E+02 -0.11216891244E-02 -0.10714572046E+03  0.11260504165E+03  0.00000000000E+00 0.  1.
         21    1    1    2  503  502 -0.34636541246E+02  0.11216891244E-02  0.85634014109E+01  0.35679431532E+02  0.00000000000E+00 0. -1.
</event>
<event>
 4    1  0.5740469E+002  0.2887885E+02  0.7546771E-02  0.1429596E+00
          2   -1    0    0  503    0  0.00000000000E+00  0.00000000000E+00  0.48886868123E+03  0.48886868123E+03  0.00000000000E+00 0. -1.
         -2   -1    0    0    0  501 -0.00000000000E+00 -0.00000000000E+00 -0.63480788868E+01  0.63480788868E+01  0.00000000000E+00 0.  1.
         21    1    1    2  502  501  0.51026341093E+01 -0.28424485373E+02  0.29520491421E+02  0.41297065964E+02  0.00000000000E+00 0.  1.
         21    1    1    2  503  502 -0.51026341093E+01  0.28424485373E+02  0.45300011092E+03  0.45391969415E+03  0.00000000000E+00 0. -1.
</event>
<event>
 4    1  0.5740469E+002  0.2136090E+02  0.7546771E-02  0.1514174E+00
          2   -1    0    0  502    0  0.00000000000E+00  0.00000000000E+00  0.56721301545E+03  0.56721301545E+03  0.00000000000E+00 0. -1.
         -2   -1    0    0    0  501 -0.00000000000E+00 -0.00000000000E+00 -0.18651611198E+01  0.18651611198E+01  0.00000000000E+00 0.  1.
         21    1    1    2  502  503  0.21091975019E+02 -0.33788469073E+01  0.49725166540E+03  0.49771026387E+03  0.00000000000E+00 0. -1.
         21    1    1    2  503  501 -0.21091975019E+02  0.33788469073E+01  0.68096188935E+02  0.71367912706E+02  0.00000000000E+00 0.  1.
</event>
<event>
 4    1  0.5740469E+002  0.2706794E+02  0.7546771E-02  0.1446927E+00
          2   -1    0    0  502    0  0.00000000000E+00  0.00000000000E+00  0.92657600702E+02  0.92657600702E+02  0.00000000000E+00 0.  1.
         -2   -1    0    0    0  501 -0.00000000000E+00 -0.00000000000E+00 -0.83415463052E+01  0.83415463052E+01  0.00000000000E+00 0. -1.
         21    1    1    2  502  503  0.22958047475E+02 -0.14338811688E+02  0.53679860839E+02  0.60118224560E+02  0.00000000000E+00 0. -1.
         21    1    1    2  503  501 -0.22958047475E+02  0.14338811688E+02  0.30636193557E+02  0.40880922447E+02  0.00000000000E+00 0.  1.
</event>
<event>
 4    1  0.5740469E+002  0.2684260E+02  0.7546771E-02  0.1449196E+00
          2   -1    0    0  502    0  0.00000000000E+00  0.00000000000E+00  0.13252731000E+04  0.13252731000E+04  0.00000000000E+00 0.  1.
         -2   -1    0    0    0  501 -0.00000000000E+00 -0.00000000000E+00 -0.91344640234E+00  0.91344640234E+00  0.00000000000E+00 0. -1.
         21    1    1    2  502  503 -0.24015128188E+02  0.11991614984E+02  0.10840671603E+04  0.10843994343E+04  0.00000000000E+00 0.  1.
         21    1    1    2  503  501  0.24015128188E+02 -0.11991614984E+02  0.24029249330E+03  0.24178711203E+03  0.00000000000E+00 0. -1.
</event>
<event>
 4    1  0.5740469E+002  0.3020763E+02  0.7546771E-02  0.1417801E+00
          2   -1    0    0  503    0  0.00000000000E+00  0.00000000000E+00  0.44103404371E+03  0.44103404371E+03  0.00000000000E+00 0. -1.
         -2   -1    0    0    0  501 -0.00000000000E+00 -0.00000000000E+00 -0.78991065209E+01  0.78991065209E+01  0.00000000000E+00 0.  1.
         21    1    1    2  502  501 -0.26641708420E+02  0.14237979014E+02  0.23725820100E+02  0.38411133976E+02  0.00000000000E+00 0.  1.
         21    1    1    2  503  502  0.26641708420E+02 -0.14237979014E+02  0.40940911709E+03  0.41052201625E+03  0.00000000000E+00 0. -1.
</event>
<event>
 4    1  0.5740469E+002  0.4347787E+02  0.7546771E-02  0.1329228E+00
          2   -1    0    0  502    0  0.00000000000E+00  0.00000000000E+00  0.15844648410E+02  0.15844648410E+02  0.00000000000E+00 0.  1.
         -2   -1    0    0    0  501 -0.00000000000E+00 -0.00000000000E+00 -0.21704417261E+03  0.21704417261E+03  0.00000000000E+00 0. -1.
         21    1    1    2  502  503  0.22619920512E+02  0.37130364595E+02 -0.22458242017E+02  0.48935645632E+02  0.00000000000E+00 0.  1.
         21    1    1    2  503  501 -0.22619920512E+02 -0.37130364595E+02 -0.17874128218E+03  0.18395317539E+03  0.00000000000E+00 0. -1.
</event>
<event>
 4    1  0.5740469E+002  0.2119282E+02  0.7546771E-02  0.1516530E+00
          2   -1    0    0  503    0  0.00000000000E+00  0.00000000000E+00  0.76017691424E+03  0.76017691424E+03  0.00000000000E+00 0.  1.
         -2   -1    0    0    0  501 -0.00000000000E+00 -0.00000000000E+00 -0.59524949385E+00  0.59524949385E+00  0.00000000000E+00 0. -1.
         21    1    1    2  502  501 -0.17847362248E+02  0.11428351497E+02  0.34701554998E+03  0.34766208808E+03  0.00000000000E+00 0.  1.
         21    1    1    2  503  502  0.17847362248E+02 -0.11428351497E+02  0.41256611476E+03  0.41311007565E+03  0.00000000000E+00 0. -1.
</event>
<event>
 4    1  0.5740469E+002  0.3048926E+02  0.7546771E-02  0.1415391E+00
          2   -1    0    0  503    0  0.00000000000E+00  0.00000000000E+00  0.58778663866E+01  0.58778663866E+01  0.00000000000E+00 0.  1.
         -2   -1    0    0    0  501 -0.00000000000E+00 -0.00000000000E+00 -0.29498836510E+03  0.29498836510E+03  0.00000000000E+00 0. -1.
         21    1    1    2  502  501 -0.49426008932E+01 -0.30085975849E+02 -0.24701235022E+03  0.24888691490E+03  0.00000000000E+00 0. -1.
         21    1    1    2  503  502  0.49426008932E+01  0.30085975849E+02 -0.42098148491E+02  0.51979316585E+02  0.00000000000E+00 0.  1.
</event>
<event>
 4    1  0.5740469E+002  0.2099666E+02  0.7546771E-02  0.1519312E+00
          2   -1    0    0  503    0  0.00000000000E+00  0.00000000000E+00  0.36318872101E+03  0.36318872101E+03  0.00000000000E+00 0. -1.
         -2   -1    0    0    0  501 -0.00000000000E+00 -0.00000000000E+00 -0.14787529526E+01  0.14787529526E+01  0.00000000000E+00 0.  1.
         21    1    1    2  502  501  0.10509754785E+02 -0.18177038136E+02  0.10368369107E+03  0.10578831436E+03  0.00000000000E+00 0.  1.
         21    1    1    2  503  502 -0.10509754785E+02  0.18177038136E+02  0.25802627698E+03  0.25887915960E+03  0.00000000000E+00 0. -1.
</event>
<event>
 4    1  0.5740469E+002  0.2360004E+02  0.7546771E-02  0.1485098E+00
          2   -1    0    0  502    0  0.00000000000E+00  0.00000000000E+00  0.15921870296E+02  0.15921870296E+02  0.00000000000E+00 0.  1.
         -2   -1    0    0    0  501 -0.00000000000E+00 -0.00000000000E+00 -0.36513872576E+03  0.36513872576E+03  0.00000000000E+00 0. -1.
         21    1    1    2  502  503  0.20693340255E+02  0.11346700767E+02  0.65655719991E+01  0.24496299412E+02  0.00000000000E+00 0.  1.
         21    1    1    2  503  501 -0.20693340255E+02 -0.11346700767E+02 -0.35578242746E+03  0.35656429664E+03  0.00000000000E+00 0. -1.
</event>
<event>
 4    1  0.5740469E+002  0.2439958E+02  0.7546771E-02  0.1475634E+00
          2   -1    0    0  503    0  0.00000000000E+00  0.00000000000E+00  0.12064032219E+04  0.12064032219E+04  0.00000000000E+00 0.  1.
         -2   -1    0    0    0  501 -0.00000000000E+00 -0.00000000000E+00 -0.22339885168E+02  0.22339885168E+02  0.00000000000E+00 0. -1.
         21    1    1    2  502  501 -0.87688599899E+01  0.22769423861E+02 -0.15516326836E+02  0.28915324086E+02  0.00000000000E+00 0. -1.
         21    1    1    2  503  502  0.87688599899E+01 -0.22769423861E+02  0.11995796636E+04  0.11998277830E+04  0.00000000000E+00 0.  1.
</event>
<event>
 4    1  0.5740469E+002  0.2887848E+02  0.7546771E-02  0.1429599E+00
          2   -1    0    0  503    0  0.00000000000E+00  0.00000000000E+00  0.22448114211E+03  0.22448114211E+03  0.00000000000E+00 0. -1.
         -2   -1    0    0    0  501 -0.00000000000E+00 -0.00000000000E+00 -0.57503464103E+01  0.57503464103E+01  0.00000000000E+00 0.  1.
         21    1    1    2  502  501 -0.25647054203E+01 -0.28764369429E+02  0.40880035988E+02  0.50051413616E+02  0.00000000000E+00 0.  1.
         21    1    1    2  503  502  0.25647054203E+01  0.28764369429E+02  0.17785075971E+03  0.18018007490E+03  0.00000000000E+00 0. -1.
</event>
<event>
 4    1  0.5740469E+002  0.2487596E+02  0.7546771E-02  0.1470196E+00
          2   -1    0    0  502    0  0.00000000000E+00  0.00000000000E+00  0.64452481403E+01  0.64452481403E+01  0.00000000000E+00 0. -1.
         -2   -1    0    0    0  501 -0.00000000000E+00 -0.00000000000E+00 -0.20575412672E+03  0.20575412672E+03  0.00000000000E+00 0.  1.
         21    1    1    2  502  503  0.24842921984E+02 -0.12816519639E+01 -0.22167430600E+02  0.33319789673E+02  0.00000000000E+00 0. -1.
         21    1    1    2  503  501 -0.24842921984E+02  0.12816519639E+01 -0.17714144798E+03  0.17887958518E+03  0.00000000000E+00 0.  1.
</event>
<event>
 4    1  0.5740469E+002  0.2478038E+02  0.7546771E-02  0.1471275E+00
          2   -1    0    0  502    0  0.00000000000E+00  0.00000000000E+00  0.20156493720E+01  0.20156493720E+01  0.00000000000E+00 0.  1.
         -2   -1    0    0    0  501 -0.00000000000E+00 -0.00000000000E+00 -0.30584025791E+03  0.30584025791E+03  0.00000000000E+00 0. -1.
         21    1    1    2  502  503 -0.17785380104E+02  0.17255359821E+02 -0.16151573248E+03  0.16340562728E+03  0.00000000000E+00 0. -1.
         21    1    1    2  503  501  0.17785380104E+02 -0.17255359821E+02 -0.14230887606E+03  0.14445028001E+03  0.00000000000E+00 0.  1.
</event>
<event>
 4    1  0.5740469E+002  0.2006628E+03  0.7546771E-02  0.1054667E+00
          2   -1    0    0  502    0  0.00000000000E+00  0.00000000000E+00  0.83418860599E+03  0.83418860599E+03  0.00000000000E+00 0. -1.
         -2   -1    0    0    0  501 -0.00000000000E+00 -0.00000000000E+00 -0.16833299735E+03  0.16833299735E+03  0.00000000000E+00 0.  1.
         21    1    1    2  502  503  0.26562552027E+02  0.19889696354E+03  0.75626385308E+03  0.78243248063E+03  0.00000000000E+00 0. -1.
         21    1    1    2  503  501 -0.26562552027E+02 -0.19889696354E+03 -0.90408244438E+02  0.22008912272E+03  0.00000000000E+00 0.  1.
</event>
<event>
 4    1  0.5740469E+002  0.2169880E+02  0.7546771E-02  0.1509517E+00
          2   -1    0    0  502    0  0.00000000000E+00  0.00000000000E+00  0.96359171944E+02  0.96359171944E+02  0.00000000000E+00 0.  1.
         -2   -1    0    0    0  501 -0.00000000000E+00 -0.00000000000E+00 -0.16939033147E+02  0.16939033147E+02  0.00000000000E+00 0. -1.
         21    1    1    2  502  503  0.65787229755E+01 -0.20677479876E+02  0.87495101194E+02  0.90145607230E+02  0.00000000000E+00 0.  1.
         21    1    1    2  503  501 -0.65787229755E+01  0.20677479876E+02 -0.80749623966E+01  0.23152597861E+02  0.00000000000E+00 0. -1.
</event>
<event>
 4    1  0.5740469E+002  0.3232650E+02  0.7546771E-02  0.1400400E+00
          2   -1    0    0  503    0  0.00000000000E+00  0.00000000000E+00  0.54714799596E+03  0.54714799596E+03  0.00000000000E+00 0. -1.
         -2   -1    0    0    0  501 -0.00000000000E+00 -0.00000000000E+00 -0.26450261544E+01  0.26450261544E+01  0.00000000000E+00 0.  1.
         21    1    1    2  502  501 -0.31835403667E+02 -0.56133386538E+01  0.12733001555E+03  0.13136946128E+03  0.00000000000E+00 0.  1.
         21    1    1    2  503  502  0.31835403667E+02  0.56133386538E+01  0.41717295425E+03  0.41842356083E+03  0.00000000000E+00 0. -1.
</event>
<event>
 4    1  0.5740469E+002  0.2385944E+02  0.7546771E-02  0.1481979E+00
          2   -1    0    0  502    0  0.00000000000E+00  0.00000000000E+00  0.69903661982E+02  0.69903661982E+02  0.00000000000E+00 0. -1.
         -2   -1    0    0    0  501 -0.00000000000E+00 -0.00000000000E+00 -0.88344665921E+01  0.88344665921E+01  0.00000000000E+00 0.  1.
         21    1    1    2  502  503 -0.13864445711E+02  0.19417774566E+02  0.41543345191E+02  0.47907435264E+02  0.00000000000E+00 0. -1.
         21    1    1    2  503  501  0.13864445711E+02 -0.19417774566E+02  0.19525850199E+02  0.30830693310E+02  0.00000000000E+00 0.  1.
</event>
<event>
 4    1  0.5740469E+002  0.2613052E+02  0.7546771E-02  0.1456543E+00
          2   -1    0    0  502    0  0.00000000000E+00  0.00000000000E+00  0.35938770293E+02  0.35938770293E+02  0.00000000000E+00 0. -1.
         -2   -1    0    0    0  501 -0.00000000000E+00 -0.00000000000E+00 -0.23303265735E+02  0.23303265735E+02  0.00000000000E+00 0.  1.
         21    1    1    2  502  503  0.25658819860E+02 -0.49425477039E+01  0.19047996867E+02  0.32336202607E+02  0.00000000000E+00 0. -1.
         21    1    1    2  503  501 -0.25658819860E+02  0.49425477039E+01 -0.64124923090E+01  0.26905833420E+02  0.00000000000E+00 0.  1.
</event>
<event>
 4    1  0.5740469E+002  0.3913688E+02  0.7546771E-02  0.1353619E+00
          2   -1    0    0  503    0  0.00000000000E+00  0.00000000000E+00  0.18793463659E+03  0.18793463659E+03  0.00000000000E+00 0. -1.
         -2   -1    0    0    0  501 -0.00000000000E+00 -0.00000000000E+00 -0.11054575552E+02  0.11054575552E+02  0.00000000000E+00 0.  1.
         21    1    1    2  502  501 -0.39048381472E+02  0.26304166133E+01  0.37441373343E+02  0.54162271232E+02  0.00000000000E+00 0.  1.
         21    1    1    2  503  502  0.39048381472E+02 -0.26304166133E+01  0.13943868769E+03  0.14482694091E+03  0.00000000000E+00 0. -1.
</event>
<event>
 4    1  0.5740469E+002  0.3911124E+02  0.7546771E-02  0.1353774E+00
          2   -1    0    0  503    0  0.00000000000E+00  0.00000000000E+00  0.11827960418E+04  0.11827960418E+04  0.00000000000E+00 0.  1.
         -2   -1    0    0    0  501 -0.00000000000E+00 -0.00000000000E+00 -0.14781812596E+01  0.14781812596E+01  0.00000000000E+00 0. -1.
         21    1    1    2  502  501 -0.33948236373E+02 -0.19421805556E+02  0.38123535440E+03  0.38323633013E+03  0.00000000000E+00 0. -1.
         21    1    1    2  503  502  0.33948236373E+02  0.19421805556E+02  0.80008250618E+03  0.80103789298E+03  0.00000000000E+00 0.  1.
</event>
<event>
 4    1  0.5740469E+002  0.2536135E+02  0.7546771E-02  0.1464801E+00
          2   -1    0    0  502    0  0.00000000000E+00  0.00000000000E+00  0.46183430419E+02  0.46183430419E+02  0.00000000000E+00 0. -1.
         -2   -1    0    0    0  501 -0.00000000000E+00 -0.00000000000E+00 -0.14049869599E+02  0.14049869599E+02  0.00000000000E+00 0.  1.
         21    1    1    2  502  503 -0.73269502227E+01 -0.24279906824E+02  0.18882812779E+02  0.31618960979E+02  0.00000000000E+00 0.  1.
         21    1    1    2  503  501  0.73269502227E+01  0.24279906824E+02  0.13250748042E+02  0.28614339039E+02  0.00000000000E+00 0. -1.
</event>
<event>
 4    1  0.5740469E+002  0.4531450E+02  0.7546771E-02  0.1319874E+00
          2   -1    0    0  502    0  0.00000000000E+00  0.00000000000E+00  0.20673694674E+04  0.20673694674E+04  0.00000000000E+00 0.  1.
         -2   -1    0    0    0  501 -0.00000000000E+00 -0.00000000000E+00 -0.18649450532E+01  0.18649450532E+01  0.00000000000E+00 0. -1.
         21    1    1    2  502  503  0.45306274335E+02  0.86323770734E+00  0.17400956496E+04  0.17406855757E+04  0.00000000000E+00 0.  1.
         21    1    1    2  503  501 -0.45306274335E+02 -0.86323770734E+00  0.32540887277E+03  0.32854883678E+03  0.00000000000E+00 0. -1.
</event>
<event>
 4    1  0.5740469E+002  0.2083749E+02  0.7546771E-02  0.1521598E+00
          2   -1    0    0  502    0  0.00000000000E+00  0.00000000000E+00  0.33294040420E+03  0.33294040420E+03  0.00000000000E+00 0.  1.
         -2   -1    0    0    0  501 -0.00000000000E+00 -0.00000000000E+00 -0.16849347539E+01  0.16849347539E+01  0.00000000000E+00 0. -1.
         21    1    1    2  502  503 -0.18256516906E+01  0.20757357611E+02  0.24516721740E+03  0.24605114384E+03  0.00000000000E+00 0.  1.
         21    1    1    2  503  501  0.18256516906E+01 -0.20757357611E+02  0.86088252048E+02  0.88574195112E+02  0.00000000000E+00 0. -1.
</event>
<event>
 4    1  0.5740469E+002  0.3480162E+02  0.7546771E-02  0.1381963E+00
          2   -1    0    0  503    0  0.00000000000E+00  0.00000000000E+00  0.80824367113E+02  0.80824367113E+02  0.00000000000E+00 0.  1.
         -2   -1    0    0    0  501 -0.00000000000E+00 -0.00000000000E+00 -0.17654760592E+02  0.17654760592E+02  0.00000000000E+00 0. -1.
         21    1    1    2  502  501  0.20798164851E+02  0.27903203780E+02  0.12436947669E+02  0.36957138819E+02  0.00000000000E+00 0. -1.
         21    1    1    2  503  502 -0.20798164851E+02 -0.27903203780E+02  0.50732658852E+02  0.61521988887E+02  0.00000000000E+00 0.  1.
</event>
<event>
 4    1  0.5740469E+002  0.2202840E+02  0.7546771E-02  0.1505073E+00
          2   -1    0    0  502    0  0.00000000000E+00  0.00000000000E+00  0.12724950956E+03  0.12724950956E+03  0.00000000000E+00 0.  1.
         -2   -1    0    0    0  501 -0.00000000000E+00 -0.00000000000E+00 -0.55878735178E+02  0.55878735178E+02  0.00000000000E+00 0. -1.
         21    1    1    2  502  503 -0.45936864279E+01  0.21544103209E+02  0.12406996346E+03  0.12601034153E+03  0.00000000000E+00 0.  1.
         21    1    1    2  503  501  0.45936864279E+01 -0.21544103209E+02 -0.52699189078E+02  0.57117903214E+02  0.00000000000E+00 0. -1.
</event>
<event>
 4    1  0.5740469E+002  0.2918293E+02  0.7546771E-02  0.1426832E+00
          2   -1    0    0  503    0  0.00000000000E+00  0.00000000000E+00  0.34115647455E+01  0.34115647455E+01  0.00000000000E+00 0. -1.
         -2   -1    0    0    0  501 -0.00000000000E+00 -0.00000000000E+00 -0.35092126413E+03  0.35092126413E+03  0.00000000000E+00 0.  1.
         21    1    1    2  502  501  0.17614203281E+02  0.23267648893E+02 -0.26893651292E+03  0.27051523362E+03  0.00000000000E+00 0.  1.
         21    1    1    2  503  502 -0.17614203281E+02 -0.23267648893E+02 -0.78573186469E+02  0.83817595253E+02  0.00000000000E+00 0. -1.
</event>
<event>
 4    1  0.5740469E+002  0.3102739E+02  0.7546771E-02  0.1410873E+00
          2   -1    0    0  502    0  0.00000000000E+00  0.00000000000E+00  0.17852323073E+01  0.17852323073E+01  0.00000000000E+00 0. -1.
         -2   -1    0    0    0  501 -0.00000000000E+00 -0.00000000000E+00 -0.56112445343E+03  0.56112445343E+03  0.00000000000E+00 0.  1.
         21    1    1    2  502  503 -0.10730659654E+02 -0.29112747078E+02 -0.33523159956E+03  0.33666440924E+03  0.00000000000E+00 0.  1.
         21    1    1    2  503  501  0.10730659654E+02  0.29112747078E+02 -0.22410762156E+03  0.22624527650E+03  0.00000000000E+00 0. -1.
</event>
<event>
 4    1  0.5740469E+002  0.1168746E+03  0.7546771E-02  0.1137405E+00
          2   -1    0    0  502    0  0.00000000000E+00  0.00000000000E+00  0.90536875624E+03  0.90536875624E+03  0.00000000000E+00 0.  1.
         -2   -1    0    0    0  501 -0.00000000000E+00 -0.00000000000E+00 -0.15828723797E+02  0.15828723797E+02  0.00000000000E+00 0. -1.
         21    1    1    2  502  503  0.10136920492E+03 -0.58171868702E+02  0.34509258704E+03  0.36434677938E+03  0.00000000000E+00 0. -1.
         21    1    1    2  503  501 -0.10136920492E+03  0.58171868702E+02  0.54444744540E+03  0.55685070065E+03  0.00000000000E+00 0.  1.
</event>
<event>
 4    1  0.5740469E+002  0.2043971E+02  0.7546771E-02  0.1527417E+00
          2   -1    0    0  503    0  0.00000000000E+00  0.00000000000E+00  0.98928487369E+02  0.98928487369E+02  0.00000000000E+00 0.  1.
         -2   -1    0    0    0  501 -0.00000000000E+00 -0.00000000000E+00 -0.47508941415E+01  0.47508941415E+01  0.00000000000E+00 0. -1.
         21    1    1    2  502  501  0.74440160851E+01 -0.19035974293E+02  0.29809728163E+02  0.36144177760E+02  0.00000000000E+00 0. -1.
         21    1    1    2  503  502 -0.74440160851E+01  0.19035974293E+02  0.64367865064E+02  0.67535203751E+02  0.00000000000E+00 0.  1.
</event>
<event>
 4    1  0.5740469E+002  0.2256679E+02  0.7546771E-02  0.1498011E+00
          2   -1    0    0  502    0  0.00000000000E+00  0.00000000000E+00  0.23479058679E+03  0.23479058679E+03  0.00000000000E+00 0. -1.
         -2   -1    0    0    0  501 -0.00000000000E+00 -0.00000000000E+00 -0.28174789613E+01  0.28174789613E+01  0.00000000000E+00 0.  1.
         21    1    1    2  502  503  0.86403811370E+01 -0.20847155579E+02  0.17298326386E+03  0.17444904602E+03  0.00000000000E+00 0. -1.
         21    1    1    2  503  501 -0.86403811370E+01  0.20847155579E+02  0.58989843976E+02  0.63159019738E+02  0.00000000000E+00 0.  1.
</event>
<event>
 4    1  0.5740469E+002  0.2165951E+02  0.7546771E-02  0.1510053E+00
          2   -1    0    0  503    0  0.00000000000E+00  0.00000000000E+00  0.29137762720E+02  0.29137762720E+02  0.00000000000E+00 0. -1.
         -2   -1    0    0    0  501 -0.00000000000E+00 -0.00000000000E+00 -0.76591358871E+02  0.76591358871E+02  0.00000000000E+00 0.  1.
         21    1    1    2  502  501  0.21541160920E+02 -0.22611703726E+01 -0.70707486393E+02  0.73950545213E+02  0.00000000000E+00 0.  1.
         21    1    1    2  503  502 -0.21541160920E+02  0.22611703726E+01  0.23253890242E+02  0.31778576378E+02  0.00000000000E+00 0. -1.
</event>
<event>
 4    1  0.5740469E+002  0.2243852E+02  0.7546771E-02  0.1499672E+00
          2   -1    0    0  502    0  0.00000000000E+00  0.00000000000E+00  0.21015120674E+03  0.21015120674E+03  0.00000000000E+00 0. -1.
         -2   -1    0    0    0  501 -0.00000000000E+00 -0.00000000000E+00 -0.57502885973E+01  0.57502885973E+01  0.00000000000E+00 0.  1.
         21    1    1    2  502  503 -0.22405704243E+02 -0.12131585391E+01  0.18465067822E+03  0.18600903285E+03  0.00000000000E+00 0. -1.
         21    1    1    2  503  501  0.22405704243E+02  0.12131585391E+01  0.19750239922E+02  0.29892462482E+02  0.00000000000E+00 0.  1.
</event>
<event>
 4    1  0.5740469E+002  0.3636718E+02  0.7546771E-02  0.1371198E+00
          2   -1    0    0  502    0  0.00000000000E+00  0.00000000000E+00  0.33892176832E+02  0.33892176832E+02  0.00000000000E+00 0.  1.
         -2   -1    0    0    0  501 -0.00000000000E+00 -0.00000000000E+00 -0.66633576224E+02  0.66633576224E+02  0.00000000000E+00 0. -1.
         21    1    1    2  502  503  0.22671211952E+02 -0.28435683741E+02  0.15984127391E+02  0.39724857327E+02  0.00000000000E+00 0.  1.
         21    1    1    2  503  501 -0.22671211952E+02  0.28435683741E+02 -0.48725526783E+02  0.60800895729E+02  0.00000000000E+00 0. -1.
</event>
<event>
 4    1  0.5740469E+002  0.2628659E+02  0.7546771E-02  0.1454909E+00
          2   -1    0    0  502    0  0.00000000000E+00  0.00000000000E+00  0.15267897927E+03  0.15267897927E+03  0.00000000000E+00 0.  1.
         -2   -1    0    0    0  501 -0.00000000000E+00 -0.00000000000E+00 -0.56911155488E+01  0.56911155488E+01  0.00000000000E+00 0. -1.
         21    1    1    2  502  503  0.25626632176E+02 -0.58532379337E+01  0.10932652806E+03  0.11244231592E+03  0.00000000000E+00 0.  1.
         21    1    1    2  503  501 -0.25626632176E+02  0.58532379337E+01  0.37661335652E+02  0.45927778894E+02  0.00000000000E+00 0. -1.
</event>
<event>
 4    1  0.5740469E+002  0.2569175E+02  0.7546771E-02  0.1461212E+00
          2   -1    0    0  503    0  0.00000000000E+00  0.00000000000E+00  0.28017686206E+03  0.28017686206E+03  0.00000000000E+00 0.  1.
         -2   -1    0    0    0  501 -0.00000000000E+00 -0.00000000000E+00 -0.23570112175E+01  0.23570112175E+01  0.00000000000E+00 0. -1.
         21    1    1    2  502  501 -0.21169494496E+02 -0.14557425679E+02  0.13583016806E+03  0.13823856442E+03  0.00000000000E+00 0.  1.
         21    1    1    2  503  502  0.21169494496E+02  0.14557425679E+02  0.14198968279E+03  0.14429530885E+03  0.00000000000E+00 0. -1.
</event>
<event>
 4    1  0.5740469E+002  0.4321979E+02  0.7546771E-02  0.1330585E+00
          2   -1    0    0  503    0  0.00000000000E+00  0.00000000000E+00  0.22538380833E+03  0.22538380833E+03  0.00000000000E+00 0. -1.
         -2   -1    0    0    0  501 -0.00000000000E+00 -0.00000000000E+00 -0.87118487656E+01  0.87118487656E+01  0.00000000000E+00 0.  1.
         21    1    1    2  502  501 -0.43013620216E+02 -0.42165302352E+01  0.82514409973E+02  0.93148153522E+02  0.00000000000E+00 0.  1.
         21    1    1    2  503  502  0.43013620216E+02  0.42165302352E+01  0.13415754959E+03  0.14094750357E+03  0.00000000000E+00 0. -1.
</event>
<event>
 4    1  0.5740469E+002  0.4304933E+02  0.7546771E-02  0.1331487E+00
          2   -1    0    0  502    0  0.00000000000E+00  0.00000000000E+00  0.70169030855E+03  0.70169030855E+03  0.00000000000E+00 0. -1.
         -2   -1    0    0    0  501 -0.00000000000E+00 -0.00000000000E+00 -0.24489322499E+02  0.24489322499E+02  0.00000000000E+00 0.  1.
         21    1    1    2  502  503  0.32717845603E+02  0.27978334825E+02  0.68155269074E+03  0.68291091286E+03  0.00000000000E+00 0. -1.
         21    1    1    2  503  501 -0.32717845603E+02 -0.27978334825E+02 -0.43517046898E+01  0.43268718194E+02  0.00000000000E+00 0.  1.
</event>
<event>
 4    1  0.5740469E+002  0.2049250E+02  0.7546771E-02  0.1526636E+00
          2   -1    0    0  502    0  0.00000000000E+00  0.00000000000E+00  0.24757997299E+02  0.24757997299E+02  0.00000000000E+00 0. -1.
         -2   -1    0    0    0  501 -0.00000000000E+00 -0.00000000000E+00 -0.38287994161E+02  0.38287994161E+02  0.00000000000E+00 0.  1.
         21    1    1    2  502  503 -0.58400998223E+01  0.19642698058E+02  0.16761211555E+02  0.26474149009E+02  0.00000000000E+00 0. -1.
         21    1    1    2  503  501  0.58400998223E+01 -0.19642698058E+02 -0.30291208418E+02  0.36571842452E+02  0.00000000000E+00 0.  1.
</event>
<event>
 4    1  0.5740469E+002  0.4398964E+02  0.7546771E-02  0.1326569E+00
          2   -1    0    0  502    0  0.00000000000E+00  0.00000000000E+00  0.54783364316E+02  0.54783364316E+02  0.00000000000E+00 0.  1.
         -2   -1    0    0    0  501 -0.00000000000E+00 -0.00000000000E+00 -0.16634970184E+03  0.16634970184E+03  0.00000000000E+00 0. -1.
         21    1    1    2  502  503  0.42925841325E+02  0.96156511767E+01  0.42344914238E+02  0.61058827067E+02  0.00000000000E+00 0.  1.
         21    1    1    2  503  501 -0.42925841325E+02 -0.96156511767E+01 -0.15391125176E+03  0.16007423909E+03  0.00000000000E+00 0. -1.
</event>
<event>
 4    1  0.5740469E+002  0.2207586E+02  0.7546771E-02  0.1504440E+00
          2   -1    0    0  503    0  0.00000000000E+00  0.00000000000E+00  0.92289249593E+03  0.92289249593E+03  0.00000000000E+00 0. -1.
         -2   -1    0    0    0  501 -0.00000000000E+00 -0.00000000000E+00 -0.52962714802E+00  0.52962714802E+00  0.00000000000E+00 0.  1.
         21    1    1    2  502  501 -0.22009825372E+02 -0.17062066367E+01  0.48628865304E+03  0.48678947979E+03  0.00000000000E+00 0. -1.
         21    1    1    2  503  502  0.22009825372E+02  0.17062066367E+01  0.43607421574E+03  0.43663264329E+03  0.00000000000E+00 0.  1.
</event>
<event>
 4    1  0.5740469E+002  0.3298419E+02  0.7546771E-02  0.1395317E+00
          2   -1    0    0  502    0  0.00000000000E+00  0.00000000000E+00  0.41212405400E+03  0.41212405400E+03  0.00000000000E+00 0. -1.
         -2   -1    0    0    0  501 -0.00000000000E+00 -0.00000000000E+00 -0.12713419969E+02  0.12713419969E+02  0.00000000000E+00 0.  1.
         21    1    1    2  502  503 -0.13271028059E+02 -0.30196631486E+02  0.38878843314E+03  0.39018508747E+03  0.00000000000E+00 0. -1.
         21    1    1    2  503  501  0.13271028059E+02  0.30196631486E+02  0.10622200898E+02  0.34652386509E+02  0.00000000000E+00 0.  1.
</event>
<event>
 4    1  0.5740469E+002  0.2290614E+02  0.7546771E-02  0.1493680E+00
          2   -1    0    0  503    0  0.00000000000E+00  0.00000000000E+00  0.21245590848E+03  0.21245590848E+03  0.00000000000E+00 0.  1.
         -2   -1    0    0    0  501 -0.00000000000E+00 -0.00000000000E+00 -0.25462194438E+01  0.25462194438E+01  0.00000000000E+00 0. -1.
         21    1    1    2  502  501  0.14262058711E+02  0.17924418192E+02  0.86312469261E+02  0.89300243203E+02  0.00000000000E+00 0. -1.
         21    1    1    2  503  502 -0.14262058711E+02 -0.17924418192E+02  0.12359721978E+03  0.12570188472E+03  0.00000000000E+00 0.  1.
</event>
<event>
 4    1  0.5740469E+002  0.2439630E+02  0.7546771E-02  0.1475672E+00
          2   -1    0    0  502    0  0.00000000000E+00  0.00000000000E+00  0.72064341808E+01  0.72064341808E+01  0.00000000000E+00 0. -1.
         -2   -1    0    0    0  501 -0.00000000000E+00 -0.00000000000E+00 -0.94112278955E+02  0.94112278955E+02  0.00000000000E+00 0.  1.
         21    1    1    2  502  503 -0.87952611445E+01  0.22755716888E+02 -0.25727113803E+02  0.35455093489E+02  0.00000000000E+00 0.  1.
         21    1    1    2  503  501  0.87952611445E+01 -0.22755716888E+02 -0.61178730971E+02  0.65863619647E+02  0.00000000000E+00 0. -1.
</event>
<event>
 4    1  0.5740469E+002  0.2055741E+02  0.7546771E-02  0.1525679E+00
          2   -1    0    0  502    0  0.00000000000E+00  0.00000000000E+00  0.10043331103E+03  0.10043331103E+03  0.00000000000E+00 0. -1.
         -2   -1    0    0    0  501 -0.00000000000E+00 -0.00000000000E+00 -0.50221863440E+01  0.50221863440E+01  0.00000000000E+00 0.  1.
         21    1    1    2  502  503  0.49382799727E+01 -0.19955460683E+02  0.68937916273E+02  0.71937773945E+02  0.00000000000E+00 0. -1.
         21    1    1    2  503  501 -0.49382799727E+01  0.19955460683E+02  0.26473208414E+02  0.33517723430E+02  0.00000000000E+00 0.  1.
</event>
<event>
 4    1  0.5740469E+002  0.2500799E+02  0.7546771E-02  0.1468714E+00
          2   -1    0    0  503    0  0.00000000000E+00  0.00000000000E+00  0.83584397708E+03  0.83584397708E+03  0.00000000000E+00 0. -1.
         -2   -1    0    0    0  501 -0.00000000000E+00 -0.00000000000E+00 -0.11019761174E+01  0.11019761174E+01  0.00000000000E+00 0.  1.
         21    1    1    2  502  501 -0.21297099942E+02 -0.13108521069E+02  0.18027189215E+03  0.18199822771E+03  0.00000000000E+00 0.  1.
         21    1    1    2  503  502  0.21297099942E+02  0.13108521069E+02  0.65447010881E+03  0.65494772549E+03  0.00000000000E+00 0. -1.
</event>
<event>
 4    1  0.5740469E+002  0.4899678E+02  0.7546771E-02  0.1302582E+00
          2   -1    0    0  502    0  0.00000000000E+00  0.00000000000E+00  0.44040731963E+03  0.44040731963E+03  0.00000000000E+00 0.  1.
         -2   -1    0    0    0  501 -0.00000000000E+00 -0.00000000000E+00 -0.55407330769E+01  0.55407330769E+01  0.00000000000E+00 0. -1.
         21    1    1    2  502  503 -0.10298479850E+02 -0.47902250905E+02  0.24580038840E+03  0.25063622098E+03  0.00000000000E+00 0. -1.
         21    1    1    2  503  501  0.10298479850E+02  0.47902250905E+02  0.18906619816E+03  0.19531183173E+03  0.00000000000E+00 0.  1.
</event>
<event>
 4    1  0.5740469E+002  0.2384020E+02  0.7546771E-02  0.1482209E+00
          2   -1    0    0  502    0  0.00000000000E+00  0.00000000000E+00  0.27442968491E+03  0.27442968491E+03  0.00000000000E+00 0.  1.
         -2   -1    0    0    0  501 -0.00000000000E+00 -0.00000000000E+00 -0.20990492736E+01  0.20990492736E+01  0.00000000000E+00 0. -1.
         21    1    1    2  502  503  0.21608385431E+02  0.10071380520E+02  0.12019384301E+03  0.12253536193E+03  0.00000000000E+00 0. -1.
         21    1    1    2  503  501 -0.21608385431E+02 -0.10071380520E+02  0.15213679262E+03  0.15399337224E+03  0.00000000000E+00 0.  1.
</event>
<event>
 4    1  0.5740469E+002  0.2714039E+02  0.7546771E-02  0.1446203E+00
          2   -1    0    0  503    0  0.00000000000E+00  0.00000000000E+00  0.30934492743E+03  0.30934492743E+03  0.00000000000E+00 0. -1.
         -2   -1    0    0    0  501 -0.00000000000E+00 -0.00000000000E+00 -0.24112889578E+01  0.24112889578E+01  0.00000000000E+00 0.  1.
         21    1    1    2  502  501 -0.20071992471E+02  0.18267897018E+02  0.13604373021E+03  0.13872453811E+03  0.00000000000E+00 0.  1.
         21    1    1    2  503  502  0.20071992471E+02 -0.18267897018E+02  0.17088990826E+03  0.17303167828E+03  0.00000000000E+00 0. -1.
</event>
<event>
 4    1  0.5740469E+002  0.2496462E+02  0.7546771E-02  0.1469200E+00
          2   -1    0    0  502    0  0.00000000000E+00  0.00000000000E+00  0.23164944222E+02  0.23164944222E+02  0.00000000000E+00 0. -1.
         -2   -1    0    0    0  501 -0.00000000000E+00 -0.00000000000E+00 -0.89073145736E+02  0.89073145736E+02  0.00000000000E+00 0.  1.
         21    1    1    2  502  503 -0.65378557581E+01 -0.24093338056E+02  0.13929817346E+02  0.28587974883E+02  0.00000000000E+00 0. -1.
         21    1    1    2  503  501  0.65378557581E+01  0.24093338056E+02 -0.79838018860E+02  0.83650115075E+02  0.00000000000E+00 0.  1.
</event>
<event>
 4    1  0.5740469E+002  0.3198400E+02  0.7546771E-02  0.1403104E+00
          2   -1    0    0  502    0  0.00000000000E+00  0.00000000000E+00  0.10217772186E+03  0.10217772186E+03  0.00000000000E+00 0. -1.
         -2   -1    0    0    0  501 -0.00000000000E+00 -0.00000000000E+00 -0.90352079906E+02  0.90352079906E+02  0.00000000000E+00 0.  1.
         21    1    1    2  502  503  0.35797172791E+01 -0.31783048770E+02  0.96687710490E+02  0.10184051220E+03  0.00000000000E+00 0. -1.
         21    1    1    2  503  501 -0.35797172791E+01  0.31783048770E+02 -0.84862068539E+02  0.90689289564E+02  0.00000000000E+00 0.  1.
</event>
<event>
 4    1  0.5740469E+002  0.2067485E+02  0.7546771E-02  0.1523958E+00
          2   -1    0    0  503    0  0.00000000000E+00  0.00000000000E+00  0.22765264215E+03  0.22765264215E+03  0.00000000000E+00 0. -1.
         -2   -1    0    0    0  501 -0.00000000000E+00 -0.00000000000E+00 -0.23273555476E+01  0.23273555476E+01  0.00000000000E+00 0.  1.
         21    1    1    2  502  501  0.85517821805E+01  0.18823298414E+02  0.62115338480E+02  0.65465753002E+02  0.00000000000E+00 0.  1.
         21    1    1    2  503  502 -0.85517821805E+01 -0.18823298414E+02  0.16320994812E+03  0.16451424469E+03  0.00000000000E+00 0. -1.
</event>
<event>
 4    1  0.5740469E+002  0.2128362E+02  0.7546771E-02  0.1515254E+00
          2   -1    0    0  502    0  0.00000000000E+00  0.00000000000E+00  0.58341739270E+03  0.58341739270E+03  0.00000000000E+00 0.  1.
         -2   -1    0    0    0  501 -0.00000000000E+00 -0.00000000000E+00 -0.11177349668E+01  0.11177349668E+01  0.00000000000E+00 0. -1.
         21    1    1    2  502  503  0.46824371535E+01 -0.20762159833E+02  0.45264959263E+03  0.45314969514E+03  0.00000000000E+00 0.  1.
         21    1    1    2  503  501 -0.46824371535E+01  0.20762159833E+02  0.12965006510E+03  0.13138543252E+03  0.00000000000E+00 0. -1.
</event>
<event>
 4    1  0.5740469E+002  0.2243722E+02  0.7546771E-02  0.1499688E+00
          2   -1    0    0  502    0  0.00000000000E+00  0.00000000000E+00  0.20107171722E+03  0.20107171722E+03  0.00000000000E+00 0. -1.
         -2   -1    0    0    0  501 -0.00000000000E+00 -0.00000000000E+00 -0.70557999838E+01  0.70557999838E+01  0.00000000000E+00 0.  1.
         21    1    1    2  502  503 -0.22433394391E+02  0.41446827492E+00  0.18059345368E+03  0.18198193448E+03  0.00000000000E+00 0. -1.
         21    1    1    2  503  501  0.22433394391E+02 -0.41446827492E+00  0.13422463565E+02  0.26145582725E+02  0.00000000000E+00 0.  1.
</event>
<event>
 4    1  0.5740469E+002  0.2450894E+02  0.7546771E-02  0.1474372E+00
          2   -1    0    0  503    0  0.00000000000E+00  0.00000000000E+00  0.71926921842E+02  0.71926921842E+02  0.00000000000E+00 0. -1.
         -2   -1    0    0    0  501 -0.00000000000E+00 -0.00000000000E+00 -0.85417028376E+01  0.85417028376E+01  0.00000000000E+00 0.  1.
         21    1    1    2  502  501  0.24313791538E+02 -0.30866715182E+01  0.37698626606E+02  0.44965258233E+02  0.00000000000E+00 0. -1.
         21    1    1    2  503  502 -0.24313791538E+02  0.30866715182E+01  0.25686592399E+02  0.35503366447E+02  0.00000000000E+00 0.  1.
</event>
<event>
 4    1  0.5740469E+002  0.5564841E+02  0.7546771E-02  0.1275380E+00
          2   -1    0    0  502    0  0.00000000000E+00  0.00000000000E+00  0.24778637783E+04  0.24778637783E+04  0.00000000000E+00 0.  1.
         -2   -1    0    0    0  501 -0.00000000000E+00 -0.00000000000E+00 -0.37110374988E+01  0.37110374988E+01  0.00000000000E+00 0. -1.
         21    1    1    2  502  503  0.36661389367E+02  0.41865122523E+02  0.22475607581E+04  0.22482495652E+04  0.00000000000E+00 0.  1.
         21    1    1    2  503  501 -0.36661389367E+02 -0.41865122523E+02  0.22659198266E+03  0.23332525059E+03  0.00000000000E+00 0. -1.
</event>
<event>
 4    1  0.5740469E+002  0.2069880E+02  0.7546771E-02  0.1523609E+00
          2   -1    0    0  503    0  0.00000000000E+00  0.00000000000E+00  0.21200461724E+02  0.21200461724E+02  0.00000000000E+00 0. -1.
         -2   -1    0    0    0  501 -0.00000000000E+00 -0.00000000000E+00 -0.12330656238E+03  0.12330656238E+03  0.00000000000E+00 0.  1.
         21    1    1    2  502  501  0.16787067727E+02 -0.12109273041E+02 -0.11712088367E+03  0.11893587150E+03  0.00000000000E+00 0.  1.
         21    1    1    2  503  502 -0.16787067727E+02  0.12109273041E+02  0.15014783019E+02  0.25571152605E+02  0.00000000000E+00 0. -1.
</event>
<event>
 4    1  0.5740469E+002  0.2126299E+02  0.7546771E-02  0.1515543E+00
          2   -1    0    0  503    0  0.00000000000E+00  0.00000000000E+00  0.17439463359E+04  0.17439463359E+04  0.00000000000E+00 0. -1.
         -2   -1    0    0    0  501 -0.00000000000E+00 -0.00000000000E+00 -0.26541993639E+00  0.26541993639E+00  0.00000000000E+00 0.  1.
         21    1    1    2  502  501  0.19968775005E+02  0.73049691341E+01  0.73885192914E+03  0.73915782329E+03  0.00000000000E+00 0.  1.
         21    1    1    2  503  502 -0.19968775005E+02 -0.73049691341E+01  0.10048289868E+04  0.10050539326E+04  0.00000000000E+00 0. -1.
</event>
<event>
 4    1  0.5740469E+002  0.2351862E+02  0.7546771E-02  0.1486086E+00
          2   -1    0    0  502    0  0.00000000000E+00  0.00000000000E+00  0.23647990837E+03  0.23647990837E+03  0.00000000000E+00 0.  1.
         -2   -1    0    0    0  501 -0.00000000000E+00 -0.00000000000E+00 -0.32581370442E+01  0.32581370442E+01  0.00000000000E+00 0. -1.
         21    1    1    2  502  503  0.96927473674E+01 -0.21428400641E+02  0.18027771542E+03  0.18180533651E+03  0.00000000000E+00 0. -1.
         21    1    1    2  503  501 -0.96927473674E+01  0.21428400641E+02  0.52944055908E+02  0.57932708909E+02  0.00000000000E+00 0.  1.
</event>
<event>
 4    1  0.5740469E+002  0.2065219E+02  0.7546771E-02  0.1524289E+00
          2   -1    0    0  503    0  0.00000000000E+00  0.00000000000E+00  0.11510075367E+03  0.11510075367E+03  0.00000000000E+00 0.  1.
         -2   -1    0    0    0  501 -0.00000000000E+00 -0.00000000000E+00 -0.51753254735E+01  0.51753254735E+01  0.00000000000E+00 0. -1.
         21    1    1    2  502  501  0.20648301891E+02  0.40092796602E+00  0.22914488862E+02  0.30847802418E+02  0.00000000000E+00 0. -1.
         21    1    1    2  503  502 -0.20648301891E+02 -0.40092796602E+00  0.87010939336E+02  0.89428276727E+02  0.00000000000E+00 0.  1.
</event>
<event>
 4    1  0.5740469E+002  0.3062397E+02  0.7546771E-02  0.1414250E+00
          2   -1    0    0  502    0  0.00000000000E+00  0.00000000000E+00  0.32540901861E+01  0.32540901861E+01  0.00000000000E+00 0.  1.
         -2   -1    0    0    0  501 -0.00000000000E+00 -0.00000000000E+00 -0.28880411502E+03  0.28880411502E+03  0.00000000000E+00 0. -1.
         21    1    1    2  502  503 -0.28625509262E+02  0.10881531314E+02 -0.13609403956E+03  0.13949700753E+03  0.00000000000E+00 0. -1.
         21    1    1    2  503  501  0.28625509262E+02 -0.10881531314E+02 -0.14945598527E+03  0.15256119768E+03  0.00000000000E+00 0.  1.
</event>
<event>
 4    1  0.5740469E+002  0.2476706E+02  0.7546771E-02  0.1471426E+00
          2   -1    0    0  502    0  0.00000000000E+00  0.00000000000E+00  0.14368099469E+04  0.14368099469E+04  0.00000000000E+00 0. -1.
         -2   -1    0    0    0  501 -0.00000000000E+00 -0.00000000000E+00 -0.16617444044E+01  0.16617444044E+01  0.00000000000E+00 0.  1.
         21    1    1    2  502  503 -0.23028725712E+02 -0.91150897196E+01  0.13375735502E+04  0.13378028290E+04  0.00000000000E+00 0. -1.
         21    1    1    2  503  501  0.23028725712E+02  0.91150897196E+01  0.97574652326E+02  0.10066886234E+03  0.00000000000E+00 0.  1.
</event>
<event>
 4    1  0.5740469E+002  0.3255928E+02  0.7546771E-02  0.1398585E+00
          2   -1    0    0  503    0  0.00000000000E+00  0.00000000000E+00  0.15272663612E+03  0.15272663612E+03  0.00000000000E+00 0.  1.
         -2   -1    0    0    0  501 -0.00000000000E+00 -0.00000000000E+00 -0.42196229687E+02  0.42196229687E+02  0.00000000000E+00 0. -1.
         21    1    1    2  502  501 -0.91391080687E+01 -0.31250337077E+02 -0.33820185840E+02  0.46945839369E+02  0.00000000000E+00 0. -1.
         21    1    1    2  503  502  0.91391080687E+01  0.31250337077E+02  0.14435059227E+03  0.14797702644E+03  0.00000000000E+00 0.  1.
</event>
<event>
 4    1  0.5740469E+002  0.2615581E+02  0.7546771E-02  0.1456277E+00
          2   -1    0    0  502    0  0.00000000000E+00  0.00000000000E+00  0.10413319293E+03  0.10413319293E+03  0.00000000000E+00 0. -1.
         -2   -1    0    0    0  501 -0.00000000000E+00 -0.00000000000E+00 -0.67187089472E+01  0.67187089472E+01  0.00000000000E+00 0.  1.
         21    1    1    2  502  503  0.23316356066E+02  0.11852177024E+02  0.56960744826E+02  0.62678967856E+02  0.00000000000E+00 0. -1.
         21    1    1    2  503  501 -0.23316356066E+02 -0.11852177024E+02  0.40453739156E+02  0.48172934020E+02  0.00000000000E+00 0.  1.
</event>
<event>
 4    1  0.5740469E+002  0.2917394E+02  0.7546771E-02  0.1426913E+00
          2   -1    0    0  503    0  0.00000000000E+00  0.00000000000E+00  0.33517775347E+03  0.33517775347E+03  0.00000000000E+00 0. -1.
         -2   -1    0    0    0  501 -0.00000000000E+00 -0.00000000000E+00 -0.38998031422E+01  0.38998031422E+01  0.00000000000E+00 0.  1.
         21    1    1    2  502  501 -0.24399227114E+02 -0.15993645194E+02  0.65501535975E+02  0.71704743117E+02  0.00000000000E+00 0.  1.
         21    1    1    2  503  502  0.24399227114E+02  0.15993645194E+02  0.26577641435E+03  0.26737281349E+03  0.00000000000E+00 0. -1.
</event>
<event>
 4    1  0.5740469E+002  0.4309424E+02  0.7546771E-02  0.1331249E+00
          2   -1    0    0  503    0  0.00000000000E+00  0.00000000000E+00  0.47023837376E+03  0.47023837376E+03  0.00000000000E+00 0. -1.
         -2   -1    0    0    0  501 -0.00000000000E+00 -0.00000000000E+00 -0.29176252688E+02  0.29176252688E+02  0.00000000000E+00 0.  1.
         21    1    1    2  502  501 -0.21436391639E+02 -0.37384422176E+02 -0.11661806939E+02  0.44644279018E+02  0.00000000000E+00 0.  1.
         21    1    1    2  503  502  0.21436391639E+02  0.37384422176E+02  0.45272392801E+03  0.45477034743E+03  0.00000000000E+00 0. -1.
</event>
<event>
 4    1  0.5740469E+002  0.2355087E+02  0.7546771E-02  0.1485694E+00
          2   -1    0    0  503    0  0.00000000000E+00  0.00000000000E+00  0.47586714979E+03  0.47586714979E+03  0.00000000000E+00 0.  1.
         -2   -1    0    0    0  501 -0.00000000000E+00 -0.00000000000E+00 -0.13710151806E+01  0.13710151806E+01  0.00000000000E+00 0. -1.
         21    1    1    2  502  501  0.21071649358E+02  0.10518024799E+02  0.14487159291E+03  0.14677336844E+03  0.00000000000E+00 0. -1.
         21    1    1    2  503  502 -0.21071649358E+02 -0.10518024799E+02  0.32962454170E+03  0.33046479653E+03  0.00000000000E+00 0.  1.
</event>
<event>
 4    1  0.5740469E+002  0.3812666E+02  0.7546771E-02  0.1359827E+00
          2   -1    0    0  502    0  0.00000000000E+00  0.00000000000E+00  0.97480312720E+03  0.97480312720E+03  0.00000000000E+00 0. -1.
         -2   -1    0    0    0  501 -0.00000000000E+00 -0.00000000000E+00 -0.53816162339E+01  0.53816162339E+01  0.00000000000E+00 0.  1.
         21    1    1    2  502  503 -0.23440563421E+02  0.30069621405E+02  0.90140616353E+03  0.90221212239E+03  0.00000000000E+00 0. -1.
         21    1    1    2  503  501  0.23440563421E+02 -0.30069621405E+02  0.68015347435E+02  0.77972621039E+02  0.00000000000E+00 0.  1.
</event>
<event>
 4    1  0.5740469E+002  0.2357785E+02  0.7546771E-02  0.1485367E+00
          2   -1    0    0  503    0  0.00000000000E+00  0.00000000000E+00  0.65657640553E+03  0.65657640553E+03  0.00000000000E+00 0.  1.
         -2   -1    0    0    0  501 -0.00000000000E+00 -0.00000000000E+00 -0.56758689777E+01  0.56758689777E+01  0.00000000000E+00 0. -1.
         21    1    1    2  502  501 -0.22930347417E+02 -0.54876416140E+01  0.20018613806E+02  0.30929919849E+02  0.00000000000E+00 0. -1.
         21    1    1    2  503  502  0.22930347417E+02  0.54876416140E+01  0.63088192275E+03  0.63132235466E+03  0.00000000000E+00 0.  1.
</event>
<event>
 4    1  0.5740469E+002  0.3075008E+02  0.7546771E-02  0.1413188E+00
          2   -1    0    0  502    0  0.00000000000E+00  0.00000000000E+00  0.15368173258E+04  0.15368173258E+04  0.00000000000E+00 0. -1.
         -2   -1    0    0    0  501 -0.00000000000E+00 -0.00000000000E+00 -0.61717906310E+00  0.61717906310E+00  0.00000000000E+00 0.  1.
         21    1    1    2  502  503  0.27911237052E+02  0.12904670441E+02  0.81078003954E+03  0.81136295219E+03  0.00000000000E+00 0.  1.
         21    1    1    2  503  501 -0.27911237052E+02 -0.12904670441E+02  0.72542010722E+03  0.72607155270E+03  0.00000000000E+00 0. -1.
</event>
<event>
 4    1  0.5740469E+002  0.2463865E+02  0.7546771E-02  0.1472887E+00
          2   -1    0    0  503    0  0.00000000000E+00  0.00000000000E+00  0.15737448355E+04  0.15737448355E+04  0.00000000000E+00 0. -1.
         -2   -1    0    0    0  501 -0.00000000000E+00 -0.00000000000E+00 -0.61571459686E+00  0.61571459686E+00  0.00000000000E+00 0.  1.
         21    1    1    2  502  501 -0.23229696231E+02 -0.82124481450E+01  0.30548117746E+03  0.30647318459E+03  0.00000000000E+00 0.  1.
         21    1    1    2  503  502  0.23229696231E+02  0.82124481450E+01  0.12676479435E+04  0.12678873655E+04  0.00000000000E+00 0. -1.
</event>
<event>
 4    1  0.5740469E+002  0.2427649E+02  0.7546771E-02  0.1477062E+00
          2   -1    0    0  502    0  0.00000000000E+00  0.00000000000E+00  0.10072254564E+02  0.10072254564E+02  0.00000000000E+00 0.  1.
         -2   -1    0    0    0  501 -0.00000000000E+00 -0.00000000000E+00 -0.74787689047E+02  0.74787689047E+02  0.00000000000E+00 0. -1.
         21    1    1    2  502  503 -0.36567547856E+01 -0.23999499806E+02 -0.12564004534E+02  0.27334996916E+02  0.00000000000E+00 0.  1.
         21    1    1    2  503  501  0.36567547856E+01  0.23999499806E+02 -0.52151429949E+02  0.57524946695E+02  0.00000000000E+00 0. -1.
</event>
<event>
 4    1  0.5740469E+002  0.4016887E+02  0.7546771E-02  0.1347499E+00
          2   -1    0    0  503    0  0.00000000000E+00  0.00000000000E+00  0.11180116798E+03  0.11180116798E+03  0.00000000000E+00 0.  1.
         -2   -1    0    0    0  501 -0.00000000000E+00 -0.00000000000E+00 -0.37617255873E+02  0.37617255873E+02  0.00000000000E+00 0. -1.
         21    1    1    2  502  501  0.40168873965E+02  0.65392611878E-02 -0.21560274609E+02  0.45589296108E+02  0.00000000000E+00 0. -1.
         21    1    1    2  503  502 -0.40168873965E+02 -0.65392611878E-02  0.95744186715E+02  0.10382912774E+03  0.00000000000E+00 0.  1.
</event>
<event>
 4    1  0.5740469E+002  0.2895328E+02  0.7546771E-02  0.1428916E+00
          2   -1    0    0  503    0  0.00000000000E+00  0.00000000000E+00  0.79683504254E+03  0.79683504254E+03  0.00000000000E+00 0. -1.
         -2   -1    0    0    0  501 -0.00000000000E+00 -0.00000000000E+00 -0.31491766261E+01  0.31491766261E+01  0.00000000000E+00 0.  1.
         21    1    1    2  502  501  0.53810263124E+01 -0.28448852340E+02  0.70429865317E+02  0.76148923644E+02  0.00000000000E+00 0.  1.
         21    1    1    2  503  502 -0.53810263124E+01  0.28448852340E+02  0.72325600059E+03  0.72383529552E+03  0.00000000000E+00 0. -1.
</event>
<event>
 4    1  0.5740469E+002  0.2129148E+02  0.7546771E-02  0.1515144E+00
          2   -1    0    0  503    0  0.00000000000E+00  0.00000000000E+00  0.62469350640E+01  0.62469350640E+01  0.00000000000E+00 0. -1.
         -2   -1    0    0    0  501 -0.00000000000E+00 -0.00000000000E+00 -0.74023944970E+02  0.74023944970E+02  0.00000000000E+00 0.  1.
         21    1    1    2  502  501  0.19201815171E+02 -0.91987788343E+01 -0.28259616379E+02  0.35382667449E+02  0.00000000000E+00 0. -1.
         21    1    1    2  503  502 -0.19201815171E+02  0.91987788343E+01 -0.39517393526E+02  0.44888212585E+02  0.00000000000E+00 0.  1.
</event>
<event>
 4    1  0.5740469E+002  0.3454374E+02  0.7546771E-02  0.1383799E+00
          2   -1    0    0  502    0  0.00000000000E+00  0.00000000000E+00  0.35903287872E+02  0.35903287872E+02  0.00000000000E+00 0. -1.
         -2   -1    0    0    0  501 -0.00000000000E+00 -0.00000000000E+00 -0.35947393433E+02  0.35947393433E+02  0.00000000000E+00 0.  1.
         21    1    1    2  502  503 -0.25980606713E+02  0.22765721453E+02  0.98450467373E+01  0.35919283731E+02  0.00000000000E+00 0. -1.
         21    1    1    2  503  501  0.25980606713E+02 -0.22765721453E+02 -0.98891522981E+01  0.35931397574E+02  0.00000000000E+00 0.  1.
</event>
<event>
 4    1  0.5740469E+002  0.2262206E+02  0.7546771E-02  0.1497299E+00
          2   -1    0    0  502    0  0.00000000000E+00  0.00000000000E+00  0.90790502434E+03  0.90790502434E+03  0.00000000000E+00 0.  1.
         -2   -1    0    0    0  501 -0.00000000000E+00 -0.00000000000E+00 -0.13699826120E+01  0.13699826120E+01  0.00000000000E+00 0. -1.
         21    1    1    2  502  503  0.16999013440E+02  0.14926193238E+02  0.80205411979E+03  0.80237308578E+03  0.00000000000E+00 0.  1.
         21    1    1    2  503  501 -0.16999013440E+02 -0.14926193238E+02  0.10448092193E+03  0.10690192117E+03  0.00000000000E+00 0. -1.
</event>
<event>
 4    1  0.5740469E+002  0.2128703E+02  0.7546771E-02  0.1515206E+00
          2   -1    0    0  502    0  0.00000000000E+00  0.00000000000E+00  0.11820108367E+04  0.11820108367E+04  0.00000000000E+00 0. -1.
         -2   -1    0    0    0  501 -0.00000000000E+00 -0.00000000000E+00 -0.18137779828E+01  0.18137779828E+01  0.00000000000E+00 0.  1.
         21    1    1    2  502  503 -0.21282841786E+02 -0.42233511599E+00  0.11157483554E+04  0.11159514014E+04  0.00000000000E+00 0. -1.
         21    1    1    2  503  501  0.21282841786E+02  0.42233511599E+00  0.64448703341E+02  0.67873213301E+02  0.00000000000E+00 0.  1.
</event>
<event>
 4    1  0.5740469E+002  0.3304748E+02  0.7546771E-02  0.1394835E+00
          2   -1    0    0  503    0  0.00000000000E+00  0.00000000000E+00  0.65557764419E+03  0.65557764419E+03  0.00000000000E+00 0.  1.
         -2   -1    0    0    0  501 -0.00000000000E+00 -0.00000000000E+00 -0.24642752819E+01  0.24642752819E+01  0.00000000000E+00 0. -1.
         21    1    1    2  502  501  0.84101495121E+01  0.31959432138E+02  0.13928215611E+03  0.14314906541E+03  0.00000000000E+00 0. -1.
         21    1    1    2  503  502 -0.84101495121E+01 -0.31959432138E+02  0.51383121280E+03  0.51489285406E+03  0.00000000000E+00 0.  1.
</event>
<event>
 4    1  0.5740469E+002  0.3894960E+02  0.7546771E-02  0.1354753E+00
          2   -1    0    0  502    0  0.00000000000E+00  0.00000000000E+00  0.69857950398E+02  0.69857950398E+02  0.00000000000E+00 0. -1.
         -2   -1    0    0    0  501 -0.00000000000E+00 -0.00000000000E+00 -0.70239957727E+02  0.70239957727E+02  0.00000000000E+00 0.  1.
         21    1    1    2  502  503 -0.18424198840E+02 -0.34316472686E+02  0.58030755887E+02  0.69890199809E+02  0.00000000000E+00 0. -1.
         21    1    1    2  503  501  0.18424198840E+02  0.34316472686E+02 -0.58412763217E+02  0.70207708317E+02  0.00000000000E+00 0.  1.
</event>
<event>
 4    1  0.5740469E+002  0.2181977E+02  0.7546771E-02  0.1507875E+00
          2   -1    0    0  503    0  0.00000000000E+00  0.00000000000E+00  0.10290884265E+04  0.10290884265E+04  0.00000000000E+00 0.  1.
         -2   -1    0    0    0  501 -0.00000000000E+00 -0.00000000000E+00 -0.54570156536E+00  0.54570156536E+00  0.00000000000E+00 0. -1.
         21    1    1    2  502  501  0.17649958903E+02 -0.12828929851E+02  0.31342561795E+03  0.31418421424E+03  0.00000000000E+00 0. -1.
         21    1    1    2  503  502 -0.17649958903E+02  0.12828929851E+02  0.71511710701E+03  0.71544991386E+03  0.00000000000E+00 0.  1.
</event>
<event>
 4    1  0.5740469E+002  0.3112883E+02  0.7546771E-02  0.1410034E+00
          2   -1    0    0  503    0  0.00000000000E+00  0.00000000000E+00  0.66452528324E+03  0.66452528324E+03  0.00000000000E+00 0.  1.
         -2   -1    0    0    0  501 -0.00000000000E+00 -0.00000000000E+00 -0.38318220583E+01  0.38318220583E+01  0.00000000000E+00 0. -1.
         21    1    1    2  502  501 -0.24272274155E+02  0.19490011842E+02  0.67330442959E+02  0.74178112697E+02  0.00000000000E+00 0. -1.
         21    1    1    2  503  502  0.24272274155E+02 -0.19490011842E+02  0.59336301822E+03  0.59417899260E+03  0.00000000000E+00 0.  1.
</event>
<event>
 4    1  0.5740469E+002  0.2049134E+02  0.7546771E-02  0.1526653E+00
          2   -1    0    0  502    0  0.00000000000E+00  0.00000000000E+00  0.73124448169E+02  0.73124448169E+02  0.00000000000E+00 0.  1.
         -2   -1    0    0    0  501 -0.00000000000E+00 -0.00000000000E+00 -0.17382549656E+02  0.17382549656E+02  0.00000000000E+00 0. -1.
         21    1    1    2  502  503 -0.60349471920E+00 -0.20482453729E+02  0.64903059456E+02  0.68061018531E+02  0.00000000000E+00 0.  1.
         21    1    1    2  503  501  0.60349471920E+00  0.20482453729E+02 -0.91611609432E+01  0.22445979294E+02  0.00000000000E+00 0. -1.
</event>
<event>
 4    1  0.5740469E+002  0.8542273E+02  0.7546771E-02  0.1191789E+00
          2   -1    0    0  503    0  0.00000000000E+00  0.00000000000E+00  0.39737565650E+03  0.39737565650E+03  0.00000000000E+00 0.  1.
         -2   -1    0    0    0  501 -0.00000000000E+00 -0.00000000000E+00 -0.18744027943E+02  0.18744027943E+02  0.00000000000E+00 0. -1.
         21    1    1    2  502  501 -0.10415507941E+02 -0.84785379420E+02  0.15965478766E+03  0.18107096563E+03  0.00000000000E+00 0. -1.
         21    1    1    2  503  502  0.10415507941E+02  0.84785379420E+02  0.21897684089E+03  0.23504871881E+03  0.00000000000E+00 0.  1.
</event>
<event>
 4    1  0.5740469E+002  0.3073693E+02  0.7546771E-02  0.1413298E+00
          2   -1    0    0  503    0  0.00000000000E+00  0.00000000000E+00  0.44396629503E+02  0.44396629503E+02  0.00000000000E+00 0.  1.
         -2   -1    0    0    0  501 -0.00000000000E+00 -0.00000000000E+00 -0.52602158237E+02  0.52602158237E+02  0.00000000000E+00 0. -1.
         21    1    1    2  502  501 -0.98942662749E+01  0.29100898564E+02 -0.41527660094E+02  0.51665320624E+02  0.00000000000E+00 0. -1.
         21    1    1    2  503  502  0.98942662749E+01 -0.29100898564E+02  0.33322131360E+02  0.45333467115E+02  0.00000000000E+00 0.  1.
</event>
<event>
 4    1  0.5740469E+002  0.2136788E+02  0.7546771E-02  0.1514077E+00
          2   -1    0    0  502    0  0.00000000000E+00  0.00000000000E+00  0.13435833395E+03  0.13435833395E+03  0.00000000000E+00 0.  1.
         -2   -1    0    0    0  501 -0.00000000000E+00 -0.00000000000E+00 -0.34784636414E+01  0.34784636414E+01  0.00000000000E+00 0. -1.
         21    1    1    2  502  503  0.13680375423E+02 -0.16414431837E+02  0.75904095433E+02  0.78854409818E+02  0.00000000000E+00 0.  1.
         21    1    1    2  503  501 -0.13680375423E+02  0.16414431837E+02  0.54975774871E+02  0.58982387769E+02  0.00000000000E+00 0. -1.
</event>
<event>
 4    1  0.5740469E+002  0.2012215E+02  0.7546771E-02  0.1532177E+00
          2   -1    0    0  502    0  0.00000000000E+00  0.00000000000E+00  0.41958704276E+02  0.41958704276E+02  0.00000000000E+00 0.  1.
         -2   -1    0    0    0  501 -0.00000000000E+00 -0.00000000000E+00 -0.21037305641E+02  0.21037305641E+02  0.00000000000E+00 0. -1.
         21    1    1    2  502  503  0.17892653765E+02  0.92061878002E+01  0.33634577759E+02  0.39194205868E+02  0.00000000000E+00 0.  1.
         21    1    1    2  503  501 -0.17892653765E+02 -0.92061878002E+01 -0.12713179124E+02  0.23801804049E+02  0.00000000000E+00 0. -1.
</event>
<event>
 4    1  0.5740469E+002  0.2667372E+02  0.7546771E-02  0.1450913E+00
          2   -1    0    0  502    0  0.00000000000E+00  0.00000000000E+00  0.71740186516E+01  0.71740186516E+01  0.00000000000E+00 0.  1.
         -2   -1    0    0    0  501 -0.00000000000E+00 -0.00000000000E+00 -0.10320182787E+03  0.10320182787E+03  0.00000000000E+00 0. -1.
         21    1    1    2  502  503 -0.20074096509E+02 -0.17564676164E+02 -0.58914559137E+02  0.64671573954E+02  0.00000000000E+00 0. -1.
         21    1    1    2  503  501  0.20074096509E+02  0.17564676164E+02 -0.37113250084E+02  0.45704272570E+02  0.00000000000E+00 0.  1.
</event>
<event>
 4    1  0.5740469E+002  0.2585058E+02  0.7546771E-02  0.1459509E+00
          2   -1    0    0  503    0  0.00000000000E+00  0.00000000000E+00  0.87961335234E+03  0.87961335234E+03  0.00000000000E+00 0. -1.
         -2   -1    0    0    0  501 -0.00000000000E+00 -0.00000000000E+00 -0.16790397503E+01  0.16790397503E+01  0.00000000000E+00 0.  1.
         21    1    1    2  502  501 -0.18002151917E+02 -0.18551956029E+02  0.11290920568E+03  0.11583065774E+03  0.00000000000E+00 0.  1.
         21    1    1    2  503  502  0.18002151917E+02  0.18551956029E+02  0.76502510691E+03  0.76546173434E+03  0.00000000000E+00 0. -1.
</event>
<event>
 4    1  0.5740469E+002  0.2158074E+02  0.7546771E-02  0.1511133E+00
          2   -1    0    0  503    0  0.00000000000E+00  0.00000000000E+00  0.15865766995E+04  0.15865766995E+04  0.00000000000E+00 0. -1.
         -2   -1    0    0    0  501 -0.00000000000E+00 -0.00000000000E+00 -0.69785648402E+00  0.69785648402E+00  0.00000000000E+00 0.  1.
         21    1    1    2  502  501 -0.16124079609E+02 -0.14343724328E+02  0.18885428375E+03  0.19008332084E+03  0.00000000000E+00 0. -1.
         21    1    1    2  503  502  0.16124079609E+02  0.14343724328E+02  0.13970245593E+04  0.13971912352E+04  0.00000000000E+00 0.  1.
</event>
<event>
 4    1  0.5740469E+002  0.3599639E+02  0.7546771E-02  0.1373690E+00
          2   -1    0    0  502    0  0.00000000000E+00  0.00000000000E+00  0.15710994252E+03  0.15710994252E+03  0.00000000000E+00 0.  1.
         -2   -1    0    0    0  501 -0.00000000000E+00 -0.00000000000E+00 -0.26090561983E+02  0.26090561983E+02  0.00000000000E+00 0. -1.
         21    1    1    2  502  503  0.35691861263E+02 -0.46723990910E+01  0.14126123651E+03  0.14577543419E+03  0.00000000000E+00 0.  1.
         21    1    1    2  503  501 -0.35691861263E+02  0.46723990910E+01 -0.10241855976E+02  0.37425070308E+02  0.00000000000E+00 0. -1.
</event>
<event>
 4    1  0.5740469E+002  0.4964300E+02  0.7546771E-02  0.1299728E+00
          2   -1    0    0  502    0  0.00000000000E+00  0.00000000000E+00  0.42521279328E+03  0.42521279328E+03  0.00000000000E+00 0. -1.
         -2   -1    0    0    0  501 -0.00000000000E+00 -0.00000000000E+00 -0.59875212464E+01  0.59875212464E+01  0.00000000000E+00 0.  1.
         21    1    1    2  502  503 -0.36892575051E+02  0.33216939580E+02  0.24819749873E+03  0.25311346377E+03  0.00000000000E+00 0. -1.
         21    1    1    2  503  501  0.36892575051E+02 -0.33216939580E+02  0.17102777331E+03  0.17808685075E+03  0.00000000000E+00 0.  1.
</event>
<event>
 4    1  0.5740469E+002  0.3511441E+02  0.7546771E-02  0.1379761E+00
          2   -1    0    0  503    0  0.00000000000E+00  0.00000000000E+00  0.14760961040E+02  0.14760961040E+02  0.00000000000E+00 0.  1.
         -2   -1    0    0    0  501 -0.00000000000E+00 -0.00000000000E+00 -0.15337683642E+03  0.15337683642E+03  0.00000000000E+00 0. -1.
         21    1    1    2  502  501  0.29777667167E+02 -0.18609467778E+02 -0.12603897107E+03  0.13083900023E+03  0.00000000000E+00 0. -1.
         21    1    1    2  503  502 -0.29777667167E+02  0.18609467778E+02 -0.12576904312E+02  0.37298797232E+02  0.00000000000E+00 0.  1.
</event>
<event>
 4    1  0.5740469E+002  0.4933652E+02  0.7546771E-02  0.1301075E+00
          2   -1    0    0  503    0  0.00000000000E+00  0.00000000000E+00  0.36217344290E+04  0.36217344290E+04  0.00000000000E+00 0.  1.
         -2   -1    0    0    0  501 -0.00000000000E+00 -0.00000000000E+00 -0.10590456699E+01  0.10590456699E+01  0.00000000000E+00 0. -1.
         21    1    1    2  502  501  0.32504116734E+02 -0.37115698640E+02  0.71539130152E+03  0.71709051519E+03  0.00000000000E+00 0. -1.
         21    1    1    2  503  502 -0.32504116734E+02  0.37115698640E+02  0.29052840818E+04  0.29057029595E+04  0.00000000000E+00 0.  1.
</event>
<event>
 4    1  0.5740469E+002  0.2182196E+02  0.7546771E-02  0.1507845E+00
          2   -1    0    0  503    0  0.00000000000E+00  0.00000000000E+00  0.28495267117E+02  0.28495267117E+02  0.00000000000E+00 0. -1.
         -2   -1    0    0    0  501 -0.00000000000E+00 -0.00000000000E+00 -0.34137753489E+02  0.34137753489E+02  0.00000000000E+00 0.  1.
         21    1    1    2  502  501  0.14975116684E+02  0.15872740001E+02 -0.25195993375E+02  0.33332207803E+02  0.00000000000E+00 0.  1.
         21    1    1    2  503  502 -0.14975116684E+02 -0.15872740001E+02  0.19553507003E+02  0.29300812804E+02  0.00000000000E+00 0. -1.
</event>
<event>
 4    1  0.5740469E+002  0.2769471E+02  0.7546771E-02  0.1440752E+00
          2   -1    0    0  503    0  0.00000000000E+00  0.00000000000E+00  0.18685603995E+03  0.18685603995E+03  0.00000000000E+00 0.  1.
         -2   -1    0    0    0  501 -0.00000000000E+00 -0.00000000000E+00 -0.28119414561E+02  0.28119414561E+02  0.00000000000E+00 0. -1.
         21    1    1    2  502  501 -0.22782217690E+02  0.15746976433E+02 -0.19964797846E+02  0.34140736118E+02  0.00000000000E+00 0. -1.
         21    1    1    2  503  502  0.22782217690E+02 -0.15746976433E+02  0.17870142324E+03  0.18083471840E+03  0.00000000000E+00 0.  1.
</event>
<event>
 4    1  0.5740469E+002  0.2232601E+02  0.7546771E-02  0.1501139E+00
          2   -1    0    0  502    0  0.00000000000E+00  0.00000000000E+00  0.15487936581E+03  0.15487936581E+03  0.00000000000E+00 0. -1.
         -2   -1    0    0    0  501 -0.00000000000E+00 -0.00000000000E+00 -0.16751340125E+02  0.16751340125E+02  0.00000000000E+00 0.  1.
         21    1    1    2  502  503 -0.14458812741E+01 -0.22279142641E+02  0.14619655404E+03  0.14789145744E+03  0.00000000000E+00 0. -1.
         21    1    1    2  503  501  0.14458812741E+01  0.22279142641E+02 -0.80685283558E+01  0.23739248499E+02  0.00000000000E+00 0.  1.
</event>
<event>
 4    1  0.5740469E+002  0.3669361E+02  0.7546771E-02  0.1369032E+00
          2   -1    0    0  502    0  0.00000000000E+00  0.00000000000E+00  0.63093685100E+03  0.63093685100E+03  0.00000000000E+00 0. -1.
         -2   -1    0    0    0  501 -0.00000000000E+00 -0.00000000000E+00 -0.28402243654E+01  0.28402243654E+01  0.00000000000E+00 0.  1.
         21    1    1    2  502  503  0.30857123147E+02 -0.19855950487E+02  0.47206421191E+03  0.47348816351E+03  0.00000000000E+00 0. -1.
         21    1    1    2  503  501 -0.30857123147E+02  0.19855950487E+02  0.15603241472E+03  0.16028891185E+03  0.00000000000E+00 0.  1.
</event>
<event>
 4    1  0.5740469E+002  0.3810107E+02  0.7546771E-02  0.1359988E+00
          2   -1    0    0  503    0  0.00000000000E+00  0.00000000000E+00  0.20637137276E+02  0.20637137276E+02  0.00000000000E+00 0.  1.
         -2   -1    0    0    0  501 -0.00000000000E+00 -0.00000000000E+00 -0.91841655221E+02  0.91841655221E+02  0.00000000000E+00 0. -1.
         21    1    1    2  502  501  0.14025679067E+01  0.38075250088E+02 -0.62811706993E+02  0.73464293377E+02  0.00000000000E+00 0. -1.
         21    1    1    2  503  502 -0.14025679067E+01 -0.38075250088E+02 -0.83928109518E+01  0.39014499121E+02  0.00000000000E+00 0.  1.
</event>
<event>
 4    1  0.5740469E+002  0.2725952E+02  0.7546771E-02  0.1445018E+00
          2   -1    0    0  503    0  0.00000000000E+00  0.00000000000E+00  0.26611052397E+02  0.26611052397E+02  0.00000000000E+00 0. -1.
         -2   -1    0    0    0  501 -0.00000000000E+00 -0.00000000000E+00 -0.71435109321E+02  0.71435109321E+02  0.00000000000E+00 0.  1.
         21    1    1    2  502  501  0.22135668075E+02  0.15908912965E+02 -0.60672110222E+02  0.66514556840E+02  0.00000000000E+00 0.  1.
         21    1    1    2  503  502 -0.22135668075E+02 -0.15908912965E+02  0.15848053297E+02  0.31531604878E+02  0.00000000000E+00 0. -1.
</event>
<event>
 4    1  0.5740469E+002  0.2185632E+02  0.7546771E-02  0.1507381E+00
          2   -1    0    0  503    0  0.00000000000E+00  0.00000000000E+00  0.15439593377E+03  0.15439593377E+03  0.00000000000E+00 0. -1.
         -2   -1    0    0    0  501 -0.00000000000E+00 -0.00000000000E+00 -0.99521820204E+01  0.99521820204E+01  0.00000000000E+00 0.  1.
         21    1    1    2  502  501 -0.79676385753E+01  0.20352281272E+02  0.40067673053E+01  0.22220549086E+02  0.00000000000E+00 0.  1.
         21    1    1    2  503  502  0.79676385753E+01 -0.20352281272E+02  0.14043698444E+03  0.14212756670E+03  0.00000000000E+00 0. -1.
</event>
<event>
 4    1  0.5740469E+002  0.2428290E+02  0.7546771E-02  0.1476988E+00
          2   -1    0    0  503    0  0.00000000000E+00  0.00000000000E+00  0.13003891039E+03  0.13003891039E+03  0.00000000000E+00 0.  1.
         -2   -1    0    0    0  501 -0.00000000000E+00 -0.00000000000E+00 -0.10646052830E+02  0.10646052830E+02  0.00000000000E+00 0. -1.
         21    1    1    2  502  501  0.29930776689E+01 -0.24097729386E+02  0.63997915179E+01  0.25112076914E+02  0.00000000000E+00 0. -1.
         21    1    1    2  503  502 -0.29930776689E+01  0.24097729386E+02  0.11299306604E+03  0.11557288630E+03  0.00000000000E+00 0.  1.
</event>
<event>
 4    1  0.5740469E+002  0.2674119E+02  0.7546771E-02  0.1450225E+00
          2   -1    0    0  502    0  0.00000000000E+00  0.00000000000E+00  0.80796272256E+01  0.80796272256E+01  0.00000000000E+00 0.  1.
         -2   -1    0    0    0  501 -0.00000000000E+00 -0.00000000000E+00 -0.17173762136E+03  0.17173762136E+03  0.00000000000E+00 0. -1.
         21    1    1    2  502  503 -0.15170856044E+02  0.22021276195E+02 -0.19237678206E+02  0.32942066437E+02  0.00000000000E+00 0.  1.
         21    1    1    2  503  501  0.15170856044E+02 -0.22021276195E+02 -0.14442031593E+03  0.14687518215E+03  0.00000000000E+00 0. -1.
</event>
<event>
 4    1  0.5740469E+002  0.2458519E+02  0.7546771E-02  0.1473498E+00
          2   -1    0    0  502    0  0.00000000000E+00  0.00000000000E+00  0.17391654374E+04  0.17391654374E+04  0.00000000000E+00 0. -1.
         -2   -1    0    0    0  501 -0.00000000000E+00 -0.00000000000E+00 -0.11377417583E+01  0.11377417583E+01  0.00000000000E+00 0.  1.
         21    1    1    2  502  503  0.18771916250E+02 -0.15875984848E+02  0.15941870057E+04  0.15943765681E+04  0.00000000000E+00 0. -1.
         21    1    1    2  503  501 -0.18771916250E+02  0.15875984848E+02  0.14384068992E+03  0.14592661105E+03  0.00000000000E+00 0.  1.
</event>
<event>
 4    1  0.5740469E+002  0.2214350E+02  0.7546771E-02  0.1503543E+00
          2   -1    0    0  502    0  0.00000000000E+00  0.00000000000E+00  0.52890947920E+03  0.52890947920E+03  0.00000000000E+00 0. -1.
         -2   -1    0    0    0  501 -0.00000000000E+00 -0.00000000000E+00 -0.13278744453E+01  0.13278744453E+01  0.00000000000E+00 0.  1.
         21    1    1    2  502  503  0.19303613236E+02 -0.10849206603E+02  0.11813444073E+03  0.12019185020E+03  0.00000000000E+00 0.  1.
         21    1    1    2  503  501 -0.19303613236E+02  0.10849206603E+02  0.40944716403E+03  0.41004550345E+03  0.00000000000E+00 0. -1.
</event>
<event>
 4    1  0.5740469E+002  0.2441251E+02  0.7546771E-02  0.1475484E+00
          2   -1    0    0  503    0  0.00000000000E+00  0.00000000000E+00  0.64823302627E+03  0.64823302627E+03  0.00000000000E+00 0.  1.
         -2   -1    0    0    0  501 -0.00000000000E+00 -0.00000000000E+00 -0.13993890325E+01  0.13993890325E+01  0.00000000000E+00 0. -1.
         21    1    1    2  502  501 -0.19521406486E+02  0.14658973350E+02  0.13318010796E+03  0.13539908407E+03  0.00000000000E+00 0. -1.
         21    1    1    2  503  502  0.19521406486E+02 -0.14658973350E+02  0.51365352928E+03  0.51423333123E+03  0.00000000000E+00 0.  1.
</event>
<event>
 4    1  0.5740469E+002  0.2041328E+02  0.7546771E-02  0.1527809E+00
          2   -1    0    0  502    0  0.00000000000E+00  0.00000000000E+00  0.67650545905E+01  0.67650545905E+01  0.00000000000E+00 0.  1.
         -2   -1    0    0    0  501 -0.00000000000E+00 -0.00000000000E+00 -0.62096945986E+02  0.62096945986E+02  0.00000000000E+00 0. -1.
         21    1    1    2  502  503  0.20330055648E+02 -0.18414115894E+01 -0.30757691548E+02  0.36915275275E+02  0.00000000000E+00 0. -1.
         21    1    1    2  503  501 -0.20330055648E+02  0.18414115894E+01 -0.24574199847E+02  0.31946725301E+02  0.00000000000E+00 0.  1.
</event>
<event>
 4    1  0.5740469E+002  0.2227947E+02  0.7546771E-02  0.1501750E+00
          2   -1    0    0  503    0  0.00000000000E+00  0.00000000000E+00  0.81778048291E+03  0.81778048291E+03  0.00000000000E+00 0. -1.
         -2   -1    0    0    0  501 -0.00000000000E+00 -0.00000000000E+00 -0.59253020370E+01  0.59253020370E+01  0.00000000000E+00 0.  1.
         21    1    1    2  502  501 -0.22153955137E+02 -0.23615848985E+01  0.15739267023E+02  0.27278184284E+02  0.00000000000E+00 0.  1.
         21    1    1    2  503  502  0.22153955137E+02  0.23615848985E+01  0.79611591385E+03  0.79642760066E+03  0.00000000000E+00 0. -1.
</event>
<event>
 4    1  0.5740469E+002  0.2461745E+02  0.7546771E-02  0.1473129E+00
          2   -1    0    0  502    0  0.00000000000E+00  0.00000000000E+00  0.44934060889E+03  0.44934060889E+03  0.00000000000E+00 0. -1.
         -2   -1    0    0    0  501 -0.00000000000E+00 -0.00000000000E+00 -0.18348445320E+01  0.18348445320E+01  0.00000000000E+00 0.  1.
         21    1    1    2  502  503 -0.60604468821E+01  0.23859794847E+02  0.33987243276E+03  0.34076280515E+03  0.00000000000E+00 0. -1.
         21    1    1    2  503  501  0.60604468821E+01 -0.23859794847E+02  0.10763333160E+03  0.11041264827E+03  0.00000000000E+00 0.  1.
</event>
<event>
 4    1  0.5740469E+002  0.2254122E+02  0.7546771E-02  0.1498341E+00
          2   -1    0    0  502    0  0.00000000000E+00  0.00000000000E+00  0.51671065594E+02  0.51671065594E+02  0.00000000000E+00 0.  1.
         -2   -1    0    0    0  501 -0.00000000000E+00 -0.00000000000E+00 -0.10924247101E+02  0.10924247101E+02  0.00000000000E+00 0. -1.
         21    1    1    2  502  503  0.10667064257E+02  0.19857505159E+02  0.30263052095E+02  0.37735382509E+02  0.00000000000E+00 0.  1.
         21    1    1    2  503  501 -0.10667064257E+02 -0.19857505159E+02  0.10483766398E+02  0.24859930187E+02  0.00000000000E+00 0. -1.
</event>
<event>
 4    1  0.5740469E+002  0.3391326E+02  0.7546771E-02  0.1388369E+00
          2   -1    0    0  502    0  0.00000000000E+00  0.00000000000E+00  0.12740079661E+04  0.12740079661E+04  0.00000000000E+00 0. -1.
         -2   -1    0    0    0  501 -0.00000000000E+00 -0.00000000000E+00 -0.12671492004E+01  0.12671492004E+01  0.00000000000E+00 0.  1.
         21    1    1    2  502  503 -0.26971839404E+02  0.20557938285E+02  0.97831011617E+03  0.97889774356E+03  0.00000000000E+00 0. -1.
         21    1    1    2  503  501  0.26971839404E+02 -0.20557938285E+02  0.29443070075E+03  0.29637737176E+03  0.00000000000E+00 0.  1.
</event>
<event>
 4    1  0.5740469E+002  0.2399684E+02  0.7546771E-02  0.1480346E+00
          2   -1    0    0  503    0  0.00000000000E+00  0.00000000000E+00  0.14334924780E+04  0.14334924780E+04  0.00000000000E+00 0. -1.
         -2   -1    0    0    0  501 -0.00000000000E+00 -0.00000000000E+00 -0.45897622803E+00  0.45897622803E+00  0.00000000000E+00 0.  1.
         21    1    1    2  502  501 -0.37055069882E+01 -0.23709015411E+02  0.46326128346E+03  0.46388238267E+03  0.00000000000E+00 0.  1.
         21    1    1    2  503  502  0.37055069882E+01  0.23709015411E+02  0.96977221829E+03  0.97006907155E+03  0.00000000000E+00 0. -1.
</event>
<event>
 4    1  0.5740469E+002  0.2069892E+02  0.7546771E-02  0.1523607E+00
          2   -1    0    0  503    0  0.00000000000E+00  0.00000000000E+00  0.91678169270E+03  0.91678169270E+03  0.00000000000E+00 0. -1.
         -2   -1    0    0    0  501 -0.00000000000E+00 -0.00000000000E+00 -0.86037994026E+00  0.86037994026E+00  0.00000000000E+00 0.  1.
         21    1    1    2  502  501 -0.68328336988E+01 -0.19538621256E+02  0.14784864594E+03  0.14929054707E+03  0.00000000000E+00 0.  1.
         21    1    1    2  503  502  0.68328336988E+01  0.19538621256E+02  0.76807266681E+03  0.76835152557E+03  0.00000000000E+00 0. -1.
</event>
<event>
 4    1  0.5740469E+002  0.2434958E+02  0.7546771E-02  0.1476213E+00
          2   -1    0    0  502    0  0.00000000000E+00  0.00000000000E+00  0.98990117267E+03  0.98990117267E+03  0.00000000000E+00 0. -1.
         -2   -1    0    0    0  501 -0.00000000000E+00 -0.00000000000E+00 -0.13069728782E+01  0.13069728782E+01  0.00000000000E+00 0.  1.
         21    1    1    2  502  503  0.83475817849E+01  0.22874004458E+02  0.85907200027E+03  0.85941701394E+03  0.00000000000E+00 0. -1.
         21    1    1    2  503  501 -0.83475817849E+01 -0.22874004458E+02  0.12952219953E+03  0.13179113161E+03  0.00000000000E+00 0.  1.
</event>
<event>
 4    1  0.5740469E+002  0.2344201E+02  0.7546771E-02  0.1487021E+00
          2   -1    0    0  502    0  0.00000000000E+00  0.00000000000E+00  0.44067549422E+03  0.44067549422E+03  0.00000000000E+00 0.  1.
         -2   -1    0    0    0  501 -0.00000000000E+00 -0.00000000000E+00 -0.40355069295E+01  0.40355069295E+01  0.00000000000E+00 0. -1.
         21    1    1    2  502  503  0.13897938828E+02 -0.18877900971E+02  0.40315478410E+03  0.40383574358E+03  0.00000000000E+00 0.  1.
         21    1    1    2  503  501 -0.13897938828E+02  0.18877900971E+02  0.33485203187E+02  0.40875257567E+02  0.00000000000E+00 0. -1.
</event>
<event>
 4    1  0.5740469E+002  0.3155359E+02  0.7546771E-02  0.1406560E+00
          2   -1    0    0  502    0  0.00000000000E+00  0.00000000000E+00  0.64211216704E+01  0.64211216704E+01  0.00000000000E+00 0.  1.
         -2   -1    0    0    0  501 -0.00000000000E+00 -0.00000000000E+00 -0.17083691357E+03  0.17083691357E+03  0.00000000000E+00 0. -1.
         21    1    1    2  502  503 -0.87745822198E+01 -0.30309005447E+02 -0.55270200257E+02  0.63642942584E+02  0.00000000000E+00 0.  1.
         21    1    1    2  503  501  0.87745822198E+01  0.30309005447E+02 -0.10914559164E+03  0.11361509266E+03  0.00000000000E+00 0. -1.
</event>
<event>
 4    1  0.5740469E+002  0.2332273E+02  0.7546771E-02  0.1488485E+00
          2   -1    0    0  503    0  0.00000000000E+00  0.00000000000E+00  0.10498989090E+02  0.10498989090E+02  0.00000000000E+00 0. -1.
         -2   -1    0    0    0  501 -0.00000000000E+00 -0.00000000000E+00 -0.12137063513E+03  0.12137063513E+03  0.00000000000E+00 0.  1.
         21    1    1    2  502  501 -0.13232503291E+02  0.19205484575E+02 -0.10535191491E+03  0.10790262164E+03  0.00000000000E+00 0.  1.
         21    1    1    2  503  502  0.13232503291E+02 -0.19205484575E+02 -0.55197311305E+01  0.23967002584E+02  0.00000000000E+00 0. -1.
</event>
<event>
 4    1  0.5740469E+002  0.2408618E+02  0.7546771E-02  0.1479291E+00
          2   -1    0    0  502    0  0.00000000000E+00  0.00000000000E+00  0.12111836535E+03  0.12111836535E+03  0.00000000000E+00 0.  1.
         -2   -1    0    0    0  501 -0.00000000000E+00 -0.00000000000E+00 -0.51753558551E+01  0.51753558551E+01  0.00000000000E+00 0. -1.
         21    1    1    2  502  503 -0.51256719611E-01 -0.24086124427E+02  0.40738028458E+02  0.47325796135E+02  0.00000000000E+00 0. -1.
         21    1    1    2  503  501  0.51256719611E-01  0.24086124427E+02  0.75204981037E+02  0.78967925070E+02  0.00000000000E+00 0.  1.
</event>
<event>
 4    1  0.5740469E+002  0.2958341E+02  0.7546771E-02  0.1423252E+00
          2   -1    0    0  503    0  0.00000000000E+00  0.00000000000E+00  0.13768780085E+03  0.13768780085E+03  0.00000000000E+00 0.  1.
         -2   -1    0    0    0  501 -0.00000000000E+00 -0.00000000000E+00 -0.36801512086E+02  0.36801512086E+02  0.00000000000E+00 0. -1.
         21    1    1    2  502  501  0.15951576163E+02  0.24914361085E+02 -0.28910314082E+02  0.41364047562E+02  0.00000000000E+00 0. -1.
         21    1    1    2  503  502 -0.15951576163E+02 -0.24914361085E+02  0.12979660285E+03  0.13312526537E+03  0.00000000000E+00 0.  1.
</event>
<event>
 4    1  0.5740469E+002  0.3052715E+02  0.7546771E-02  0.1415070E+00
          2   -1    0    0  503    0  0.00000000000E+00  0.00000000000E+00  0.10869684740E+04  0.10869684740E+04  0.00000000000E+00 0.  1.
         -2   -1    0    0    0  501 -0.00000000000E+00 -0.00000000000E+00 -0.85977068269E+00  0.85977068269E+00  0.00000000000E+00 0. -1.
         21    1    1    2  502  501  0.37969508154E+01  0.30290103266E+02  0.51416491145E+03  0.51507034797E+03  0.00000000000E+00 0.  1.
         21    1    1    2  503  502 -0.37969508154E+01 -0.30290103266E+02  0.57194379184E+03  0.57275789669E+03  0.00000000000E+00 0. -1.
</event>
<event>
 4    1  0.5740469E+002  0.2919324E+02  0.7546771E-02  0.1426739E+00
          2   -1    0    0  503    0  0.00000000000E+00  0.00000000000E+00  0.58301996793E+02  0.58301996793E+02  0.00000000000E+00 0. -1.
         -2   -1    0    0    0  501 -0.00000000000E+00 -0.00000000000E+00 -0.52199921826E+02  0.52199921826E+02  0.00000000000E+00 0.  1.
         21    1    1    2  502  501 -0.56508705912E+01 -0.28641102182E+02 -0.43829839646E+02  0.52662129809E+02  0.00000000000E+00 0.  1.
         21    1    1    2  503  502  0.56508705912E+01  0.28641102182E+02  0.49931914613E+02  0.57839788810E+02  0.00000000000E+00 0. -1.
</event>
<event>
 4    1  0.5740469E+002  0.2506585E+02  0.7546771E-02  0.1468068E+00
          2   -1    0    0  503    0  0.00000000000E+00  0.00000000000E+00  0.13041918013E+04  0.13041918013E+04  0.00000000000E+00 0. -1.
         -2   -1    0    0    0  501 -0.00000000000E+00 -0.00000000000E+00 -0.48930272092E+00  0.48930272092E+00  0.00000000000E+00 0.  1.
         21    1    1    2  502  501 -0.35100127761E+01 -0.24818877223E+02  0.57081429130E+03  0.57136437762E+03  0.00000000000E+00 0.  1.
         21    1    1    2  503  502  0.35100127761E+01  0.24818877223E+02  0.73288820725E+03  0.73331672638E+03  0.00000000000E+00 0. -1.
</event>
<event>
 4    1  0.5740469E+002  0.2199386E+02  0.7546771E-02  0.1505534E+00
          2   -1    0    0  503    0  0.00000000000E+00  0.00000000000E+00  0.93050980475E+03  0.93050980475E+03  0.00000000000E+00 0.  1.
         -2   -1    0    0    0  501 -0.00000000000E+00 -0.00000000000E+00 -0.22140222528E+01  0.22140222528E+01  0.00000000000E+00 0. -1.
         21    1    1    2  502  501  0.17220135835E+02  0.13681980253E+02  0.56194735669E+02  0.60345488470E+02  0.00000000000E+00 0. -1.
         21    1    1    2  503  502 -0.17220135835E+02 -0.13681980253E+02  0.87210104683E+03  0.87237833853E+03  0.00000000000E+00 0.  1.
</event>
<event>
 4    1  0.5740469E+002  0.5506856E+02  0.7546771E-02  0.1277576E+00
          2   -1    0    0  502    0  0.00000000000E+00  0.00000000000E+00  0.58413351149E+03  0.58413351149E+03  0.00000000000E+00 0.  1.
         -2   -1    0    0    0  501 -0.00000000000E+00 -0.00000000000E+00 -0.72044712331E+02  0.72044712331E+02  0.00000000000E+00 0. -1.
         21    1    1    2  502  503 -0.48136410651E+02  0.26747556253E+02  0.57209149950E+03  0.57473579112E+03  0.00000000000E+00 0.  1.
         21    1    1    2  503  501  0.48136410651E+02 -0.26747556253E+02 -0.60002700340E+02  0.81442432699E+02  0.00000000000E+00 0. -1.
</event>
<event>
 4    1  0.5740469E+002  0.2340437E+02  0.7546771E-02  0.1487482E+00
          2   -1    0    0  503    0  0.00000000000E+00  0.00000000000E+00  0.30282006752E+03  0.30282006752E+03  0.00000000000E+00 0.  1.
         -2   -1    0    0    0  501 -0.00000000000E+00 -0.00000000000E+00 -0.59300228622E+01  0.59300228622E+01  0.00000000000E+00 0. -1.
         21    1    1    2  502  501 -0.11526179279E+02  0.20369386721E+02  0.19751162875E+02  0.30624714841E+02  0.00000000000E+00 0. -1.
         21    1    1    2  503  502  0.11526179279E+02 -0.20369386721E+02  0.27713888178E+03  0.27812537554E+03  0.00000000000E+00 0.  1.
</event>
<event>
 4    1  0.5740469E+002  0.5995034E+02  0.7546771E-02  0.1260001E+00
          2   -1    0    0  503    0  0.00000000000E+00  0.00000000000E+00  0.16066129657E+03  0.16066129657E+03  0.00000000000E+00 0.  1.
         -2   -1    0    0    0  501 -0.00000000000E+00 -0.00000000000E+00 -0.28398307718E+02  0.28398307718E+02  0.00000000000E+00 0. -1.
         21    1    1    2  502  501 -0.50662463821E+02  0.32052428147E+02  0.22579407270E+02  0.64061478465E+02  0.00000000000E+00 0. -1.
         21    1    1    2  503  502  0.50662463821E+02 -0.32052428147E+02  0.10968358158E+03  0.12499812582E+03  0.00000000000E+00 0.  1.
</event>
<event>
 4    1  0.5740469E+002  0.3262765E+02  0.7546771E-02  0.1398055E+00
          2   -1    0    0  503    0  0.00000000000E+00  0.00000000000E+00  0.48674909029E+03  0.48674909029E+03  0.00000000000E+00 0. -1.
         -2   -1    0    0    0  501 -0.00000000000E+00 -0.00000000000E+00 -0.37397516076E+01  0.37397516076E+01  0.00000000000E+00 0.  1.
         21    1    1    2  502  501  0.27304161455E+02 -0.17861864029E+02  0.83483107040E+02  0.89632541972E+02  0.00000000000E+00 0.  1.
         21    1    1    2  503  502 -0.27304161455E+02  0.17861864029E+02  0.39952623165E+03  0.40085629993E+03  0.00000000000E+00 0. -1.
</event>
<event>
 4    1  0.5740469E+002  0.2166930E+02  0.7546771E-02  0.1509920E+00
          2   -1    0    0  503    0  0.00000000000E+00  0.00000000000E+00  0.35167608561E+03  0.35167608561E+03  0.00000000000E+00 0. -1.
         -2   -1    0    0    0  501 -0.00000000000E+00 -0.00000000000E+00 -0.13786319286E+01  0.13786319286E+01  0.00000000000E+00 0.  1.
         21    1    1    2  502  501  0.13132161544E+01 -0.21629470541E+02  0.14381705592E+03  0.14544037990E+03  0.00000000000E+00 0. -1.
         21    1    1    2  503  502 -0.13132161544E+01  0.21629470541E+02  0.20648039776E+03  0.20761433764E+03  0.00000000000E+00 0.  1.
</event>
<event>
 4    1  0.5740469E+002  0.2049771E+02  0.7546771E-02  0.1526558E+00
          2   -1    0    0  503    0  0.00000000000E+00  0.00000000000E+00  0.70883884470E+03  0.70883884470E+03  0.00000000000E+00 0.  1.
         -2   -1    0    0    0  501 -0.00000000000E+00 -0.00000000000E+00 -0.85244587293E+00  0.85244587293E+00  0.00000000000E+00 0. -1.
         21    1    1    2  502  501  0.85312605832E+01  0.18637968254E+02  0.15813219193E+03  0.15945515480E+03  0.00000000000E+00 0. -1.
         21    1    1    2  503  502 -0.85312605832E+01 -0.18637968254E+02  0.54985420689E+03  0.55023613577E+03  0.00000000000E+00 0.  1.
</event>
<event>
 4    1  0.5740469E+002  0.3662683E+02  0.7546771E-02  0.1369473E+00
          2   -1    0    0  503    0  0.00000000000E+00  0.00000000000E+00  0.32895910901E+03  0.32895910901E+03  0.00000000000E+00 0.  1.
         -2   -1    0    0    0  501 -0.00000000000E+00 -0.00000000000E+00 -0.45701219118E+01  0.45701219118E+01  0.00000000000E+00 0. -1.
         21    1    1    2  502  501 -0.25082932281E+02  0.26690278440E+02  0.10747561566E+03  0.11354528795E+03  0.00000000000E+00 0. -1.
         21    1    1    2  503  502  0.25082932281E+02 -0.26690278440E+02  0.21691337144E+03  0.21998394297E+03  0.00000000000E+00 0.  1.
</event>
<event>
 4    1  0.5740469E+002  0.2322867E+02  0.7546771E-02  0.1489647E+00
          2   -1    0    0  502    0  0.00000000000E+00  0.00000000000E+00  0.10819068521E+02  0.10819068521E+02  0.00000000000E+00 0. -1.
         -2   -1    0    0    0  501 -0.00000000000E+00 -0.00000000000E+00 -0.11243684814E+03  0.11243684814E+03  0.00000000000E+00 0.  1.
         21    1    1    2  502  503  0.11530900421E+02 -0.20164557373E+02 -0.48374761157E+01  0.23727035502E+02  0.00000000000E+00 0. -1.
         21    1    1    2  503  501 -0.11530900421E+02  0.20164557373E+02 -0.96780303506E+02  0.99528881161E+02  0.00000000000E+00 0.  1.
</event>
<event>
 4    1  0.5740469E+002  0.2144128E+02  0.7546771E-02  0.1513057E+00
          2   -1    0    0  503    0  0.00000000000E+00  0.00000000000E+00  0.34351838754E+03  0.34351838754E+03  0.00000000000E+00 0. -1.
         -2   -1    0    0    0  501 -0.00000000000E+00 -0.00000000000E+00 -0.13986905298E+01  0.13986905298E+01  0.00000000000E+00 0.  1.
         21    1    1    2  502  501  0.11811532080E+02 -0.17894586324E+02  0.13522291914E+03  0.13691225793E+03  0.00000000000E+00 0. -1.
         21    1    1    2  503  502 -0.11811532080E+02  0.17894586324E+02  0.20689677786E+03  0.20800482014E+03  0.00000000000E+00 0.  1.
</event>
<event>
 4    1  0.5740469E+002  0.2131478E+02  0.7546771E-02  0.1514818E+00
          2   -1    0    0  503    0  0.00000000000E+00  0.00000000000E+00  0.62130432430E+03  0.62130432430E+03  0.00000000000E+00 0.  1.
         -2   -1    0    0    0  501 -0.00000000000E+00 -0.00000000000E+00 -0.58130428697E+01  0.58130428697E+01  0.00000000000E+00 0. -1.
         21    1    1    2  502  501 -0.18655742772E+02 -0.10309362947E+02  0.14571153548E+02  0.25819338072E+02  0.00000000000E+00 0. -1.
         21    1    1    2  503  502  0.18655742772E+02  0.10309362947E+02  0.60092012788E+03  0.60129802909E+03  0.00000000000E+00 0.  1.
</event>
<event>
 4    1  0.5740469E+002  0.3621635E+02  0.7546771E-02  0.1372208E+00
          2   -1    0    0  502    0  0.00000000000E+00  0.00000000000E+00  0.88675724504E+01  0.88675724504E+01  0.00000000000E+00 0. -1.
         -2   -1    0    0    0  501 -0.00000000000E+00 -0.00000000000E+00 -0.14963023954E+03  0.14963023954E+03  0.00000000000E+00 0.  1.
         21    1    1    2  502  503  0.34408505084E+02 -0.11299507981E+02 -0.61890069817E+02  0.71707773949E+02  0.00000000000E+00 0.  1.
         21    1    1    2  503  501 -0.34408505084E+02  0.11299507981E+02 -0.78872597272E+02  0.86790038041E+02  0.00000000000E+00 0. -1.
</event>
<event>
 4    1  0.5740469E+002  0.2136936E+02  0.7546771E-02  0.1514056E+00
          2   -1    0    0  503    0  0.00000000000E+00  0.00000000000E+00  0.92761829346E+03  0.92761829346E+03  0.00000000000E+00 0. -1.
         -2   -1    0    0    0  501 -0.00000000000E+00 -0.00000000000E+00 -0.54102441017E+00  0.54102441017E+00  0.00000000000E+00 0.  1.
         21    1    1    2  502  501 -0.92949518496E+01  0.19241973381E+02  0.32424278511E+03  0.32494620073E+03  0.00000000000E+00 0.  1.
         21    1    1    2  503  502  0.92949518496E+01 -0.19241973381E+02  0.60283448393E+03  0.60321311714E+03  0.00000000000E+00 0. -1.
</event>
<event>
 4    1  0.5740469E+002  0.2122430E+02  0.7546771E-02  0.1516086E+00
          2   -1    0    0  502    0  0.00000000000E+00  0.00000000000E+00  0.10772641635E+04  0.10772641635E+04  0.00000000000E+00 0.  1.
         -2   -1    0    0    0  501 -0.00000000000E+00 -0.00000000000E+00 -0.70031506173E+00  0.70031506173E+00  0.00000000000E+00 0. -1.
         21    1    1    2  502  503 -0.19372510561E+02  0.86704418651E+01  0.88039545751E+03  0.88065125466E+03  0.00000000000E+00 0.  1.
         21    1    1    2  503  501  0.19372510561E+02 -0.86704418651E+01  0.19616839090E+03  0.19731322387E+03  0.00000000000E+00 0. -1.
</event>
<event>
 4    1  0.5740469E+002  0.6609087E+02  0.7546771E-02  0.1240433E+00
          2   -1    0    0  502    0  0.00000000000E+00  0.00000000000E+00  0.57932721791E+03  0.57932721791E+03  0.00000000000E+00 0. -1.
         -2   -1    0    0    0  501 -0.00000000000E+00 -0.00000000000E+00 -0.80354626806E+01  0.80354626806E+01  0.00000000000E+00 0.  1.
         21    1    1    2  502  503 -0.63890584461E+02  0.16911424351E+02  0.35858663983E+03  0.36462635852E+03  0.00000000000E+00 0. -1.
         21    1    1    2  503  501  0.63890584461E+02 -0.16911424351E+02  0.21270511539E+03  0.22273632207E+03  0.00000000000E+00 0.  1.
</event>
<event>
 4    1  0.5740469E+002  0.2440092E+02  0.7546771E-02  0.1475618E+00
          2   -1    0    0  502    0  0.00000000000E+00  0.00000000000E+00  0.48718608287E+03  0.48718608287E+03  0.00000000000E+00 0. -1.
         -2   -1    0    0    0  501 -0.00000000000E+00 -0.00000000000E+00 -0.36265960781E+01  0.36265960781E+01  0.00000000000E+00 0.  1.
         21    1    1    2  502  503  0.89635634781E+01 -0.22694921558E+02  0.44160274231E+03  0.44227636942E+03  0.00000000000E+00 0. -1.
         21    1    1    2  503  501 -0.89635634781E+01  0.22694921558E+02  0.41956744483E+02  0.48536309526E+02  0.00000000000E+00 0.  1.
</event>
<event>
 4    1  0.5740469E+002  0.2882749E+02  0.7546771E-02  0.1430067E+00
          2   -1    0    0  502    0  0.00000000000E+00  0.00000000000E+00  0.36319696318E+03  0.36319696318E+03  0.00000000000E+00 0. -1.
         -2   -1    0    0    0  501 -0.00000000000E+00 -0.00000000000E+00 -0.24246728478E+01  0.24246728478E+01  0.00000000000E+00 0.  1.
         21    1    1    2  502  503  0.23655056641E+02  0.16476113270E+02  0.22377597624E+03  0.22562515718E+03  0.00000000000E+00 0. -1.
         21    1    1    2  503  501 -0.23655056641E+02 -0.16476113270E+02  0.13699631409E+03  0.13999647884E+03  0.00000000000E+00 0.  1.
</event>
<event>
 4    1  0.5740469E+002  0.2480023E+02  0.7546771E-02  0.1471051E+00
          2   -1    0    0  502    0  0.00000000000E+00  0.00000000000E+00  0.70617310658E+03  0.70617310658E+03  0.00000000000E+00 0. -1.
         -2   -1    0    0    0  501 -0.00000000000E+00 -0.00000000000E+00 -0.12131184214E+01  0.12131184214E+01  0.00000000000E+00 0.  1.
         21    1    1    2  502  503  0.16016472135E+01 -0.24748453396E+02  0.54031918241E+03  0.54088803841E+03  0.00000000000E+00 0. -1.
         21    1    1    2  503  501 -0.16016472135E+01  0.24748453396E+02  0.16464080575E+03  0.16649818658E+03  0.00000000000E+00 0.  1.
</event>
<event>
 4    1  0.5740469E+002  0.3391550E+02  0.7546771E-02  0.1388352E+00
          2   -1    0    0  502    0  0.00000000000E+00  0.00000000000E+00  0.11404153323E+03  0.11404153323E+03  0.00000000000E+00 0.  1.
         -2   -1    0    0    0  501 -0.00000000000E+00 -0.00000000000E+00 -0.15938245349E+02  0.15938245349E+02  0.00000000000E+00 0. -1.
         21    1    1    2  502  503 -0.27833682924E+02 -0.19379047707E+02  0.88431514281E+02  0.94712164546E+02  0.00000000000E+00 0.  1.
         21    1    1    2  503  501  0.27833682924E+02  0.19379047707E+02  0.96717736036E+01  0.35267614036E+02  0.00000000000E+00 0. -1.
</event>
<event>
 4    1  0.5740469E+002  0.3317692E+02  0.7546771E-02  0.1393854E+00
          2   -1    0    0  503    0  0.00000000000E+00  0.00000000000E+00  0.99648913870E+03  0.99648913870E+03  0.00000000000E+00 0.  1.
         -2   -1    0    0    0  501 -0.00000000000E+00 -0.00000000000E+00 -0.14419783469E+01  0.14419783469E+01  0.00000000000E+00 0. -1.
         21    1    1    2  502  501 -0.33161634677E+02  0.10068295854E+01  0.25616710051E+03  0.25830658354E+03  0.00000000000E+00 0. -1.
         21    1    1    2  503  502  0.33161634677E+02 -0.10068295854E+01  0.73888005984E+03  0.73962453350E+03  0.00000000000E+00 0.  1.
</event>
<event>
 4    1  0.5740469E+002  0.2126347E+02  0.7546771E-02  0.1515536E+00
          2   -1    0    0  502    0  0.00000000000E+00  0.00000000000E+00  0.16596932069E+02  0.16596932069E+02  0.00000000000E+00 0.  1.
         -2   -1    0    0    0  501 -0.00000000000E+00 -0.00000000000E+00 -0.67913299258E+02  0.67913299258E+02  0.00000000000E+00 0. -1.
         21    1    1    2  502  503  0.14656983572E+02 -0.15404810317E+02  0.70416353839E+01  0.22399106617E+02  0.00000000000E+00 0.  1.
         21    1    1    2  503  501 -0.14656983572E+02  0.15404810317E+02 -0.58358002573E+02  0.62111124709E+02  0.00000000000E+00 0. -1.
</event>
<event>
 4    1  0.5740469E+002  0.2463250E+02  0.7546771E-02  0.1472957E+00
          2   -1    0    0  503    0  0.00000000000E+00  0.00000000000E+00  0.14825618918E+02  0.14825618918E+02  0.00000000000E+00 0. -1.
         -2   -1    0    0    0  501 -0.00000000000E+00 -0.00000000000E+00 -0.40977693295E+02  0.40977693295E+02  0.00000000000E+00 0.  1.
         21    1    1    2  502  501  0.26555199538E+01 -0.24488938161E+02 -0.14062760959E+02  0.28364081587E+02  0.00000000000E+00 0.  1.
         21    1    1    2  503  502 -0.26555199538E+01  0.24488938161E+02 -0.12089313418E+02  0.27439230627E+02  0.00000000000E+00 0. -1.
</event>
<event>
 4    1  0.5740469E+002  0.2042511E+02  0.7546771E-02  0.1527633E+00
          2   -1    0    0  503    0  0.00000000000E+00  0.00000000000E+00  0.12528779550E+04  0.12528779550E+04  0.00000000000E+00 0.  1.
         -2   -1    0    0    0  501 -0.00000000000E+00 -0.00000000000E+00 -0.11852752065E+01  0.11852752065E+01  0.00000000000E+00 0. -1.
         21    1    1    2  502  501 -0.15216082279E+02  0.13625561713E+02  0.94136744878E+02  0.96327108480E+02  0.00000000000E+00 0. -1.
         21    1    1    2  503  502  0.15216082279E+02 -0.13625561713E+02  0.11575559349E+04  0.11577361217E+04  0.00000000000E+00 0.  1.
</event>
<event>
 4    1  0.5740469E+002  0.2082108E+02  0.7546771E-02  0.1521835E+00
          2   -1    0    0  502    0  0.00000000000E+00  0.00000000000E+00  0.48959440209E+03  0.48959440209E+03  0.00000000000E+00 0.  1.
         -2   -1    0    0    0  501 -0.00000000000E+00 -0.00000000000E+00 -0.10640889262E+01  0.10640889262E+01  0.00000000000E+00 0. -1.
         21    1    1    2  502  503  0.20820870407E+02 -0.92703557340E-01  0.34478083864E+03  0.34540895173E+03  0.00000000000E+00 0.  1.
         21    1    1    2  503  501 -0.20820870407E+02  0.92703557340E-01  0.14374947452E+03  0.14524953929E+03  0.00000000000E+00 0. -1.
</event>
<event>
 4    1  0.5740469E+002  0.2723566E+02  0.7546771E-02  0.1445255E+00
          2   -1    0    0  503    0  0.00000000000E+00  0.00000000000E+00  0.46395023082E+03  0.46395023082E+03  0.00000000000E+00 0.  1.
         -2   -1    0    0    0  501 -0.00000000000E+00 -0.00000000000E+00 -0.24562691109E+01  0.24562691109E+01  0.00000000000E+00 0. -1.
         21    1    1    2  502  501  0.21313235761E+02  0.16956630989E+02  0.92963804461E+02  0.96871307893E+02  0.00000000000E+00 0. -1.
         21    1    1    2  503  502 -0.21313235761E+02 -0.16956630989E+02  0.36853015725E+03  0.36953519204E+03  0.00000000000E+00 0.  1.
</event>
<event>
 4    1  0.5740469E+002  0.2079771E+02  0.7546771E-02  0.1522173E+00
          2   -1    0    0  502    0  0.00000000000E+00  0.00000000000E+00  0.48739920553E+03  0.48739920553E+03  0.00000000000E+00 0. -1.
         -2   -1    0    0    0  501 -0.00000000000E+00 -0.00000000000E+00 -0.13130487295E+01  0.13130487295E+01  0.00000000000E+00 0.  1.
         21    1    1    2  502  503  0.16896189874E+02  0.12126980024E+02  0.38216014325E+03  0.38272564581E+03  0.00000000000E+00 0. -1.
         21    1    1    2  503  501 -0.16896189874E+02 -0.12126980024E+02  0.10392601356E+03  0.10598660845E+03  0.00000000000E+00 0.  1.
</event>
<event>
 4    1  0.5740469E+002  0.2681631E+02  0.7546771E-02  0.1449462E+00
          2   -1    0    0  502    0  0.00000000000E+00  0.00000000000E+00  0.34440751911E+03  0.34440751911E+03  0.00000000000E+00 0.  1.
         -2   -1    0    0    0  501 -0.00000000000E+00 -0.00000000000E+00 -0.20899329778E+01  0.20899329778E+01  0.00000000000E+00 0. -1.
         21    1    1    2  502  503 -0.73646088533E+00  0.26806198774E+02  0.16585744741E+03  0.16801133155E+03  0.00000000000E+00 0.  1.
         21    1    1    2  503  501  0.73646088533E+00 -0.26806198774E+02  0.17646013873E+03  0.17848612054E+03  0.00000000000E+00 0. -1.
</event>
<event>
 4    1  0.5740469E+002  0.2265939E+02  0.7546771E-02  0.1496820E+00
          2   -1    0    0  503    0  0.00000000000E+00  0.00000000000E+00  0.12211183954E+04  0.12211183954E+04  0.00000000000E+00 0.  1.
         -2   -1    0    0    0  501 -0.00000000000E+00 -0.00000000000E+00 -0.10997131441E+01  0.10997131441E+01  0.00000000000E+00 0. -1.
         21    1    1    2  502  501 -0.19714713076E+02 -0.11170407502E+02  0.12973373814E+03  0.13169772484E+03  0.00000000000E+00 0. -1.
         21    1    1    2  503  502  0.19714713076E+02  0.11170407502E+02  0.10902849441E+04  0.10905203837E+04  0.00000000000E+00 0.  1.
</event>
<event>
 4    1  0.5740469E+002  0.3025379E+02  0.7546771E-02  0.1417404E+00
          2   -1    0    0  502    0  0.00000000000E+00  0.00000000000E+00  0.48957490435E+01  0.48957490435E+01  0.00000000000E+00 0. -1.
         -2   -1    0    0    0  501 -0.00000000000E+00 -0.00000000000E+00 -0.18754353264E+03  0.18754353264E+03  0.00000000000E+00 0.  1.
         21    1    1    2  502  503  0.19914087456E+02 -0.22775446717E+02 -0.96707370176E+02  0.10132920260E+03  0.00000000000E+00 0.  1.
         21    1    1    2  503  501 -0.19914087456E+02  0.22775446717E+02 -0.85940413417E+02  0.91110079084E+02  0.00000000000E+00 0. -1.
</event>
<event>
 4    1  0.5740469E+002  0.2024415E+02  0.7546771E-02  0.1530336E+00
          2   -1    0    0  502    0  0.00000000000E+00  0.00000000000E+00  0.18713314137E+01  0.18713314137E+01  0.00000000000E+00 0. -1.
         -2   -1    0    0    0  501 -0.00000000000E+00 -0.00000000000E+00 -0.63598214113E+03  0.63598214113E+03  0.00000000000E+00 0.  1.
         21    1    1    2  502  503 -0.75278941061E+01 -0.18792452103E+02 -0.58813854740E+02  0.62200441760E+02  0.00000000000E+00 0. -1.
         21    1    1    2  503  501  0.75278941061E+01  0.18792452103E+02 -0.57529695497E+03  0.57565303078E+03  0.00000000000E+00 0.  1.
</event>
<event>
 4    1  0.5740469E+002  0.2566248E+02  0.7546771E-02  0.1461527E+00
          2   -1    0    0  502    0  0.00000000000E+00  0.00000000000E+00  0.88742793933E+02  0.88742793933E+02  0.00000000000E+00 0.  1.
         -2   -1    0    0    0  501 -0.00000000000E+00 -0.00000000000E+00 -0.11516953766E+02  0.11516953766E+02  0.00000000000E+00 0. -1.
         21    1    1    2  502  503 -0.23726997400E+02  0.97771336184E+01  0.68508284048E+02  0.73157007393E+02  0.00000000000E+00 0.  1.
         21    1    1    2  503  501  0.23726997400E+02 -0.97771336184E+01  0.87175561187E+01  0.27102740306E+02  0.00000000000E+00 0. -1.
</event>
<event>
 4    1  0.5740469E+002  0.2108084E+02  0.7546771E-02  0.1518114E+00
          2   -1    0    0  502    0  0.00000000000E+00  0.00000000000E+00  0.38620879916E+03  0.38620879916E+03  0.00000000000E+00 0.  1.
         -2   -1    0    0    0  501 -0.00000000000E+00 -0.00000000000E+00 -0.40209045453E+01  0.40209045453E+01  0.00000000000E+00 0. -1.
         21    1    1    2  502  503  0.52067321266E+01  0.20427722646E+02  0.35594303435E+03  0.35656674777E+03  0.00000000000E+00 0.  1.
         21    1    1    2  503  501 -0.52067321266E+01 -0.20427722646E+02  0.26244860256E+02  0.33662955928E+02  0.00000000000E+00 0. -1.
</event>
<event>
 4    1  0.5740469E+002  0.2912284E+02  0.7546771E-02  0.1427375E+00
          2   -1    0    0  502    0  0.00000000000E+00  0.00000000000E+00  0.11769124845E+01  0.11769124845E+01  0.00000000000E+00 0. -1.
         -2   -1    0    0    0  501 -0.00000000000E+00 -0.00000000000E+00 -0.15951122233E+04  0.15951122233E+04  0.00000000000E+00 0.  1.
         21    1    1    2  502  503 -0.19948180294E+02 -0.21218156528E+02 -0.20600930756E+03  0.20805762391E+03  0.00000000000E+00 0. -1.
         21    1    1    2  503  501  0.19948180294E+02  0.21218156528E+02 -0.13879260032E+04  0.13882315119E+04  0.00000000000E+00 0.  1.
</event>
<event>
 4    1  0.5740469E+002  0.2131634E+02  0.7546771E-02  0.1514796E+00
          2   -1    0    0  503    0  0.00000000000E+00  0.00000000000E+00  0.51233480287E+00  0.51233480287E+00  0.00000000000E+00 0.  1.
         -2   -1    0    0    0  501 -0.00000000000E+00 -0.00000000000E+00 -0.15410091905E+04  0.15410091905E+04  0.00000000000E+00 0. -1.
         21    1    1    2  502  501  0.55787720497E+01  0.20573373858E+02 -0.12724109128E+04  0.12725894537E+04  0.00000000000E+00 0.  1.
         21    1    1    2  503  502 -0.55787720497E+01 -0.20573373858E+02 -0.26808594281E+03  0.26893207161E+03  0.00000000000E+00 0. -1.
</event>
<event>
 4    1  0.5740469E+002  0.2149209E+02  0.7546771E-02  0.1512354E+00
          2   -1    0    0  503    0  0.00000000000E+00  0.00000000000E+00  0.18602838255E+04  0.18602838255E+04  0.00000000000E+00 0. -1.
         -2   -1    0    0    0  501 -0.00000000000E+00 -0.00000000000E+00 -0.26470455571E+00  0.26470455571E+00  0.00000000000E+00 0.  1.
         21    1    1    2  502  501  0.20678706577E+02  0.58566921784E+01  0.69842827411E+03  0.69875887388E+03  0.00000000000E+00 0.  1.
         21    1    1    2  503  502 -0.20678706577E+02 -0.58566921784E+01  0.11615908468E+04  0.11617896562E+04  0.00000000000E+00 0. -1.
</event>
<event>
 4    1  0.5740469E+002  0.4458333E+02  0.7546771E-02  0.1323536E+00
          2   -1    0    0  503    0  0.00000000000E+00  0.00000000000E+00  0.56298412656E+03  0.56298412656E+03  0.00000000000E+00 0. -1.
         -2   -1    0    0    0  501 -0.00000000000E+00 -0.00000000000E+00 -0.43430368541E+01  0.43430368541E+01  0.00000000000E+00 0.  1.
         21    1    1    2  502  501 -0.43756786946E+02 -0.85450088460E+01  0.15663291759E+03  0.16285436578E+03  0.00000000000E+00 0.  1.
         21    1    1    2  503  502  0.43756786946E+02  0.85450088460E+01  0.40200817211E+03  0.40447279763E+03  0.00000000000E+00 0. -1.
</event>
<event>
 4    1  0.5740469E+002  0.3153508E+02  0.7546771E-02  0.1406710E+00
          2   -1    0    0  502    0  0.00000000000E+00  0.00000000000E+00  0.11051321220E+04  0.11051321220E+04  0.00000000000E+00 0. -1.
         -2   -1    0    0    0  501 -0.00000000000E+00 -0.00000000000E+00 -0.14277629029E+01  0.14277629029E+01  0.00000000000E+00 0.  1.
         21    1    1    2  502  503  0.31535014658E+02  0.63704922754E-01  0.88828241157E+03  0.88884200166E+03  0.00000000000E+00 0.  1.
         21    1    1    2  503  501 -0.31535014658E+02 -0.63704922754E-01  0.21542194748E+03  0.21771788320E+03  0.00000000000E+00 0. -1.
</event>
<event>
 4    1  0.5740469E+002  0.3757826E+02  0.7546771E-02  0.1363293E+00
          2   -1    0    0  503    0  0.00000000000E+00  0.00000000000E+00  0.53430815545E+03  0.53430815545E+03  0.00000000000E+00 0. -1.
         -2   -1    0    0    0  501 -0.00000000000E+00 -0.00000000000E+00 -0.11041402542E+02  0.11041402542E+02  0.00000000000E+00 0.  1.
         21    1    1    2  502  501 -0.33798109495E+02 -0.16426005064E+02  0.23821444854E+02  0.44492550868E+02  0.00000000000E+00 0.  1.
         21    1    1    2  503  502  0.33798109495E+02  0.16426005064E+02  0.49944530806E+03  0.50085700713E+03  0.00000000000E+00 0. -1.
</event>
<event>
 4    1  0.5740469E+002  0.3688211E+02  0.7546771E-02  0.1367793E+00
          2   -1    0    0  503    0  0.00000000000E+00  0.00000000000E+00  0.52908476086E+03  0.52908476086E+03  0.00000000000E+00 0.  1.
         -2   -1    0    0    0  501 -0.00000000000E+00 -0.00000000000E+00 -0.47218891754E+01  0.47218891754E+01  0.00000000000E+00 0. -1.
         21    1    1    2  502  501 -0.24700697080E+02  0.27389154313E+02  0.82044583280E+02  0.89953342660E+02  0.00000000000E+00 0. -1.
         21    1    1    2  503  502  0.24700697080E+02 -0.27389154313E+02  0.44231828841E+03  0.44385330738E+03  0.00000000000E+00 0.  1.
</event>
<event>
 4    1  0.5740469E+002  0.2202418E+02  0.7546771E-02  0.1505129E+00
          2   -1    0    0  502    0  0.00000000000E+00  0.00000000000E+00  0.74344195198E+03  0.74344195198E+03  0.00000000000E+00 0.  1.
         -2   -1    0    0    0  501 -0.00000000000E+00 -0.00000000000E+00 -0.15722760088E+01  0.15722760088E+01  0.00000000000E+00 0. -1.
         21    1    1    2  502  503  0.10349261221E+02 -0.19441119953E+02  0.65585371603E+03  0.65622340799E+03  0.00000000000E+00 0.  1.
         21    1    1    2  503  501 -0.10349261221E+02  0.19441119953E+02  0.86015959934E+02  0.88790820000E+02  0.00000000000E+00 0. -1.
</event>
<event>
 4    1  0.5740469E+002  0.2518417E+02  0.7546771E-02  0.1466754E+00
          2   -1    0    0  502    0  0.00000000000E+00  0.00000000000E+00  0.28427019846E+03  0.28427019846E+03  0.00000000000E+00 0. -1.
         -2   -1    0    0    0  501 -0.00000000000E+00 -0.00000000000E+00 -0.12150552896E+02  0.12150552896E+02  0.00000000000E+00 0.  1.
         21    1    1    2  502  503 -0.19258005774E+02  0.16228733574E+02  0.26997317519E+03  0.27114527085E+03  0.00000000000E+00 0. -1.
         21    1    1    2  503  501  0.19258005774E+02 -0.16228733574E+02  0.21464703716E+01  0.25275480507E+02  0.00000000000E+00 0.  1.
</event>
<event>
 4    1  0.5740469E+002  0.2128798E+02  0.7546771E-02  0.1515193E+00
          2   -1    0    0  502    0  0.00000000000E+00  0.00000000000E+00  0.43554383888E+00  0.43554383888E+00  0.00000000000E+00 0. -1.
         -2   -1    0    0    0  501 -0.00000000000E+00 -0.00000000000E+00 -0.10882738260E+04  0.10882738260E+04  0.00000000000E+00 0.  1.
         21    1    1    2  502  503  0.12069226001E+02  0.17536011683E+02 -0.65798736329E+03  0.65833163996E+03  0.00000000000E+00 0.  1.
         21    1    1    2  503  501 -0.12069226001E+02 -0.17536011683E+02 -0.42985091882E+03  0.43037772983E+03  0.00000000000E+00 0. -1.
</event>
<event>
 4    1  0.5740469E+002  0.2324541E+02  0.7546771E-02  0.1489439E+00
          2   -1    0    0  502    0  0.00000000000E+00  0.00000000000E+00  0.22882408453E+01  0.22882408453E+01  0.00000000000E+00 0.  1.
         -2   -1    0    0    0  501 -0.00000000000E+00 -0.00000000000E+00 -0.24406043663E+03  0.24406043663E+03  0.00000000000E+00 0. -1.
         21    1    1    2  502  503  0.21374046187E+02  0.91377816586E+01 -0.14307325426E+03  0.14494931869E+03  0.00000000000E+00 0. -1.
         21    1    1    2  503  501 -0.21374046187E+02 -0.91377816586E+01 -0.98698941521E+02  0.10139935878E+03  0.00000000000E+00 0.  1.
</event>
<event>
 4    1  0.5740469E+002  0.4269381E+02  0.7546771E-02  0.1333384E+00
          2   -1    0    0  503    0  0.00000000000E+00  0.00000000000E+00  0.27712394263E+03  0.27712394263E+03  0.00000000000E+00 0.  1.
         -2   -1    0    0    0  501 -0.00000000000E+00 -0.00000000000E+00 -0.69052630364E+01  0.69052630364E+01  0.00000000000E+00 0. -1.
         21    1    1    2  502  501  0.42646661051E+02 -0.20059568577E+01  0.10416555127E+03  0.11257541310E+03  0.00000000000E+00 0. -1.
         21    1    1    2  503  502 -0.42646661051E+02  0.20059568577E+01  0.16605312832E+03  0.17145379257E+03  0.00000000000E+00 0.  1.
</event>
<event>
 4    1  0.5740469E+002  0.3424815E+02  0.7546771E-02  0.1385927E+00
          2   -1    0    0  503    0  0.00000000000E+00  0.00000000000E+00  0.75542392785E+02  0.75542392785E+02  0.00000000000E+00 0. -1.
         -2   -1    0    0    0  501 -0.00000000000E+00 -0.00000000000E+00 -0.19469629632E+02  0.19469629632E+02  0.00000000000E+00 0.  1.
         21    1    1    2  502  501 -0.32927725235E+02  0.94181129099E+01  0.66582088622E+01  0.34889363497E+02  0.00000000000E+00 0.  1.
         21    1    1    2  503  502  0.32927725235E+02 -0.94181129099E+01  0.49414554290E+02  0.60122658920E+02  0.00000000000E+00 0. -1.
</event>
<event>
 4    1  0.5740469E+002  0.3360613E+02  0.7546771E-02  0.1390636E+00
          2   -1    0    0  503    0  0.00000000000E+00  0.00000000000E+00  0.37419101358E+03  0.37419101358E+03  0.00000000000E+00 0. -1.
         -2   -1    0    0    0  501 -0.00000000000E+00 -0.00000000000E+00 -0.71809401349E+01  0.71809401349E+01  0.00000000000E+00 0.  1.
         21    1    1    2  502  501  0.21604840649E+02 -0.25741076483E+02  0.38320852489E+02  0.50969205344E+02  0.00000000000E+00 0.  1.
         21    1    1    2  503  502 -0.21604840649E+02  0.25741076483E+02  0.32868922096E+03  0.33040274837E+03  0.00000000000E+00 0. -1.
</event>
<event>
 4    1  0.5740469E+002  0.2453780E+02  0.7546771E-02  0.1474041E+00
          2   -1    0    0  503    0  0.00000000000E+00  0.00000000000E+00  0.42598332976E+02  0.42598332976E+02  0.00000000000E+00 0.  1.
         -2   -1    0    0    0  501 -0.00000000000E+00 -0.00000000000E+00 -0.32965433460E+02  0.32965433460E+02  0.00000000000E+00 0. -1.
         21    1    1    2  502  501 -0.43129454151E+01 -0.24155791353E+02 -0.23739116428E+02  0.34141608088E+02  0.00000000000E+00 0. -1.
         21    1    1    2  503  502  0.43129454151E+01  0.24155791353E+02  0.33372015944E+02  0.41422158348E+02  0.00000000000E+00 0.  1.
</event>
<event>
 4    1  0.5740469E+002  0.2252766E+02  0.7546771E-02  0.1498516E+00
          2   -1    0    0  502    0  0.00000000000E+00  0.00000000000E+00  0.23996640382E+03  0.23996640382E+03  0.00000000000E+00 0.  1.
         -2   -1    0    0    0  501 -0.00000000000E+00 -0.00000000000E+00 -0.25026923928E+02  0.25026923928E+02  0.00000000000E+00 0. -1.
         21    1    1    2  502  503  0.17952288842E+02  0.13609212158E+02  0.23424465070E+03  0.23532541663E+03  0.00000000000E+00 0.  1.
         21    1    1    2  503  501 -0.17952288842E+02 -0.13609212158E+02 -0.19305170808E+02  0.29667911119E+02  0.00000000000E+00 0. -1.
</event>
<event>
 4    1  0.5740469E+002  0.3402986E+02  0.7546771E-02  0.1387515E+00
          2   -1    0    0  503    0  0.00000000000E+00  0.00000000000E+00  0.45207721950E+02  0.45207721950E+02  0.00000000000E+00 0.  1.
         -2   -1    0    0    0  501 -0.00000000000E+00 -0.00000000000E+00 -0.36150915134E+02  0.36150915134E+02  0.00000000000E+00 0. -1.
         21    1    1    2  502  501  0.26836180362E+02 -0.20924891383E+02 -0.17431670873E+02  0.38234732969E+02  0.00000000000E+00 0.  1.
         21    1    1    2  503  502 -0.26836180362E+02  0.20924891383E+02  0.26488477689E+02  0.43123904115E+02  0.00000000000E+00 0. -1.
</event>
<event>
 4    1  0.5740469E+002  0.5745851E+02  0.7546771E-02  0.1268721E+00
          2   -1    0    0  502    0  0.00000000000E+00  0.00000000000E+00  0.33472105433E+03  0.33472105433E+03  0.00000000000E+00 0. -1.
         -2   -1    0    0    0  501 -0.00000000000E+00 -0.00000000000E+00 -0.11647827967E+02  0.11647827967E+02  0.00000000000E+00 0.  1.
         21    1    1    2  502  503 -0.56464937382E+02 -0.10639120762E+02  0.22932240499E+03  0.23641117883E+03  0.00000000000E+00 0. -1.
         21    1    1    2  503  501  0.56464937382E+02  0.10639120762E+02  0.93750821375E+02  0.10995770347E+03  0.00000000000E+00 0.  1.
</event>
<event>
 4    1  0.5740469E+002  0.2031446E+02  0.7546771E-02  0.1529282E+00
          2   -1    0    0  502    0  0.00000000000E+00  0.00000000000E+00  0.52557404211E+03  0.52557404211E+03  0.00000000000E+00 0.  1.
         -2   -1    0    0    0  501 -0.00000000000E+00 -0.00000000000E+00 -0.10978877858E+01  0.10978877858E+01  0.00000000000E+00 0. -1.
         21    1    1    2  502  503 -0.18550640677E+02  0.82795463937E+01  0.40277530693E+03  0.40328727358E+03  0.00000000000E+00 0.  1.
         21    1    1    2  503  501  0.18550640677E+02 -0.82795463937E+01  0.12170084740E+03  0.12338465632E+03  0.00000000000E+00 0. -1.
</event>
<event>
 4    1  0.5740469E+002  0.2665513E+02  0.7546771E-02  0.1451103E+00
          2   -1    0    0  502    0  0.00000000000E+00  0.00000000000E+00  0.24670010319E+02  0.24670010319E+02  0.00000000000E+00 0. -1.
         -2   -1    0    0    0  501 -0.00000000000E+00 -0.00000000000E+00 -0.32789480499E+02  0.32789480499E+02  0.00000000000E+00 0.  1.
         21    1    1    2  502  503  0.92564099104E+01  0.24996296268E+02  0.59615506479E+01  0.27313660276E+02  0.00000000000E+00 0. -1.
         21    1    1    2  503  501 -0.92564099104E+01 -0.24996296268E+02 -0.14081020828E+02  0.30145830542E+02  0.00000000000E+00 0.  1.
</event>
<event>
 4    1  0.5740469E+002  0.3231881E+02  0.7546771E-02  0.1400461E+00
          2   -1    0    0  502    0  0.00000000000E+00  0.00000000000E+00  0.35404962541E+02  0.35404962541E+02  0.00000000000E+00 0.  1.
         -2   -1    0    0    0  501 -0.00000000000E+00 -0.00000000000E+00 -0.42780959232E+02  0.42780959232E+02  0.00000000000E+00 0. -1.
         21    1    1    2  502  503 -0.32038693058E+02  0.42458807953E+01  0.18092148180E+02  0.37038239461E+02  0.00000000000E+00 0.  1.
         21    1    1    2  503  501  0.32038693058E+02 -0.42458807953E+01 -0.25468144870E+02  0.41147682313E+02  0.00000000000E+00 0. -1.
</event>
<event>
 4    1  0.5740469E+002  0.2306943E+02  0.7546771E-02  0.1491628E+00
          2   -1    0    0  502    0  0.00000000000E+00  0.00000000000E+00  0.18153540790E+02  0.18153540790E+02  0.00000000000E+00 0.  1.
         -2   -1    0    0    0  501 -0.00000000000E+00 -0.00000000000E+00 -0.30011068491E+02  0.30011068491E+02  0.00000000000E+00 0. -1.
         21    1    1    2  502  503 -0.12905550955E+02 -0.19121860984E+02 -0.95923436235E+01  0.24984232411E+02  0.00000000000E+00 0. -1.
         21    1    1    2  503  501  0.12905550955E+02  0.19121860984E+02 -0.22651840771E+01  0.23180376871E+02  0.00000000000E+00 0.  1.
</event>
<event>
 4    1  0.5740469E+002  0.5439449E+02  0.7546771E-02  0.1280167E+00
          2   -1    0    0  502    0  0.00000000000E+00  0.00000000000E+00  0.18230324546E+04  0.18230324546E+04  0.00000000000E+00 0. -1.
         -2   -1    0    0    0  501 -0.00000000000E+00 -0.00000000000E+00 -0.16551033266E+01  0.16551033266E+01  0.00000000000E+00 0.  1.
         21    1    1    2  502  503 -0.23276055627E+02 -0.49162848117E+02  0.78360203675E+03  0.78548769080E+03  0.00000000000E+00 0. -1.
         21    1    1    2  503  501  0.23276055627E+02  0.49162848117E+02  0.10377753145E+04  0.10391998671E+04  0.00000000000E+00 0.  1.
</event>
<event>
 4    1  0.5740469E+002  0.2000430E+02  0.7546771E-02  0.1533970E+00
          2   -1    0    0  503    0  0.00000000000E+00  0.00000000000E+00  0.20456830871E+02  0.20456830871E+02  0.00000000000E+00 0.  1.
         -2   -1    0    0    0  501 -0.00000000000E+00 -0.00000000000E+00 -0.29501825341E+02  0.29501825341E+02  0.00000000000E+00 0. -1.
         21    1    1    2  502  501 -0.16712874386E+02 -0.10993264762E+02  0.99769175884E+01  0.22354214925E+02  0.00000000000E+00 0.  1.
         21    1    1    2  503  502  0.16712874386E+02  0.10993264762E+02 -0.19021912059E+02  0.27604441287E+02  0.00000000000E+00 0. -1.
</event>
<event>
 4    1  0.5740469E+002  0.2191468E+02  0.7546771E-02  0.1506596E+00
          2   -1    0    0  502    0  0.00000000000E+00  0.00000000000E+00  0.25402359113E+02  0.25402359113E+02  0.00000000000E+00 0. -1.
         -2   -1    0    0    0  501 -0.00000000000E+00 -0.00000000000E+00 -0.25304093071E+02  0.25304093071E+02  0.00000000000E+00 0.  1.
         21    1    1    2  502  503  0.21906303030E+02 -0.60578162366E+00  0.12797904953E+02  0.25377932442E+02  0.00000000000E+00 0. -1.
         21    1    1    2  503  501 -0.21906303030E+02  0.60578162366E+00 -0.12699638912E+02  0.25328519742E+02  0.00000000000E+00 0.  1.
</event>
<event>
 4    1  0.5740469E+002  0.2263077E+02  0.7546771E-02  0.1497187E+00
          2   -1    0    0  502    0  0.00000000000E+00  0.00000000000E+00  0.34822327331E+03  0.34822327331E+03  0.00000000000E+00 0. -1.
         -2   -1    0    0    0  501 -0.00000000000E+00 -0.00000000000E+00 -0.27879215443E+01  0.27879215443E+01  0.00000000000E+00 0.  1.
         21    1    1    2  502  503 -0.20926718541E+02 -0.86153567561E+01  0.29335193592E+03  0.29422357184E+03  0.00000000000E+00 0. -1.
         21    1    1    2  503  501  0.20926718541E+02  0.86153567561E+01  0.52083415846E+02  0.56787623010E+02  0.00000000000E+00 0.  1.
</event>
<event>
 4    1  0.5740469E+002  0.2200395E+02  0.7546771E-02  0.1505399E+00
          2   -1    0    0  503    0  0.00000000000E+00  0.00000000000E+00  0.11180313984E+04  0.11180313984E+04  0.00000000000E+00 0.  1.
         -2   -1    0    0    0  501 -0.00000000000E+00 -0.00000000000E+00 -0.18711562329E+01  0.18711562329E+01  0.00000000000E+00 0. -1.
         21    1    1    2  502  501 -0.79058661348E+01  0.20534634545E+02  0.67184352128E+02  0.70695905865E+02  0.00000000000E+00 0. -1.
         21    1    1    2  503  502  0.79058661348E+01 -0.20534634545E+02  0.10489758901E+04  0.10492066488E+04  0.00000000000E+00 0.  1.
</event>
<event>
 4    1  0.5740469E+002  0.2005545E+02  0.7546771E-02  0.1533190E+00
          2   -1    0    0  502    0  0.00000000000E+00  0.00000000000E+00  0.66905009579E+02  0.66905009579E+02  0.00000000000E+00 0. -1.
         -2   -1    0    0    0  501 -0.00000000000E+00 -0.00000000000E+00 -0.67192580534E+01  0.67192580534E+01  0.00000000000E+00 0.  1.
         21    1    1    2  502  503 -0.17051577506E+02 -0.10557680003E+02  0.42037552828E+02  0.46576568683E+02  0.00000000000E+00 0. -1.
         21    1    1    2  503  501  0.17051577506E+02  0.10557680003E+02  0.18148198698E+02  0.27047698950E+02  0.00000000000E+00 0.  1.
</event>
<event>
 4    1  0.5740469E+002  0.2146488E+02  0.7546771E-02  0.1512730E+00
          2   -1    0    0  502    0  0.00000000000E+00  0.00000000000E+00  0.10838612157E+04  0.10838612157E+04  0.00000000000E+00 0. -1.
         -2   -1    0    0    0  501 -0.00000000000E+00 -0.00000000000E+00 -0.43075037543E+00  0.43075037543E+00  0.00000000000E+00 0.  1.
         21    1    1    2  502  503 -0.47164807449E+01 -0.20940289782E+02  0.60385110385E+03  0.60423248551E+03  0.00000000000E+00 0. -1.
         21    1    1    2  503  501  0.47164807449E+01  0.20940289782E+02  0.47957936150E+03  0.48005948059E+03  0.00000000000E+00 0.  1.
</event>
<event>
 4    1  0.5740469E+002  0.2527597E+02  0.7546771E-02  0.1465740E+00
          2   -1    0    0  503    0  0.00000000000E+00  0.00000000000E+00  0.13675549203E+02  0.13675549203E+02  0.00000000000E+00 0.  1.
         -2   -1    0    0    0  501 -0.00000000000E+00 -0.00000000000E+00 -0.64661791286E+02  0.64661791286E+02  0.00000000000E+00 0. -1.
         21    1    1    2  502  501  0.24674439829E+02 -0.54814871762E+01 -0.46127406397E+02  0.52598596021E+02  0.00000000000E+00 0. -1.
         21    1    1    2  503  502 -0.24674439829E+02  0.54814871762E+01 -0.48588356860E+01  0.25738744467E+02  0.00000000000E+00 0.  1.
</event>
<event>
 4    1  0.5740469E+002  0.2463437E+02  0.7546771E-02  0.1472935E+00
          2   -1    0    0  502    0  0.00000000000E+00  0.00000000000E+00  0.16734571948E+04  0.16734571948E+04  0.00000000000E+00 0.  1.
         -2   -1    0    0    0  501 -0.00000000000E+00 -0.00000000000E+00 -0.52131692163E+00  0.52131692163E+00  0.00000000000E+00 0. -1.
         21    1    1    2  502  503  0.91014336468E+01  0.22891397151E+02  0.12982470959E+04  0.12984807947E+04  0.00000000000E+00 0.  1.
         21    1    1    2  503  501 -0.91014336468E+01 -0.22891397151E+02  0.37468878202E+03  0.37549771708E+03  0.00000000000E+00 0. -1.
</event>
<event>
 4    1  0.5740469E+002  0.3017912E+02  0.7546771E-02  0.1418046E+00
          2   -1    0    0  503    0  0.00000000000E+00  0.00000000000E+00  0.22096474358E+02  0.22096474358E+02  0.00000000000E+00 0. -1.
         -2   -1    0    0    0  501 -0.00000000000E+00 -0.00000000000E+00 -0.41302084018E+02  0.41302084018E+02  0.00000000000E+00 0.  1.
         21    1    1    2  502  501 -0.65648258053E+01  0.29456451929E+02 -0.11030377948E+02  0.32131740317E+02  0.00000000000E+00 0.  1.
         21    1    1    2  503  502  0.65648258053E+01 -0.29456451929E+02 -0.81752317116E+01  0.31266818060E+02  0.00000000000E+00 0. -1.
</event>
<event>
 4    1  0.5740469E+002  0.2266951E+02  0.7546771E-02  0.1496690E+00
          2   -1    0    0  503    0  0.00000000000E+00  0.00000000000E+00  0.11817438723E+04  0.11817438723E+04  0.00000000000E+00 0.  1.
         -2   -1    0    0    0  501 -0.00000000000E+00 -0.00000000000E+00 -0.14023883131E+01  0.14023883131E+01  0.00000000000E+00 0. -1.
         21    1    1    2  502  501 -0.22348202473E+02  0.38032202474E+01  0.98806469063E+02  0.10137368972E+03  0.00000000000E+00 0. -1.
         21    1    1    2  503  502  0.22348202473E+02 -0.38032202474E+01  0.10815350149E+04  0.10817725709E+04  0.00000000000E+00 0.  1.
</event>
<event>
 4    1  0.5740469E+002  0.2920704E+02  0.7546771E-02  0.1426615E+00
          2   -1    0    0  502    0  0.00000000000E+00  0.00000000000E+00  0.21330870035E+02  0.21330870035E+02  0.00000000000E+00 0. -1.
         -2   -1    0    0    0  501 -0.00000000000E+00 -0.00000000000E+00 -0.40072311648E+02  0.40072311648E+02  0.00000000000E+00 0.  1.
         21    1    1    2  502  503  0.81175913597E+01  0.28056298048E+02 -0.79910669057E+01  0.30280493720E+02  0.00000000000E+00 0. -1.
         21    1    1    2  503  501 -0.81175913597E+01 -0.28056298048E+02 -0.10750374707E+02  0.31122687962E+02  0.00000000000E+00 0.  1.
</event>
<event>
 4    1  0.5740469E+002  0.5333445E+02  0.7546771E-02  0.1284328E+00
          2   -1    0    0  502    0  0.00000000000E+00  0.00000000000E+00  0.17697767903E+03  0.17697767903E+03  0.00000000000E+00 0.  1.
         -2   -1    0    0    0  501 -0.00000000000E+00 -0.00000000000E+00 -0.16278256490E+02  0.16278256490E+02  0.00000000000E+00 0. -1.
         21    1    1    2  502  503 -0.20559704668E+02 -0.49212415871E+02  0.69499435053E+02  0.87605563777E+02  0.00000000000E+00 0. -1.
         21    1    1    2  503  501  0.20559704668E+02  0.49212415871E+02  0.91199987484E+02  0.10565037174E+03  0.00000000000E+00 0.  1.
</event>
<event>
 4    1  0.5740469E+002  0.2048427E+02  0.7546771E-02  0.1526757E+00
          2   -1    0    0  503    0  0.00000000000E+00  0.00000000000E+00  0.45817753428E+03  0.45817753428E+03  0.00000000000E+00 0. -1.
         -2   -1    0    0    0  501 -0.00000000000E+00 -0.00000000000E+00 -0.21890398568E+01  0.21890398568E+01  0.00000000000E+00 0.  1.
         21    1    1    2  502  501 -0.12387435466E+02  0.16314312955E+02  0.40354378538E+03  0.40406335157E+03  0.00000000000E+00 0. -1.
         21    1    1    2  503  502  0.12387435466E+02 -0.16314312955E+02  0.52444709049E+02  0.56303222571E+02  0.00000000000E+00 0.  1.
</event>
<event>
 4    1  0.5740469E+002  0.2145962E+02  0.7546771E-02  0.1512803E+00
          2   -1    0    0  502    0  0.00000000000E+00  0.00000000000E+00  0.15168936284E+03  0.15168936284E+03  0.00000000000E+00 0.  1.
         -2   -1    0    0    0  501 -0.00000000000E+00 -0.00000000000E+00 -0.33041454637E+01  0.33041454637E+01  0.00000000000E+00 0. -1.
         21    1    1    2  502  503 -0.74949013310E+01 -0.20108247085E+02  0.96273296702E+02  0.98636011703E+02  0.00000000000E+00 0.  1.
         21    1    1    2  503  501  0.74949013310E+01  0.20108247085E+02  0.52111920677E+02  0.56357496604E+02  0.00000000000E+00 0. -1.
</event>
<event>
 4    1  0.5740469E+002  0.2559668E+02  0.7546771E-02  0.1462238E+00
          2   -1    0    0  503    0  0.00000000000E+00  0.00000000000E+00  0.68605892048E+03  0.68605892048E+03  0.00000000000E+00 0. -1.
         -2   -1    0    0    0  501 -0.00000000000E+00 -0.00000000000E+00 -0.16373643789E+01  0.16373643789E+01  0.00000000000E+00 0.  1.
         21    1    1    2  502  501 -0.25530427306E+02  0.18404027578E+01  0.56418398119E+03  0.56476433531E+03  0.00000000000E+00 0. -1.
         21    1    1    2  503  502  0.25530427306E+02 -0.18404027578E+01  0.12023757491E+03  0.12293194956E+03  0.00000000000E+00 0.  1.
</event>
<event>
 4    1  0.5740469E+002  0.2097800E+02  0.7546771E-02  0.1519579E+00
          2   -1    0    0  502    0  0.00000000000E+00  0.00000000000E+00  0.13860151912E+03  0.13860151912E+03  0.00000000000E+00 0.  1.
         -2   -1    0    0    0  501 -0.00000000000E+00 -0.00000000000E+00 -0.32157050095E+01  0.32157050095E+01  0.00000000000E+00 0. -1.
         21    1    1    2  502  503 -0.18723221057E+02  0.94613750822E+01  0.75658849312E+02  0.78513298902E+02  0.00000000000E+00 0.  1.
         21    1    1    2  503  501  0.18723221057E+02 -0.94613750822E+01  0.59726964801E+02  0.63303925230E+02  0.00000000000E+00 0. -1.
</event>
<event>
 4    1  0.5740469E+002  0.5230192E+02  0.7546771E-02  0.1288489E+00
          2   -1    0    0  502    0  0.00000000000E+00  0.00000000000E+00  0.34797774061E+02  0.34797774061E+02  0.00000000000E+00 0.  1.
         -2   -1    0    0    0  501 -0.00000000000E+00 -0.00000000000E+00 -0.14412641279E+03  0.14412641279E+03  0.00000000000E+00 0. -1.
         21    1    1    2  502  503  0.50371012222E+02  0.14080192234E+02  0.56525421062E+01  0.52606481710E+02  0.00000000000E+00 0.  1.
         21    1    1    2  503  501 -0.50371012222E+02 -0.14080192234E+02 -0.11498118083E+03  0.12631770514E+03  0.00000000000E+00 0. -1.
</event>
<event>
 4    1  0.5740469E+002  0.2121205E+02  0.7546771E-02  0.1516259E+00
          2   -1    0    0  502    0  0.00000000000E+00  0.00000000000E+00  0.62462246002E+02  0.62462246002E+02  0.00000000000E+00 0.  1.
         -2   -1    0    0    0  501 -0.00000000000E+00 -0.00000000000E+00 -0.75972848628E+01  0.75972848628E+01  0.00000000000E+00 0. -1.
         21    1    1    2  502  503 -0.69832681099E+01  0.20029598614E+02  0.19458013993E+02  0.28784807845E+02  0.00000000000E+00 0.  1.
         21    1    1    2  503  501  0.69832681099E+01 -0.20029598614E+02  0.35406947146E+02  0.41274723020E+02  0.00000000000E+00 0. -1.
</event>
<event>
 4    1  0.5740469E+002  0.2889892E+02  0.7546771E-02  0.1429412E+00
          2   -1    0    0  502    0  0.00000000000E+00  0.00000000000E+00  0.55426127171E+02  0.55426127171E+02  0.00000000000E+00 0. -1.
         -2   -1    0    0    0  501 -0.00000000000E+00 -0.00000000000E+00 -0.71410979405E+02  0.71410979405E+02  0.00000000000E+00 0.  1.
         21    1    1    2  502  503  0.19637400531E+01  0.28832122345E+02  0.48339508575E+02  0.56319229782E+02  0.00000000000E+00 0. -1.
         21    1    1    2  503  501 -0.19637400531E+01 -0.28832122345E+02 -0.64324360809E+02  0.70517876793E+02  0.00000000000E+00 0.  1.
</event>
<event>
 4    1  0.5740469E+002  0.3306633E+02  0.7546771E-02  0.1394692E+00
          2   -1    0    0  503    0  0.00000000000E+00  0.00000000000E+00  0.58146877723E+02  0.58146877723E+02  0.00000000000E+00 0.  1.
         -2   -1    0    0    0  501 -0.00000000000E+00 -0.00000000000E+00 -0.22030533588E+02  0.22030533588E+02  0.00000000000E+00 0. -1.
         21    1    1    2  502  501 -0.12453906670E+02  0.30631396816E+02  0.27158506147E+01  0.33177674825E+02  0.00000000000E+00 0. -1.
         21    1    1    2  503  502  0.12453906670E+02 -0.30631396816E+02  0.33400493521E+02  0.46999736485E+02  0.00000000000E+00 0.  1.
</event>
<event>
 4    1  0.5740469E+002  0.2471904E+02  0.7546771E-02  0.1471971E+00
          2   -1    0    0  503    0  0.00000000000E+00  0.00000000000E+00  0.18601846359E+02  0.18601846359E+02  0.00000000000E+00 0. -1.
         -2   -1    0    0    0  501 -0.00000000000E+00 -0.00000000000E+00 -0.56261064607E+02  0.56261064607E+02  0.00000000000E+00 0.  1.
         21    1    1    2  502  501  0.23676717734E+02  0.71024076676E+01 -0.42976599890E+02  0.49578415620E+02  0.00000000000E+00 0.  1.
         21    1    1    2  503  502 -0.23676717734E+02 -0.71024076676E+01  0.53173816415E+01  0.25284495345E+02  0.00000000000E+00 0. -1.
</event>
<event>
 4    1  0.5740469E+002  0.3166271E+02  0.7546771E-02  0.1405677E+00
          2   -1    0    0  502    0  0.00000000000E+00  0.00000000000E+00  0.14162414290E+03  0.14162414290E+03  0.00000000000E+00 0. -1.
         -2   -1    0    0    0  501 -0.00000000000E+00 -0.00000000000E+00 -0.98665799243E+01  0.98665799243E+01  0.00000000000E+00 0.  1.
         21    1    1    2  502  503 -0.69056516131E+01 -0.30900476871E+02  0.10614147121E+03  0.11076343894E+03  0.00000000000E+00 0. -1.
         21    1    1    2  503  501  0.69056516131E+01  0.30900476871E+02  0.25616091759E+02  0.40727283878E+02  0.00000000000E+00 0.  1.
</event>
<event>
 4    1  0.5740469E+002  0.2230097E+02  0.7546771E-02  0.1501467E+00
          2   -1    0    0  502    0  0.00000000000E+00  0.00000000000E+00  0.23930741172E+02  0.23930741172E+02  0.00000000000E+00 0. -1.
         -2   -1    0    0    0  501 -0.00000000000E+00 -0.00000000000E+00 -0.30253380371E+02  0.30253380371E+02  0.00000000000E+00 0.  1.
         21    1    1    2  502  503 -0.54586616672E+01  0.21622588609E+02  0.11997216406E+02  0.25323240844E+02  0.00000000000E+00 0. -1.
         21    1    1    2  503  501  0.54586616672E+01 -0.21622588609E+02 -0.18319855605E+02  0.28860880700E+02  0.00000000000E+00 0.  1.
</event>
<event>
 4    1  0.5740469E+002  0.6123505E+02  0.7546771E-02  0.1255693E+00
          2   -1    0    0  502    0  0.00000000000E+00  0.00000000000E+00  0.14893240058E+04  0.14893240058E+04  0.00000000000E+00 0. -1.
         -2   -1    0    0    0  501 -0.00000000000E+00 -0.00000000000E+00 -0.42893874851E+02  0.42893874851E+02  0.00000000000E+00 0.  1.
         21    1    1    2  502  503  0.60879258915E+02 -0.65914136875E+01  0.14664998804E+04  0.14677777864E+04  0.00000000000E+00 0. -1.
         21    1    1    2  503  501 -0.60879258915E+02  0.65914136875E+01 -0.20069749508E+02  0.64440094241E+02  0.00000000000E+00 0.  1.
</event>
<event>
 4    1  0.5740469E+002  0.2401681E+02  0.7546771E-02  0.1480110E+00
          2   -1    0    0  502    0  0.00000000000E+00  0.00000000000E+00  0.25028916734E+04  0.25028916734E+04  0.00000000000E+00 0. -1.
         -2   -1    0    0    0  501 -0.00000000000E+00 -0.00000000000E+00 -0.23052018829E+00  0.23052018829E+00  0.00000000000E+00 0.  1.
         21    1    1    2  502  503  0.69225180559E+01  0.22997516621E+02  0.12304865744E+04  0.12307209338E+04  0.00000000000E+00 0. -1.
         21    1    1    2  503  501 -0.69225180559E+01 -0.22997516621E+02  0.12721745788E+04  0.12724012598E+04  0.00000000000E+00 0.  1.
</event>
<event>
 4    1  0.5740469E+002  0.2001977E+02  0.7546771E-02  0.1533734E+00
          2   -1    0    0  502    0  0.00000000000E+00  0.00000000000E+00  0.40172508223E+02  0.40172508223E+02  0.00000000000E+00 0. -1.
         -2   -1    0    0    0  501 -0.00000000000E+00 -0.00000000000E+00 -0.21996996423E+02  0.21996996423E+02  0.00000000000E+00 0.  1.
         21    1    1    2  502  503  0.52520967183E+01  0.19318554574E+02  0.32066294517E+02  0.37802623121E+02  0.00000000000E+00 0. -1.
         21    1    1    2  503  501 -0.52520967183E+01 -0.19318554574E+02 -0.13890782717E+02  0.24366881526E+02  0.00000000000E+00 0.  1.
</event>
<event>
 4    1  0.5740469E+002  0.2964082E+02  0.7546771E-02  0.1422744E+00
          2   -1    0    0  503    0  0.00000000000E+00  0.00000000000E+00  0.27376705007E+02  0.27376705007E+02  0.00000000000E+00 0. -1.
         -2   -1    0    0    0  501 -0.00000000000E+00 -0.00000000000E+00 -0.38305321565E+02  0.38305321565E+02  0.00000000000E+00 0.  1.
         21    1    1    2  502  501 -0.11297442566E+02 -0.27403398927E+02  0.77621079997E+01  0.30640313345E+02  0.00000000000E+00 0. -1.
         21    1    1    2  503  502  0.11297442566E+02  0.27403398927E+02 -0.18690724558E+02  0.35041713226E+02  0.00000000000E+00 0.  1.
</event>
<event>
 4    1  0.5740469E+002  0.3068279E+02  0.7546771E-02  0.1413754E+00
          2   -1    0    0  503    0  0.00000000000E+00  0.00000000000E+00  0.24843140083E+04  0.24843140083E+04  0.00000000000E+00 0. -1.
         -2   -1    0    0    0  501 -0.00000000000E+00 -0.00000000000E+00 -0.54430974032E+00  0.54430974032E+00  0.00000000000E+00 0.  1.
         21    1    1    2  502  501  0.29971833050E+02 -0.65668162342E+01  0.55708783740E+03  0.55793215756E+03  0.00000000000E+00 0.  1.
         21    1    1    2  503  502 -0.29971833050E+02  0.65668162342E+01  0.19266818611E+04  0.19269261605E+04  0.00000000000E+00 0. -1.
</event>
<event>
 4    1  0.5740469E+002  0.2557691E+02  0.7546771E-02  0.1462452E+00
          2   -1    0    0  502    0  0.00000000000E+00  0.00000000000E+00  0.12408371242E+01  0.12408371242E+01  0.00000000000E+00 0. -1.
         -2   -1    0    0    0  501 -0.00000000000E+00 -0.00000000000E+00 -0.60635440839E+03  0.60635440839E+03  0.00000000000E+00 0.  1.
         21    1    1    2  502  503 -0.13374367656E+02 -0.21801479387E+02 -0.19279806967E+03  0.19448720750E+03  0.00000000000E+00 0. -1.
         21    1    1    2  503  501  0.13374367656E+02  0.21801479387E+02 -0.41231550160E+03  0.41310803802E+03  0.00000000000E+00 0.  1.
</event>
<event>
 4    1  0.5740469E+002  0.2566283E+02  0.7546771E-02  0.1461523E+00
          2   -1    0    0  503    0  0.00000000000E+00  0.00000000000E+00  0.15097552496E+04  0.15097552496E+04  0.00000000000E+00 0. -1.
         -2   -1    0    0    0  501 -0.00000000000E+00 -0.00000000000E+00 -0.45169234269E+00  0.45169234269E+00  0.00000000000E+00 0.  1.
         21    1    1    2  502  501 -0.16801413640E+02 -0.19398288007E+02  0.89441845567E+03  0.89478654154E+03  0.00000000000E+00 0. -1.
         21    1    1    2  503  502  0.16801413640E+02  0.19398288007E+02  0.61488510160E+03  0.61542040042E+03  0.00000000000E+00 0.  1.
</event>
<event>
 4    1  0.5740469E+002  0.2760379E+02  0.7546771E-02  0.1441635E+00
          2   -1    0    0  502    0  0.00000000000E+00  0.00000000000E+00  0.34082615435E+03  0.34082615435E+03  0.00000000000E+00 0. -1.
         -2   -1    0    0    0  501 -0.00000000000E+00 -0.00000000000E+00 -0.22804497464E+01  0.22804497464E+01  0.00000000000E+00 0.  1.
         21    1    1    2  502  503  0.21112912234E+02  0.17782412880E+02  0.19331694636E+03  0.19527777912E+03  0.00000000000E+00 0.  1.
         21    1    1    2  503  501 -0.21112912234E+02 -0.17782412880E+02  0.14522875824E+03  0.14782882497E+03  0.00000000000E+00 0. -1.
</event>
<event>
 4    1  0.5740469E+002  0.3097019E+02  0.7546771E-02  0.1411349E+00
          2   -1    0    0  503    0  0.00000000000E+00  0.00000000000E+00  0.28775610927E+03  0.28775610927E+03  0.00000000000E+00 0. -1.
         -2   -1    0    0    0  501 -0.00000000000E+00 -0.00000000000E+00 -0.54028520209E+01  0.54028520209E+01  0.00000000000E+00 0.  1.
         21    1    1    2  502  501  0.15027217831E+02 -0.27080169812E+02  0.50455431300E+02  0.59202224793E+02  0.00000000000E+00 0.  1.
         21    1    1    2  503  502 -0.15027217831E+02  0.27080169812E+02  0.23189782595E+03  0.23395673650E+03  0.00000000000E+00 0. -1.
</event>
<event>
 4    1  0.5740469E+002  0.2926929E+02  0.7546771E-02  0.1426054E+00
          2   -1    0    0  502    0  0.00000000000E+00  0.00000000000E+00  0.43578968380E+01  0.43578968380E+01  0.00000000000E+00 0. -1.
         -2   -1    0    0    0  501 -0.00000000000E+00 -0.00000000000E+00 -0.37807148076E+03  0.37807148076E+03  0.00000000000E+00 0.  1.
         21    1    1    2  502  503 -0.29058026599E+02  0.35103206213E+01 -0.54374434242E+02  0.61751683053E+02  0.00000000000E+00 0. -1.
         21    1    1    2  503  501  0.29058026599E+02 -0.35103206213E+01 -0.31933914968E+03  0.32067769454E+03  0.00000000000E+00 0.  1.
</event>
<event>
 4    1  0.5740469E+002  0.2528074E+02  0.7546771E-02  0.1465687E+00
          2   -1    0    0  503    0  0.00000000000E+00  0.00000000000E+00  0.25271979252E+04  0.25271979252E+04  0.00000000000E+00 0. -1.
         -2   -1    0    0    0  501 -0.00000000000E+00 -0.00000000000E+00 -0.26391064896E+00  0.26391064896E+00  0.00000000000E+00 0.  1.
         21    1    1    2  502  501 -0.14483293018E+02  0.20720768019E+02  0.15216508005E+04  0.15218607935E+04  0.00000000000E+00 0. -1.
         21    1    1    2  503  502  0.14483293018E+02 -0.20720768019E+02  0.10052832140E+04  0.10056010423E+04  0.00000000000E+00 0.  1.
</event>
<event>
 4    1  0.5740469E+002  0.4389312E+02  0.7546771E-02  0.1327068E+00
          2   -1    0    0  502    0  0.00000000000E+00  0.00000000000E+00  0.76320284019E+03  0.76320284019E+03  0.00000000000E+00 0.  1.
         -2   -1    0    0    0  501 -0.00000000000E+00 -0.00000000000E+00 -0.26050063705E+01  0.26050063705E+01  0.00000000000E+00 0. -1.
         21    1    1    2  502  503 -0.20599562331E+02  0.38759054278E+02  0.44766654381E+03  0.44981322869E+03  0.00000000000E+00 0. -1.
         21    1    1    2  503  501  0.20599562331E+02 -0.38759054278E+02  0.31293129001E+03  0.31599461787E+03  0.00000000000E+00 0.  1.
</event>
<event>
 4    1  0.5740469E+002  0.2558477E+02  0.7546771E-02  0.1462367E+00
          2   -1    0    0  503    0  0.00000000000E+00  0.00000000000E+00  0.79540690061E+01  0.79540690061E+01  0.00000000000E+00 0.  1.
         -2   -1    0    0    0  501 -0.00000000000E+00 -0.00000000000E+00 -0.14728759476E+03  0.14728759476E+03  0.00000000000E+00 0. -1.
         21    1    1    2  502  501  0.58255918490E+01  0.24912701599E+02 -0.12122844755E+03  0.12389881644E+03  0.00000000000E+00 0. -1.
         21    1    1    2  503  502 -0.58255918490E+01 -0.24912701599E+02 -0.18105078204E+02  0.31342847320E+02  0.00000000000E+00 0.  1.
</event>
<event>
 4    1  0.5740469E+002  0.2230464E+02  0.7546771E-02  0.1501419E+00
          2   -1    0    0  502    0  0.00000000000E+00  0.00000000000E+00  0.46560929591E+01  0.46560929591E+01  0.00000000000E+00 0. -1.
         -2   -1    0    0    0  501 -0.00000000000E+00 -0.00000000000E+00 -0.16695965556E+03  0.16695965556E+03  0.00000000000E+00 0.  1.
         21    1    1    2  502  503  0.22303842780E+02  0.18877257942E+00 -0.29664669331E+02  0.37114547611E+02  0.00000000000E+00 0. -1.
         21    1    1    2  503  501 -0.22303842780E+02 -0.18877257942E+00 -0.13263889327E+03  0.13450120091E+03  0.00000000000E+00 0.  1.
</event>
<event>
 4    1  0.5740469E+002  0.3397003E+02  0.7546771E-02  0.1387952E+00
          2   -1    0    0  503    0  0.00000000000E+00  0.00000000000E+00  0.54111445762E+03  0.54111445762E+03  0.00000000000E+00 0. -1.
         -2   -1    0    0    0  501 -0.00000000000E+00 -0.00000000000E+00 -0.64809167444E+01  0.64809167444E+01  0.00000000000E+00 0.  1.
         21    1    1    2  502  501 -0.32405749544E+02  0.10189727022E+02  0.43045439797E+02  0.54834961727E+02  0.00000000000E+00 0.  1.
         21    1    1    2  503  502  0.32405749544E+02 -0.10189727022E+02  0.49158810107E+03  0.49276041263E+03  0.00000000000E+00 0. -1.
</event>
<event>
 4    1  0.5740469E+002  0.3464903E+02  0.7546771E-02  0.1383047E+00
          2   -1    0    0  502    0  0.00000000000E+00  0.00000000000E+00  0.22860624563E+03  0.22860624563E+03  0.00000000000E+00 0.  1.
         -2   -1    0    0    0  501 -0.00000000000E+00 -0.00000000000E+00 -0.92001419684E+01  0.92001419684E+01  0.00000000000E+00 0. -1.
         21    1    1    2  502  503  0.19887506317E+02 -0.28373274372E+02  0.31807449534E+02  0.47034768544E+02  0.00000000000E+00 0. -1.
         21    1    1    2  503  501 -0.19887506317E+02  0.28373274372E+02  0.18759865412E+03  0.19077161905E+03  0.00000000000E+00 0.  1.
</event>
<event>
 4    1  0.5740469E+002  0.2535418E+02  0.7546771E-02  0.1464880E+00
          2   -1    0    0  502    0  0.00000000000E+00  0.00000000000E+00  0.19499572598E+04  0.19499572598E+04  0.00000000000E+00 0.  1.
         -2   -1    0    0    0  501 -0.00000000000E+00 -0.00000000000E+00 -0.42109114656E+00  0.42109114656E+00  0.00000000000E+00 0. -1.
         21    1    1    2  502  503  0.12984419272E+02  0.21777032317E+02  0.14291636148E+04  0.14293884959E+04  0.00000000000E+00 0.  1.
         21    1    1    2  503  501 -0.12984419272E+02 -0.21777032317E+02  0.52037255390E+03  0.52098985511E+03  0.00000000000E+00 0. -1.
</event>
<event>
 4    1  0.5740469E+002  0.2439861E+02  0.7546771E-02  0.1475645E+00
          2   -1    0    0  502    0  0.00000000000E+00  0.00000000000E+00  0.14723283911E+04  0.14723283911E+04  0.00000000000E+00 0. -1.
         -2   -1    0    0    0  501 -0.00000000000E+00 -0.00000000000E+00 -0.40600251452E+00  0.40600251452E+00  0.00000000000E+00 0.  1.
         21    1    1    2  502  503  0.19532049858E+02 -0.14621602473E+02  0.78336061810E+03  0.78374048652E+03  0.00000000000E+00 0. -1.
         21    1    1    2  503  501 -0.19532049858E+02  0.14621602473E+02  0.68856177050E+03  0.68899390710E+03  0.00000000000E+00 0.  1.
</event>
<event>
 4    1  0.5740469E+002  0.2351493E+02  0.7546771E-02  0.1486131E+00
          2   -1    0    0  502    0  0.00000000000E+00  0.00000000000E+00  0.17024520616E+02  0.17024520616E+02  0.00000000000E+00 0. -1.
         -2   -1    0    0    0  501 -0.00000000000E+00 -0.00000000000E+00 -0.35937357175E+02  0.35937357175E+02  0.00000000000E+00 0.  1.
         21    1    1    2  502  503 -0.14334201556E+02  0.18640890361E+02 -0.12425391951E+01  0.23547739411E+02  0.00000000000E+00 0. -1.
         21    1    1    2  503  501  0.14334201556E+02 -0.18640890361E+02 -0.17670297364E+02  0.29414138380E+02  0.00000000000E+00 0.  1.
</event>
<event>
 4    1  0.5740469E+002  0.2578857E+02  0.7546771E-02  0.1460172E+00
          2   -1    0    0  503    0  0.00000000000E+00  0.00000000000E+00  0.13909886146E+04  0.13909886146E+04  0.00000000000E+00 0. -1.
         -2   -1    0    0    0  501 -0.00000000000E+00 -0.00000000000E+00 -0.18169551472E+01  0.18169551472E+01  0.00000000000E+00 0.  1.
         21    1    1    2  502  501  0.16699559539E+02 -0.19651333942E+02  0.96789797287E+02  0.10016643686E+03  0.00000000000E+00 0.  1.
         21    1    1    2  503  502 -0.16699559539E+02  0.19651333942E+02  0.12923818622E+04  0.12926391329E+04  0.00000000000E+00 0. -1.
</event>
<event>
 4    1  0.5740469E+002  0.2248419E+02  0.7546771E-02  0.1499079E+00
          2   -1    0    0  502    0  0.00000000000E+00  0.00000000000E+00  0.15894530283E+04  0.15894530283E+04  0.00000000000E+00 0. -1.
         -2   -1    0    0    0  501 -0.00000000000E+00 -0.00000000000E+00 -0.36489806609E+00  0.36489806609E+00  0.00000000000E+00 0.  1.
         21    1    1    2  502  503  0.55929460623E+01  0.21777463086E+02  0.10793429877E+04  0.10795771506E+04  0.00000000000E+00 0. -1.
         21    1    1    2  503  501 -0.55929460623E+01 -0.21777463086E+02  0.50974514260E+03  0.51024077586E+03  0.00000000000E+00 0.  1.
</event>
<event>
 4    1  0.5740469E+002  0.2000753E+02  0.7546771E-02  0.1533920E+00
          2   -1    0    0  503    0  0.00000000000E+00  0.00000000000E+00  0.11453212362E+03  0.11453212362E+03  0.00000000000E+00 0.  1.
         -2   -1    0    0    0  501 -0.00000000000E+00 -0.00000000000E+00 -0.46544731833E+01  0.46544731833E+01  0.00000000000E+00 0. -1.
         21    1    1    2  502  501  0.10510577440E+02 -0.17024369172E+02  0.25196595508E+02  0.32174054905E+02  0.00000000000E+00 0. -1.
         21    1    1    2  503  502 -0.10510577440E+02  0.17024369172E+02  0.84681054933E+02  0.87012541903E+02  0.00000000000E+00 0.  1.
</event>
<event>
 4    1  0.5740469E+002  0.3903227E+02  0.7546771E-02  0.1354252E+00
          2   -1    0    0  503    0  0.00000000000E+00  0.00000000000E+00  0.13374273384E+02  0.13374273384E+02  0.00000000000E+00 0.  1.
         -2   -1    0    0    0  501 -0.00000000000E+00 -0.00000000000E+00 -0.15389533006E+03  0.15389533006E+03  0.00000000000E+00 0. -1.
         21    1    1    2  502  501  0.25631390876E+02 -0.29437216625E+02 -0.11288927333E+03  0.11944666573E+03  0.00000000000E+00 0. -1.
         21    1    1    2  503  502 -0.25631390876E+02  0.29437216625E+02 -0.27631783344E+02  0.47822937714E+02  0.00000000000E+00 0.  1.
</event>
<event>
 4    1  0.5740469E+002  0.3936403E+02  0.7546771E-02  0.1352253E+00
          2   -1    0    0  502    0  0.00000000000E+00  0.00000000000E+00  0.75450867680E+03  0.75450867680E+03  0.00000000000E+00 0. -1.
         -2   -1    0    0    0  501 -0.00000000000E+00 -0.00000000000E+00 -0.81631839136E+01  0.81631839136E+01  0.00000000000E+00 0.  1.
         21    1    1    2  502  503  0.26887809099E+02 -0.28750172925E+02  0.70307141646E+03  0.70417252386E+03  0.00000000000E+00 0. -1.
         21    1    1    2  503  501 -0.26887809099E+02  0.28750172925E+02  0.43274076428E+02  0.58499336852E+02  0.00000000000E+00 0.  1.
</event>
<event>
 4    1  0.5740469E+002  0.3492682E+02  0.7546771E-02  0.1381078E+00
          2   -1    0    0  503    0  0.00000000000E+00  0.00000000000E+00  0.89156331650E+03  0.89156331650E+03  0.00000000000E+00 0. -1.
         -2   -1    0    0    0  501 -0.00000000000E+00 -0.00000000000E+00 -0.13788250811E+02  0.13788250811E+02  0.00000000000E+00 0.  1.
         21    1    1    2  502  501  0.27002109893E+02  0.22153307899E+02  0.92586622555E+01  0.36133167814E+02  0.00000000000E+00 0.  1.
         21    1    1    2  503  502 -0.27002109893E+02 -0.22153307899E+02  0.86851640343E+03  0.86921839949E+03  0.00000000000E+00 0. -1.
</event>
<event>
 4    1  0.5740469E+002  0.2305408E+02  0.7546771E-02  0.1491820E+00
          2   -1    0    0  503    0  0.00000000000E+00  0.00000000000E+00  0.12460451655E+04  0.12460451655E+04  0.00000000000E+00 0. -1.
         -2   -1    0    0    0  501 -0.00000000000E+00 -0.00000000000E+00 -0.42658953599E+00  0.42658953599E+00  0.00000000000E+00 0.  1.
         21    1    1    2  502  501  0.15510208660E+02 -0.17056499790E+02  0.62937933363E+03  0.62980142613E+03  0.00000000000E+00 0.  1.
         21    1    1    2  503  502 -0.15510208660E+02  0.17056499790E+02  0.61623924229E+03  0.61667032886E+03  0.00000000000E+00 0. -1.
</event>
<event>
 4    1  0.5740469E+002  0.2186964E+02  0.7546771E-02  0.1507202E+00
          2   -1    0    0  503    0  0.00000000000E+00  0.00000000000E+00  0.13404703047E+03  0.13404703047E+03  0.00000000000E+00 0. -1.
         -2   -1    0    0    0  501 -0.00000000000E+00 -0.00000000000E+00 -0.47262040713E+01  0.47262040713E+01  0.00000000000E+00 0.  1.
         21    1    1    2  502  501 -0.21648824733E+02 -0.30999377013E+01  0.30311734469E+02  0.37377566434E+02  0.00000000000E+00 0.  1.
         21    1    1    2  503  502  0.21648824733E+02  0.30999377013E+01  0.99009091929E+02  0.10139566811E+03  0.00000000000E+00 0. -1.
</event>
<event>
 4    1  0.5740469E+002  0.2826041E+02  0.7546771E-02  0.1435342E+00
          2   -1    0    0  503    0  0.00000000000E+00  0.00000000000E+00  0.64744955161E+03  0.64744955161E+03  0.00000000000E+00 0. -1.
         -2   -1    0    0    0  501 -0.00000000000E+00 -0.00000000000E+00 -0.15200302585E+01  0.15200302585E+01  0.00000000000E+00 0.  1.
         21    1    1    2  502  501 -0.73096107874E+01 -0.27298725736E+02  0.18209170379E+03  0.18427164575E+03  0.00000000000E+00 0.  1.
         21    1    1    2  503  502  0.73096107874E+01  0.27298725736E+02  0.46383781756E+03  0.46469793612E+03  0.00000000000E+00 0. -1.
</event>
<event>
 4    1  0.5740469E+002  0.2478067E+02  0.7546771E-02  0.1471272E+00
          2   -1    0    0  502    0  0.00000000000E+00  0.00000000000E+00  0.18721229805E+04  0.18721229805E+04  0.00000000000E+00 0.  1.
         -2   -1    0    0    0  501 -0.00000000000E+00 -0.00000000000E+00 -0.34223131647E+00  0.34223131647E+00  0.00000000000E+00 0. -1.
         21    1    1    2  502  503  0.21683629211E+02  0.11995909455E+02  0.74506317651E+03  0.74547516297E+03  0.00000000000E+00 0. -1.
         21    1    1    2  503  501 -0.21683629211E+02 -0.11995909455E+02  0.11267175727E+04  0.11269900489E+04  0.00000000000E+00 0.  1.
</event>
<event>
 4    1  0.5740469E+002  0.2226903E+02  0.7546771E-02  0.1501887E+00
          2   -1    0    0  503    0  0.00000000000E+00  0.00000000000E+00  0.42366272865E+00  0.42366272865E+00  0.00000000000E+00 0.  1.
         -2   -1    0    0    0  501 -0.00000000000E+00 -0.00000000000E+00 -0.12890440757E+04  0.12890440757E+04  0.00000000000E+00 0. -1.
         21    1    1    2  502  501  0.20933044950E+02 -0.75971898925E+01 -0.44881652279E+03  0.44936864687E+03  0.00000000000E+00 0. -1.
         21    1    1    2  503  502 -0.20933044950E+02  0.75971898925E+01 -0.83980389015E+03  0.84009909152E+03  0.00000000000E+00 0.  1.
</event>
<event>
 4    1  0.5740469E+002  0.2580527E+02  0.7546771E-02  0.1459993E+00
          2   -1    0    0  503    0  0.00000000000E+00  0.00000000000E+00  0.66191018342E+02  0.66191018342E+02  0.00000000000E+00 0.  1.
         -2   -1    0    0    0  501 -0.00000000000E+00 -0.00000000000E+00 -0.11627200353E+02  0.11627200353E+02  0.00000000000E+00 0. -1.
         21    1    1    2  502  501 -0.24258242305E+02  0.88005418357E+01  0.12999129856E+02  0.28894449871E+02  0.00000000000E+00 0.  1.
         21    1    1    2  503  502  0.24258242305E+02 -0.88005418357E+01  0.41564688133E+02  0.48923768824E+02  0.00000000000E+00 0. -1.
</event>
<event>
 4    1  0.5740469E+002  0.3799212E+02  0.7546771E-02  0.1360671E+00
          2   -1    0    0  503    0  0.00000000000E+00  0.00000000000E+00  0.13516320685E+02  0.13516320685E+02  0.00000000000E+00 0.  1.
         -2   -1    0    0    0  501 -0.00000000000E+00 -0.00000000000E+00 -0.10837545226E+03  0.10837545226E+03  0.00000000000E+00 0. -1.
         21    1    1    2  502  501 -0.27334676034E+02 -0.26385913073E+02 -0.54802257441E+02  0.66683493784E+02  0.00000000000E+00 0.  1.
         21    1    1    2  503  502  0.27334676034E+02  0.26385913073E+02 -0.40056874132E+02  0.55208279160E+02  0.00000000000E+00 0. -1.
</event>
<event>
 4    1  0.5740469E+002  0.3455873E+02  0.7546771E-02  0.1383692E+00
          2   -1    0    0  502    0  0.00000000000E+00  0.00000000000E+00  0.12884858124E+04  0.12884858124E+04  0.00000000000E+00 0. -1.
         -2   -1    0    0    0  501 -0.00000000000E+00 -0.00000000000E+00 -0.33004934018E+01  0.33004934018E+01  0.00000000000E+00 0.  1.
         21    1    1    2  502  503 -0.11763716631E+02 -0.32494933511E+02  0.11903318614E+04  0.11908334249E+04  0.00000000000E+00 0. -1.
         21    1    1    2  503  501  0.11763716631E+02  0.32494933511E+02  0.94853457643E+02  0.10095288089E+03  0.00000000000E+00 0.  1.
</event>
<event>
 4    1  0.5740469E+002  0.2608949E+02  0.7546771E-02  0.1456975E+00
          2   -1    0    0  503    0  0.00000000000E+00  0.00000000000E+00  0.16485341972E+04  0.16485341972E+04  0.00000000000E+00 0.  1.
         -2   -1    0    0    0  501 -0.00000000000E+00 -0.00000000000E+00 -0.31984581441E+01  0.31984581441E+01  0.00000000000E+00 0. -1.
         21    1    1    2  502  501 -0.16934384194E+02 -0.19846612980E+02  0.51948266143E+02  0.58131607324E+02  0.00000000000E+00 0. -1.
         21    1    1    2  503  502  0.16934384194E+02  0.19846612980E+02  0.15933874729E+04  0.15936010480E+04  0.00000000000E+00 0.  1.
</event>
<event>
 4    1  0.5740469E+002  0.2139692E+02  0.7546771E-02  0.1513673E+00
          2   -1    0    0  502    0  0.00000000000E+00  0.00000000000E+00  0.23739358505E+02  0.23739358505E+02  0.00000000000E+00 0.  1.
         -2   -1    0    0    0  501 -0.00000000000E+00 -0.00000000000E+00 -0.96850193477E+02  0.96850193477E+02  0.00000000000E+00 0. -1.
         21    1    1    2  502  503 -0.21326438260E+02 -0.17352269468E+01  0.17403244926E+02  0.27580807011E+02  0.00000000000E+00 0.  1.
         21    1    1    2  503  501  0.21326438260E+02  0.17352269468E+01 -0.90514079898E+02  0.93008744972E+02  0.00000000000E+00 0. -1.
</event>
<event>
 4    1  0.5740469E+002  0.2334183E+02  0.7546771E-02  0.1488250E+00
          2   -1    0    0  502    0  0.00000000000E+00  0.00000000000E+00  0.97248481252E+00  0.97248481252E+00  0.00000000000E+00 0.  1.
         -2   -1    0    0    0  501 -0.00000000000E+00 -0.00000000000E+00 -0.58286460905E+03  0.58286460905E+03  0.00000000000E+00 0. -1.
         21    1    1    2  502  503  0.12303437676E+02 -0.19835987567E+02 -0.23345378235E+03  0.23461779445E+03  0.00000000000E+00 0.  1.
         21    1    1    2  503  501 -0.12303437676E+02  0.19835987567E+02 -0.34843834189E+03  0.34921929941E+03  0.00000000000E+00 0. -1.
</event>
<event>
 4    1  0.5740469E+002  0.2048505E+02  0.7546771E-02  0.1526746E+00
          2   -1    0    0  503    0  0.00000000000E+00  0.00000000000E+00  0.52542708118E+03  0.52542708118E+03  0.00000000000E+00 0.  1.
         -2   -1    0    0    0  501 -0.00000000000E+00 -0.00000000000E+00 -0.85037171746E+00  0.85037171746E+00  0.00000000000E+00 0. -1.
         21    1    1    2  502  501  0.48404323545E+01 -0.19904963778E+02  0.19739852450E+03  0.19845859730E+03  0.00000000000E+00 0. -1.
         21    1    1    2  503  502 -0.48404323545E+01  0.19904963778E+02  0.32717818497E+03  0.32781885560E+03  0.00000000000E+00 0.  1.
</event>
<event>
 4    1  0.5740469E+002  0.2070671E+02  0.7546771E-02  0.1523494E+00
          2   -1    0    0  502    0  0.00000000000E+00  0.00000000000E+00  0.10387753271E+04  0.10387753271E+04  0.00000000000E+00 0.  1.
         -2   -1    0    0    0  501 -0.00000000000E+00 -0.00000000000E+00 -0.13315121498E+01  0.13315121498E+01  0.00000000000E+00 0. -1.
         21    1    1    2  502  503 -0.19246661546E+02 -0.76376536706E+01  0.95071214243E+03  0.95093761388E+03  0.00000000000E+00 0.  1.
         21    1    1    2  503  501  0.19246661546E+02  0.76376536706E+01  0.86731672510E+02  0.89169225356E+02  0.00000000000E+00 0. -1.
</event>
<event>
 4    1  0.5740469E+002  0.2164019E+02  0.7546771E-02  0.1510318E+00
          2   -1    0    0  502    0  0.00000000000E+00  0.00000000000E+00  0.20688338565E+03  0.20688338565E+03  0.00000000000E+00 0.  1.
         -2   -1    0    0    0  501 -0.00000000000E+00 -0.00000000000E+00 -0.93850845641E+01  0.93850845641E+01  0.00000000000E+00 0. -1.
         21    1    1    2  502  503 -0.19398466264E+02  0.95915211886E+01  0.19294459421E+03  0.19415435666E+03  0.00000000000E+00 0.  1.
         21    1    1    2  503  501  0.19398466264E+02 -0.95915211886E+01  0.45537068700E+01  0.22114113556E+02  0.00000000000E+00 0. -1.
</event>
<event>
 4    1  0.5740469E+002  0.2451931E+02  0.7546771E-02  0.1474253E+00
          2   -1    0    0  503    0  0.00000000000E+00  0.00000000000E+00  0.13309408784E+04  0.13309408784E+04  0.00000000000E+00 0.  1.
         -2   -1    0    0    0  501 -0.00000000000E+00 -0.00000000000E+00 -0.44514406721E+01  0.44514406721E+01  0.00000000000E+00 0. -1.
         21    1    1    2  502  501 -0.19814550126E+02  0.14442313224E+02  0.30331655659E+02  0.39002642769E+02  0.00000000000E+00 0. -1.
         21    1    1    2  503  502  0.19814550126E+02 -0.14442313224E+02  0.12961577821E+04  0.12963896763E+04  0.00000000000E+00 0.  1.
</event>
<event>
 4    1  0.5740469E+002  0.3731222E+02  0.7546771E-02  0.1364999E+00
          2   -1    0    0  502    0  0.00000000000E+00  0.00000000000E+00  0.48068514014E+02  0.48068514014E+02  0.00000000000E+00 0.  1.
         -2   -1    0    0    0  501 -0.00000000000E+00 -0.00000000000E+00 -0.30527210892E+02  0.30527210892E+02  0.00000000000E+00 0. -1.
         21    1    1    2  502  503  0.20833694386E+02  0.30954141305E+02  0.17666601391E+02  0.41283295538E+02  0.00000000000E+00 0.  1.
         21    1    1    2  503  501 -0.20833694386E+02 -0.30954141305E+02 -0.12529826963E+00  0.37312429369E+02  0.00000000000E+00 0. -1.
</event>
<event>
 4    1  0.5740469E+002  0.2365039E+02  0.7546771E-02  0.1484489E+00
          2   -1    0    0  502    0  0.00000000000E+00  0.00000000000E+00  0.40261463221E+02  0.40261463221E+02  0.00000000000E+00 0.  1.
         -2   -1    0    0    0  501 -0.00000000000E+00 -0.00000000000E+00 -0.22026014225E+02  0.22026014225E+02  0.00000000000E+00 0. -1.
         21    1    1    2  502  503 -0.12429156778E+02  0.20121053318E+02  0.28042745485E+02  0.36684278638E+02  0.00000000000E+00 0.  1.
         21    1    1    2  503  501  0.12429156778E+02 -0.20121053318E+02 -0.98072964886E+01  0.25603198809E+02  0.00000000000E+00 0. -1.
</event>
<event>
 4    1  0.5740469E+002  0.2834316E+02  0.7546771E-02  0.1434563E+00
          2   -1    0    0  503    0  0.00000000000E+00  0.00000000000E+00  0.33551077706E+03  0.33551077706E+03  0.00000000000E+00 0.  1.
         -2   -1    0    0    0  501 -0.00000000000E+00 -0.00000000000E+00 -0.24380558456E+01  0.24380558456E+01  0.00000000000E+00 0. -1.
         21    1    1    2  502  501 -0.16938952893E+02  0.22724587348E+02  0.14391606359E+03  0.14668049753E+03  0.00000000000E+00 0. -1.
         21    1    1    2  503  502  0.16938952893E+02 -0.22724587348E+02  0.18915665762E+03  0.19126833538E+03  0.00000000000E+00 0.  1.
</event>
<event>
 4    1  0.5740469E+002  0.2495002E+02  0.7546771E-02  0.1469363E+00
          2   -1    0    0  503    0  0.00000000000E+00  0.00000000000E+00  0.17699874796E+03  0.17699874796E+03  0.00000000000E+00 0.  1.
         -2   -1    0    0    0  501 -0.00000000000E+00 -0.00000000000E+00 -0.76852072088E+01  0.76852072088E+01  0.00000000000E+00 0. -1.
         21    1    1    2  502  501  0.16856301494E+02  0.18394794507E+02  0.16650901608E+02  0.29995931213E+02  0.00000000000E+00 0. -1.
         21    1    1    2  503  502 -0.16856301494E+02 -0.18394794507E+02  0.15266263914E+03  0.15468802395E+03  0.00000000000E+00 0.  1.
</event>
<event>
 4    1  0.5740469E+002  0.2245002E+02  0.7546771E-02  0.1499522E+00
          2   -1    0    0  503    0  0.00000000000E+00  0.00000000000E+00  0.19532240491E+01  0.19532240491E+01  0.00000000000E+00 0.  1.
         -2   -1    0    0    0  501 -0.00000000000E+00 -0.00000000000E+00 -0.29693092210E+03  0.29693092210E+03  0.00000000000E+00 0. -1.
         21    1    1    2  502  501 -0.33711453141E+01 -0.22195468054E+02 -0.93402470758E+02  0.96062609618E+02  0.00000000000E+00 0.  1.
         21    1    1    2  503  502  0.33711453141E+01  0.22195468054E+02 -0.20157522729E+03  0.20282153653E+03  0.00000000000E+00 0. -1.
</event>
<event>
 4    1  0.5740469E+002  0.3747999E+02  0.7546771E-02  0.1363921E+00
          2   -1    0    0  503    0  0.00000000000E+00  0.00000000000E+00  0.12065715928E+03  0.12065715928E+03  0.00000000000E+00 0.  1.
         -2   -1    0    0    0  501 -0.00000000000E+00 -0.00000000000E+00 -0.14835271793E+02  0.14835271793E+02  0.00000000000E+00 0. -1.
         21    1    1    2  502  501  0.14952954870E+02 -0.34367990930E+02  0.21482565795E+02  0.43200119133E+02  0.00000000000E+00 0.  1.
         21    1    1    2  503  502 -0.14952954870E+02  0.34367990930E+02  0.84339321689E+02  0.92292311939E+02  0.00000000000E+00 0. -1.
</event>
<event>
 4    1  0.5740469E+002  0.2173161E+02  0.7546771E-02  0.1509071E+00
          2   -1    0    0  502    0  0.00000000000E+00  0.00000000000E+00  0.12730862138E+03  0.12730862138E+03  0.00000000000E+00 0.  1.
         -2   -1    0    0    0  501 -0.00000000000E+00 -0.00000000000E+00 -0.37634874551E+01  0.37634874551E+01  0.00000000000E+00 0. -1.
         21    1    1    2  502  503 -0.18843256056E+02 -0.10825636926E+02  0.53929759343E+02  0.58143629543E+02  0.00000000000E+00 0. -1.
         21    1    1    2  503  501  0.18843256056E+02  0.10825636926E+02  0.69615374584E+02  0.72928479294E+02  0.00000000000E+00 0.  1.
</event>
<event>
 4    1  0.5740469E+002  0.2458010E+02  0.7546771E-02  0.1473556E+00
          2   -1    0    0  503    0  0.00000000000E+00  0.00000000000E+00  0.23370149321E+04  0.23370149321E+04  0.00000000000E+00 0. -1.
         -2   -1    0    0    0  501 -0.00000000000E+00 -0.00000000000E+00 -0.27141209780E+00  0.27141209780E+00  0.00000000000E+00 0.  1.
         21    1    1    2  502  501  0.77262729460E+01  0.23334225291E+02  0.14230031117E+04  0.14232153868E+04  0.00000000000E+00 0.  1.
         21    1    1    2  503  502 -0.77262729460E+01 -0.23334225291E+02  0.91374040833E+03  0.91407095741E+03  0.00000000000E+00 0. -1.
</event>
<event>
 4    1  0.5740469E+002  0.2342726E+02  0.7546771E-02  0.1487202E+00
          2   -1    0    0  502    0  0.00000000000E+00  0.00000000000E+00  0.88675327501E+03  0.88675327501E+03  0.00000000000E+00 0. -1.
         -2   -1    0    0    0  501 -0.00000000000E+00 -0.00000000000E+00 -0.11453048584E+01  0.11453048584E+01  0.00000000000E+00 0.  1.
         21    1    1    2  502  503 -0.79513906912E+01 -0.22036598982E+02  0.74377263838E+03  0.74414150127E+03  0.00000000000E+00 0. -1.
         21    1    1    2  503  501  0.79513906912E+01  0.22036598982E+02  0.14183533177E+03  0.14375707860E+03  0.00000000000E+00 0.  1.
</event>
<event>
 4    1  0.5740469E+002  0.2061076E+02  0.7546771E-02  0.1524895E+00
          2   -1    0    0  503    0  0.00000000000E+00  0.00000000000E+00  0.20435685899E+02  0.20435685899E+02  0.00000000000E+00 0.  1.
         -2   -1    0    0    0  501 -0.00000000000E+00 -0.00000000000E+00 -0.12053285577E+03  0.12053285577E+03  0.00000000000E+00 0. -1.
         21    1    1    2  502  501  0.18073996116E+02  0.99062608236E+01 -0.11416750526E+03  0.11601302771E+03  0.00000000000E+00 0. -1.
         21    1    1    2  503  502 -0.18073996116E+02 -0.99062608236E+01  0.14070335393E+02  0.24955513963E+02  0.00000000000E+00 0.  1.
</event>
<event>
 4    1  0.5740469E+002  0.3627223E+02  0.7546771E-02  0.1371833E+00
          2   -1    0    0  503    0  0.00000000000E+00  0.00000000000E+00  0.20859898988E+04  0.20859898988E+04  0.00000000000E+00 0.  1.
         -2   -1    0    0    0  501 -0.00000000000E+00 -0.00000000000E+00 -0.74615418424E+01  0.74615418424E+01  0.00000000000E+00 0. -1.
         21    1    1    2  502  501  0.14907524038E+01 -0.36241580373E+02  0.37754612487E+02  0.52355374649E+02  0.00000000000E+00 0. -1.
         21    1    1    2  503  502 -0.14907524038E+01  0.36241580373E+02  0.20407737444E+04  0.20410960660E+04  0.00000000000E+00 0.  1.
</event>
<event>
 4    1  0.5740469E+002  0.3107679E+02  0.7546771E-02  0.1410464E+00
          2   -1    0    0  502    0  0.00000000000E+00  0.00000000000E+00  0.45626593299E+02  0.45626593299E+02  0.00000000000E+00 0. -1.
         -2   -1    0    0    0  501 -0.00000000000E+00 -0.00000000000E+00 -0.45227558935E+02  0.45227558935E+02  0.00000000000E+00 0.  1.
         21    1    1    2  502  503  0.28995200935E+02 -0.11182369838E+02  0.33333088408E+02  0.45572599830E+02  0.00000000000E+00 0. -1.
         21    1    1    2  503  501 -0.28995200935E+02  0.11182369838E+02 -0.32934054043E+02  0.45281552405E+02  0.00000000000E+00 0.  1.
</event>
<event>
 4    1  0.5740469E+002  0.2522524E+02  0.7546771E-02  0.1466299E+00
          2   -1    0    0  502    0  0.00000000000E+00  0.00000000000E+00  0.16385455949E+04  0.16385455949E+04  0.00000000000E+00 0. -1.
         -2   -1    0    0    0  501 -0.00000000000E+00 -0.00000000000E+00 -0.45964131370E+00  0.45964131370E+00  0.00000000000E+00 0.  1.
         21    1    1    2  502  503  0.20713873110E+02 -0.14396123069E+02  0.11418101750E+04  0.11420887832E+04  0.00000000000E+00 0. -1.
         21    1    1    2  503  501 -0.20713873110E+02  0.14396123069E+02  0.49627577852E+03  0.49691645299E+03  0.00000000000E+00 0.  1.
</event>
<event>
 4    1  0.5740469E+002  0.2359315E+02  0.7546771E-02  0.1485181E+00
          2   -1    0    0  503    0  0.00000000000E+00  0.00000000000E+00  0.44661009033E+01  0.44661009033E+01  0.00000000000E+00 0. -1.
         -2   -1    0    0    0  501 -0.00000000000E+00 -0.00000000000E+00 -0.22597970582E+03  0.22597970582E+03  0.00000000000E+00 0.  1.
         21    1    1    2  502  501  0.20081643977E+02 -0.12384026155E+02 -0.18791866259E+03  0.18939392883E+03  0.00000000000E+00 0.  1.
         21    1    1    2  503  502 -0.20081643977E+02  0.12384026155E+02 -0.33594942336E+02  0.41051877901E+02  0.00000000000E+00 0. -1.
</event>
<event>
 4    1  0.5740469E+002  0.3351630E+02  0.7546771E-02  0.1391305E+00
          2   -1    0    0  502    0  0.00000000000E+00  0.00000000000E+00  0.51003089528E+03  0.51003089528E+03  0.00000000000E+00 0. -1.
         -2   -1    0    0    0  501 -0.00000000000E+00 -0.00000000000E+00 -0.24468235704E+01  0.24468235704E+01  0.00000000000E+00 0.  1.
         21    1    1    2  502  503 -0.33448139877E+02 -0.21363945418E+01  0.33476270885E+03  0.33643634388E+03  0.00000000000E+00 0. -1.
         21    1    1    2  503  501  0.33448139877E+02  0.21363945418E+01  0.17282136286E+03  0.17604137497E+03  0.00000000000E+00 0.  1.
</event>
<event>
 4    1  0.5740469E+002  0.3043091E+02  0.7546771E-02  0.1415888E+00
          2   -1    0    0  502    0  0.00000000000E+00  0.00000000000E+00  0.51866573843E+02  0.51866573843E+02  0.00000000000E+00 0. -1.
         -2   -1    0    0    0  501 -0.00000000000E+00 -0.00000000000E+00 -0.17886896301E+02  0.17886896301E+02  0.00000000000E+00 0.  1.
         21    1    1    2  502  503  0.14519953395E+02  0.26743438811E+02  0.18479047727E+02  0.35602187727E+02  0.00000000000E+00 0. -1.
         21    1    1    2  503  501 -0.14519953395E+02 -0.26743438811E+02  0.15500629815E+02  0.34151282416E+02  0.00000000000E+00 0.  1.
</event>
<event>
 4    1  0.5740469E+002  0.3287739E+02  0.7546771E-02  0.1396133E+00
          2   -1    0    0  502    0  0.00000000000E+00  0.00000000000E+00  0.56534074919E+02  0.56534074919E+02  0.00000000000E+00 0. -1.
         -2   -1    0    0    0  501 -0.00000000000E+00 -0.00000000000E+00 -0.26419302127E+02  0.26419302127E+02  0.00000000000E+00 0.  1.
         21    1    1    2  502  503  0.16619696038E+02  0.28367384308E+02  0.36859001340E+02  0.49391383547E+02  0.00000000000E+00 0. -1.
         21    1    1    2  503  501 -0.16619696038E+02 -0.28367384308E+02 -0.67442285481E+01  0.33561993499E+02  0.00000000000E+00 0.  1.
</event>
<event>
 4    1  0.5740469E+002  0.2252739E+02  0.7546771E-02  0.1498520E+00
          2   -1    0    0  503    0  0.00000000000E+00  0.00000000000E+00  0.61136914172E+03  0.61136914172E+03  0.00000000000E+00 0.  1.
         -2   -1    0    0    0  501 -0.00000000000E+00 -0.00000000000E+00 -0.12804201229E+02  0.12804201229E+02  0.00000000000E+00 0. -1.
         21    1    1    2  502  501 -0.58599447339E+01 -0.21751879957E+02 -0.25186604078E+01  0.22667749871E+02  0.00000000000E+00 0. -1.
         21    1    1    2  503  502  0.58599447339E+01  0.21751879957E+02  0.60108360090E+03  0.60150559308E+03  0.00000000000E+00 0.  1.
</event>
<event>
 4    1  0.5740469E+002  0.3555209E+02  0.7546771E-02  0.1376723E+00
          2   -1    0    0  503    0  0.00000000000E+00  0.00000000000E+00  0.26027933543E+03  0.26027933543E+03  0.00000000000E+00 0.  1.
         -2   -1    0    0    0  501 -0.00000000000E+00 -0.00000000000E+00 -0.74590229838E+01  0.74590229838E+01  0.00000000000E+00 0. -1.
         21    1    1    2  502  501  0.17018853255E+02 -0.31213939755E+02  0.47330016517E+02  0.59195285831E+02  0.00000000000E+00 0. -1.
         21    1    1    2  503  502 -0.17018853255E+02  0.31213939755E+02  0.20549029593E+03  0.20854307258E+03  0.00000000000E+00 0.  1.
</event>
<event>
 4    1  0.5740469E+002  0.2570310E+02  0.7546771E-02  0.1461089E+00
          2   -1    0    0  503    0  0.00000000000E+00  0.00000000000E+00  0.10918606447E+03  0.10918606447E+03  0.00000000000E+00 0.  1.
         -2   -1    0    0    0  501 -0.00000000000E+00 -0.00000000000E+00 -0.65886543329E+01  0.65886543329E+01  0.00000000000E+00 0. -1.
         21    1    1    2  502  501 -0.25065975784E+02  0.56873510699E+01  0.34757420523E+02  0.43228779599E+02  0.00000000000E+00 0. -1.
         21    1    1    2  503  502  0.25065975784E+02 -0.56873510699E+01  0.67839989615E+02  0.72545939205E+02  0.00000000000E+00 0.  1.
</event>
<event>
 4    1  0.5740469E+002  0.2241577E+02  0.7546771E-02  0.1499968E+00
          2   -1    0    0  503    0  0.00000000000E+00  0.00000000000E+00  0.17562478188E+03  0.17562478188E+03  0.00000000000E+00 0. -1.
         -2   -1    0    0    0  501 -0.00000000000E+00 -0.00000000000E+00 -0.45582213780E+01  0.45582213780E+01  0.00000000000E+00 0.  1.
         21    1    1    2  502  501 -0.15774350962E+02  0.15925977519E+02  0.30559936345E+02  0.37899559597E+02  0.00000000000E+00 0. -1.
         21    1    1    2  503  502  0.15774350962E+02 -0.15925977519E+02  0.14050662415E+03  0.14228344366E+03  0.00000000000E+00 0.  1.
</event>
<event>
 4    1  0.5740469E+002  0.2278142E+02  0.7546771E-02  0.1495261E+00
          2   -1    0    0  502    0  0.00000000000E+00  0.00000000000E+00  0.21676333642E+03  0.21676333642E+03  0.00000000000E+00 0. -1.
         -2   -1    0    0    0  501 -0.00000000000E+00 -0.00000000000E+00 -0.26477620724E+01  0.26477620724E+01  0.00000000000E+00 0.  1.
         21    1    1    2  502  503  0.19809349946E+02 -0.11250899042E+02  0.14100147107E+03  0.14282999656E+03  0.00000000000E+00 0. -1.
         21    1    1    2  503  501 -0.19809349946E+02  0.11250899042E+02  0.73114103282E+02  0.76581101933E+02  0.00000000000E+00 0.  1.
</event>
<event>
 4    1  0.5740469E+002  0.3082093E+02  0.7546771E-02  0.1412594E+00
          2   -1    0    0  503    0  0.00000000000E+00  0.00000000000E+00  0.89502401106E+03  0.89502401106E+03  0.00000000000E+00 0.  1.
         -2   -1    0    0    0  501 -0.00000000000E+00 -0.00000000000E+00 -0.52313816288E+01  0.52313816288E+01  0.00000000000E+00 0. -1.
         21    1    1    2  502  501  0.10071466491E+00  0.30820768342E+02  0.43015354049E+02  0.52917394008E+02  0.00000000000E+00 0. -1.
         21    1    1    2  503  502 -0.10071466491E+00 -0.30820768342E+02  0.84677727538E+03  0.84733799868E+03  0.00000000000E+00 0.  1.
</event>
<event>
 4    1  0.5740469E+002  0.2094092E+02  0.7546771E-02  0.1520110E+00
          2   -1    0    0  502    0  0.00000000000E+00  0.00000000000E+00  0.32198594665E+01  0.32198594665E+01  0.00000000000E+00 0.  1.
         -2   -1    0    0    0  501 -0.00000000000E+00 -0.00000000000E+00 -0.17180048347E+03  0.17180048347E+03  0.00000000000E+00 0. -1.
         21    1    1    2  502  503  0.17404698057E+02 -0.11644674681E+02 -0.12413015898E+03  0.12588414646E+03  0.00000000000E+00 0. -1.
         21    1    1    2  503  501 -0.17404698057E+02  0.11644674681E+02 -0.44450465027E+02  0.49136196475E+02  0.00000000000E+00 0.  1.
</event>
<event>
 4    1  0.5740469E+002  0.2353577E+02  0.7546771E-02  0.1485878E+00
          2   -1    0    0  502    0  0.00000000000E+00  0.00000000000E+00  0.98482870196E+03  0.98482870196E+03  0.00000000000E+00 0. -1.
         -2   -1    0    0    0  501 -0.00000000000E+00 -0.00000000000E+00 -0.78117901466E+00  0.78117901466E+00  0.00000000000E+00 0.  1.
         21    1    1    2  502  503 -0.13840267667E+02  0.19036264223E+02  0.75278160508E+03  0.75314943890E+03  0.00000000000E+00 0.  1.
         21    1    1    2  503  501  0.13840267667E+02 -0.19036264223E+02  0.23126591787E+03  0.23246044208E+03  0.00000000000E+00 0. -1.
</event>
<event>
 4    1  0.5740469E+002  0.2218218E+02  0.7546771E-02  0.1503031E+00
          2   -1    0    0  503    0  0.00000000000E+00  0.00000000000E+00  0.17057280419E+04  0.17057280419E+04  0.00000000000E+00 0.  1.
         -2   -1    0    0    0  501 -0.00000000000E+00 -0.00000000000E+00 -0.83208180571E+00  0.83208180571E+00  0.00000000000E+00 0. -1.
         21    1    1    2  502  501  0.16485095836E+02 -0.14842196592E+02  0.16275860393E+03  0.16426324098E+03  0.00000000000E+00 0. -1.
         21    1    1    2  503  502 -0.16485095836E+02  0.14842196592E+02  0.15421373561E+04  0.15422968827E+04  0.00000000000E+00 0.  1.
</event>
<event>
 4    1  0.5740469E+002  0.2155269E+02  0.7546771E-02  0.1511518E+00
          2   -1    0    0  503    0  0.00000000000E+00  0.00000000000E+00  0.10770514789E+04  0.10770514789E+04  0.00000000000E+00 0.  1.
         -2   -1    0    0    0  501 -0.00000000000E+00 -0.00000000000E+00 -0.76579597072E+00  0.76579597072E+00  0.00000000000E+00 0. -1.
         21    1    1    2  502  501  0.16827046487E+02  0.13467334821E+02  0.18196876253E+03  0.18324068636E+03  0.00000000000E+00 0. -1.
         21    1    1    2  503  502 -0.16827046487E+02 -0.13467334821E+02  0.89431692037E+03  0.89457658848E+03  0.00000000000E+00 0.  1.
</event>
<event>
 4    1  0.5740469E+002  0.2083912E+02  0.7546771E-02  0.1521574E+00
          2   -1    0    0  503    0  0.00000000000E+00  0.00000000000E+00  0.24222283922E+01  0.24222283922E+01  0.00000000000E+00 0.  1.
         -2   -1    0    0    0  501 -0.00000000000E+00 -0.00000000000E+00 -0.13831767338E+04  0.13831767338E+04  0.00000000000E+00 0. -1.
         21    1    1    2  502  501  0.64371079945E+01 -0.19820004238E+02 -0.13367193661E+04  0.13368817946E+04  0.00000000000E+00 0. -1.
         21    1    1    2  503  502 -0.64371079945E+01  0.19820004238E+02 -0.44035139241E+02  0.48717167562E+02  0.00000000000E+00 0.  1.
</event>
<event>
 4    1  0.5740469E+002  0.2591169E+02  0.7546771E-02  0.1458858E+00
          2   -1    0    0  503    0  0.00000000000E+00  0.00000000000E+00  0.20136235488E+03  0.20136235488E+03  0.00000000000E+00 0.  1.
         -2   -1    0    0    0  501 -0.00000000000E+00 -0.00000000000E+00 -0.34985694695E+01  0.34985694695E+01  0.00000000000E+00 0. -1.
         21    1    1    2  502  501  0.25204234348E+02  0.60134863724E+01  0.76740871189E+02  0.80997387355E+02  0.00000000000E+00 0. -1.
         21    1    1    2  503  502 -0.25204234348E+02 -0.60134863724E+01  0.12112291422E+03  0.12386353699E+03  0.00000000000E+00 0.  1.
</event>
<event>
 4    1  0.5740469E+002  0.2336674E+02  0.7546771E-02  0.1487944E+00
          2   -1    0    0  502    0  0.00000000000E+00  0.00000000000E+00  0.22669917304E+02  0.22669917304E+02  0.00000000000E+00 0.  1.
         -2   -1    0    0    0  501 -0.00000000000E+00 -0.00000000000E+00 -0.44745951691E+02  0.44745951691E+02  0.00000000000E+00 0. -1.
         21    1    1    2  502  503  0.85344855586E+01 -0.21752403412E+02  0.11867001003E+02  0.26207445713E+02  0.00000000000E+00 0.  1.
         21    1    1    2  503  501 -0.85344855586E+01  0.21752403412E+02 -0.33943035390E+02  0.41208423283E+02  0.00000000000E+00 0. -1.
</event>
<event>
 4    1  0.5740469E+002  0.2510501E+02  0.7546771E-02  0.1467632E+00
          2   -1    0    0  502    0  0.00000000000E+00  0.00000000000E+00  0.57655511194E+03  0.57655511194E+03  0.00000000000E+00 0. -1.
         -2   -1    0    0    0  501 -0.00000000000E+00 -0.00000000000E+00 -0.11963969855E+01  0.11963969855E+01  0.00000000000E+00 0.  1.
         21    1    1    2  502  503  0.10257029941E+02  0.22914075121E+02  0.20281777970E+03  0.20436563622E+03  0.00000000000E+00 0.  1.
         21    1    1    2  503  501 -0.10257029941E+02 -0.22914075121E+02  0.37254093525E+03  0.37338587271E+03  0.00000000000E+00 0. -1.
</event>
<event>
 4    1  0.5740469E+002  0.4095432E+02  0.7546771E-02  0.1342982E+00
          2   -1    0    0  503    0  0.00000000000E+00  0.00000000000E+00  0.14669552829E+03  0.14669552829E+03  0.00000000000E+00 0.  1.
         -2   -1    0    0    0  501 -0.00000000000E+00 -0.00000000000E+00 -0.15329391288E+02  0.15329391288E+02  0.00000000000E+00 0. -1.
         21    1    1    2  502  501 -0.32223779080E+02 -0.25276165403E+02  0.10652326108E+03  0.11412476342E+03  0.00000000000E+00 0.  1.
         21    1    1    2  503  502  0.32223779080E+02  0.25276165403E+02  0.24842875929E+02  0.47900156159E+02  0.00000000000E+00 0. -1.
</event>
<event>
 4    1  0.5740469E+002  0.4489458E+02  0.7546771E-02  0.1321967E+00
          2   -1    0    0  503    0  0.00000000000E+00  0.00000000000E+00  0.27190886699E+02  0.27190886699E+02  0.00000000000E+00 0. -1.
         -2   -1    0    0    0  501 -0.00000000000E+00 -0.00000000000E+00 -0.14179854289E+03  0.14179854289E+03  0.00000000000E+00 0.  1.
         21    1    1    2  502  501  0.41874956407E+02 -0.16186755242E+02 -0.11567565542E+03  0.12408215132E+03  0.00000000000E+00 0.  1.
         21    1    1    2  503  502 -0.41874956407E+02  0.16186755242E+02  0.10679992273E+01  0.44907278271E+02  0.00000000000E+00 0. -1.
</event>
<event>
 4    1  0.5740469E+002  0.2415020E+02  0.7546771E-02  0.1478539E+00
          2   -1    0    0  502    0  0.00000000000E+00  0.00000000000E+00  0.26732481649E+03  0.26732481649E+03  0.00000000000E+00 0.  1.
         -2   -1    0    0    0  501 -0.00000000000E+00 -0.00000000000E+00 -0.42335400214E+01  0.42335400214E+01  0.00000000000E+00 0. -1.
         21    1    1    2  502  503  0.18938184923E+02 -0.14985902994E+02  0.22607120606E+03  0.22735747700E+03  0.00000000000E+00 0.  1.
         21    1    1    2  503  501 -0.18938184923E+02  0.14985902994E+02  0.37020070401E+02  0.44200879508E+02  0.00000000000E+00 0. -1.
</event>
<event>
 4    1  0.5740469E+002  0.2244133E+02  0.7546771E-02  0.1499635E+00
          2   -1    0    0  503    0  0.00000000000E+00  0.00000000000E+00  0.52879700070E+02  0.52879700070E+02  0.00000000000E+00 0. -1.
         -2   -1    0    0    0  501 -0.00000000000E+00 -0.00000000000E+00 -0.15197411738E+02  0.15197411738E+02  0.00000000000E+00 0.  1.
         21    1    1    2  502  501 -0.68378452546E+01 -0.21374222459E+02 -0.19566699145E+01  0.22526474882E+02  0.00000000000E+00 0.  1.
         21    1    1    2  503  502  0.68378452546E+01  0.21374222459E+02  0.39638958247E+02  0.45550636926E+02  0.00000000000E+00 0. -1.
</event>
<event>
 4    1  0.5740469E+002  0.3131611E+02  0.7546771E-02  0.1408494E+00
          2   -1    0    0  503    0  0.00000000000E+00  0.00000000000E+00  0.49380196795E+02  0.49380196795E+02  0.00000000000E+00 0.  1.
         -2   -1    0    0    0  501 -0.00000000000E+00 -0.00000000000E+00 -0.19982604370E+02  0.19982604370E+02  0.00000000000E+00 0. -1.
         21    1    1    2  502  501  0.22448786916E+02 -0.21834619932E+02  0.11983994516E+02  0.33530803542E+02  0.00000000000E+00 0. -1.
         21    1    1    2  503  502 -0.22448786916E+02  0.21834619932E+02  0.17413597909E+02  0.35831997624E+02  0.00000000000E+00 0.  1.
</event>
<event>
 4    1  0.5740469E+002  0.2234411E+02  0.7546771E-02  0.1500903E+00
          2   -1    0    0  502    0  0.00000000000E+00  0.00000000000E+00  0.63464751277E+01  0.63464751277E+01  0.00000000000E+00 0. -1.
         -2   -1    0    0    0  501 -0.00000000000E+00 -0.00000000000E+00 -0.21849875252E+03  0.21849875252E+03  0.00000000000E+00 0.  1.
         21    1    1    2  502  503  0.22201667089E+02  0.25189872025E+01 -0.16140501863E+02  0.27564018547E+02  0.00000000000E+00 0. -1.
         21    1    1    2  503  501 -0.22201667089E+02 -0.25189872025E+01 -0.19601177553E+03  0.19728120910E+03  0.00000000000E+00 0.  1.
</event>
<event>
 4    1  0.5740469E+002  0.2226652E+02  0.7546771E-02  0.1501920E+00
          2   -1    0    0  502    0  0.00000000000E+00  0.00000000000E+00  0.12062789752E+04  0.12062789752E+04  0.00000000000E+00 0. -1.
         -2   -1    0    0    0  501 -0.00000000000E+00 -0.00000000000E+00 -0.54573874315E+00  0.54573874315E+00  0.00000000000E+00 0.  1.
         21    1    1    2  502  503 -0.20628059204E+02 -0.83833898239E+01  0.30305751583E+03  0.30387440819E+03  0.00000000000E+00 0.  1.
         21    1    1    2  503  501  0.20628059204E+02  0.83833898239E+01  0.90267572066E+03  0.90295030579E+03  0.00000000000E+00 0. -1.
</event>
<event>
 4    1  0.5740469E+002  0.2624104E+02  0.7546771E-02  0.1455385E+00
          2   -1    0    0  503    0  0.00000000000E+00  0.00000000000E+00  0.64246173280E+01  0.64246173280E+01  0.00000000000E+00 0.  1.
         -2   -1    0    0    0  501 -0.00000000000E+00 -0.00000000000E+00 -0.80646242712E+03  0.80646242712E+03  0.00000000000E+00 0. -1.
         21    1    1    2  502  501  0.22214097341E+02 -0.13968744950E+02 -0.77849144351E+03  0.77893357841E+03  0.00000000000E+00 0. -1.
         21    1    1    2  503  502 -0.22214097341E+02  0.13968744950E+02 -0.21546366286E+02  0.33953466042E+02  0.00000000000E+00 0.  1.
</event>
<event>
 4    1  0.5740469E+002  0.2966268E+02  0.7546771E-02  0.1422551E+00
          2   -1    0    0  502    0  0.00000000000E+00  0.00000000000E+00  0.12449091294E+04  0.12449091294E+04  0.00000000000E+00 0. -1.
         -2   -1    0    0    0  501 -0.00000000000E+00 -0.00000000000E+00 -0.28930748864E+01  0.28930748864E+01  0.00000000000E+00 0.  1.
         21    1    1    2  502  503  0.13837732303E+02 -0.26237216036E+02  0.11633715673E+04  0.11637496630E+04  0.00000000000E+00 0. -1.
         21    1    1    2  503  501 -0.13837732303E+02  0.26237216036E+02  0.78644487149E+02  0.84052541304E+02  0.00000000000E+00 0.  1.
</event>
<event>
 4    1  0.5740469E+002  0.2137198E+02  0.7546771E-02  0.1514020E+00
          2   -1    0    0  503    0  0.00000000000E+00  0.00000000000E+00  0.38009890892E+03  0.38009890892E+03  0.00000000000E+00 0.  1.
         -2   -1    0    0    0  501 -0.00000000000E+00 -0.00000000000E+00 -0.41318497885E+01  0.41318497885E+01  0.00000000000E+00 0. -1.
         21    1    1    2  502  501  0.78560448577E+00 -0.21357536701E+02  0.26199582468E+02  0.33810940091E+02  0.00000000000E+00 0. -1.
         21    1    1    2  503  502 -0.78560448577E+00  0.21357536701E+02  0.34976747666E+03  0.35041981862E+03  0.00000000000E+00 0.  1.
</event>
<event>
 4    1  0.5740469E+002  0.3346295E+02  0.7546771E-02  0.1391703E+00
          2   -1    0    0  503    0  0.00000000000E+00  0.00000000000E+00  0.43155628618E+03  0.43155628618E+03  0.00000000000E+00 0. -1.
         -2   -1    0    0    0  501 -0.00000000000E+00 -0.00000000000E+00 -0.34930686231E+01  0.34930686231E+01  0.00000000000E+00 0.  1.
         21    1    1    2  502  501 -0.16177306538E+02 -0.29292729703E+02  0.10371864097E+03  0.10898314432E+03  0.00000000000E+00 0.  1.
         21    1    1    2  503  502  0.16177306538E+02  0.29292729703E+02  0.32434457659E+03  0.32606621049E+03  0.00000000000E+00 0. -1.
</event>
<event>
 4    1  0.5740469E+002  0.2306314E+02  0.7546771E-02  0.1491707E+00
          2   -1    0    0  503    0  0.00000000000E+00  0.00000000000E+00  0.14286114461E+03  0.14286114461E+03  0.00000000000E+00 0.  1.
         -2   -1    0    0    0  501 -0.00000000000E+00 -0.00000000000E+00 -0.42949869430E+02  0.42949869430E+02  0.00000000000E+00 0. -1.
         21    1    1    2  502  501  0.22501211115E+02 -0.50600097939E+01 -0.38831684538E+02  0.45164232804E+02  0.00000000000E+00 0. -1.
         21    1    1    2  503  502 -0.22501211115E+02  0.50600097939E+01  0.13874295972E+03  0.14064678124E+03  0.00000000000E+00 0.  1.
</event>
<event>
 4    1  0.5740469E+002  0.2941253E+02  0.7546771E-02  0.1424771E+00
          2   -1    0    0  502    0  0.00000000000E+00  0.00000000000E+00  0.22241481899E+03  0.22241481899E+03  0.00000000000E+00 0.  1.
         -2   -1    0    0    0  501 -0.00000000000E+00 -0.00000000000E+00 -0.50656723122E+01  0.50656723122E+01  0.00000000000E+00 0. -1.
         21    1    1    2  502  503 -0.21687475139E+02 -0.19868327713E+02  0.16347942213E+03  0.16610423981E+03  0.00000000000E+00 0. -1.
         21    1    1    2  503  501  0.21687475139E+02  0.19868327713E+02  0.53869724551E+02  0.61376251492E+02  0.00000000000E+00 0.  1.
</event>
<event>
 4    1  0.5740469E+002  0.2622496E+02  0.7546771E-02  0.1455553E+00
          2   -1    0    0  503    0  0.00000000000E+00  0.00000000000E+00  0.28433163565E+02  0.28433163565E+02  0.00000000000E+00 0.  1.
         -2   -1    0    0    0  501 -0.00000000000E+00 -0.00000000000E+00 -0.29921033953E+02  0.29921033953E+02  0.00000000000E+00 0. -1.
         21    1    1    2  502  501  0.97958775191E+01  0.24326722978E+02 -0.13515271166E+02  0.29502732448E+02  0.00000000000E+00 0. -1.
         21    1    1    2  503  502 -0.97958775191E+01 -0.24326722978E+02  0.12027400779E+02  0.28851465070E+02  0.00000000000E+00 0.  1.
</event>
<event>
 4    1  0.5740469E+002  0.3535506E+02  0.7546771E-02  0.1378084E+00
          2   -1    0    0  502    0  0.00000000000E+00  0.00000000000E+00  0.49728170113E+02  0.49728170113E+02  0.00000000000E+00 0. -1.
         -2   -1    0    0    0  501 -0.00000000000E+00 -0.00000000000E+00 -0.31500265282E+02  0.31500265282E+02  0.00000000000E+00 0.  1.
         21    1    1    2  502  503 -0.23181030639E+02 -0.26694946101E+02  0.27369134669E+02  0.44710735415E+02  0.00000000000E+00 0. -1.
         21    1    1    2  503  501  0.23181030639E+02  0.26694946101E+02 -0.91412298387E+01  0.36517699980E+02  0.00000000000E+00 0.  1.
</event>
<event>
 4    1  0.5740469E+002  0.2205580E+02  0.7546771E-02  0.1504708E+00
          2   -1    0    0  503    0  0.00000000000E+00  0.00000000000E+00  0.13381173500E+02  0.13381173500E+02  0.00000000000E+00 0. -1.
         -2   -1    0    0    0  501 -0.00000000000E+00 -0.00000000000E+00 -0.50232554082E+02  0.50232554082E+02  0.00000000000E+00 0.  1.
         21    1    1    2  502  501 -0.15805588703E+02 -0.15383156862E+02 -0.35144353020E+02  0.41491971495E+02  0.00000000000E+00 0. -1.
         21    1    1    2  503  502  0.15805588703E+02  0.15383156862E+02 -0.17070275615E+01  0.22121756087E+02  0.00000000000E+00 0.  1.
</event>
<event>
 4    1  0.5740469E+002  0.2810062E+02  0.7546771E-02  0.1436855E+00
          2   -1    0    0  502    0  0.00000000000E+00  0.00000000000E+00  0.26332719068E+01  0.26332719068E+01  0.00000000000E+00 0.  1.
         -2   -1    0    0    0  501 -0.00000000000E+00 -0.00000000000E+00 -0.75435438806E+03  0.75435438806E+03  0.00000000000E+00 0. -1.
         21    1    1    2  502  503  0.27425371860E+02  0.61232400619E+01 -0.82075625571E+02  0.86752829369E+02  0.00000000000E+00 0.  1.
         21    1    1    2  503  501 -0.27425371860E+02 -0.61232400619E+01 -0.66964549058E+03  0.67023483060E+03  0.00000000000E+00 0. -1.
</event>
<event>
 4    1  0.5740469E+002  0.3128021E+02  0.7546771E-02  0.1408788E+00
          2   -1    0    0  503    0  0.00000000000E+00  0.00000000000E+00  0.59277714737E+03  0.59277714737E+03  0.00000000000E+00 0.  1.
         -2   -1    0    0    0  501 -0.00000000000E+00 -0.00000000000E+00 -0.22144505222E+01  0.22144505222E+01  0.00000000000E+00 0. -1.
         21    1    1    2  502  501  0.31277423895E+02 -0.41745972186E+00  0.14516740592E+03  0.14849925003E+03  0.00000000000E+00 0. -1.
         21    1    1    2  503  502 -0.31277423895E+02  0.41745972186E+00  0.44539529093E+03  0.44649234786E+03  0.00000000000E+00 0.  1.
</event>
<event>
 4    1  0.5740469E+002  0.2134848E+02  0.7546771E-02  0.1514347E+00
          2   -1    0    0  502    0  0.00000000000E+00  0.00000000000E+00  0.16200864356E+03  0.16200864356E+03  0.00000000000E+00 0. -1.
         -2   -1    0    0    0  501 -0.00000000000E+00 -0.00000000000E+00 -0.45411701114E+01  0.45411701114E+01  0.00000000000E+00 0.  1.
         21    1    1    2  502  503 -0.72019978064E+00 -0.21336331257E+02  0.13010287248E+03  0.13184276676E+03  0.00000000000E+00 0. -1.
         21    1    1    2  503  501  0.72019978064E+00  0.21336331257E+02  0.27364600971E+02  0.34707046914E+02  0.00000000000E+00 0.  1.
</event>
<event>
 4    1  0.5740469E+002  0.2814964E+02  0.7546771E-02  0.1436389E+00
          2   -1    0    0  502    0  0.00000000000E+00  0.00000000000E+00  0.72740312776E+02  0.72740312776E+02  0.00000000000E+00 0.  1.
         -2   -1    0    0    0  501 -0.00000000000E+00 -0.00000000000E+00 -0.10932517826E+02  0.10932517826E+02  0.00000000000E+00 0. -1.
         21    1    1    2  502  503  0.51009598420E+01  0.27683617504E+02  0.33400653777E+02  0.43680729643E+02  0.00000000000E+00 0.  1.
         21    1    1    2  503  501 -0.51009598420E+01 -0.27683617504E+02  0.28407141173E+02  0.39992100958E+02  0.00000000000E+00 0. -1.
</event>
<event>
 4    1  0.5740469E+002  0.2028133E+02  0.7546771E-02  0.1529778E+00
          2   -1    0    0  502    0  0.00000000000E+00  0.00000000000E+00  0.26112264082E+02  0.26112264082E+02  0.00000000000E+00 0. -1.
         -2   -1    0    0    0  501 -0.00000000000E+00 -0.00000000000E+00 -0.25805240400E+02  0.25805240400E+02  0.00000000000E+00 0.  1.
         21    1    1    2  502  503  0.17971794441E+02 -0.93993089564E+01  0.16355673059E+02  0.26054566692E+02  0.00000000000E+00 0. -1.
         21    1    1    2  503  501 -0.17971794441E+02  0.93993089564E+01 -0.16048649377E+02  0.25862937790E+02  0.00000000000E+00 0.  1.
</event>
<event>
 4    1  0.5740469E+002  0.3858866E+02  0.7546771E-02  0.1356961E+00
          2   -1    0    0  502    0  0.00000000000E+00  0.00000000000E+00  0.15335386565E+04  0.15335386565E+04  0.00000000000E+00 0.  1.
         -2   -1    0    0    0  501 -0.00000000000E+00 -0.00000000000E+00 -0.12112609821E+01  0.12112609821E+01  0.00000000000E+00 0. -1.
         21    1    1    2  502  503  0.37862225955E+02  0.74522897386E+01  0.11079222079E+04  0.11085940210E+04  0.00000000000E+00 0. -1.
         21    1    1    2  503  501 -0.37862225955E+02 -0.74522897386E+01  0.42440518763E+03  0.42615589643E+03  0.00000000000E+00 0.  1.
</event>
<event>
 4    1  0.5740469E+002  0.4288743E+02  0.7546771E-02  0.1332348E+00
          2   -1    0    0  502    0  0.00000000000E+00  0.00000000000E+00  0.44614784304E+03  0.44614784304E+03  0.00000000000E+00 0.  1.
         -2   -1    0    0    0  501 -0.00000000000E+00 -0.00000000000E+00 -0.57141123035E+01  0.57141123035E+01  0.00000000000E+00 0. -1.
         21    1    1    2  502  503  0.22690644713E+02  0.36393218856E+02  0.33944901007E+03  0.34214757368E+03  0.00000000000E+00 0.  1.
         21    1    1    2  503  501 -0.22690644713E+02 -0.36393218856E+02  0.10098472067E+03  0.10971438167E+03  0.00000000000E+00 0. -1.
</event>
<event>
 4    1  0.5740469E+002  0.2993341E+02  0.7546771E-02  0.1420176E+00
          2   -1    0    0  503    0  0.00000000000E+00  0.00000000000E+00  0.66694137975E+03  0.66694137975E+03  0.00000000000E+00 0. -1.
         -2   -1    0    0    0  501 -0.00000000000E+00 -0.00000000000E+00 -0.46186387106E+01  0.46186387106E+01  0.00000000000E+00 0.  1.
         21    1    1    2  502  501  0.25045320085E+01  0.29828449717E+02  0.48403085080E+02  0.56911051109E+02  0.00000000000E+00 0.  1.
         21    1    1    2  503  502 -0.25045320085E+01 -0.29828449717E+02  0.61391965596E+03  0.61464896735E+03  0.00000000000E+00 0. -1.
</event>
<event>
 4    1  0.5740469E+002  0.2721981E+02  0.7546771E-02  0.1445412E+00
          2   -1    0    0  502    0  0.00000000000E+00  0.00000000000E+00  0.16292878456E+03  0.16292878456E+03  0.00000000000E+00 0. -1.
         -2   -1    0    0    0  501 -0.00000000000E+00 -0.00000000000E+00 -0.52398842026E+01  0.52398842026E+01  0.00000000000E+00 0.  1.
         21    1    1    2  502  503  0.25871303723E+02  0.84613201785E+01  0.10940973867E+03  0.11274488552E+03  0.00000000000E+00 0.  1.
         21    1    1    2  503  501 -0.25871303723E+02 -0.84613201785E+01  0.48279161686E+02  0.55423783239E+02  0.00000000000E+00 0. -1.
</event>
<event>
 4    1  0.5740469E+002  0.2370404E+02  0.7546771E-02  0.1483842E+00
          2   -1    0    0  502    0  0.00000000000E+00  0.00000000000E+00  0.24999505876E+01  0.24999505876E+01  0.00000000000E+00 0.  1.
         -2   -1    0    0    0  501 -0.00000000000E+00 -0.00000000000E+00 -0.25534771008E+03  0.25534771008E+03  0.00000000000E+00 0. -1.
         21    1    1    2  502  503  0.15303875360E+01 -0.23654581636E+02 -0.81800525668E+02  0.85165763767E+02  0.00000000000E+00 0. -1.
         21    1    1    2  503  501 -0.15303875360E+01  0.23654581636E+02 -0.17104723383E+03  0.17268189690E+03  0.00000000000E+00 0.  1.
</event>
<event>
 4    1  0.5740469E+002  0.2306693E+02  0.7546771E-02  0.1491659E+00
          2   -1    0    0  502    0  0.00000000000E+00  0.00000000000E+00  0.11226183998E+04  0.11226183998E+04  0.00000000000E+00 0.  1.
         -2   -1    0    0    0  501 -0.00000000000E+00 -0.00000000000E+00 -0.92582919509E+00  0.92582919509E+00  0.00000000000E+00 0. -1.
         21    1    1    2  502  503 -0.19069408727E+02 -0.12978473717E+02  0.95330877143E+03  0.95358780236E+03  0.00000000000E+00 0.  1.
         21    1    1    2  503  501  0.19069408727E+02  0.12978473717E+02  0.16838379920E+03  0.16995642666E+03  0.00000000000E+00 0. -1.
</event>
<event>
 4    1  0.5740469E+002  0.2382736E+02  0.7546771E-02  0.1482362E+00
          2   -1    0    0  503    0  0.00000000000E+00  0.00000000000E+00  0.12734668151E+04  0.12734668151E+04  0.00000000000E+00 0. -1.
         -2   -1    0    0    0  501 -0.00000000000E+00 -0.00000000000E+00 -0.48092675586E+00  0.48092675586E+00  0.00000000000E+00 0.  1.
         21    1    1    2  502  501 -0.17641734806E+01  0.23761955749E+02  0.46440558613E+03  0.46501644195E+03  0.00000000000E+00 0.  1.
         21    1    1    2  503  502  0.17641734806E+01 -0.23761955749E+02  0.80858030219E+03  0.80893129989E+03  0.00000000000E+00 0. -1.
</event>
<event>
 4    1  0.5740469E+002  0.2369609E+02  0.7546771E-02  0.1483938E+00
          2   -1    0    0  502    0  0.00000000000E+00  0.00000000000E+00  0.26039017146E+03  0.26039017146E+03  0.00000000000E+00 0.  1.
         -2   -1    0    0    0  501 -0.00000000000E+00 -0.00000000000E+00 -0.49605464036E+01  0.49605464036E+01  0.00000000000E+00 0. -1.
         21    1    1    2  502  503 -0.21014730188E+02  0.10949233953E+02  0.22746783881E+03  0.22869875886E+03  0.00000000000E+00 0.  1.
         21    1    1    2  503  501  0.21014730188E+02 -0.10949233953E+02  0.27961786244E+02  0.36651959006E+02  0.00000000000E+00 0. -1.
</event>
<event>
 4    1  0.5740469E+002  0.8040517E+02  0.7546771E-02  0.1202910E+00
          2   -1    0    0  503    0  0.00000000000E+00  0.00000000000E+00  0.45807053397E+03  0.45807053397E+03  0.00000000000E+00 0. -1.
         -2   -1    0    0    0  501 -0.00000000000E+00 -0.00000000000E+00 -0.26991630427E+02  0.26991630427E+02  0.00000000000E+00 0.  1.
         21    1    1    2  502  501  0.80349642431E+02 -0.29877052673E+01  0.48014778930E+02  0.93650469391E+02  0.00000000000E+00 0.  1.
         21    1    1    2  503  502 -0.80349642431E+02  0.29877052673E+01  0.38306412461E+03  0.39141169500E+03  0.00000000000E+00 0. -1.
</event>
<event>
 4    1  0.5740469E+002  0.2062010E+02  0.7546771E-02  0.1524759E+00
          2   -1    0    0  502    0  0.00000000000E+00  0.00000000000E+00  0.86588044737E+02  0.86588044737E+02  0.00000000000E+00 0.  1.
         -2   -1    0    0    0  501 -0.00000000000E+00 -0.00000000000E+00 -0.53506416988E+01  0.53506416988E+01  0.00000000000E+00 0. -1.
         21    1    1    2  502  503 -0.19965595058E+02 -0.51539945298E+01  0.53803476456E+02  0.57619464804E+02  0.00000000000E+00 0.  1.
         21    1    1    2  503  501  0.19965595058E+02  0.51539945298E+01  0.27433926582E+02  0.34319221631E+02  0.00000000000E+00 0. -1.
</event>
<event>
 4    1  0.5740469E+002  0.2236865E+02  0.7546771E-02  0.1500582E+00
          2   -1    0    0  502    0  0.00000000000E+00  0.00000000000E+00  0.31142148007E+02  0.31142148007E+02  0.00000000000E+00 0.  1.
         -2   -1    0    0    0  501 -0.00000000000E+00 -0.00000000000E+00 -0.18602047787E+02  0.18602047787E+02  0.00000000000E+00 0. -1.
         21    1    1    2  502  503 -0.21017031094E+02 -0.76577354493E+01  0.15452047677E+02  0.27186803520E+02  0.00000000000E+00 0.  1.
         21    1    1    2  503  501  0.21017031094E+02  0.76577354493E+01 -0.29119474563E+01  0.22557392274E+02  0.00000000000E+00 0. -1.
</event>
<event>
 4    1  0.5740469E+002  0.2680912E+02  0.7546771E-02  0.1449535E+00
          2   -1    0    0  503    0  0.00000000000E+00  0.00000000000E+00  0.16775609349E+03  0.16775609349E+03  0.00000000000E+00 0.  1.
         -2   -1    0    0    0  501 -0.00000000000E+00 -0.00000000000E+00 -0.62926686681E+01  0.62926686681E+01  0.00000000000E+00 0. -1.
         21    1    1    2  502  501 -0.23527973998E+02 -0.12851591430E+02  0.31568777977E+02  0.41416382093E+02  0.00000000000E+00 0. -1.
         21    1    1    2  503  502  0.23527973998E+02  0.12851591430E+02  0.12989464684E+03  0.13263238006E+03  0.00000000000E+00 0.  1.
</event>
<event>
 4    1  0.5740469E+002  0.2017351E+02  0.7546771E-02  0.1531400E+00
          2   -1    0    0  503    0  0.00000000000E+00  0.00000000000E+00  0.95434588595E+03  0.95434588595E+03  0.00000000000E+00 0. -1.
         -2   -1    0    0    0  501 -0.00000000000E+00 -0.00000000000E+00 -0.46276214104E+00  0.46276214104E+00  0.00000000000E+00 0.  1.
         21    1    1    2  502  501 -0.98396347422E+01  0.17611129781E+02  0.34318991330E+03  0.34378232487E+03  0.00000000000E+00 0.  1.
         21    1    1    2  503  502  0.98396347422E+01 -0.17611129781E+02  0.61069321051E+03  0.61102632322E+03  0.00000000000E+00 0. -1.
</event>
<event>
 4    1  0.5740469E+002  0.4640563E+02  0.7546771E-02  0.1314557E+00
          2   -1    0    0  502    0  0.00000000000E+00  0.00000000000E+00  0.55993813871E+03  0.55993813871E+03  0.00000000000E+00 0.  1.
         -2   -1    0    0    0  501 -0.00000000000E+00 -0.00000000000E+00 -0.38468792623E+01  0.38468792623E+01  0.00000000000E+00 0. -1.
         21    1    1    2  502  503 -0.23750727207E+02 -0.39867091739E+02  0.28247727436E+03  0.28626367667E+03  0.00000000000E+00 0. -1.
         21    1    1    2  503  501  0.23750727207E+02  0.39867091739E+02  0.27361398508E+03  0.27752134130E+03  0.00000000000E+00 0.  1.
</event>
<event>
 4    1  0.5740469E+002  0.2272655E+02  0.7546771E-02  0.1495961E+00
          2   -1    0    0  503    0  0.00000000000E+00  0.00000000000E+00  0.11647729954E+04  0.11647729954E+04  0.00000000000E+00 0.  1.
         -2   -1    0    0    0  501 -0.00000000000E+00 -0.00000000000E+00 -0.55096562292E+00  0.55096562292E+00  0.00000000000E+00 0. -1.
         21    1    1    2  502  501  0.80818801616E+01  0.21240985450E+02  0.32469892412E+03  0.32549329881E+03  0.00000000000E+00 0.  1.
         21    1    1    2  503  502 -0.80818801616E+01 -0.21240985450E+02  0.83952310569E+03  0.83983066224E+03  0.00000000000E+00 0. -1.
</event>
<event>
 4    1  0.5740469E+002  0.2899222E+02  0.7546771E-02  0.1428561E+00
          2   -1    0    0  502    0  0.00000000000E+00  0.00000000000E+00  0.33346134195E+03  0.33346134195E+03  0.00000000000E+00 0.  1.
         -2   -1    0    0    0  501 -0.00000000000E+00 -0.00000000000E+00 -0.41896029817E+02  0.41896029817E+02  0.00000000000E+00 0. -1.
         21    1    1    2  502  503  0.11148130169E+01 -0.28970778781E+02  0.32772791350E+03  0.32900780252E+03  0.00000000000E+00 0.  1.
         21    1    1    2  503  501 -0.11148130169E+01  0.28970778781E+02 -0.36162601371E+02  0.46349569244E+02  0.00000000000E+00 0. -1.
</event>
<event>
 4    1  0.5740469E+002  0.2379502E+02  0.7546771E-02  0.1482749E+00
          2   -1    0    0  503    0  0.00000000000E+00  0.00000000000E+00  0.32721718338E+03  0.32721718338E+03  0.00000000000E+00 0.  1.
         -2   -1    0    0    0  501 -0.00000000000E+00 -0.00000000000E+00 -0.21146771810E+01  0.21146771810E+01  0.00000000000E+00 0. -1.
         21    1    1    2  502  501  0.63239562404E+01 -0.22939280506E+02  0.92352807105E+02  0.95368988632E+02  0.00000000000E+00 0. -1.
         21    1    1    2  503  502 -0.63239562404E+01  0.22939280506E+02  0.23274969909E+03  0.23396287193E+03  0.00000000000E+00 0.  1.
</event>
<event>
 4    1  0.5740469E+002  0.2192211E+02  0.7546771E-02  0.1506496E+00
          2   -1    0    0  502    0  0.00000000000E+00  0.00000000000E+00  0.43219292430E+03  0.43219292430E+03  0.00000000000E+00 0. -1.
         -2   -1    0    0    0  501 -0.00000000000E+00 -0.00000000000E+00 -0.23172628215E+01  0.23172628215E+01  0.00000000000E+00 0.  1.
         21    1    1    2  502  503  0.21797493423E+02 -0.23340992208E+01  0.37162428448E+03  0.37227031517E+03  0.00000000000E+00 0.  1.
         21    1    1    2  503  501 -0.21797493423E+02  0.23340992208E+01  0.58251376989E+02  0.62239871946E+02  0.00000000000E+00 0. -1.
</event>
<event>
 4    1  0.5740469E+002  0.2561236E+02  0.7546771E-02  0.1462068E+00
          2   -1    0    0  503    0  0.00000000000E+00  0.00000000000E+00  0.15863065016E+02  0.15863065016E+02  0.00000000000E+00 0.  1.
         -2   -1    0    0    0  501 -0.00000000000E+00 -0.00000000000E+00 -0.44053396260E+02  0.44053396260E+02  0.00000000000E+00 0. -1.
         21    1    1    2  502  501 -0.21857501689E+02 -0.13350760387E+02 -0.66786419540E+01  0.26468801282E+02  0.00000000000E+00 0.  1.
         21    1    1    2  503  502  0.21857501689E+02  0.13350760387E+02 -0.21511689290E+02  0.33447659994E+02  0.00000000000E+00 0. -1.
</event>
<event>
 4    1  0.5740469E+002  0.2732121E+02  0.7546771E-02  0.1444408E+00
          2   -1    0    0  502    0  0.00000000000E+00  0.00000000000E+00  0.59673794219E+03  0.59673794219E+03  0.00000000000E+00 0. -1.
         -2   -1    0    0    0  501 -0.00000000000E+00 -0.00000000000E+00 -0.15649592024E+03  0.15649592024E+03  0.00000000000E+00 0.  1.
         21    1    1    2  502  503  0.39213018551E+01 -0.27038345979E+02  0.59522976064E+03  0.59585645647E+03  0.00000000000E+00 0. -1.
         21    1    1    2  503  501 -0.39213018551E+01  0.27038345979E+02 -0.15498773869E+03  0.15737740596E+03  0.00000000000E+00 0.  1.
</event>
<event>
 4    1  0.5740469E+002  0.2193224E+02  0.7546771E-02  0.1506360E+00
          2   -1    0    0  503    0  0.00000000000E+00  0.00000000000E+00  0.61405233332E+02  0.61405233332E+02  0.00000000000E+00 0. -1.
         -2   -1    0    0    0  501 -0.00000000000E+00 -0.00000000000E+00 -0.29677931599E+02  0.29677931599E+02  0.00000000000E+00 0.  1.
         21    1    1    2  502  501 -0.14477111085E+02 -0.16475324306E+02 -0.23207917214E+02  0.31931653226E+02  0.00000000000E+00 0.  1.
         21    1    1    2  503  502  0.14477111085E+02  0.16475324306E+02  0.54935218947E+02  0.59151511706E+02  0.00000000000E+00 0. -1.
</event>
<event>
 4    1  0.5740469E+002  0.3789419E+02  0.7546771E-02  0.1361288E+00
          2   -1    0    0  503    0  0.00000000000E+00  0.00000000000E+00  0.75262045133E+03  0.75262045133E+03  0.00000000000E+00 0.  1.
         -2   -1    0    0    0  501 -0.00000000000E+00 -0.00000000000E+00 -0.19098146196E+01  0.19098146196E+01  0.00000000000E+00 0. -1.
         21    1    1    2  502  501 -0.96036276939E+00  0.37882023566E+02  0.36360002715E+03  0.36556935012E+03  0.00000000000E+00 0. -1.
         21    1    1    2  503  502  0.96036276939E+00 -0.37882023566E+02  0.38711060956E+03  0.38896091583E+03  0.00000000000E+00 0.  1.
</event>
<event>
 4    1  0.5740469E+002  0.2099093E+02  0.7546771E-02  0.1519394E+00
          2   -1    0    0  503    0  0.00000000000E+00  0.00000000000E+00  0.14606294522E+04  0.14606294522E+04  0.00000000000E+00 0.  1.
         -2   -1    0    0    0  501 -0.00000000000E+00 -0.00000000000E+00 -0.67441179439E+00  0.67441179439E+00  0.00000000000E+00 0. -1.
         21    1    1    2  502  501  0.14743669659E+02  0.14941332986E+02  0.18678280210E+03  0.18795859753E+03  0.00000000000E+00 0. -1.
         21    1    1    2  503  502 -0.14743669659E+02 -0.14941332986E+02  0.12731722383E+04  0.12733452665E+04  0.00000000000E+00 0.  1.
</event>
<event>
 4    1  0.5740469E+002  0.2454506E+02  0.7546771E-02  0.1473958E+00
          2   -1    0    0  502    0  0.00000000000E+00  0.00000000000E+00  0.21201010780E+03  0.21201010780E+03  0.00000000000E+00 0.  1.
         -2   -1    0    0    0  501 -0.00000000000E+00 -0.00000000000E+00 -0.76679155187E+02  0.76679155187E+02  0.00000000000E+00 0. -1.
         21    1    1    2  502  503 -0.23111267302E+02 -0.82661544875E+01  0.20931022014E+03  0.21074446195E+03  0.00000000000E+00 0.  1.
         21    1    1    2  503  501  0.23111267302E+02  0.82661544875E+01 -0.73979267523E+02  0.77944801043E+02  0.00000000000E+00 0. -1.
</event>
<event>
 4    1  0.5740469E+002  0.2796148E+02  0.7546771E-02  0.1438182E+00
          2   -1    0    0  503    0  0.00000000000E+00  0.00000000000E+00  0.18122835263E+03  0.18122835263E+03  0.00000000000E+00 0. -1.
         -2   -1    0    0    0  501 -0.00000000000E+00 -0.00000000000E+00 -0.44801367966E+01  0.44801367966E+01  0.00000000000E+00 0.  1.
         21    1    1    2  502  501 -0.24114404355E+02  0.14154149758E+02  0.10624746830E+03  0.10986523096E+03  0.00000000000E+00 0. -1.
         21    1    1    2  503  502  0.24114404355E+02 -0.14154149758E+02  0.70500747537E+02  0.75843258475E+02  0.00000000000E+00 0.  1.
</event>
<event>
 4    1  0.5740469E+002  0.2002986E+02  0.7546771E-02  0.1533580E+00
          2   -1    0    0  503    0  0.00000000000E+00  0.00000000000E+00  0.14392453029E+04  0.14392453029E+04  0.00000000000E+00 0.  1.
         -2   -1    0    0    0  501 -0.00000000000E+00 -0.00000000000E+00 -0.54980305524E+00  0.54980305524E+00  0.00000000000E+00 0. -1.
         21    1    1    2  502  501 -0.33991432917E+01  0.19739324651E+02  0.21388259348E+03  0.21481843242E+03  0.00000000000E+00 0. -1.
         21    1    1    2  503  502  0.33991432917E+01 -0.19739324651E+02  0.12248129064E+04  0.12249766736E+04  0.00000000000E+00 0.  1.
</event>
<event>
 4    1 -0.5740469E+002  0.5000627E+02  0.7546771E-02  0.1298145E+00
          2   -1    0    0  502    0  0.00000000000E+00  0.00000000000E+00  0.54358650724E+00  0.54358650724E+00  0.00000000000E+00 0. -1.
         -2   -1    0    0    0  501 -0.00000000000E+00 -0.00000000000E+00 -0.46808236872E+04  0.46808236872E+04  0.00000000000E+00 0.  1.
         21    1    1    2  502  503 -0.45030678841E+01 -0.49803102018E+02 -0.20330158186E+04  0.20336307299E+04  0.00000000000E+00 0. -1.
         21    1    1    2  503  501  0.45030678841E+01  0.49803102018E+02 -0.26472642820E+04  0.26477365438E+04  0.00000000000E+00 0.  1.
</event>
<event>
 4    1  0.5740469E+002  0.2541405E+02  0.7546771E-02  0.1464224E+00
          2   -1    0    0  503    0  0.00000000000E+00  0.00000000000E+00  0.21086310043E+03  0.21086310043E+03  0.00000000000E+00 0.  1.
         -2   -1    0    0    0  501 -0.00000000000E+00 -0.00000000000E+00 -0.15710540698E+02  0.15710540698E+02  0.00000000000E+00 0. -1.
         21    1    1    2  502  501 -0.10117202771E+02 -0.23313431314E+02 -0.40689141602E+01  0.25737714234E+02  0.00000000000E+00 0. -1.
         21    1    1    2  503  502  0.10117202771E+02  0.23313431314E+02  0.19922147389E+03  0.20083592689E+03  0.00000000000E+00 0.  1.
</event>
<event>
 4    1  0.5740469E+002  0.2988042E+02  0.7546771E-02  0.1420639E+00
          2   -1    0    0  503    0  0.00000000000E+00  0.00000000000E+00  0.11803085550E+04  0.11803085550E+04  0.00000000000E+00 0.  1.
         -2   -1    0    0    0  501 -0.00000000000E+00 -0.00000000000E+00 -0.11961529033E+01  0.11961529033E+01  0.00000000000E+00 0. -1.
         21    1    1    2  502  501  0.24371980397E+02  0.17287165986E+02  0.23138240005E+03  0.23330378177E+03  0.00000000000E+00 0. -1.
         21    1    1    2  503  502 -0.24371980397E+02 -0.17287165986E+02  0.94773000201E+03  0.94820092609E+03  0.00000000000E+00 0.  1.
</event>
<event>
 4    1  0.5740469E+002  0.3410621E+02  0.7546771E-02  0.1386958E+00
          2   -1    0    0  502    0  0.00000000000E+00  0.00000000000E+00  0.16873846327E+04  0.16873846327E+04  0.00000000000E+00 0. -1.
         -2   -1    0    0    0  501 -0.00000000000E+00 -0.00000000000E+00 -0.10969312692E+01  0.10969312692E+01  0.00000000000E+00 0.  1.
         21    1    1    2  502  503 -0.19141951866E+02  0.28227981249E+02  0.13577474117E+04  0.13581757129E+04  0.00000000000E+00 0. -1.
         21    1    1    2  503  501  0.19141951866E+02 -0.28227981249E+02  0.32854028972E+03  0.33030585102E+03  0.00000000000E+00 0.  1.
</event>
<event>
 4    1  0.5740469E+002  0.2354163E+02  0.7546771E-02  0.1485807E+00
          2   -1    0    0  503    0  0.00000000000E+00  0.00000000000E+00  0.78656573417E+01  0.78656573417E+01  0.00000000000E+00 0. -1.
         -2   -1    0    0    0  501 -0.00000000000E+00 -0.00000000000E+00 -0.18303815800E+03  0.18303815800E+03  0.00000000000E+00 0.  1.
         21    1    1    2  502  501  0.15922122714E+02  0.17340543066E+02 -0.16244495077E+03  0.16414192169E+03  0.00000000000E+00 0.  1.
         21    1    1    2  503  502 -0.15922122714E+02 -0.17340543066E+02 -0.12727549884E+02  0.26761893647E+02  0.00000000000E+00 0. -1.
</event>
<event>
 4    1  0.5740469E+002  0.2208003E+02  0.7546771E-02  0.1504385E+00
          2   -1    0    0  502    0  0.00000000000E+00  0.00000000000E+00  0.21810677636E+03  0.21810677636E+03  0.00000000000E+00 0. -1.
         -2   -1    0    0    0  501 -0.00000000000E+00 -0.00000000000E+00 -0.15653987440E+02  0.15653987440E+02  0.00000000000E+00 0.  1.
         21    1    1    2  502  503 -0.12936513153E+02 -0.17893411572E+02  0.20944068941E+03  0.21060135311E+03  0.00000000000E+00 0. -1.
         21    1    1    2  503  501  0.12936513153E+02  0.17893411572E+02 -0.69879004923E+01  0.23159410691E+02  0.00000000000E+00 0.  1.
</event>
<event>
 4    1  0.5740469E+002  0.2168710E+02  0.7546771E-02  0.1509677E+00
          2   -1    0    0  503    0  0.00000000000E+00  0.00000000000E+00  0.15381893538E+01  0.15381893538E+01  0.00000000000E+00 0. -1.
         -2   -1    0    0    0  501 -0.00000000000E+00 -0.00000000000E+00 -0.41610897586E+03  0.41610897586E+03  0.00000000000E+00 0.  1.
         21    1    1    2  502  501  0.14224454926E+02  0.16370553565E+02 -0.31481871335E+03  0.31556481493E+03  0.00000000000E+00 0.  1.
         21    1    1    2  503  502 -0.14224454926E+02 -0.16370553565E+02 -0.99752073157E+02  0.10208235029E+03  0.00000000000E+00 0. -1.
</event>
<event>
 4    1  0.5740469E+002  0.7157671E+02  0.7546771E-02  0.1224880E+00
          2   -1    0    0  503    0  0.00000000000E+00  0.00000000000E+00  0.11918858760E+04  0.11918858760E+04  0.00000000000E+00 0.  1.
         -2   -1    0    0    0  501 -0.00000000000E+00 -0.00000000000E+00 -0.10651122341E+02  0.10651122341E+02  0.00000000000E+00 0. -1.
         21    1    1    2  502  501 -0.67572685819E+02  0.23604198717E+02  0.12626249159E+03  0.14513939110E+03  0.00000000000E+00 0. -1.
         21    1    1    2  503  502  0.67572685819E+02 -0.23604198717E+02  0.10549722621E+04  0.10573976072E+04  0.00000000000E+00 0.  1.
</event>
<event>
 4    1  0.5740469E+002  0.3362595E+02  0.7546771E-02  0.1390489E+00
          2   -1    0    0  503    0  0.00000000000E+00  0.00000000000E+00  0.51784317546E+03  0.51784317546E+03  0.00000000000E+00 0. -1.
         -2   -1    0    0    0  501 -0.00000000000E+00 -0.00000000000E+00 -0.44003069477E+01  0.44003069477E+01  0.00000000000E+00 0.  1.
         21    1    1    2  502  501  0.33134192089E+02  0.57297450824E+01  0.71382525460E+02  0.78906080914E+02  0.00000000000E+00 0.  1.
         21    1    1    2  503  502 -0.33134192089E+02 -0.57297450824E+01  0.44206034305E+03  0.44333740150E+03  0.00000000000E+00 0. -1.
</event>
<event>
 4    1  0.5740469E+002  0.1403703E+03  0.7546771E-02  0.1107918E+00
          2   -1    0    0  502    0  0.00000000000E+00  0.00000000000E+00  0.15624507177E+04  0.15624507177E+04  0.00000000000E+00 0. -1.
         -2   -1    0    0    0  501 -0.00000000000E+00 -0.00000000000E+00 -0.16766778801E+02  0.16766778801E+02  0.00000000000E+00 0.  1.
         21    1    1    2  502  503  0.13180414107E+03  0.48285372064E+02  0.11659590810E+04  0.11743782982E+04  0.00000000000E+00 0. -1.
         21    1    1    2  503  501 -0.13180414107E+03 -0.48285372064E+02  0.37972485790E+03  0.40483919829E+03  0.00000000000E+00 0.  1.
</event>
<event>
 4    1  0.5740469E+002  0.2459919E+02  0.7546771E-02  0.1473338E+00
          2   -1    0    0  503    0  0.00000000000E+00  0.00000000000E+00  0.26243164166E+02  0.26243164166E+02  0.00000000000E+00 0. -1.
         -2   -1    0    0    0  501 -0.00000000000E+00 -0.00000000000E+00 -0.25449832568E+02  0.25449832568E+02  0.00000000000E+00 0.  1.
         21    1    1    2  502  501 -0.16178441082E+02  0.18530462481E+02 -0.75266494669E+01  0.25724899374E+02  0.00000000000E+00 0.  1.
         21    1    1    2  503  502  0.16178441082E+02 -0.18530462481E+02  0.83199810641E+01  0.25968097360E+02  0.00000000000E+00 0. -1.
</event>
<event>
 4    1  0.5740469E+002  0.6494562E+02  0.7546771E-02  0.1243896E+00
          2   -1    0    0  502    0  0.00000000000E+00  0.00000000000E+00  0.11689671982E+04  0.11689671982E+04  0.00000000000E+00 0.  1.
         -2   -1    0    0    0  501 -0.00000000000E+00 -0.00000000000E+00 -0.55645959687E+01  0.55645959687E+01  0.00000000000E+00 0. -1.
         21    1    1    2  502  503 -0.20846243782E+02 -0.61509087890E+02  0.92991034368E+03  0.93217550980E+03  0.00000000000E+00 0.  1.
         21    1    1    2  503  501  0.20846243782E+02  0.61509087890E+02  0.23349225851E+03  0.24235628433E+03  0.00000000000E+00 0. -1.
</event>
<event>
 4    1  0.5740469E+002  0.5355303E+02  0.7546771E-02  0.1283461E+00
          2   -1    0    0  503    0  0.00000000000E+00  0.00000000000E+00  0.41575555848E+03  0.41575555848E+03  0.00000000000E+00 0. -1.
         -2   -1    0    0    0  501 -0.00000000000E+00 -0.00000000000E+00 -0.21277425731E+02  0.21277425731E+02  0.00000000000E+00 0.  1.
         21    1    1    2  502  501  0.37030105601E+02  0.38687187467E+02  0.17602890096E+02  0.56371880709E+02  0.00000000000E+00 0.  1.
         21    1    1    2  503  502 -0.37030105601E+02 -0.38687187467E+02  0.37687524266E+03  0.38066110350E+03  0.00000000000E+00 0. -1.
</event>
<event>
 4    1  0.5740469E+002  0.3740325E+02  0.7546771E-02  0.1364413E+00
          2   -1    0    0  502    0  0.00000000000E+00  0.00000000000E+00  0.10884785579E+04  0.10884785579E+04  0.00000000000E+00 0. -1.
         -2   -1    0    0    0  501 -0.00000000000E+00 -0.00000000000E+00 -0.17204325995E+01  0.17204325995E+01  0.00000000000E+00 0.  1.
         21    1    1    2  502  503  0.14376001338E+02 -0.34530183652E+02  0.81752147956E+03  0.81837666910E+03  0.00000000000E+00 0. -1.
         21    1    1    2  503  501 -0.14376001338E+02  0.34530183652E+02  0.26923664577E+03  0.27182232142E+03  0.00000000000E+00 0.  1.
</event>
<event>
 4    1  0.5740469E+002  0.2012733E+02  0.7546771E-02  0.1532098E+00
          2   -1    0    0  503    0  0.00000000000E+00  0.00000000000E+00  0.39670493317E+02  0.39670493317E+02  0.00000000000E+00 0. -1.
         -2   -1    0    0    0  501 -0.00000000000E+00 -0.00000000000E+00 -0.29490499420E+02  0.29490499420E+02  0.00000000000E+00 0.  1.
         21    1    1    2  502  501 -0.20112830622E+02 -0.76385364352E+00 -0.22869437128E+02  0.30465071517E+02  0.00000000000E+00 0.  1.
         21    1    1    2  503  502  0.20112830622E+02  0.76385364352E+00  0.33049431025E+02  0.38695921220E+02  0.00000000000E+00 0. -1.
</event>
<event>
 4    1  0.5740469E+002  0.2034077E+02  0.7546771E-02  0.1528889E+00
          2   -1    0    0  503    0  0.00000000000E+00  0.00000000000E+00  0.53600348977E+02  0.53600348977E+02  0.00000000000E+00 0.  1.
         -2   -1    0    0    0  501 -0.00000000000E+00 -0.00000000000E+00 -0.94696473399E+01  0.94696473399E+01  0.00000000000E+00 0. -1.
         21    1    1    2  502  501  0.19717507223E+02  0.49966979046E+01  0.85068589358E+01  0.22047986982E+02  0.00000000000E+00 0. -1.
         21    1    1    2  503  502 -0.19717507223E+02 -0.49966979046E+01  0.35623842701E+02  0.41022009334E+02  0.00000000000E+00 0.  1.
</event>
<event>
 4    1  0.5740469E+002  0.4745637E+02  0.7546771E-02  0.1309594E+00
          2   -1    0    0  502    0  0.00000000000E+00  0.00000000000E+00  0.89831946765E+02  0.89831946765E+02  0.00000000000E+00 0.  1.
         -2   -1    0    0    0  501 -0.00000000000E+00 -0.00000000000E+00 -0.26060487502E+02  0.26060487502E+02  0.00000000000E+00 0. -1.
         21    1    1    2  502  503 -0.34455524279E+02 -0.32633177398E+02  0.20590157073E+02  0.51730667777E+02  0.00000000000E+00 0.  1.
         21    1    1    2  503  501  0.34455524279E+02  0.32633177398E+02  0.43181302190E+02  0.64161766491E+02  0.00000000000E+00 0. -1.
</event>
<event>
 4    1  0.5740469E+002  0.2341211E+02  0.7546771E-02  0.1487387E+00
          2   -1    0    0  503    0  0.00000000000E+00  0.00000000000E+00  0.62633458639E+02  0.62633458639E+02  0.00000000000E+00 0. -1.
         -2   -1    0    0    0  501 -0.00000000000E+00 -0.00000000000E+00 -0.21575550533E+02  0.21575550533E+02  0.00000000000E+00 0.  1.
         21    1    1    2  502  501 -0.12670019734E+02  0.19687497731E+02 -0.11932118384E+02  0.26277412660E+02  0.00000000000E+00 0.  1.
         21    1    1    2  503  502  0.12670019734E+02 -0.19687497731E+02  0.52990026491E+02  0.57931596512E+02  0.00000000000E+00 0. -1.
</event>
<event>
 4    1  0.5740469E+002  0.2066981E+02  0.7546771E-02  0.1524032E+00
          2   -1    0    0  502    0  0.00000000000E+00  0.00000000000E+00  0.79433157739E+02  0.79433157739E+02  0.00000000000E+00 0.  1.
         -2   -1    0    0    0  501 -0.00000000000E+00 -0.00000000000E+00 -0.99800135277E+01  0.99800135277E+01  0.00000000000E+00 0. -1.
         21    1    1    2  502  503  0.19088612020E+02 -0.79288106395E+01  0.65082981629E+02  0.68286423575E+02  0.00000000000E+00 0.  1.
         21    1    1    2  503  501 -0.19088612020E+02  0.79288106395E+01  0.43701625824E+01  0.21126747691E+02  0.00000000000E+00 0. -1.
</event>
<event>
 4    1  0.5740469E+002  0.2135095E+02  0.7546771E-02  0.1514313E+00
          2   -1    0    0  503    0  0.00000000000E+00  0.00000000000E+00  0.10907779650E+02  0.10907779650E+02  0.00000000000E+00 0. -1.
         -2   -1    0    0    0  501 -0.00000000000E+00 -0.00000000000E+00 -0.48419264973E+02  0.48419264973E+02  0.00000000000E+00 0.  1.
         21    1    1    2  502  501 -0.21305483402E+01 -0.21244383375E+02 -0.29729753061E+02  0.36602203189E+02  0.00000000000E+00 0.  1.
         21    1    1    2  503  502  0.21305483402E+01  0.21244383375E+02 -0.77817322622E+01  0.22724841434E+02  0.00000000000E+00 0. -1.
</event>
<event>
 4    1  0.5740469E+002  0.3822676E+02  0.7546771E-02  0.1359202E+00
          2   -1    0    0  503    0  0.00000000000E+00  0.00000000000E+00  0.83954432416E+02  0.83954432416E+02  0.00000000000E+00 0. -1.
         -2   -1    0    0    0  501 -0.00000000000E+00 -0.00000000000E+00 -0.33917560565E+02  0.33917560565E+02  0.00000000000E+00 0.  1.
         21    1    1    2  502  501  0.92142969022E+00 -0.38215654172E+02 -0.16102822476E+02  0.41479948748E+02  0.00000000000E+00 0.  1.
         21    1    1    2  503  502 -0.92142969022E+00  0.38215654172E+02  0.66139694327E+02  0.76392044233E+02  0.00000000000E+00 0. -1.
</event>
<event>
 4    1  0.5740469E+002  0.3043327E+02  0.7546771E-02  0.1415868E+00
          2   -1    0    0  502    0  0.00000000000E+00  0.00000000000E+00  0.30273784530E+03  0.30273784530E+03  0.00000000000E+00 0.  1.
         -2   -1    0    0    0  501 -0.00000000000E+00 -0.00000000000E+00 -0.57271711912E+01  0.57271711912E+01  0.00000000000E+00 0. -1.
         21    1    1    2  502  503  0.30021869370E+02  0.49870947554E+01  0.25377020857E+03  0.25558854143E+03  0.00000000000E+00 0.  1.
         21    1    1    2  503  501 -0.30021869370E+02 -0.49870947554E+01  0.43240465543E+02  0.52876475062E+02  0.00000000000E+00 0. -1.
</event>
<event>
 4    1  0.5740469E+002  0.4854316E+02  0.7546771E-02  0.1304615E+00
          2   -1    0    0  502    0  0.00000000000E+00  0.00000000000E+00  0.21645339932E+03  0.21645339932E+03  0.00000000000E+00 0. -1.
         -2   -1    0    0    0  501 -0.00000000000E+00 -0.00000000000E+00 -0.17795595073E+02  0.17795595073E+02  0.00000000000E+00 0.  1.
         21    1    1    2  502  503  0.48543159479E+02  0.21926017590E-01  0.17230814019E+03  0.17901545740E+03  0.00000000000E+00 0. -1.
         21    1    1    2  503  501 -0.48543159479E+02 -0.21926017590E-01  0.26349664060E+02  0.55233536995E+02  0.00000000000E+00 0.  1.
</event>
<event>
 4    1  0.5740469E+002  0.2679522E+02  0.7546771E-02  0.1449676E+00
          2   -1    0    0  502    0  0.00000000000E+00  0.00000000000E+00  0.34678302340E+03  0.34678302340E+03  0.00000000000E+00 0. -1.
         -2   -1    0    0    0  501 -0.00000000000E+00 -0.00000000000E+00 -0.20792477327E+01  0.20792477327E+01  0.00000000000E+00 0.  1.
         21    1    1    2  502  503 -0.20103748997E+02  0.17715058759E+02  0.18372216594E+03  0.18566587809E+03  0.00000000000E+00 0. -1.
         21    1    1    2  503  501  0.20103748997E+02 -0.17715058759E+02  0.16098160973E+03  0.16319639304E+03  0.00000000000E+00 0.  1.
</event>
<event>
 4    1  0.5740469E+002  0.2515023E+02  0.7546771E-02  0.1467130E+00
          2   -1    0    0  503    0  0.00000000000E+00  0.00000000000E+00  0.30661812826E+02  0.30661812826E+02  0.00000000000E+00 0.  1.
         -2   -1    0    0    0  501 -0.00000000000E+00 -0.00000000000E+00 -0.12087331900E+03  0.12087331900E+03  0.00000000000E+00 0. -1.
         21    1    1    2  502  501 -0.20393882547E+02 -0.14718133181E+02 -0.11410545184E+03  0.11684428968E+03  0.00000000000E+00 0. -1.
         21    1    1    2  503  502  0.20393882547E+02  0.14718133181E+02  0.23893945667E+02  0.34690842152E+02  0.00000000000E+00 0.  1.
</event>
<event>
 4    1  0.5740469E+002  0.2955645E+02  0.7546771E-02  0.1423491E+00
          2   -1    0    0  503    0  0.00000000000E+00  0.00000000000E+00  0.11149067251E+04  0.11149067251E+04  0.00000000000E+00 0. -1.
         -2   -1    0    0    0  501 -0.00000000000E+00 -0.00000000000E+00 -0.16351855578E+01  0.16351855578E+01  0.00000000000E+00 0.  1.
         21    1    1    2  502  501 -0.28090433936E+02 -0.91929976996E+01  0.15374367725E+03  0.15655894091E+03  0.00000000000E+00 0.  1.
         21    1    1    2  503  502  0.28090433936E+02  0.91929976996E+01  0.95952786232E+03  0.95998296977E+03  0.00000000000E+00 0. -1.
</event>
<event>
 4    1  0.5740469E+002  0.2074554E+02  0.7546771E-02  0.1522929E+00
          2   -1    0    0  503    0  0.00000000000E+00  0.00000000000E+00  0.10348977559E+03  0.10348977559E+03  0.00000000000E+00 0. -1.
         -2   -1    0    0    0  501 -0.00000000000E+00 -0.00000000000E+00 -0.90991360119E+01  0.90991360119E+01  0.00000000000E+00 0.  1.
         21    1    1    2  502  501 -0.13802968363E+02  0.15487269870E+02  0.57141965730E+01  0.21518120413E+02  0.00000000000E+00 0.  1.
         21    1    1    2  503  502  0.13802968363E+02 -0.15487269870E+02  0.88676443004E+02  0.91070791187E+02  0.00000000000E+00 0. -1.
</event>
<event>
 4    1  0.5740469E+002  0.2217482E+02  0.7546771E-02  0.1503128E+00
          2   -1    0    0  502    0  0.00000000000E+00  0.00000000000E+00  0.98227113108E+03  0.98227113108E+03  0.00000000000E+00 0.  1.
         -2   -1    0    0    0  501 -0.00000000000E+00 -0.00000000000E+00 -0.59357289354E+00  0.59357289354E+00  0.00000000000E+00 0. -1.
         21    1    1    2  502  503  0.17761410922E+02  0.13276101951E+02  0.68533466571E+03  0.68569331820E+03  0.00000000000E+00 0. -1.
         21    1    1    2  503  501 -0.17761410922E+02 -0.13276101951E+02  0.29634289248E+03  0.29717138578E+03  0.00000000000E+00 0.  1.
</event>
<event>
 4    1  0.5740469E+002  0.2146852E+02  0.7546771E-02  0.1512680E+00
          2   -1    0    0  503    0  0.00000000000E+00  0.00000000000E+00  0.10271974861E+04  0.10271974861E+04  0.00000000000E+00 0.  1.
         -2   -1    0    0    0  501 -0.00000000000E+00 -0.00000000000E+00 -0.59158909916E+00  0.59158909916E+00  0.00000000000E+00 0. -1.
         21    1    1    2  502  501  0.21388408451E+02  0.18528744647E+01  0.26073812301E+03  0.26162046164E+03  0.00000000000E+00 0. -1.
         21    1    1    2  503  502 -0.21388408451E+02 -0.18528744647E+01  0.76586777399E+03  0.76616861356E+03  0.00000000000E+00 0.  1.
</event>
<event>
 4    1  0.5740469E+002  0.2214486E+02  0.7546771E-02  0.1503525E+00
          2   -1    0    0  502    0  0.00000000000E+00  0.00000000000E+00  0.20435444934E+01  0.20435444934E+01  0.00000000000E+00 0. -1.
         -2   -1    0    0    0  501 -0.00000000000E+00 -0.00000000000E+00 -0.37607562688E+03  0.37607562688E+03  0.00000000000E+00 0.  1.
         21    1    1    2  502  503  0.17147827416E+02 -0.14012375521E+02 -0.73280807302E+02  0.76553715597E+02  0.00000000000E+00 0. -1.
         21    1    1    2  503  501 -0.17147827416E+02  0.14012375521E+02 -0.30075127508E+03  0.30156545577E+03  0.00000000000E+00 0.  1.
</event>
<event>
 4    1  0.5740469E+002  0.2119571E+02  0.7546771E-02  0.1516489E+00
          2   -1    0    0  502    0  0.00000000000E+00  0.00000000000E+00  0.19013115516E+01  0.19013115516E+01  0.00000000000E+00 0.  1.
         -2   -1    0    0    0  501 -0.00000000000E+00 -0.00000000000E+00 -0.40811119488E+03  0.40811119488E+03  0.00000000000E+00 0. -1.
         21    1    1    2  502  503 -0.12499757032E+01  0.21158821542E+02 -0.70084605248E+02  0.73219601618E+02  0.00000000000E+00 0.  1.
         21    1    1    2  503  501  0.12499757032E+01 -0.21158821542E+02 -0.33612527808E+03  0.33679290481E+03  0.00000000000E+00 0. -1.
</event>
<event>
 4    1  0.5740469E+002  0.2352026E+02  0.7546771E-02  0.1486066E+00
          2   -1    0    0  502    0  0.00000000000E+00  0.00000000000E+00  0.78040869237E+02  0.78040869237E+02  0.00000000000E+00 0.  1.
         -2   -1    0    0    0  501 -0.00000000000E+00 -0.00000000000E+00 -0.70934580944E+01  0.70934580944E+01  0.00000000000E+00 0. -1.
         21    1    1    2  502  503  0.21041520134E+02 -0.10509865844E+02  0.34363171139E+02  0.41641690412E+02  0.00000000000E+00 0.  1.
         21    1    1    2  503  501 -0.21041520134E+02  0.10509865844E+02  0.36584240003E+02  0.43492636920E+02  0.00000000000E+00 0. -1.
</event>
<event>
 4    1  0.5740469E+002  0.2167763E+02  0.7546771E-02  0.1509806E+00
          2   -1    0    0  502    0  0.00000000000E+00  0.00000000000E+00  0.42241379934E+02  0.42241379934E+02  0.00000000000E+00 0. -1.
         -2   -1    0    0    0  501 -0.00000000000E+00 -0.00000000000E+00 -0.21287171788E+02  0.21287171788E+02  0.00000000000E+00 0.  1.
         21    1    1    2  502  503  0.20158732121E+02  0.79715146112E+01  0.32424411557E+02  0.39003358711E+02  0.00000000000E+00 0. -1.
         21    1    1    2  503  501 -0.20158732121E+02 -0.79715146112E+01 -0.11470203411E+02  0.24525193011E+02  0.00000000000E+00 0.  1.
</event>
<event>
 4    1  0.5740469E+002  0.2714443E+02  0.7546771E-02  0.1446163E+00
          2   -1    0    0  503    0  0.00000000000E+00  0.00000000000E+00  0.53633961611E+00  0.53633961611E+00  0.00000000000E+00 0.  1.
         -2   -1    0    0    0  501 -0.00000000000E+00 -0.00000000000E+00 -0.13746478982E+04  0.13746478982E+04  0.00000000000E+00 0. -1.
         21    1    1    2  502  501 -0.26697920643E+02 -0.49031484179E+01 -0.66991274234E+03  0.67046245397E+03  0.00000000000E+00 0. -1.
         21    1    1    2  503  502  0.26697920643E+02  0.49031484179E+01 -0.70419881628E+03  0.70472178388E+03  0.00000000000E+00 0.  1.
</event>
<event>
 4    1  0.5740469E+002  0.2421743E+02  0.7546771E-02  0.1477752E+00
          2   -1    0    0  503    0  0.00000000000E+00  0.00000000000E+00  0.14011753799E+03  0.14011753799E+03  0.00000000000E+00 0. -1.
         -2   -1    0    0    0  501 -0.00000000000E+00 -0.00000000000E+00 -0.57907320832E+01  0.57907320832E+01  0.00000000000E+00 0.  1.
         21    1    1    2  502  501 -0.16335869220E+02  0.17878009146E+02  0.28754582637E+02  0.37594013577E+02  0.00000000000E+00 0.  1.
         21    1    1    2  503  502  0.16335869220E+02 -0.17878009146E+02  0.10557222327E+03  0.10831425650E+03  0.00000000000E+00 0. -1.
</event>
<event>
 4    1  0.5740469E+002  0.2325733E+02  0.7546771E-02  0.1489292E+00
          2   -1    0    0  503    0  0.00000000000E+00  0.00000000000E+00  0.17160217901E+03  0.17160217901E+03  0.00000000000E+00 0. -1.
         -2   -1    0    0    0  501 -0.00000000000E+00 -0.00000000000E+00 -0.52402151317E+01  0.52402151317E+01  0.00000000000E+00 0.  1.
         21    1    1    2  502  501 -0.15351183961E+02 -0.17471255510E+02  0.27364656785E+02  0.35912784061E+02  0.00000000000E+00 0.  1.
         21    1    1    2  503  502  0.15351183961E+02  0.17471255510E+02  0.13899730710E+03  0.14092961008E+03  0.00000000000E+00 0. -1.
</event>
<event>
 4    1  0.5740469E+002  0.2218710E+02  0.7546771E-02  0.1502966E+00
          2   -1    0    0  503    0  0.00000000000E+00  0.00000000000E+00  0.28426535174E+01  0.28426535174E+01  0.00000000000E+00 0.  1.
         -2   -1    0    0    0  501 -0.00000000000E+00 -0.00000000000E+00 -0.34776522186E+03  0.34776522186E+03  0.00000000000E+00 0. -1.
         21    1    1    2  502  501  0.16691833447E+02  0.14616770868E+02 -0.29667300923E+03  0.29750149865E+03  0.00000000000E+00 0. -1.
         21    1    1    2  503  502 -0.16691833447E+02 -0.14616770868E+02 -0.48249559117E+02  0.53106376730E+02  0.00000000000E+00 0.  1.
</event>
<event>
 4    1  0.5740469E+002  0.2048241E+02  0.7546771E-02  0.1526785E+00
          2   -1    0    0  502    0  0.00000000000E+00  0.00000000000E+00  0.10703046948E+04  0.10703046948E+04  0.00000000000E+00 0. -1.
         -2   -1    0    0    0  501 -0.00000000000E+00 -0.00000000000E+00 -0.42337942662E+00  0.42337942662E+00  0.00000000000E+00 0.  1.
         21    1    1    2  502  503 -0.17801865144E+02 -0.10130286287E+02  0.68075588504E+03  0.68106395009E+03  0.00000000000E+00 0. -1.
         21    1    1    2  503  501  0.17801865144E+02  0.10130286287E+02  0.38912543032E+03  0.38966412412E+03  0.00000000000E+00 0.  1.
</event>
<event>
 4    1  0.5740469E+002  0.3827252E+02  0.7546771E-02  0.1358917E+00
          2   -1    0    0  502    0  0.00000000000E+00  0.00000000000E+00  0.63213902537E+02  0.63213902537E+02  0.00000000000E+00 0.  1.
         -2   -1    0    0    0  501 -0.00000000000E+00 -0.00000000000E+00 -0.23331463328E+02  0.23331463328E+02  0.00000000000E+00 0. -1.
         21    1    1    2  502  503 -0.37145118817E+02 -0.92209360692E+01  0.23519915151E+02  0.44921842378E+02  0.00000000000E+00 0. -1.
         21    1    1    2  503  501  0.37145118817E+02  0.92209360692E+01  0.16362524058E+02  0.41623523487E+02  0.00000000000E+00 0.  1.
</event>
<event>
 4    1  0.5740469E+002  0.2890359E+02  0.7546771E-02  0.1429369E+00
          2   -1    0    0  502    0  0.00000000000E+00  0.00000000000E+00  0.74030497243E+02  0.74030497243E+02  0.00000000000E+00 0.  1.
         -2   -1    0    0    0  501 -0.00000000000E+00 -0.00000000000E+00 -0.13933042397E+02  0.13933042397E+02  0.00000000000E+00 0. -1.
         21    1    1    2  502  503 -0.21571480323E+02 -0.19237692344E+02  0.49223515221E+02  0.57082151508E+02  0.00000000000E+00 0.  1.
         21    1    1    2  503  501  0.21571480323E+02  0.19237692344E+02  0.10873939625E+02  0.30881388133E+02  0.00000000000E+00 0. -1.
</event>
<event>
 4    1  0.5740469E+002  0.2123150E+02  0.7546771E-02  0.1515985E+00
          2   -1    0    0  503    0  0.00000000000E+00  0.00000000000E+00  0.86784770162E+02  0.86784770162E+02  0.00000000000E+00 0. -1.
         -2   -1    0    0    0  501 -0.00000000000E+00 -0.00000000000E+00 -0.34654139369E+02  0.34654139369E+02  0.00000000000E+00 0.  1.
         21    1    1    2  502  501  0.20390960792E+02 -0.59148506301E+01 -0.29918989352E+02  0.36686818667E+02  0.00000000000E+00 0.  1.
         21    1    1    2  503  502 -0.20390960792E+02  0.59148506301E+01  0.82049620145E+02  0.84752090865E+02  0.00000000000E+00 0. -1.
</event>
<event>
 4    1  0.5740469E+002  0.3894286E+02  0.7546771E-02  0.1354794E+00
          2   -1    0    0  502    0  0.00000000000E+00  0.00000000000E+00  0.10261156975E+02  0.10261156975E+02  0.00000000000E+00 0. -1.
         -2   -1    0    0    0  501 -0.00000000000E+00 -0.00000000000E+00 -0.18781973226E+03  0.18781973226E+03  0.00000000000E+00 0.  1.
         21    1    1    2  502  503  0.10654965973E+02 -0.37456879750E+02 -0.43059204399E+02  0.58057223702E+02  0.00000000000E+00 0. -1.
         21    1    1    2  503  501 -0.10654965973E+02  0.37456879750E+02 -0.13449937089E+03  0.14002366554E+03  0.00000000000E+00 0.  1.
</event>
<event>
 4    1  0.5740469E+002  0.4429217E+02  0.7546771E-02  0.1325017E+00
          2   -1    0    0  502    0  0.00000000000E+00  0.00000000000E+00  0.78625094968E+03  0.78625094968E+03  0.00000000000E+00 0. -1.
         -2   -1    0    0    0  501 -0.00000000000E+00 -0.00000000000E+00 -0.39238299990E+01  0.39238299990E+01  0.00000000000E+00 0.  1.
         21    1    1    2  502  503 -0.34871525280E+02  0.27308843647E+02  0.62956507316E+03  0.63112120671E+03  0.00000000000E+00 0. -1.
         21    1    1    2  503  501  0.34871525280E+02 -0.27308843647E+02  0.15276204652E+03  0.15905357297E+03  0.00000000000E+00 0.  1.
</event>
<event>
 4    1  0.5740469E+002  0.2337279E+02  0.7546771E-02  0.1487869E+00
          2   -1    0    0  503    0  0.00000000000E+00  0.00000000000E+00  0.39649017060E+03  0.39649017060E+03  0.00000000000E+00 0.  1.
         -2   -1    0    0    0  501 -0.00000000000E+00 -0.00000000000E+00 -0.14563947345E+01  0.14563947345E+01  0.00000000000E+00 0. -1.
         21    1    1    2  502  501 -0.88829208811E+01 -0.21618999415E+02  0.15129696592E+03  0.15309166965E+03  0.00000000000E+00 0. -1.
         21    1    1    2  503  502  0.88829208811E+01  0.21618999415E+02  0.24373680994E+03  0.24485489568E+03  0.00000000000E+00 0.  1.
</event>
<event>
 4    1  0.5740469E+002  0.2868243E+02  0.7546771E-02  0.1431402E+00
          2   -1    0    0  503    0  0.00000000000E+00  0.00000000000E+00  0.87203487687E+03  0.87203487687E+03  0.00000000000E+00 0. -1.
         -2   -1    0    0    0  501 -0.00000000000E+00 -0.00000000000E+00 -0.10381050908E+01  0.10381050908E+01  0.00000000000E+00 0.  1.
         21    1    1    2  502  501  0.22825440379E+02 -0.17368967340E+02  0.30364967122E+03  0.30500131899E+03  0.00000000000E+00 0.  1.
         21    1    1    2  503  502 -0.22825440379E+02  0.17368967340E+02  0.56734710056E+03  0.56807166297E+03  0.00000000000E+00 0. -1.
</event>
<event>
 4    1  0.5740469E+002  0.2316977E+02  0.7546771E-02  0.1490377E+00
          2   -1    0    0  502    0  0.00000000000E+00  0.00000000000E+00  0.39904091734E+03  0.39904091734E+03  0.00000000000E+00 0. -1.
         -2   -1    0    0    0  501 -0.00000000000E+00 -0.00000000000E+00 -0.15600121997E+01  0.15600121997E+01  0.00000000000E+00 0.  1.
         21    1    1    2  502  503 -0.18204884055E+02  0.14332492849E+02  0.12443426008E+03  0.12657299569E+03  0.00000000000E+00 0.  1.
         21    1    1    2  503  501  0.18204884055E+02 -0.14332492849E+02  0.27304664506E+03  0.27402793386E+03  0.00000000000E+00 0. -1.
</event>
<event>
 4    1  0.5740469E+002  0.2174624E+02  0.7546771E-02  0.1508872E+00
          2   -1    0    0  502    0  0.00000000000E+00  0.00000000000E+00  0.24269527729E+02  0.24269527729E+02  0.00000000000E+00 0.  1.
         -2   -1    0    0    0  501 -0.00000000000E+00 -0.00000000000E+00 -0.22598239811E+02  0.22598239811E+02  0.00000000000E+00 0. -1.
         21    1    1    2  502  503  0.19630926518E+02 -0.93555115313E+01  0.95331107108E+01  0.23744032341E+02  0.00000000000E+00 0. -1.
         21    1    1    2  503  501 -0.19630926518E+02  0.93555115313E+01 -0.78618227922E+01  0.23123735200E+02  0.00000000000E+00 0.  1.
</event>
<event>
 4    1  0.5740469E+002  0.4421424E+02  0.7546771E-02  0.1325415E+00
          2   -1    0    0  502    0  0.00000000000E+00  0.00000000000E+00  0.13835695659E+04  0.13835695659E+04  0.00000000000E+00 0.  1.
         -2   -1    0    0    0  501 -0.00000000000E+00 -0.00000000000E+00 -0.34321433347E+01  0.34321433347E+01  0.00000000000E+00 0. -1.
         21    1    1    2  502  503 -0.37565519380E+02  0.23318041227E+02  0.12219986511E+04  0.12227982674E+04  0.00000000000E+00 0.  1.
         21    1    1    2  503  501  0.37565519380E+02 -0.23318041227E+02  0.15813877146E+03  0.16420344190E+03  0.00000000000E+00 0. -1.
</event>
<event>
 4    1  0.5740469E+002  0.2939266E+02  0.7546771E-02  0.1424949E+00
          2   -1    0    0  502    0  0.00000000000E+00  0.00000000000E+00  0.83283159247E+02  0.83283159247E+02  0.00000000000E+00 0. -1.
         -2   -1    0    0    0  501 -0.00000000000E+00 -0.00000000000E+00 -0.17659126203E+02  0.17659126203E+02  0.00000000000E+00 0.  1.
         21    1    1    2  502  503  0.25839050702E+01  0.29278864827E+02  0.65230696372E+02  0.71546993229E+02  0.00000000000E+00 0. -1.
         21    1    1    2  503  501 -0.25839050702E+01 -0.29278864827E+02  0.39333667171E+00  0.29395292220E+02  0.00000000000E+00 0.  1.
</event>
<event>
 4    1  0.5740469E+002  0.2228234E+02  0.7546771E-02  0.1501712E+00
          2   -1    0    0  502    0  0.00000000000E+00  0.00000000000E+00  0.23659590309E+02  0.23659590309E+02  0.00000000000E+00 0.  1.
         -2   -1    0    0    0  501 -0.00000000000E+00 -0.00000000000E+00 -0.70184736018E+02  0.70184736018E+02  0.00000000000E+00 0. -1.
         21    1    1    2  502  503  0.12662435906E+02  0.18334812089E+02  0.16023347837E+02  0.27445405687E+02  0.00000000000E+00 0.  1.
         21    1    1    2  503  501 -0.12662435906E+02 -0.18334812089E+02 -0.62548493546E+02  0.66398920641E+02  0.00000000000E+00 0. -1.
</event>
<event>
 4    1  0.5740469E+002  0.2330015E+02  0.7546771E-02  0.1488763E+00
          2   -1    0    0  502    0  0.00000000000E+00  0.00000000000E+00  0.29231262726E+02  0.29231262726E+02  0.00000000000E+00 0.  1.
         -2   -1    0    0    0  501 -0.00000000000E+00 -0.00000000000E+00 -0.47543879713E+02  0.47543879713E+02  0.00000000000E+00 0. -1.
         21    1    1    2  502  503  0.11054767426E+02 -0.20510710535E+02  0.20809640961E+02  0.31240010986E+02  0.00000000000E+00 0.  1.
         21    1    1    2  503  501 -0.11054767426E+02  0.20510710535E+02 -0.39122257948E+02  0.45535131453E+02  0.00000000000E+00 0. -1.
</event>
<event>
 4    1  0.5740469E+002  0.2449379E+02  0.7546771E-02  0.1474547E+00
          2   -1    0    0  503    0  0.00000000000E+00  0.00000000000E+00  0.86088623994E+03  0.86088623994E+03  0.00000000000E+00 0.  1.
         -2   -1    0    0    0  501 -0.00000000000E+00 -0.00000000000E+00 -0.27660489807E+01  0.27660489807E+01  0.00000000000E+00 0. -1.
         21    1    1    2  502  501  0.36643602904E+01  0.24218138859E+02  0.55573008073E+02  0.60731417013E+02  0.00000000000E+00 0. -1.
         21    1    1    2  503  502 -0.36643602904E+01 -0.24218138859E+02  0.80254718289E+03  0.80292087191E+03  0.00000000000E+00 0.  1.
</event>
<event>
 4    1  0.5740469E+002  0.2055630E+02  0.7546771E-02  0.1525695E+00
          2   -1    0    0  502    0  0.00000000000E+00  0.00000000000E+00  0.12796296689E+02  0.12796296689E+02  0.00000000000E+00 0.  1.
         -2   -1    0    0    0  501 -0.00000000000E+00 -0.00000000000E+00 -0.16688263099E+03  0.16688263099E+03  0.00000000000E+00 0. -1.
         21    1    1    2  502  503  0.14163789170E+02 -0.14897936164E+02  0.34182630761E+01  0.20838568762E+02  0.00000000000E+00 0.  1.
         21    1    1    2  503  501 -0.14163789170E+02  0.14897936164E+02 -0.15750459738E+03  0.15884035892E+03  0.00000000000E+00 0. -1.
</event>
<event>
 4    1  0.5740469E+002  0.5462436E+02  0.7546771E-02  0.1279278E+00
          2   -1    0    0  502    0  0.00000000000E+00  0.00000000000E+00  0.42799003959E+03  0.42799003959E+03  0.00000000000E+00 0. -1.
         -2   -1    0    0    0  501 -0.00000000000E+00 -0.00000000000E+00 -0.69959775401E+01  0.69959775401E+01  0.00000000000E+00 0.  1.
         21    1    1    2  502  503  0.12299271503E+02 -0.53221693971E+02  0.22330760166E+03  0.22989150865E+03  0.00000000000E+00 0.  1.
         21    1    1    2  503  501 -0.12299271503E+02  0.53221693971E+02  0.19768646039E+03  0.20509450849E+03  0.00000000000E+00 0. -1.
</event>
<event>
 4    1  0.5740469E+002  0.2057285E+02  0.7546771E-02  0.1525452E+00
          2   -1    0    0  502    0  0.00000000000E+00  0.00000000000E+00  0.13680787714E+03  0.13680787714E+03  0.00000000000E+00 0.  1.
         -2   -1    0    0    0  501 -0.00000000000E+00 -0.00000000000E+00 -0.13542637054E+02  0.13542637054E+02  0.00000000000E+00 0. -1.
         21    1    1    2  502  503 -0.18819345915E+02 -0.83110960817E+01  0.12766537612E+03  0.12931237512E+03  0.00000000000E+00 0.  1.
         21    1    1    2  503  501  0.18819345915E+02  0.83110960817E+01 -0.44001360323E+01  0.21038139078E+02  0.00000000000E+00 0. -1.
</event>
<event>
 4    1  0.5740469E+002  0.2340579E+02  0.7546771E-02  0.1487465E+00
          2   -1    0    0  503    0  0.00000000000E+00  0.00000000000E+00  0.21496337214E+03  0.21496337214E+03  0.00000000000E+00 0. -1.
         -2   -1    0    0    0  501 -0.00000000000E+00 -0.00000000000E+00 -0.27493696131E+01  0.27493696131E+01  0.00000000000E+00 0.  1.
         21    1    1    2  502  501  0.13380381073E+02 -0.19204073054E+02  0.76682428161E+02  0.80174969961E+02  0.00000000000E+00 0.  1.
         21    1    1    2  503  502 -0.13380381073E+02  0.19204073054E+02  0.13553157437E+03  0.13753777179E+03  0.00000000000E+00 0. -1.
</event>
<event>
 4    1  0.5740469E+002  0.2335710E+02  0.7546771E-02  0.1488062E+00
          2   -1    0    0  502    0  0.00000000000E+00  0.00000000000E+00  0.10049949647E+03  0.10049949647E+03  0.00000000000E+00 0.  1.
         -2   -1    0    0    0  501 -0.00000000000E+00 -0.00000000000E+00 -0.58545869798E+01  0.58545869798E+01  0.00000000000E+00 0. -1.
         21    1    1    2  502  503 -0.10128287725E+02  0.21046901815E+02  0.32975430711E+02  0.40409569644E+02  0.00000000000E+00 0. -1.
         21    1    1    2  503  501  0.10128287725E+02 -0.21046901815E+02  0.61669478783E+02  0.65944513810E+02  0.00000000000E+00 0.  1.
</event>
<event>
 4    1  0.5740469E+002  0.8918042E+02  0.7546771E-02  0.1184004E+00
          2   -1    0    0  503    0  0.00000000000E+00  0.00000000000E+00  0.15841757633E+03  0.15841757633E+03  0.00000000000E+00 0. -1.
         -2   -1    0    0    0  501 -0.00000000000E+00 -0.00000000000E+00 -0.12145771334E+03  0.12145771334E+03  0.00000000000E+00 0.  1.
         21    1    1    2  502  501  0.66829788707E+02  0.59050207135E+02 -0.88703261857E+02  0.12578321146E+03  0.00000000000E+00 0.  1.
         21    1    1    2  503  502 -0.66829788707E+02 -0.59050207135E+02  0.12566312484E+03  0.15409207821E+03  0.00000000000E+00 0. -1.
</event>
<event>
 4    1  0.5740469E+002  0.2880488E+02  0.7546771E-02  0.1430274E+00
          2   -1    0    0  503    0  0.00000000000E+00  0.00000000000E+00  0.53694624746E+03  0.53694624746E+03  0.00000000000E+00 0.  1.
         -2   -1    0    0    0  501 -0.00000000000E+00 -0.00000000000E+00 -0.23494595034E+01  0.23494595034E+01  0.00000000000E+00 0. -1.
         21    1    1    2  502  501 -0.59322796625E+01  0.28187396125E+02  0.10953906700E+03  0.11326309391E+03  0.00000000000E+00 0. -1.
         21    1    1    2  503  502  0.59322796625E+01 -0.28187396125E+02  0.42505772096E+03  0.42603261306E+03  0.00000000000E+00 0.  1.
</event>
<event>
 4    1  0.5740469E+002  0.2221931E+02  0.7546771E-02  0.1502541E+00
          2   -1    0    0  503    0  0.00000000000E+00  0.00000000000E+00  0.21905288335E+03  0.21905288335E+03  0.00000000000E+00 0. -1.
         -2   -1    0    0    0  501 -0.00000000000E+00 -0.00000000000E+00 -0.64097732522E+01  0.64097732522E+01  0.00000000000E+00 0.  1.
         21    1    1    2  502  501 -0.18353206295E+02  0.12524284310E+02  0.15547758459E+02  0.27118825046E+02  0.00000000000E+00 0.  1.
         21    1    1    2  503  502  0.18353206295E+02 -0.12524284310E+02  0.19709535164E+03  0.19834383156E+03  0.00000000000E+00 0. -1.
</event>
<event>
 4    1  0.5740469E+002  0.2854063E+02  0.7546771E-02  0.1432717E+00
          2   -1    0    0  503    0  0.00000000000E+00  0.00000000000E+00  0.11547251508E+04  0.11547251508E+04  0.00000000000E+00 0.  1.
         -2   -1    0    0    0  501 -0.00000000000E+00 -0.00000000000E+00 -0.15353328747E+01  0.15353328747E+01  0.00000000000E+00 0. -1.
         21    1    1    2  502  501 -0.24144254106E+02  0.15219157449E+02  0.15154462137E+03  0.15420875470E+03  0.00000000000E+00 0. -1.
         21    1    1    2  503  502  0.24144254106E+02 -0.15219157449E+02  0.10016451966E+04  0.10020517290E+04  0.00000000000E+00 0.  1.
</event>
<event>
 4    1  0.5740469E+002  0.2704043E+02  0.7546771E-02  0.1447202E+00
          2   -1    0    0  502    0  0.00000000000E+00  0.00000000000E+00  0.19795261916E+04  0.19795261916E+04  0.00000000000E+00 0. -1.
         -2   -1    0    0    0  501 -0.00000000000E+00 -0.00000000000E+00 -0.11169755379E+02  0.11169755379E+02  0.00000000000E+00 0.  1.
         21    1    1    2  502  503 -0.22512757052E+02 -0.14978671714E+02  0.19629302081E+04  0.19631164476E+04  0.00000000000E+00 0. -1.
         21    1    1    2  503  501  0.22512757052E+02  0.14978671714E+02  0.54262281250E+01  0.27579499416E+02  0.00000000000E+00 0.  1.
</event>
<event>
 4    1  0.5740469E+002  0.2348176E+02  0.7546771E-02  0.1486536E+00
          2   -1    0    0  502    0  0.00000000000E+00  0.00000000000E+00  0.50765204244E+03  0.50765204244E+03  0.00000000000E+00 0.  1.
         -2   -1    0    0    0  501 -0.00000000000E+00 -0.00000000000E+00 -0.14793571290E+01  0.14793571290E+01  0.00000000000E+00 0. -1.
         21    1    1    2  502  503 -0.19333884240E+02  0.13326437415E+02  0.38432649399E+03  0.38504317550E+03  0.00000000000E+00 0.  1.
         21    1    1    2  503  501  0.19333884240E+02 -0.13326437415E+02  0.12184619132E+03  0.12408822407E+03  0.00000000000E+00 0. -1.
</event>
<event>
 4    1  0.5740469E+002  0.2409635E+02  0.7546771E-02  0.1479172E+00
          2   -1    0    0  503    0  0.00000000000E+00  0.00000000000E+00  0.43477925266E+03  0.43477925266E+03  0.00000000000E+00 0.  1.
         -2   -1    0    0    0  501 -0.00000000000E+00 -0.00000000000E+00 -0.39869695611E+01  0.39869695611E+01  0.00000000000E+00 0. -1.
         21    1    1    2  502  501 -0.46425812334E+01  0.23644883491E+02  0.36489024002E+02  0.43727370701E+02  0.00000000000E+00 0. -1.
         21    1    1    2  503  502  0.46425812334E+01 -0.23644883491E+02  0.39430325909E+03  0.39503885152E+03  0.00000000000E+00 0.  1.
</event>
<event>
 4    1  0.5740469E+002  0.2199590E+02  0.7546771E-02  0.1505507E+00
          2   -1    0    0  503    0  0.00000000000E+00  0.00000000000E+00  0.13359487862E+02  0.13359487862E+02  0.00000000000E+00 0. -1.
         -2   -1    0    0    0  501 -0.00000000000E+00 -0.00000000000E+00 -0.36362619301E+02  0.36362619301E+02  0.00000000000E+00 0.  1.
         21    1    1    2  502  501  0.41974309554E+01  0.21591688319E+02 -0.99197770877E+01  0.24129264567E+02  0.00000000000E+00 0.  1.
         21    1    1    2  503  502 -0.41974309554E+01 -0.21591688319E+02 -0.13083354351E+02  0.25592842596E+02  0.00000000000E+00 0. -1.
</event>
<event>
 4    1  0.5740469E+002  0.2076484E+02  0.7546771E-02  0.1522649E+00
          2   -1    0    0  503    0  0.00000000000E+00  0.00000000000E+00  0.41035672088E+01  0.41035672088E+01  0.00000000000E+00 0. -1.
         -2   -1    0    0    0  501 -0.00000000000E+00 -0.00000000000E+00 -0.33248467226E+03  0.33248467226E+03  0.00000000000E+00 0.  1.
         21    1    1    2  502  501  0.74008170889E+01 -0.19401201962E+02 -0.30337426927E+03  0.30408407717E+03  0.00000000000E+00 0.  1.
         21    1    1    2  503  502 -0.74008170889E+01  0.19401201962E+02 -0.25006835779E+02  0.32504162300E+02  0.00000000000E+00 0. -1.
</event>
<event>
 4    1  0.5740469E+002  0.2081856E+02  0.7546771E-02  0.1521871E+00
          2   -1    0    0  502    0  0.00000000000E+00  0.00000000000E+00  0.23319248581E+02  0.23319248581E+02  0.00000000000E+00 0. -1.
         -2   -1    0    0    0  501 -0.00000000000E+00 -0.00000000000E+00 -0.23294473465E+02  0.23294473465E+02  0.00000000000E+00 0.  1.
         21    1    1    2  502  503 -0.28080408371E+00  0.20816670597E+02  0.10490795006E+02  0.23312430280E+02  0.00000000000E+00 0. -1.
         21    1    1    2  503  501  0.28080408371E+00 -0.20816670597E+02 -0.10466019890E+02  0.23301291767E+02  0.00000000000E+00 0.  1.
</event>
<event>
 4    1  0.5740469E+002  0.3028334E+02  0.7546771E-02  0.1417150E+00
          2   -1    0    0  502    0  0.00000000000E+00  0.00000000000E+00  0.17136140586E+03  0.17136140586E+03  0.00000000000E+00 0. -1.
         -2   -1    0    0    0  501 -0.00000000000E+00 -0.00000000000E+00 -0.11957508294E+02  0.11957508294E+02  0.00000000000E+00 0.  1.
         21    1    1    2  502  503 -0.17024220479E+02 -0.25045094388E+02  0.14782887067E+03  0.15089882650E+03  0.00000000000E+00 0. -1.
         21    1    1    2  503  501  0.17024220479E+02  0.25045094388E+02  0.11575026897E+02  0.32420087654E+02  0.00000000000E+00 0.  1.
</event>
<event>
 4    1  0.5740469E+002  0.5542419E+02  0.7546771E-02  0.1276226E+00
          2   -1    0    0  502    0  0.00000000000E+00  0.00000000000E+00  0.88610661589E+02  0.88610661589E+02  0.00000000000E+00 0. -1.
         -2   -1    0    0    0  501 -0.00000000000E+00 -0.00000000000E+00 -0.30626162345E+03  0.30626162345E+03  0.00000000000E+00 0.  1.
         21    1    1    2  502  503  0.53997075829E+02 -0.12496261994E+02  0.77100969095E+02  0.94954727093E+02  0.00000000000E+00 0. -1.
         21    1    1    2  503  501 -0.53997075829E+02  0.12496261994E+02 -0.29475193095E+03  0.29991755794E+03  0.00000000000E+00 0.  1.
</event>
<event>
 4    1  0.5740469E+002  0.2153582E+02  0.7546771E-02  0.1511750E+00
          2   -1    0    0  502    0  0.00000000000E+00  0.00000000000E+00  0.49908053809E+03  0.49908053809E+03  0.00000000000E+00 0.  1.
         -2   -1    0    0    0  501 -0.00000000000E+00 -0.00000000000E+00 -0.30612921173E+01  0.30612921173E+01  0.00000000000E+00 0. -1.
         21    1    1    2  502  503 -0.92352738410E+01  0.19455111582E+02  0.45753547290E+03  0.45804202930E+03  0.00000000000E+00 0.  1.
         21    1    1    2  503  501  0.92352738410E+01 -0.19455111582E+02  0.38483773075E+02  0.44099800903E+02  0.00000000000E+00 0. -1.
</event>
<event>
 4    1  0.5740469E+002  0.2159437E+02  0.7546771E-02  0.1510945E+00
          2   -1    0    0  502    0  0.00000000000E+00  0.00000000000E+00  0.24787287577E+03  0.24787287577E+03  0.00000000000E+00 0.  1.
         -2   -1    0    0    0  501 -0.00000000000E+00 -0.00000000000E+00 -0.11193800359E+02  0.11193800359E+02  0.00000000000E+00 0. -1.
         21    1    1    2  502  503  0.89252327252E+01  0.19663596389E+02  0.23648758165E+03  0.23747145740E+03  0.00000000000E+00 0.  1.
         21    1    1    2  503  501 -0.89252327252E+01 -0.19663596389E+02  0.19149375626E+00  0.21595218730E+02  0.00000000000E+00 0. -1.
</event>
<event>
 4    1  0.5740469E+002  0.2735812E+02  0.7546771E-02  0.1444044E+00
          2   -1    0    0  503    0  0.00000000000E+00  0.00000000000E+00  0.18666092107E+03  0.18666092107E+03  0.00000000000E+00 0.  1.
         -2   -1    0    0    0  501 -0.00000000000E+00 -0.00000000000E+00 -0.60374289419E+01  0.60374289419E+01  0.00000000000E+00 0. -1.
         21    1    1    2  502  501  0.14296793579E+02  0.23325277139E+02  0.34475048354E+02  0.44011314673E+02  0.00000000000E+00 0. -1.
         21    1    1    2  503  502 -0.14296793579E+02 -0.23325277139E+02  0.14614844378E+03  0.14868703534E+03  0.00000000000E+00 0.  1.
</event>
<event>
 4    1  0.5740469E+002  0.4068548E+02  0.7546771E-02  0.1344515E+00
          2   -1    0    0  503    0  0.00000000000E+00  0.00000000000E+00  0.14548158370E+04  0.14548158370E+04  0.00000000000E+00 0. -1.
         -2   -1    0    0    0  501 -0.00000000000E+00 -0.00000000000E+00 -0.31236962323E+01  0.31236962323E+01  0.00000000000E+00 0.  1.
         21    1    1    2  502  501  0.40513954252E+02 -0.37319675293E+01  0.14461075085E+03  0.15022508889E+03  0.00000000000E+00 0.  1.
         21    1    1    2  503  502 -0.40513954252E+02  0.37319675293E+01  0.13070813899E+04  0.13077144443E+04  0.00000000000E+00 0. -1.
</event>
<event>
 4    1  0.5740469E+002  0.2342823E+02  0.7546771E-02  0.1487190E+00
          2   -1    0    0  503    0  0.00000000000E+00  0.00000000000E+00  0.62941943218E+01  0.62941943218E+01  0.00000000000E+00 0. -1.
         -2   -1    0    0    0  501 -0.00000000000E+00 -0.00000000000E+00 -0.13298298840E+03  0.13298298840E+03  0.00000000000E+00 0.  1.
         21    1    1    2  502  501 -0.11478458618E+02 -0.20423683546E+02 -0.10420293419E+03  0.10680418229E+03  0.00000000000E+00 0.  1.
         21    1    1    2  503  502  0.11478458618E+02  0.20423683546E+02 -0.22485859890E+02  0.32473000429E+02  0.00000000000E+00 0. -1.
</event>
<event>
 4    1  0.5740469E+002  0.3178813E+02  0.7546771E-02  0.1404669E+00
          2   -1    0    0  503    0  0.00000000000E+00  0.00000000000E+00  0.78484576067E+03  0.78484576067E+03  0.00000000000E+00 0. -1.
         -2   -1    0    0    0  501 -0.00000000000E+00 -0.00000000000E+00 -0.67803233884E+01  0.67803233884E+01  0.00000000000E+00 0.  1.
         21    1    1    2  502  501 -0.61226451529E+00 -0.31782231341E+02  0.32776129058E+02  0.45659169210E+02  0.00000000000E+00 0.  1.
         21    1    1    2  503  502  0.61226451529E+00  0.31782231341E+02  0.74528930822E+03  0.74596691485E+03  0.00000000000E+00 0. -1.
</event>
<event>
 4    1  0.5740469E+002  0.2020985E+02  0.7546771E-02  0.1530852E+00
          2   -1    0    0  502    0  0.00000000000E+00  0.00000000000E+00  0.19549360881E+04  0.19549360881E+04  0.00000000000E+00 0.  1.
         -2   -1    0    0    0  501 -0.00000000000E+00 -0.00000000000E+00 -0.21955786817E+00  0.21955786817E+00  0.00000000000E+00 0. -1.
         21    1    1    2  502  503 -0.19967190632E+02 -0.31224037853E+01  0.11924728336E+04  0.11926440780E+04  0.00000000000E+00 0.  1.
         21    1    1    2  503  501  0.19967190632E+02  0.31224037853E+01  0.76224369667E+03  0.76251156793E+03  0.00000000000E+00 0. -1.
</event>
<event>
 4    1  0.5740469E+002  0.2070357E+02  0.7546771E-02  0.1523539E+00
          2   -1    0    0  503    0  0.00000000000E+00  0.00000000000E+00  0.15903691124E+04  0.15903691124E+04  0.00000000000E+00 0.  1.
         -2   -1    0    0    0  501 -0.00000000000E+00 -0.00000000000E+00 -0.28571503950E+00  0.28571503950E+00  0.00000000000E+00 0. -1.
         21    1    1    2  502  501  0.15869612294E+02  0.13296359456E+02  0.60569493837E+03  0.60604867473E+03  0.00000000000E+00 0. -1.
         21    1    1    2  503  502 -0.15869612294E+02 -0.13296359456E+02  0.98438845898E+03  0.98460615271E+03  0.00000000000E+00 0.  1.
</event>
<event>
 4    1  0.5740469E+002  0.2525795E+02  0.7546771E-02  0.1465938E+00
          2   -1    0    0  503    0  0.00000000000E+00  0.00000000000E+00  0.21812644022E+02  0.21812644022E+02  0.00000000000E+00 0. -1.
         -2   -1    0    0    0  501 -0.00000000000E+00 -0.00000000000E+00 -0.64175608096E+02  0.64175608096E+02  0.00000000000E+00 0.  1.
         21    1    1    2  502  501 -0.24674735862E+02 -0.53964382893E+01 -0.52899934783E+02  0.58620535958E+02  0.00000000000E+00 0.  1.
         21    1    1    2  503  502  0.24674735862E+02  0.53964382893E+01  0.10536970709E+02  0.27367716159E+02  0.00000000000E+00 0. -1.
</event>
<event>
 4    1  0.5740469E+002  0.3362574E+02  0.7546771E-02  0.1390491E+00
          2   -1    0    0  502    0  0.00000000000E+00  0.00000000000E+00  0.25051173247E+02  0.25051173247E+02  0.00000000000E+00 0. -1.
         -2   -1    0    0    0  501 -0.00000000000E+00 -0.00000000000E+00 -0.15964294912E+03  0.15964294912E+03  0.00000000000E+00 0.  1.
         21    1    1    2  502  503  0.30976830691E+01  0.33482750928E+02  0.10914710070E+02  0.35352809591E+02  0.00000000000E+00 0. -1.
         21    1    1    2  503  501 -0.30976830691E+01 -0.33482750928E+02 -0.14550648594E+03  0.14934131278E+03  0.00000000000E+00 0.  1.
</event>
<event>
 4    1  0.5740469E+002  0.2481396E+02  0.7546771E-02  0.1470895E+00
          2   -1    0    0  503    0  0.00000000000E+00  0.00000000000E+00  0.79892925482E+02  0.79892925482E+02  0.00000000000E+00 0. -1.
         -2   -1    0    0    0  501 -0.00000000000E+00 -0.00000000000E+00 -0.10571990011E+02  0.10571990011E+02  0.00000000000E+00 0.  1.
         21    1    1    2  502  501  0.15685608161E+02  0.19227430065E+02  0.11113463980E+02  0.27188995052E+02  0.00000000000E+00 0.  1.
         21    1    1    2  503  502 -0.15685608161E+02 -0.19227430065E+02  0.58207471491E+02  0.63275920441E+02  0.00000000000E+00 0. -1.
</event>
<event>
 4    1  0.5740469E+002  0.2887758E+02  0.7546771E-02  0.1429607E+00
          2   -1    0    0  502    0  0.00000000000E+00  0.00000000000E+00  0.30737678146E+04  0.30737678146E+04  0.00000000000E+00 0.  1.
         -2   -1    0    0    0  501 -0.00000000000E+00 -0.00000000000E+00 -0.31153141409E+00  0.31153141409E+00  0.00000000000E+00 0. -1.
         21    1    1    2  502  503  0.24995365125E+02 -0.14461892838E+02  0.20890780928E+04  0.20892776724E+04  0.00000000000E+00 0.  1.
         21    1    1    2  503  501 -0.24995365125E+02  0.14461892838E+02  0.98437819041E+03  0.98480167362E+03  0.00000000000E+00 0. -1.
</event>
<event>
 4    1  0.5740469E+002  0.2444951E+02  0.7546771E-02  0.1475057E+00
          2   -1    0    0  503    0  0.00000000000E+00  0.00000000000E+00  0.80423321420E+03  0.80423321420E+03  0.00000000000E+00 0.  1.
         -2   -1    0    0    0  501 -0.00000000000E+00 -0.00000000000E+00 -0.15154044776E+02  0.15154044776E+02  0.00000000000E+00 0. -1.
         21    1    1    2  502  501  0.20554641600E+02 -0.13239533663E+02 -0.49802001874E+01  0.24951571831E+02  0.00000000000E+00 0. -1.
         21    1    1    2  503  502 -0.20554641600E+02  0.13239533663E+02  0.79405936961E+03  0.79443568715E+03  0.00000000000E+00 0.  1.
</event>
<event>
 4    1  0.5740469E+002  0.2696517E+02  0.7546771E-02  0.1447958E+00
          2   -1    0    0  503    0  0.00000000000E+00  0.00000000000E+00  0.30543157992E+03  0.30543157992E+03  0.00000000000E+00 0. -1.
         -2   -1    0    0    0  501 -0.00000000000E+00 -0.00000000000E+00 -0.57295322298E+02  0.57295322298E+02  0.00000000000E+00 0.  1.
         21    1    1    2  502  501 -0.16091772228E+02  0.21637351917E+02 -0.53487505428E+02  0.59900195061E+02  0.00000000000E+00 0.  1.
         21    1    1    2  503  502  0.16091772228E+02 -0.21637351917E+02  0.30162376305E+03  0.30282670715E+03  0.00000000000E+00 0. -1.
</event>
<event>
 4    1  0.5740469E+002  0.2117530E+02  0.7546771E-02  0.1516777E+00
          2   -1    0    0  503    0  0.00000000000E+00  0.00000000000E+00  0.96700666739E+02  0.96700666739E+02  0.00000000000E+00 0.  1.
         -2   -1    0    0    0  501 -0.00000000000E+00 -0.00000000000E+00 -0.70056675484E+01  0.70056675484E+01  0.00000000000E+00 0. -1.
         21    1    1    2  502  501 -0.15718241055E+02  0.14189092000E+02  0.14695942437E+02  0.25775262516E+02  0.00000000000E+00 0. -1.
         21    1    1    2  503  502  0.15718241055E+02 -0.14189092000E+02  0.74999056753E+02  0.77931071772E+02  0.00000000000E+00 0.  1.
</event>
<event>
 4    1  0.5740469E+002  0.2404655E+02  0.7546771E-02  0.1479759E+00
          2   -1    0    0  502    0  0.00000000000E+00  0.00000000000E+00  0.68025078027E+03  0.68025078027E+03  0.00000000000E+00 0.  1.
         -2   -1    0    0    0  501 -0.00000000000E+00 -0.00000000000E+00 -0.14372470231E+01  0.14372470231E+01  0.00000000000E+00 0. -1.
         21    1    1    2  502  503 -0.22980449492E+02  0.70806571594E+01  0.55727180558E+03  0.55779037466E+03  0.00000000000E+00 0.  1.
         21    1    1    2  503  501  0.22980449492E+02 -0.70806571594E+01  0.12154172767E+03  0.12389765264E+03  0.00000000000E+00 0. -1.
</event>
<event>
 4    1  0.5740469E+002  0.2576845E+02  0.7546771E-02  0.1460387E+00
          2   -1    0    0  503    0  0.00000000000E+00  0.00000000000E+00  0.92164647164E+01  0.92164647164E+01  0.00000000000E+00 0. -1.
         -2   -1    0    0    0  501 -0.00000000000E+00 -0.00000000000E+00 -0.23509691560E+03  0.23509691560E+03  0.00000000000E+00 0.  1.
         21    1    1    2  502  501 -0.25657958294E+02  0.23837056866E+01 -0.21467159994E+03  0.21621264694E+03  0.00000000000E+00 0.  1.
         21    1    1    2  503  502  0.25657958294E+02 -0.23837056866E+01 -0.11208850940E+02  0.28100733371E+02  0.00000000000E+00 0. -1.
</event>
<event>
 4    1  0.5740469E+002  0.2076979E+02  0.7546771E-02  0.1522577E+00
          2   -1    0    0  502    0  0.00000000000E+00  0.00000000000E+00  0.46444196109E+00  0.46444196109E+00  0.00000000000E+00 0. -1.
         -2   -1    0    0    0  501 -0.00000000000E+00 -0.00000000000E+00 -0.11407572278E+04  0.11407572278E+04  0.00000000000E+00 0.  1.
         21    1    1    2  502  503 -0.63309196101E+01 -0.19781400437E+02 -0.32419798550E+03  0.32486261427E+03  0.00000000000E+00 0. -1.
         21    1    1    2  503  501  0.63309196101E+01  0.19781400437E+02 -0.81609480029E+03  0.81635905544E+03  0.00000000000E+00 0.  1.
</event>
<event>
 4    1  0.5740469E+002  0.2128338E+02  0.7546771E-02  0.1515257E+00
          2   -1    0    0  502    0  0.00000000000E+00  0.00000000000E+00  0.29547210734E+03  0.29547210734E+03  0.00000000000E+00 0.  1.
         -2   -1    0    0    0  501 -0.00000000000E+00 -0.00000000000E+00 -0.17701553696E+01  0.17701553696E+01  0.00000000000E+00 0. -1.
         21    1    1    2  502  503  0.11616717183E+02 -0.17833514985E+02  0.20124085573E+03  0.20236319920E+03  0.00000000000E+00 0.  1.
         21    1    1    2  503  501 -0.11616717183E+02  0.17833514985E+02  0.92461096245E+02  0.94879063516E+02  0.00000000000E+00 0. -1.
</event>
<event>
 4    1  0.5740469E+002  0.3614895E+02  0.7546771E-02  0.1372661E+00
          2   -1    0    0  503    0  0.00000000000E+00  0.00000000000E+00  0.20539899902E+04  0.20539899902E+04  0.00000000000E+00 0. -1.
         -2   -1    0    0    0  501 -0.00000000000E+00 -0.00000000000E+00 -0.69874331926E+00  0.69874331926E+00  0.00000000000E+00 0.  1.
         21    1    1    2  502  501  0.10514977963E+02 -0.34585864725E+02  0.71928344168E+03  0.72019123591E+03  0.00000000000E+00 0. -1.
         21    1    1    2  503  502 -0.10514977963E+02  0.34585864725E+02  0.13340078052E+04  0.13344974976E+04  0.00000000000E+00 0.  1.
</event>
<event>
 4    1  0.5740469E+002  0.2676795E+02  0.7546771E-02  0.1449953E+00
          2   -1    0    0  502    0  0.00000000000E+00  0.00000000000E+00  0.63998475872E+01  0.63998475872E+01  0.00000000000E+00 0. -1.
         -2   -1    0    0    0  501 -0.00000000000E+00 -0.00000000000E+00 -0.15314272988E+03  0.15314272988E+03  0.00000000000E+00 0.  1.
         21    1    1    2  502  503 -0.26733492766E+02  0.13576726381E+01 -0.32003938992E+02  0.41722596054E+02  0.00000000000E+00 0. -1.
         21    1    1    2  503  501  0.26733492766E+02 -0.13576726381E+01 -0.11473894330E+03  0.11781998141E+03  0.00000000000E+00 0.  1.
</event>
<event>
 4    1  0.5740469E+002  0.4815673E+02  0.7546771E-02  0.1306368E+00
          2   -1    0    0  503    0  0.00000000000E+00  0.00000000000E+00  0.14514848561E+04  0.14514848561E+04  0.00000000000E+00 0.  1.
         -2   -1    0    0    0  501 -0.00000000000E+00 -0.00000000000E+00 -0.20220873129E+01  0.20220873129E+01  0.00000000000E+00 0. -1.
         21    1    1    2  502  501  0.39856659828E+02  0.27028081503E+02  0.39179852059E+03  0.39474694586E+03  0.00000000000E+00 0. -1.
         21    1    1    2  503  502 -0.39856659828E+02 -0.27028081503E+02  0.10576642482E+04  0.10587599975E+04  0.00000000000E+00 0.  1.
</event>
<event>
 4    1  0.5740469E+002  0.2032406E+02  0.7546771E-02  0.1529138E+00
          2   -1    0    0  502    0  0.00000000000E+00  0.00000000000E+00  0.10335883246E+02  0.10335883246E+02  0.00000000000E+00 0.  1.
         -2   -1    0    0    0  501 -0.00000000000E+00 -0.00000000000E+00 -0.24558225273E+03  0.24558225273E+03  0.00000000000E+00 0. -1.
         21    1    1    2  502  503  0.11572670023E+02 -0.16707501631E+02 -0.53771688434E+00  0.20331169215E+02  0.00000000000E+00 0.  1.
         21    1    1    2  503  501 -0.11572670023E+02  0.16707501631E+02 -0.23470865260E+03  0.23558696676E+03  0.00000000000E+00 0. -1.
</event>
<event>
 4    1  0.5740469E+002  0.2146599E+02  0.7546771E-02  0.1512715E+00
          2   -1    0    0  502    0  0.00000000000E+00  0.00000000000E+00  0.96357905970E+03  0.96357905970E+03  0.00000000000E+00 0. -1.
         -2   -1    0    0    0  501 -0.00000000000E+00 -0.00000000000E+00 -0.38768112866E+01  0.38768112866E+01  0.00000000000E+00 0.  1.
         21    1    1    2  502  503 -0.83646851809E+01  0.19769185625E+02  0.93276355878E+03  0.93301052794E+03  0.00000000000E+00 0. -1.
         21    1    1    2  503  501  0.83646851809E+01 -0.19769185625E+02  0.26938689635E+02  0.34445343048E+02  0.00000000000E+00 0.  1.
</event>
<event>
 4    1  0.5740469E+002  0.2376619E+02  0.7546771E-02  0.1483095E+00
          2   -1    0    0  502    0  0.00000000000E+00  0.00000000000E+00  0.53702727163E+03  0.53702727163E+03  0.00000000000E+00 0. -1.
         -2   -1    0    0    0  501 -0.00000000000E+00 -0.00000000000E+00 -0.11885591713E+01  0.11885591713E+01  0.00000000000E+00 0.  1.
         21    1    1    2  502  503  0.56640843282E+01  0.23081376456E+02  0.35921166530E+03  0.35999701704E+03  0.00000000000E+00 0. -1.
         21    1    1    2  503  501 -0.56640843282E+01 -0.23081376456E+02  0.17662704716E+03  0.17821881376E+03  0.00000000000E+00 0.  1.
</event>
<event>
 4    1  0.5740469E+002  0.2142352E+02  0.7546771E-02  0.1513303E+00
          2   -1    0    0  503    0  0.00000000000E+00  0.00000000000E+00  0.92521503015E+02  0.92521503015E+02  0.00000000000E+00 0.  1.
         -2   -1    0    0    0  501 -0.00000000000E+00 -0.00000000000E+00 -0.10334525474E+02  0.10334525474E+02  0.00000000000E+00 0. -1.
         21    1    1    2  502  501 -0.60657266382E+01  0.20546874003E+02  0.40084989841E+01  0.21795300757E+02  0.00000000000E+00 0. -1.
         21    1    1    2  503  502  0.60657266382E+01 -0.20546874003E+02  0.78178478557E+02  0.81060727732E+02  0.00000000000E+00 0.  1.
</event>
<event>
 4    1  0.5740469E+002  0.5581161E+02  0.7546771E-02  0.1274768E+00
          2   -1    0    0  502    0  0.00000000000E+00  0.00000000000E+00  0.29074756213E+03  0.29074756213E+03  0.00000000000E+00 0.  1.
         -2   -1    0    0    0  501 -0.00000000000E+00 -0.00000000000E+00 -0.10768602987E+02  0.10768602987E+02  0.00000000000E+00 0. -1.
         21    1    1    2  502  503  0.99131086531E+00 -0.55802802325E+02  0.12920911588E+03  0.14074775689E+03  0.00000000000E+00 0.  1.
         21    1    1    2  503  501 -0.99131086531E+00  0.55802802325E+02  0.15076984327E+03  0.16076840823E+03  0.00000000000E+00 0. -1.
</event>
<event>
 4    1  0.5740469E+002  0.2279634E+02  0.7546771E-02  0.1495072E+00
          2   -1    0    0  502    0  0.00000000000E+00  0.00000000000E+00  0.59212624669E+03  0.59212624669E+03  0.00000000000E+00 0.  1.
         -2   -1    0    0    0  501 -0.00000000000E+00 -0.00000000000E+00 -0.88414848574E+00  0.88414848574E+00  0.00000000000E+00 0. -1.
         21    1    1    2  502  503  0.12124250263E+02 -0.19304805059E+02  0.32106304456E+03  0.32187132759E+03  0.00000000000E+00 0.  1.
         21    1    1    2  503  501 -0.12124250263E+02  0.19304805059E+02  0.27017905364E+03  0.27113906758E+03  0.00000000000E+00 0. -1.
</event>
<event>
 4    1  0.5740469E+002  0.2505790E+02  0.7546771E-02  0.1468157E+00
          2   -1    0    0  502    0  0.00000000000E+00  0.00000000000E+00  0.55546232746E+03  0.55546232746E+03  0.00000000000E+00 0.  1.
         -2   -1    0    0    0  501 -0.00000000000E+00 -0.00000000000E+00 -0.49057106719E+01  0.49057106719E+01  0.00000000000E+00 0. -1.
         21    1    1    2  502  503 -0.12181295845E+02 -0.21897812556E+02  0.52107066622E+03  0.52167282597E+03  0.00000000000E+00 0.  1.
         21    1    1    2  503  501  0.12181295845E+02  0.21897812556E+02  0.29485950569E+02  0.38695212160E+02  0.00000000000E+00 0. -1.
</event>
<event>
 4    1  0.5740469E+002  0.3525057E+02  0.7546771E-02  0.1378810E+00
          2   -1    0    0  502    0  0.00000000000E+00  0.00000000000E+00  0.12154576265E+04  0.12154576265E+04  0.00000000000E+00 0.  1.
         -2   -1    0    0    0  501 -0.00000000000E+00 -0.00000000000E+00 -0.10906588755E+01  0.10906588755E+01  0.00000000000E+00 0. -1.
         21    1    1    2  502  503  0.31680391561E+02  0.15458178614E+02  0.45493697300E+03  0.45630061571E+03  0.00000000000E+00 0. -1.
         21    1    1    2  503  501 -0.31680391561E+02 -0.15458178614E+02  0.75942999462E+03  0.76024766966E+03  0.00000000000E+00 0.  1.
</event>
<event>
 4    1  0.5740469E+002  0.2254356E+02  0.7546771E-02  0.1498311E+00
          2   -1    0    0  502    0  0.00000000000E+00  0.00000000000E+00  0.31306931273E+02  0.31306931273E+02  0.00000000000E+00 0.  1.
         -2   -1    0    0    0  501 -0.00000000000E+00 -0.00000000000E+00 -0.26069086594E+02  0.26069086594E+02  0.00000000000E+00 0. -1.
         21    1    1    2  502  503  0.42495782522E+01 -0.22139399202E+02  0.20240471684E+02  0.30296676490E+02  0.00000000000E+00 0.  1.
         21    1    1    2  503  501 -0.42495782522E+01  0.22139399202E+02 -0.15002627005E+02  0.27079341377E+02  0.00000000000E+00 0. -1.
</event>
<event>
 4    1  0.5740469E+002  0.5946133E+02  0.7546771E-02  0.1261674E+00
          2   -1    0    0  502    0  0.00000000000E+00  0.00000000000E+00  0.49554929009E+03  0.49554929009E+03  0.00000000000E+00 0. -1.
         -2   -1    0    0    0  501 -0.00000000000E+00 -0.00000000000E+00 -0.79520956132E+01  0.79520956132E+01  0.00000000000E+00 0.  1.
         21    1    1    2  502  503 -0.48531546356E+02  0.34356051819E+02  0.32450671198E+03  0.32990946547E+03  0.00000000000E+00 0. -1.
         21    1    1    2  503  501  0.48531546356E+02 -0.34356051819E+02  0.16309048250E+03  0.17359192023E+03  0.00000000000E+00 0.  1.
</event>
<event>
 4    1  0.5740469E+002  0.2039461E+02  0.7546771E-02  0.1528086E+00
          2   -1    0    0  503    0  0.00000000000E+00  0.00000000000E+00  0.20726911767E+02  0.20726911767E+02  0.00000000000E+00 0. -1.
         -2   -1    0    0    0  501 -0.00000000000E+00 -0.00000000000E+00 -0.80032077331E+02  0.80032077331E+02  0.00000000000E+00 0.  1.
         21    1    1    2  502  501  0.17638338755E+02  0.10238616826E+02 -0.73260830016E+02  0.76046627033E+02  0.00000000000E+00 0.  1.
         21    1    1    2  503  502 -0.17638338755E+02 -0.10238616826E+02  0.13955664451E+02  0.24712362064E+02  0.00000000000E+00 0. -1.
</event>
<event>
 4    1  0.5740469E+002  0.2101378E+02  0.7546771E-02  0.1519068E+00
          2   -1    0    0  503    0  0.00000000000E+00  0.00000000000E+00  0.54234678904E+02  0.54234678904E+02  0.00000000000E+00 0.  1.
         -2   -1    0    0    0  501 -0.00000000000E+00 -0.00000000000E+00 -0.12031572735E+03  0.12031572735E+03  0.00000000000E+00 0. -1.
         21    1    1    2  502  501  0.20284832834E+02  0.54867455202E+01 -0.11731096026E+03  0.11917818683E+03  0.00000000000E+00 0. -1.
         21    1    1    2  503  502 -0.20284832834E+02 -0.54867455202E+01  0.51229911812E+02  0.55372219423E+02  0.00000000000E+00 0.  1.
</event>
<event>
 4    1  0.5740469E+002  0.2258786E+02  0.7546771E-02  0.1497739E+00
          2   -1    0    0  503    0  0.00000000000E+00  0.00000000000E+00  0.14555854741E+04  0.14555854741E+04  0.00000000000E+00 0.  1.
         -2   -1    0    0    0  501 -0.00000000000E+00 -0.00000000000E+00 -0.34649566407E+01  0.34649566407E+01  0.00000000000E+00 0. -1.
         21    1    1    2  502  501  0.20574253872E+02  0.93226405109E+01  0.34418560644E+02  0.41168542180E+02  0.00000000000E+00 0. -1.
         21    1    1    2  503  502 -0.20574253872E+02 -0.93226405109E+01  0.14177019568E+04  0.14178818885E+04  0.00000000000E+00 0.  1.
</event>
<event>
 4    1  0.5740469E+002  0.2223414E+02  0.7546771E-02  0.1502346E+00
          2   -1    0    0  503    0  0.00000000000E+00  0.00000000000E+00  0.70282337715E+03  0.70282337715E+03  0.00000000000E+00 0. -1.
         -2   -1    0    0    0  501 -0.00000000000E+00 -0.00000000000E+00 -0.20787904819E+01  0.20787904819E+01  0.00000000000E+00 0.  1.
         21    1    1    2  502  501  0.74083012446E+01  0.20963634296E+02  0.63684939513E+02  0.67454639655E+02  0.00000000000E+00 0.  1.
         21    1    1    2  503  502 -0.74083012446E+01 -0.20963634296E+02  0.63705964715E+03  0.63744752797E+03  0.00000000000E+00 0. -1.
</event>
<event>
 4    1  0.5740469E+002  0.2338354E+02  0.7546771E-02  0.1487737E+00
          2   -1    0    0  502    0  0.00000000000E+00  0.00000000000E+00  0.61692450359E+03  0.61692450359E+03  0.00000000000E+00 0. -1.
         -2   -1    0    0    0  501 -0.00000000000E+00 -0.00000000000E+00 -0.93540403182E+00  0.93540403182E+00  0.00000000000E+00 0.  1.
         21    1    1    2  502  503  0.11913528222E+02  0.20121077047E+02  0.37876457863E+03  0.37948569923E+03  0.00000000000E+00 0. -1.
         21    1    1    2  503  501 -0.11913528222E+02 -0.20121077047E+02  0.23722452092E+03  0.23837420838E+03  0.00000000000E+00 0.  1.
</event>
<event>
 4    1  0.5740469E+002  0.2320015E+02  0.7546771E-02  0.1490000E+00
          2   -1    0    0  503    0  0.00000000000E+00  0.00000000000E+00  0.56168985527E+03  0.56168985527E+03  0.00000000000E+00 0. -1.
         -2   -1    0    0    0  501 -0.00000000000E+00 -0.00000000000E+00 -0.39673097962E+01  0.39673097962E+01  0.00000000000E+00 0.  1.
         21    1    1    2  502  501 -0.41417980936E+01  0.22827447966E+02  0.32546944142E+02  0.39969368835E+02  0.00000000000E+00 0.  1.
         21    1    1    2  503  502  0.41417980936E+01 -0.22827447966E+02  0.52517560133E+03  0.52568779623E+03  0.00000000000E+00 0. -1.
</event>
<event>
 4    1  0.5740469E+002  0.2430466E+02  0.7546771E-02  0.1476735E+00
          2   -1    0    0  503    0  0.00000000000E+00  0.00000000000E+00  0.18259431861E+04  0.18259431861E+04  0.00000000000E+00 0.  1.
         -2   -1    0    0    0  501 -0.00000000000E+00 -0.00000000000E+00 -0.11369852217E+01  0.11369852217E+01  0.00000000000E+00 0. -1.
         21    1    1    2  502  501  0.20779684936E+02 -0.12606393272E+02  0.13968417713E+03  0.14178288260E+03  0.00000000000E+00 0. -1.
         21    1    1    2  503  502 -0.20779684936E+02  0.12606393272E+02  0.16851220238E+04  0.16852972887E+04  0.00000000000E+00 0.  1.
</event>
<event>
 4    1  0.5740469E+002  0.2458531E+02  0.7546771E-02  0.1473496E+00
          2   -1    0    0  503    0  0.00000000000E+00  0.00000000000E+00  0.15297066913E+04  0.15297066913E+04  0.00000000000E+00 0.  1.
         -2   -1    0    0    0  501 -0.00000000000E+00 -0.00000000000E+00 -0.63038961784E+00  0.63038961784E+00  0.00000000000E+00 0. -1.
         21    1    1    2  502  501  0.20902821345E+02 -0.12942541293E+02  0.29710051940E+03  0.29811601088E+03  0.00000000000E+00 0. -1.
         21    1    1    2  503  502 -0.20902821345E+02  0.12942541293E+02  0.12319757823E+04  0.12322210701E+04  0.00000000000E+00 0.  1.
</event>
<event>
 4    1  0.5740469E+002  0.4499258E+02  0.7546771E-02  0.1321476E+00
          2   -1    0    0  502    0  0.00000000000E+00  0.00000000000E+00  0.22238149533E+03  0.22238149533E+03  0.00000000000E+00 0.  1.
         -2   -1    0    0    0  501 -0.00000000000E+00 -0.00000000000E+00 -0.13063044858E+02  0.13063044858E+02  0.00000000000E+00 0. -1.
         21    1    1    2  502  503 -0.41262932715E+02 -0.17936075499E+02  0.16947609193E+03  0.17534673694E+03  0.00000000000E+00 0.  1.
         21    1    1    2  503  501  0.41262932715E+02  0.17936075499E+02  0.39842358536E+02  0.60097803240E+02  0.00000000000E+00 0. -1.
</event>
<event>
 4    1  0.5740469E+002  0.2122033E+02  0.7546771E-02  0.1516142E+00
          2   -1    0    0  503    0  0.00000000000E+00  0.00000000000E+00  0.58101229244E+03  0.58101229244E+03  0.00000000000E+00 0.  1.
         -2   -1    0    0    0  501 -0.00000000000E+00 -0.00000000000E+00 -0.80511064847E+00  0.80511064847E+00  0.00000000000E+00 0. -1.
         21    1    1    2  502  501  0.13541809444E+02 -0.16337737735E+02  0.23387353130E+03  0.23483426267E+03  0.00000000000E+00 0. -1.
         21    1    1    2  503  502 -0.13541809444E+02  0.16337737735E+02  0.34633365048E+03  0.34698314042E+03  0.00000000000E+00 0.  1.
</event>
<event>
 4    1  0.5740469E+002  0.2007170E+02  0.7546771E-02  0.1532942E+00
          2   -1    0    0  503    0  0.00000000000E+00  0.00000000000E+00  0.10534500637E+03  0.10534500637E+03  0.00000000000E+00 0.  1.
         -2   -1    0    0    0  501 -0.00000000000E+00 -0.00000000000E+00 -0.55885880128E+01  0.55885880128E+01  0.00000000000E+00 0. -1.
         21    1    1    2  502  501 -0.18619701687E+02  0.74953208712E+01  0.18713420093E+02  0.27442033771E+02  0.00000000000E+00 0. -1.
         21    1    1    2  503  502  0.18619701687E+02 -0.74953208712E+01  0.81042998269E+02  0.83491560617E+02  0.00000000000E+00 0.  1.
</event>
<event>
 4    1  0.5740469E+002  0.3253296E+02  0.7546771E-02  0.1398789E+00
          2   -1    0    0  502    0  0.00000000000E+00  0.00000000000E+00  0.26644372667E+03  0.26644372667E+03  0.00000000000E+00 0.  1.
         -2   -1    0    0    0  501 -0.00000000000E+00 -0.00000000000E+00 -0.86480755873E+01  0.86480755873E+01  0.00000000000E+00 0. -1.
         21    1    1    2  502  503  0.10393559000E+02 -0.30828028325E+02  0.23003595595E+03  0.23232506199E+03  0.00000000000E+00 0.  1.
         21    1    1    2  503  501 -0.10393559000E+02  0.30828028325E+02  0.27759695130E+02  0.42766740264E+02  0.00000000000E+00 0. -1.
</event>
<event>
 4    1  0.5740469E+002  0.5018257E+02  0.7546771E-02  0.1297383E+00
          2   -1    0    0  503    0  0.00000000000E+00  0.00000000000E+00  0.13856134753E+03  0.13856134753E+03  0.00000000000E+00 0. -1.
         -2   -1    0    0    0  501 -0.00000000000E+00 -0.00000000000E+00 -0.45342194782E+02  0.45342194782E+02  0.00000000000E+00 0.  1.
         21    1    1    2  502  501  0.37389656083E+02  0.33470937168E+02 -0.24566629205E+02  0.55873153548E+02  0.00000000000E+00 0.  1.
         21    1    1    2  503  502 -0.37389656083E+02 -0.33470937168E+02  0.11778578195E+03  0.12803038876E+03  0.00000000000E+00 0. -1.
</event>
<event>
 4    1  0.5740469E+002  0.2651380E+02  0.7546771E-02  0.1452554E+00
          2   -1    0    0  503    0  0.00000000000E+00  0.00000000000E+00  0.18830548080E+03  0.18830548080E+03  0.00000000000E+00 0.  1.
         -2   -1    0    0    0  501 -0.00000000000E+00 -0.00000000000E+00 -0.39497006898E+01  0.39497006898E+01  0.00000000000E+00 0. -1.
         21    1    1    2  502  501  0.23048672257E+02 -0.13104978852E+02  0.69671959319E+02  0.74546386088E+02  0.00000000000E+00 0. -1.
         21    1    1    2  503  502 -0.23048672257E+02  0.13104978852E+02  0.11468382079E+03  0.11770879540E+03  0.00000000000E+00 0.  1.
</event>
<event>
 4    1  0.5740469E+002  0.2515455E+02  0.7546771E-02  0.1467082E+00
          2   -1    0    0  503    0  0.00000000000E+00  0.00000000000E+00  0.68080626505E+02  0.68080626505E+02  0.00000000000E+00 0.  1.
         -2   -1    0    0    0  501 -0.00000000000E+00 -0.00000000000E+00 -0.25968695114E+03  0.25968695114E+03  0.00000000000E+00 0. -1.
         21    1    1    2  502  501  0.20864180381E+02 -0.14051237937E+02 -0.25672754598E+03  0.25795694249E+03  0.00000000000E+00 0. -1.
         21    1    1    2  503  502 -0.20864180381E+02  0.14051237937E+02  0.65121221351E+02  0.69810635155E+02  0.00000000000E+00 0.  1.
</event>
<event>
 4    1  0.5740469E+002  0.2506042E+02  0.7546771E-02  0.1468129E+00
          2   -1    0    0  502    0  0.00000000000E+00  0.00000000000E+00  0.78099772910E+02  0.78099772910E+02  0.00000000000E+00 0. -1.
         -2   -1    0    0    0  501 -0.00000000000E+00 -0.00000000000E+00 -0.17325555309E+02  0.17325555309E+02  0.00000000000E+00 0.  1.
         21    1    1    2  502  503  0.23551572931E+02  0.85643588723E+01  0.65314269717E+02  0.69956977201E+02  0.00000000000E+00 0. -1.
         21    1    1    2  503  501 -0.23551572931E+02 -0.85643588723E+01 -0.45400521161E+01  0.25468351019E+02  0.00000000000E+00 0.  1.
</event>
<event>
 4    1  0.5740469E+002  0.2410039E+02  0.7546771E-02  0.1479124E+00
          2   -1    0    0  502    0  0.00000000000E+00  0.00000000000E+00  0.26211427057E+01  0.26211427057E+01  0.00000000000E+00 0.  1.
         -2   -1    0    0    0  501 -0.00000000000E+00 -0.00000000000E+00 -0.23819515085E+03  0.23819515085E+03  0.00000000000E+00 0. -1.
         21    1    1    2  502  503 -0.73921842381E+01 -0.22938712874E+02 -0.85999142752E+02  0.89312269539E+02  0.00000000000E+00 0.  1.
         21    1    1    2  503  501  0.73921842381E+01  0.22938712874E+02 -0.14957486540E+03  0.15150402402E+03  0.00000000000E+00 0. -1.
</event>
<event>
 4    1  0.5740469E+002  0.2143246E+02  0.7546771E-02  0.1513179E+00
          2   -1    0    0  502    0  0.00000000000E+00  0.00000000000E+00  0.29836911325E+03  0.29836911325E+03  0.00000000000E+00 0. -1.
         -2   -1    0    0    0  501 -0.00000000000E+00 -0.00000000000E+00 -0.25805656495E+01  0.25805656495E+01  0.00000000000E+00 0.  1.
         21    1    1    2  502  503 -0.19127783933E+02 -0.96684119401E+01  0.24346783326E+03  0.24440936180E+03  0.00000000000E+00 0. -1.
         21    1    1    2  503  501  0.19127783933E+02  0.96684119401E+01  0.52320714346E+02  0.56540317096E+02  0.00000000000E+00 0.  1.
</event>
<event>
 4    1  0.5740469E+002  0.3500956E+02  0.7546771E-02  0.1380496E+00
          2   -1    0    0  502    0  0.00000000000E+00  0.00000000000E+00  0.32198135880E+03  0.32198135880E+03  0.00000000000E+00 0. -1.
         -2   -1    0    0    0  501 -0.00000000000E+00 -0.00000000000E+00 -0.26049832027E+02  0.26049832027E+02  0.00000000000E+00 0.  1.
         21    1    1    2  502  503  0.29650516568E+02 -0.18614940857E+02  0.30876508124E+03  0.31074353501E+03  0.00000000000E+00 0. -1.
         21    1    1    2  503  501 -0.29650516568E+02  0.18614940857E+02 -0.12833554471E+02  0.37287655815E+02  0.00000000000E+00 0.  1.
</event>
<event>
 4    1  0.5740469E+002  0.4807150E+02  0.7546771E-02  0.1306757E+00
          2   -1    0    0  503    0  0.00000000000E+00  0.00000000000E+00  0.22635550791E+03  0.22635550791E+03  0.00000000000E+00 0. -1.
         -2   -1    0    0    0  501 -0.00000000000E+00 -0.00000000000E+00 -0.10278218177E+02  0.10278218177E+02  0.00000000000E+00 0.  1.
         21    1    1    2  502  501 -0.44727834366E+02 -0.17615059941E+02  0.11774626837E+03  0.12718118265E+03  0.00000000000E+00 0.  1.
         21    1    1    2  503  502  0.44727834366E+02  0.17615059941E+02  0.98331021366E+02  0.10945254344E+03  0.00000000000E+00 0. -1.
</event>
<event>
 4    1  0.5740469E+002  0.2187776E+02  0.7546771E-02  0.1507092E+00
          2   -1    0    0  502    0  0.00000000000E+00  0.00000000000E+00  0.23944058821E+03  0.23944058821E+03  0.00000000000E+00 0. -1.
         -2   -1    0    0    0  501 -0.00000000000E+00 -0.00000000000E+00 -0.70604867080E+01  0.70604867080E+01  0.00000000000E+00 0.  1.
         21    1    1    2  502  503 -0.13568619196E+02 -0.17161839894E+02  0.22054463893E+03  0.22162710560E+03  0.00000000000E+00 0. -1.
         21    1    1    2  503  501  0.13568619196E+02  0.17161839894E+02  0.11835462573E+02  0.24873969320E+02  0.00000000000E+00 0.  1.
</event>
<event>
 4    1  0.5740469E+002  0.2065681E+02  0.7546771E-02  0.1524222E+00
          2   -1    0    0  502    0  0.00000000000E+00  0.00000000000E+00  0.13263557266E+04  0.13263557266E+04  0.00000000000E+00 0.  1.
         -2   -1    0    0    0  501 -0.00000000000E+00 -0.00000000000E+00 -0.36198824991E+00  0.36198824991E+00  0.00000000000E+00 0. -1.
         21    1    1    2  502  503  0.15098018821E+02  0.14098003205E+02  0.88426995933E+03  0.88451120108E+03  0.00000000000E+00 0.  1.
         21    1    1    2  503  501 -0.15098018821E+02 -0.14098003205E+02  0.44172377905E+03  0.44220651380E+03  0.00000000000E+00 0. -1.
</event>
<event>
 4    1  0.5740469E+002  0.2157747E+02  0.7546771E-02  0.1511177E+00
          2   -1    0    0  502    0  0.00000000000E+00  0.00000000000E+00  0.30033856851E+01  0.30033856851E+01  0.00000000000E+00 0. -1.
         -2   -1    0    0    0  501 -0.00000000000E+00 -0.00000000000E+00 -0.15785635884E+03  0.15785635884E+03  0.00000000000E+00 0.  1.
         21    1    1    2  502  503 -0.50698092018E+01 -0.20973417819E+02 -0.88206181420E+02  0.90807035306E+02  0.00000000000E+00 0.  1.
         21    1    1    2  503  501  0.50698092018E+01  0.20973417819E+02 -0.66646791730E+02  0.70052709215E+02  0.00000000000E+00 0. -1.
</event>
<event>
 4    1  0.5740469E+002  0.2423487E+02  0.7546771E-02  0.1477548E+00
          2   -1    0    0  502    0  0.00000000000E+00  0.00000000000E+00  0.13136783047E+04  0.13136783047E+04  0.00000000000E+00 0. -1.
         -2   -1    0    0    0  501 -0.00000000000E+00 -0.00000000000E+00 -0.17378085266E+01  0.17378085266E+01  0.00000000000E+00 0.  1.
         21    1    1    2  502  503  0.24225203553E+02 -0.68457649947E+00  0.12227944622E+04  0.12230345972E+04  0.00000000000E+00 0. -1.
         21    1    1    2  503  501 -0.24225203553E+02  0.68457649947E+00  0.89146033936E+02  0.92381516002E+02  0.00000000000E+00 0.  1.
</event>
<event>
 4    1  0.5740469E+002  0.2173715E+02  0.7546771E-02  0.1508995E+00
          2   -1    0    0  503    0  0.00000000000E+00  0.00000000000E+00  0.95058998005E+02  0.95058998005E+02  0.00000000000E+00 0. -1.
         -2   -1    0    0    0  501 -0.00000000000E+00 -0.00000000000E+00 -0.14674333900E+02  0.14674333900E+02  0.00000000000E+00 0.  1.
         21    1    1    2  502  501  0.20946311276E+02 -0.58099751801E+01 -0.44244233565E+01  0.22182860269E+02  0.00000000000E+00 0.  1.
         21    1    1    2  503  502 -0.20946311276E+02  0.58099751801E+01  0.84809087461E+02  0.87550471636E+02  0.00000000000E+00 0. -1.
</event>
<event>
 4    1  0.5740469E+002  0.4534487E+02  0.7546771E-02  0.1319724E+00
          2   -1    0    0  503    0  0.00000000000E+00  0.00000000000E+00  0.22202912667E+04  0.22202912667E+04  0.00000000000E+00 0. -1.
         -2   -1    0    0    0  501 -0.00000000000E+00 -0.00000000000E+00 -0.15721579128E+01  0.15721579128E+01  0.00000000000E+00 0.  1.
         21    1    1    2  502  501 -0.32974492088E+02  0.31126200849E+02  0.39719030707E+03  0.39977030598E+03  0.00000000000E+00 0.  1.
         21    1    1    2  503  502  0.32974492088E+02 -0.31126200849E+02  0.18215288017E+04  0.18220931186E+04  0.00000000000E+00 0. -1.
</event>
<event>
 4    1  0.5740469E+002  0.4968538E+02  0.7546771E-02  0.1299542E+00
          2   -1    0    0  503    0  0.00000000000E+00  0.00000000000E+00  0.11897104718E+04  0.11897104718E+04  0.00000000000E+00 0.  1.
         -2   -1    0    0    0  501 -0.00000000000E+00 -0.00000000000E+00 -0.22411818042E+01  0.22411818042E+01  0.00000000000E+00 0. -1.
         21    1    1    2  502  501 -0.20484796401E+02  0.45265997485E+02  0.75602578619E+03  0.75765666816E+03  0.00000000000E+00 0.  1.
         21    1    1    2  503  502  0.20484796401E+02 -0.45265997485E+02  0.43144350378E+03  0.43429498542E+03  0.00000000000E+00 0. -1.
</event>
<event>
 4    1  0.5740469E+002  0.2038057E+02  0.7546771E-02  0.1528295E+00
          2   -1    0    0  503    0  0.00000000000E+00  0.00000000000E+00  0.59282022836E+03  0.59282022836E+03  0.00000000000E+00 0.  1.
         -2   -1    0    0    0  501 -0.00000000000E+00 -0.00000000000E+00 -0.19237827360E+01  0.19237827360E+01  0.00000000000E+00 0. -1.
         21    1    1    2  502  501  0.10244172234E+02  0.17618871620E+02  0.58334654175E+02  0.61792390953E+02  0.00000000000E+00 0. -1.
         21    1    1    2  503  502 -0.10244172234E+02 -0.17618871620E+02  0.53256179145E+03  0.53295162015E+03  0.00000000000E+00 0.  1.
</event>
<event>
 4    1  0.5740469E+002  0.3154500E+02  0.7546771E-02  0.1406629E+00
          2   -1    0    0  502    0  0.00000000000E+00  0.00000000000E+00  0.10634495766E+03  0.10634495766E+03  0.00000000000E+00 0. -1.
         -2   -1    0    0    0  501 -0.00000000000E+00 -0.00000000000E+00 -0.18772007384E+02  0.18772007384E+02  0.00000000000E+00 0.  1.
         21    1    1    2  502  503  0.34594598078E+01 -0.31354729241E+02  0.88089916538E+02  0.93567731102E+02  0.00000000000E+00 0. -1.
         21    1    1    2  503  501 -0.34594598078E+01  0.31354729241E+02 -0.51696626559E+00  0.31549233938E+02  0.00000000000E+00 0.  1.
</event>
<event>
 4    1  0.5740469E+002  0.2122112E+02  0.7546771E-02  0.1516131E+00
          2   -1    0    0  502    0  0.00000000000E+00  0.00000000000E+00  0.32620728814E+02  0.32620728814E+02  0.00000000000E+00 0. -1.
         -2   -1    0    0    0  501 -0.00000000000E+00 -0.00000000000E+00 -0.28756886563E+02  0.28756886563E+02  0.00000000000E+00 0.  1.
         21    1    1    2  502  503  0.10537475618E+02 -0.18420033122E+02  0.24060525788E+02  0.32081847107E+02  0.00000000000E+00 0. -1.
         21    1    1    2  503  501 -0.10537475618E+02  0.18420033122E+02 -0.20196683538E+02  0.29295768270E+02  0.00000000000E+00 0.  1.
</event>
<event>
 4    1  0.5740469E+002  0.2462950E+02  0.7546771E-02  0.1472991E+00
          2   -1    0    0  502    0  0.00000000000E+00  0.00000000000E+00  0.87812974390E+03  0.87812974390E+03  0.00000000000E+00 0. -1.
         -2   -1    0    0    0  501 -0.00000000000E+00 -0.00000000000E+00 -0.25732730010E+01  0.25732730010E+01  0.00000000000E+00 0.  1.
         21    1    1    2  502  503 -0.94783187274E+01 -0.22732663184E+02  0.81441340605E+03  0.81478574390E+03  0.00000000000E+00 0. -1.
         21    1    1    2  503  501  0.94783187274E+01  0.22732663184E+02  0.61143064846E+02  0.65917273003E+02  0.00000000000E+00 0.  1.
</event>
<event>
 4    1  0.5740469E+002  0.3541281E+02  0.7546771E-02  0.1377684E+00
          2   -1    0    0  502    0  0.00000000000E+00  0.00000000000E+00  0.11849696062E+02  0.11849696062E+02  0.00000000000E+00 0. -1.
         -2   -1    0    0    0  501 -0.00000000000E+00 -0.00000000000E+00 -0.28192322109E+03  0.28192322109E+03  0.00000000000E+00 0.  1.
         21    1    1    2  502  503 -0.97972596649E+01  0.34030581796E+02 -0.18949049932E+02  0.40163830590E+02  0.00000000000E+00 0. -1.
         21    1    1    2  503  501  0.97972596649E+01 -0.34030581796E+02 -0.25112447510E+03  0.25360908657E+03  0.00000000000E+00 0.  1.
</event>
<event>
 4    1  0.5740469E+002  0.2668155E+02  0.7546771E-02  0.1450834E+00
          2   -1    0    0  503    0  0.00000000000E+00  0.00000000000E+00  0.16297399332E+02  0.16297399332E+02  0.00000000000E+00 0.  1.
         -2   -1    0    0    0  501 -0.00000000000E+00 -0.00000000000E+00 -0.47931191714E+02  0.47931191714E+02  0.00000000000E+00 0. -1.
         21    1    1    2  502  501  0.17252977566E+02  0.20352880295E+02 -0.25378621441E+02  0.36823625534E+02  0.00000000000E+00 0.  1.
         21    1    1    2  503  502 -0.17252977566E+02 -0.20352880295E+02 -0.62551709404E+01  0.27404965512E+02  0.00000000000E+00 0. -1.
</event>
<event>
 4    1  0.5740469E+002  0.2290132E+02  0.7546771E-02  0.1493741E+00
          2   -1    0    0  502    0  0.00000000000E+00  0.00000000000E+00  0.94024971916E+03  0.94024971916E+03  0.00000000000E+00 0.  1.
         -2   -1    0    0    0  501 -0.00000000000E+00 -0.00000000000E+00 -0.94577940301E+00  0.94577940301E+00  0.00000000000E+00 0. -1.
         21    1    1    2  502  503  0.18745147760E+02 -0.13156359135E+02  0.77106346862E+03  0.77140348910E+03  0.00000000000E+00 0.  1.
         21    1    1    2  503  501 -0.18745147760E+02  0.13156359135E+02  0.16824047113E+03  0.16979200946E+03  0.00000000000E+00 0. -1.
</event>
<event>
 4    1  0.5740469E+002  0.2941836E+02  0.7546771E-02  0.1424719E+00
          2   -1    0    0  503    0  0.00000000000E+00  0.00000000000E+00  0.45354747777E+03  0.45354747777E+03  0.00000000000E+00 0. -1.
         -2   -1    0    0    0  501 -0.00000000000E+00 -0.00000000000E+00 -0.51562474126E+01  0.51562474126E+01  0.00000000000E+00 0.  1.
         21    1    1    2  502  501  0.19295577067E+02 -0.22206312592E+02  0.42162886610E+02  0.51411561157E+02  0.00000000000E+00 0.  1.
         21    1    1    2  503  502 -0.19295577067E+02  0.22206312592E+02  0.40622834375E+03  0.40729216403E+03  0.00000000000E+00 0. -1.
</event>
<event>
 4    1  0.5740469E+002  0.2184706E+02  0.7546771E-02  0.1507506E+00
          2   -1    0    0  503    0  0.00000000000E+00  0.00000000000E+00  0.14554515361E+02  0.14554515361E+02  0.00000000000E+00 0.  1.
         -2   -1    0    0    0  501 -0.00000000000E+00 -0.00000000000E+00 -0.42641076639E+02  0.42641076639E+02  0.00000000000E+00 0. -1.
         21    1    1    2  502  501 -0.50663447572E+01  0.21251493460E+02 -0.27786316408E+02  0.35346473700E+02  0.00000000000E+00 0. -1.
         21    1    1    2  503  502  0.50663447572E+01 -0.21251493460E+02 -0.30024486900E+00  0.21849118300E+02  0.00000000000E+00 0.  1.
</event>
<event>
 4    1  0.5740469E+002  0.2881241E+02  0.7546771E-02  0.1430205E+00
          2   -1    0    0  502    0  0.00000000000E+00  0.00000000000E+00  0.23778631643E+01  0.23778631643E+01  0.00000000000E+00 0.  1.
         -2   -1    0    0    0  501 -0.00000000000E+00 -0.00000000000E+00 -0.35887080498E+03  0.35887080498E+03  0.00000000000E+00 0. -1.
         21    1    1    2  502  503 -0.64287467465E+01 -0.28086047631E+02 -0.20802284003E+03  0.21000870656E+03  0.00000000000E+00 0. -1.
         21    1    1    2  503  501  0.64287467465E+01  0.28086047631E+02 -0.14847010179E+03  0.15123996159E+03  0.00000000000E+00 0.  1.
</event>
<event>
 4    1  0.5740469E+002  0.2267927E+02  0.7546771E-02  0.1496565E+00
          2   -1    0    0  502    0  0.00000000000E+00  0.00000000000E+00  0.21710180314E+01  0.21710180314E+01  0.00000000000E+00 0. -1.
         -2   -1    0    0    0  501 -0.00000000000E+00 -0.00000000000E+00 -0.26859363255E+03  0.26859363255E+03  0.00000000000E+00 0.  1.
         21    1    1    2  502  503 -0.64047039732E+01 -0.21756129720E+02 -0.86718167567E+02  0.89634758880E+02  0.00000000000E+00 0.  1.
         21    1    1    2  503  501  0.64047039732E+01  0.21756129720E+02 -0.17970444695E+03  0.18112989170E+03  0.00000000000E+00 0. -1.
</event>
<event>
 4    1  0.5740469E+002  0.2039174E+02  0.7546771E-02  0.1528129E+00
          2   -1    0    0  502    0  0.00000000000E+00  0.00000000000E+00  0.16849728933E+04  0.16849728933E+04  0.00000000000E+00 0.  1.
         -2   -1    0    0    0  501 -0.00000000000E+00 -0.00000000000E+00 -0.29136834348E+00  0.29136834348E+00  0.00000000000E+00 0. -1.
         21    1    1    2  502  503  0.19514064880E+02 -0.59181351583E+01  0.51272211383E+03  0.51312745889E+03  0.00000000000E+00 0. -1.
         21    1    1    2  503  501 -0.19514064880E+02  0.59181351583E+01  0.11719594112E+04  0.11721368028E+04  0.00000000000E+00 0.  1.
</event>
<event>
 4    1  0.5740469E+002  0.4052897E+02  0.7546771E-02  0.1345414E+00
          2   -1    0    0  502    0  0.00000000000E+00  0.00000000000E+00  0.11372821991E+04  0.11372821991E+04  0.00000000000E+00 0.  1.
         -2   -1    0    0    0  501 -0.00000000000E+00 -0.00000000000E+00 -0.75091085260E+01  0.75091085260E+01  0.00000000000E+00 0. -1.
         21    1    1    2  502  503 -0.28178905134E+02 -0.29129826572E+02  0.10792972871E+04  0.10800579760E+04  0.00000000000E+00 0.  1.
         21    1    1    2  503  501  0.28178905134E+02  0.29129826572E+02  0.50475803413E+02  0.64733331607E+02  0.00000000000E+00 0. -1.
</event>
<event>
 4    1  0.5740469E+002  0.3774842E+02  0.7546771E-02  0.1362210E+00
          2   -1    0    0  503    0  0.00000000000E+00  0.00000000000E+00  0.18926681204E+04  0.18926681204E+04  0.00000000000E+00 0.  1.
         -2   -1    0    0    0  501 -0.00000000000E+00 -0.00000000000E+00 -0.24202785835E+01  0.24202785835E+01  0.00000000000E+00 0. -1.
         21    1    1    2  502  501  0.13233129350E+02 -0.35352904029E+02  0.15864498914E+03  0.16307414300E+03  0.00000000000E+00 0. -1.
         21    1    1    2  503  502 -0.13233129350E+02  0.35352904029E+02  0.17316028527E+04  0.17320142560E+04  0.00000000000E+00 0.  1.
</event>
<event>
 4    1  0.5740469E+002  0.2214733E+02  0.7546771E-02  0.1503492E+00
          2   -1    0    0  502    0  0.00000000000E+00  0.00000000000E+00  0.77202164977E+03  0.77202164977E+03  0.00000000000E+00 0.  1.
         -2   -1    0    0    0  501 -0.00000000000E+00 -0.00000000000E+00 -0.37173774063E+02  0.37173774063E+02  0.00000000000E+00 0. -1.
         21    1    1    2  502  503  0.20339691818E+02 -0.87636373874E+01  0.76854918473E+03  0.76886822912E+03  0.00000000000E+00 0.  1.
         21    1    1    2  503  501 -0.20339691818E+02  0.87636373874E+01 -0.33701309023E+02  0.40327194712E+02  0.00000000000E+00 0. -1.
</event>
<event>
 4    1  0.5740469E+002  0.4447303E+02  0.7546771E-02  0.1324096E+00
          2   -1    0    0  502    0  0.00000000000E+00  0.00000000000E+00  0.21757391220E+04  0.21757391220E+04  0.00000000000E+00 0.  1.
         -2   -1    0    0    0  501 -0.00000000000E+00 -0.00000000000E+00 -0.11782092722E+01  0.11782092722E+01  0.00000000000E+00 0. -1.
         21    1    1    2  502  503  0.31461283499E+02 -0.31433073368E+02  0.16075247431E+04  0.16081398105E+04  0.00000000000E+00 0.  1.
         21    1    1    2  503  501 -0.31461283499E+02  0.31433073368E+02  0.56703616955E+03  0.56877752069E+03  0.00000000000E+00 0. -1.
</event>
<event>
 4    1  0.5740469E+002  0.2341889E+02  0.7546771E-02  0.1487304E+00
          2   -1    0    0  502    0  0.00000000000E+00  0.00000000000E+00  0.34517255217E+01  0.34517255217E+01  0.00000000000E+00 0.  1.
         -2   -1    0    0    0  501 -0.00000000000E+00 -0.00000000000E+00 -0.26063291814E+03  0.26063291814E+03  0.00000000000E+00 0. -1.
         21    1    1    2  502  503 -0.50329675472E+01 -0.22871674827E+02 -0.46091183202E+02  0.51699530372E+02  0.00000000000E+00 0. -1.
         21    1    1    2  503  501  0.50329675472E+01  0.22871674827E+02 -0.21109000942E+03  0.21238511329E+03  0.00000000000E+00 0.  1.
</event>
<event>
 4    1  0.5740469E+002  0.3342917E+02  0.7546771E-02  0.1391956E+00
          2   -1    0    0  503    0  0.00000000000E+00  0.00000000000E+00  0.13982490938E+04  0.13982490938E+04  0.00000000000E+00 0.  1.
         -2   -1    0    0    0  501 -0.00000000000E+00 -0.00000000000E+00 -0.13269948851E+01  0.13269948851E+01  0.00000000000E+00 0. -1.
         21    1    1    2  502  501  0.16863432363E+02  0.28864063857E+02  0.11397834698E+04  0.11402735933E+04  0.00000000000E+00 0.  1.
         21    1    1    2  503  502 -0.16863432363E+02 -0.28864063857E+02  0.25713862917E+03  0.25930249545E+03  0.00000000000E+00 0. -1.
</event>
<event>
 4    1  0.5740469E+002  0.2381657E+02  0.7546771E-02  0.1482491E+00
          2   -1    0    0  503    0  0.00000000000E+00  0.00000000000E+00  0.63726752245E+03  0.63726752245E+03  0.00000000000E+00 0.  1.
         -2   -1    0    0    0  501 -0.00000000000E+00 -0.00000000000E+00 -0.14520930040E+01  0.14520930040E+01  0.00000000000E+00 0. -1.
         21    1    1    2  502  501  0.18242857533E+02  0.15311017004E+02  0.11922954480E+03  0.12158500502E+03  0.00000000000E+00 0.  1.
         21    1    1    2  503  502 -0.18242857533E+02 -0.15311017004E+02  0.51658588464E+03  0.51713461043E+03  0.00000000000E+00 0. -1.
</event>
<event>
 4    1  0.5740469E+002  0.2395246E+02  0.7546771E-02  0.1480872E+00
          2   -1    0    0  503    0  0.00000000000E+00  0.00000000000E+00  0.13060089204E+03  0.13060089204E+03  0.00000000000E+00 0.  1.
         -2   -1    0    0    0  501 -0.00000000000E+00 -0.00000000000E+00 -0.46145563371E+01  0.46145563371E+01  0.00000000000E+00 0. -1.
         21    1    1    2  502  501 -0.23588182357E+02  0.41614823622E+01  0.48176715356E+02  0.53802566713E+02  0.00000000000E+00 0. -1.
         21    1    1    2  503  502  0.23588182357E+02 -0.41614823622E+01  0.77809620342E+02  0.81412881660E+02  0.00000000000E+00 0.  1.
</event>
<event>
 4    1  0.5740469E+002  0.5076101E+02  0.7546771E-02  0.1294906E+00
          2   -1    0    0  502    0  0.00000000000E+00  0.00000000000E+00  0.74733300551E+03  0.74733300551E+03  0.00000000000E+00 0. -1.
         -2   -1    0    0    0  501 -0.00000000000E+00 -0.00000000000E+00 -0.37007294326E+01  0.37007294326E+01  0.00000000000E+00 0.  1.
         21    1    1    2  502  503  0.34488216477E+02  0.37245716605E+02  0.27365131458E+03  0.27831946115E+03  0.00000000000E+00 0. -1.
         21    1    1    2  503  501 -0.34488216477E+02 -0.37245716605E+02  0.46998096150E+03  0.47271427380E+03  0.00000000000E+00 0.  1.
</event>
<event>
 4    1  0.5740469E+002  0.2008325E+02  0.7546771E-02  0.1532767E+00
          2   -1    0    0  503    0  0.00000000000E+00  0.00000000000E+00  0.87328932834E+02  0.87328932834E+02  0.00000000000E+00 0.  1.
         -2   -1    0    0    0  501 -0.00000000000E+00 -0.00000000000E+00 -0.49230979233E+01  0.49230979233E+01  0.00000000000E+00 0. -1.
         21    1    1    2  502  501 -0.19605799690E+02 -0.43530883826E+01  0.29731312800E+02  0.35878792075E+02  0.00000000000E+00 0. -1.
         21    1    1    2  503  502  0.19605799690E+02  0.43530883826E+01  0.52674522111E+02  0.56373238682E+02  0.00000000000E+00 0.  1.
</event>
<event>
 4    1  0.5740469E+002  0.3306019E+02  0.7546771E-02  0.1394739E+00
          2   -1    0    0  503    0  0.00000000000E+00  0.00000000000E+00  0.14766644774E+01  0.14766644774E+01  0.00000000000E+00 0. -1.
         -2   -1    0    0    0  501 -0.00000000000E+00 -0.00000000000E+00 -0.76700733705E+03  0.76700733705E+03  0.00000000000E+00 0.  1.
         21    1    1    2  502  501 -0.18729876215E+02 -0.27242757642E+02 -0.45464584834E+03  0.45584627180E+03  0.00000000000E+00 0.  1.
         21    1    1    2  503  502  0.18729876215E+02  0.27242757642E+02 -0.31088482423E+03  0.31263772972E+03  0.00000000000E+00 0. -1.
</event>
<event>
 4    1  0.5740469E+002  0.2146022E+02  0.7546771E-02  0.1512795E+00
          2   -1    0    0  502    0  0.00000000000E+00  0.00000000000E+00  0.44696981920E+03  0.44696981920E+03  0.00000000000E+00 0.  1.
         -2   -1    0    0    0  501 -0.00000000000E+00 -0.00000000000E+00 -0.18447023682E+01  0.18447023682E+01  0.00000000000E+00 0. -1.
         21    1    1    2  502  503  0.14559207273E+02  0.15766115317E+02  0.37166220689E+03  0.37228126053E+03  0.00000000000E+00 0.  1.
         21    1    1    2  503  501 -0.14559207273E+02 -0.15766115317E+02  0.73462909941E+02  0.76533261041E+02  0.00000000000E+00 0. -1.
</event>
<event>
 4    1  0.5740469E+002  0.4247312E+02  0.7546771E-02  0.1334573E+00
          2   -1    0    0  502    0  0.00000000000E+00  0.00000000000E+00  0.11879299503E+02  0.11879299503E+02  0.00000000000E+00 0. -1.
         -2   -1    0    0    0  501 -0.00000000000E+00 -0.00000000000E+00 -0.15331989494E+03  0.15331989494E+03  0.00000000000E+00 0.  1.
         21    1    1    2  502  503 -0.42743459553E+01 -0.42257490090E+02 -0.62654426547E+02  0.75693742594E+02  0.00000000000E+00 0. -1.
         21    1    1    2  503  501  0.42743459553E+01  0.42257490090E+02 -0.78786168890E+02  0.89505451848E+02  0.00000000000E+00 0.  1.
</event>
<event>
 4    1  0.5740469E+002  0.2731967E+02  0.7546771E-02  0.1444423E+00
          2   -1    0    0  503    0  0.00000000000E+00  0.00000000000E+00  0.10514844548E+02  0.10514844548E+02  0.00000000000E+00 0.  1.
         -2   -1    0    0    0  501 -0.00000000000E+00 -0.00000000000E+00 -0.72008713193E+02  0.72008713193E+02  0.00000000000E+00 0. -1.
         21    1    1    2  502  501 -0.60611839977E+01  0.26638809265E+02 -0.35674038715E+02  0.44933296660E+02  0.00000000000E+00 0. -1.
         21    1    1    2  503  502  0.60611839977E+01 -0.26638809265E+02 -0.25819829930E+02  0.37590261081E+02  0.00000000000E+00 0.  1.
</event>
<event>
 4    1  0.5740469E+002  0.2576339E+02  0.7546771E-02  0.1460442E+00
          2   -1    0    0  502    0  0.00000000000E+00  0.00000000000E+00  0.41478931368E+02  0.41478931368E+02  0.00000000000E+00 0.  1.
         -2   -1    0    0    0  501 -0.00000000000E+00 -0.00000000000E+00 -0.50259240607E+02  0.50259240607E+02  0.00000000000E+00 0. -1.
         21    1    1    2  502  503  0.20409457458E+02  0.15722789731E+02  0.33479153009E+02  0.42244594410E+02  0.00000000000E+00 0.  1.
         21    1    1    2  503  501 -0.20409457458E+02 -0.15722789731E+02 -0.42259462248E+02  0.49493577565E+02  0.00000000000E+00 0. -1.
</event>
<event>
 4    1  0.5740469E+002  0.2218849E+02  0.7546771E-02  0.1502948E+00
          2   -1    0    0  503    0  0.00000000000E+00  0.00000000000E+00  0.11680890125E+04  0.11680890125E+04  0.00000000000E+00 0. -1.
         -2   -1    0    0    0  501 -0.00000000000E+00 -0.00000000000E+00 -0.12442622479E+01  0.12442622479E+01  0.00000000000E+00 0.  1.
         21    1    1    2  502  501  0.14235782986E+02 -0.17019736696E+02  0.10798406376E+03  0.11024013326E+03  0.00000000000E+00 0.  1.
         21    1    1    2  503  502 -0.14235782986E+02  0.17019736696E+02  0.10588606865E+04  0.10590931415E+04  0.00000000000E+00 0. -1.
</event>
<event>
 4    1  0.5740469E+002  0.3508072E+02  0.7546771E-02  0.1379997E+00
          2   -1    0    0  502    0  0.00000000000E+00  0.00000000000E+00  0.79799216213E+03  0.79799216213E+03  0.00000000000E+00 0.  1.
         -2   -1    0    0    0  501 -0.00000000000E+00 -0.00000000000E+00 -0.23822864778E+01  0.23822864778E+01  0.00000000000E+00 0. -1.
         21    1    1    2  502  503 -0.83759687532E+01 -0.34066109668E+02  0.63545089871E+03  0.63641849545E+03  0.00000000000E+00 0.  1.
         21    1    1    2  503  501  0.83759687532E+01  0.34066109668E+02  0.16015897694E+03  0.16395595316E+03  0.00000000000E+00 0. -1.
</event>
<event>
 4    1  0.5740469E+002  0.3706057E+02  0.7546771E-02  0.1366629E+00
          2   -1    0    0  502    0  0.00000000000E+00  0.00000000000E+00  0.82879850030E+01  0.82879850030E+01  0.00000000000E+00 0.  1.
         -2   -1    0    0    0  501 -0.00000000000E+00 -0.00000000000E+00 -0.18589619288E+03  0.18589619288E+03  0.00000000000E+00 0. -1.
         21    1    1    2  502  503  0.34093558029E+02 -0.14529811278E+02 -0.56817613096E+02  0.67836032260E+02  0.00000000000E+00 0.  1.
         21    1    1    2  503  501 -0.34093558029E+02  0.14529811278E+02 -0.12079059478E+03  0.12634814562E+03  0.00000000000E+00 0. -1.
</event>
<event>
 4    1  0.5740469E+002  0.3231358E+02  0.7546771E-02  0.1400502E+00
          2   -1    0    0  503    0  0.00000000000E+00  0.00000000000E+00  0.51926016238E+02  0.51926016238E+02  0.00000000000E+00 0. -1.
         -2   -1    0    0    0  501 -0.00000000000E+00 -0.00000000000E+00 -0.23263097638E+02  0.23263097638E+02  0.00000000000E+00 0.  1.
         21    1    1    2  502  501 -0.34222219798E+01  0.32131850710E+02  0.48796353919E+00  0.32317263834E+02  0.00000000000E+00 0.  1.
         21    1    1    2  503  502  0.34222219798E+01 -0.32131850710E+02  0.28174955062E+02  0.42871850042E+02  0.00000000000E+00 0. -1.
</event>
<event>
 4    1  0.5740469E+002  0.2025008E+02  0.7546771E-02  0.1530246E+00
          2   -1    0    0  503    0  0.00000000000E+00  0.00000000000E+00  0.72222242592E+02  0.72222242592E+02  0.00000000000E+00 0.  1.
         -2   -1    0    0    0  501 -0.00000000000E+00 -0.00000000000E+00 -0.98757821092E+02  0.98757821092E+02  0.00000000000E+00 0. -1.
         21    1    1    2  502  501  0.12178375453E+02  0.16178783751E+02 -0.96263927864E+02  0.98370776556E+02  0.00000000000E+00 0. -1.
         21    1    1    2  503  502 -0.12178375453E+02 -0.16178783751E+02  0.69728349364E+02  0.72609287129E+02  0.00000000000E+00 0.  1.
</event>
<event>
 4    1  0.5740469E+002  0.2012146E+02  0.7546771E-02  0.1532187E+00
          2   -1    0    0  503    0  0.00000000000E+00  0.00000000000E+00  0.22880757893E+03  0.22880757893E+03  0.00000000000E+00 0.  1.
         -2   -1    0    0    0  501 -0.00000000000E+00 -0.00000000000E+00 -0.82030060055E+01  0.82030060055E+01  0.00000000000E+00 0. -1.
         21    1    1    2  502  501 -0.16512591753E+02  0.11498158970E+02  0.53540046936E+01  0.20821592455E+02  0.00000000000E+00 0. -1.
         21    1    1    2  503  502  0.16512591753E+02 -0.11498158970E+02  0.21525056823E+03  0.21618899248E+03  0.00000000000E+00 0.  1.
</event>
<event>
 4    1  0.5740469E+002  0.2174850E+02  0.7546771E-02  0.1508841E+00
          2   -1    0    0  502    0  0.00000000000E+00  0.00000000000E+00  0.22313420261E+02  0.22313420261E+02  0.00000000000E+00 0.  1.
         -2   -1    0    0    0  501 -0.00000000000E+00 -0.00000000000E+00 -0.21200681080E+02  0.21200681080E+02  0.00000000000E+00 0. -1.
         21    1    1    2  502  503  0.21058867967E+02  0.54333448781E+01  0.30618749860E+00  0.21750653034E+02  0.00000000000E+00 0.  1.
         21    1    1    2  503  501 -0.21058867967E+02 -0.54333448781E+01  0.80655168231E+00  0.21763448308E+02  0.00000000000E+00 0. -1.
</event>
<event>
 4    1  0.5740469E+002  0.2024970E+02  0.7546771E-02  0.1530252E+00
          2   -1    0    0  502    0  0.00000000000E+00  0.00000000000E+00  0.66151495871E+02  0.66151495871E+02  0.00000000000E+00 0.  1.
         -2   -1    0    0    0  501 -0.00000000000E+00 -0.00000000000E+00 -0.89325371356E+01  0.89325371356E+01  0.00000000000E+00 0. -1.
         21    1    1    2  502  503 -0.15017829427E+02  0.13583633835E+02  0.49378693538E+02  0.53369520181E+02  0.00000000000E+00 0.  1.
         21    1    1    2  503  501  0.15017829427E+02 -0.13583633835E+02  0.78402651975E+01  0.21714512825E+02  0.00000000000E+00 0. -1.
</event>
<event>
 4    1  0.5740469E+002  0.2729377E+02  0.7546771E-02  0.1444679E+00
          2   -1    0    0  502    0  0.00000000000E+00  0.00000000000E+00  0.11060856194E+04  0.11060856194E+04  0.00000000000E+00 0.  1.
         -2   -1    0    0    0  501 -0.00000000000E+00 -0.00000000000E+00 -0.71997886862E+00  0.71997886862E+00  0.00000000000E+00 0. -1.
         21    1    1    2  502  503 -0.27058552390E+02 -0.35755929504E+01  0.69328857407E+03  0.69382562439E+03  0.00000000000E+00 0. -1.
         21    1    1    2  503  501  0.27058552390E+02  0.35755929504E+01  0.41207706646E+03  0.41297997388E+03  0.00000000000E+00 0.  1.
</event>
<event>
 4    1  0.5740469E+002  0.2495008E+02  0.7546771E-02  0.1469363E+00
          2   -1    0    0  502    0  0.00000000000E+00  0.00000000000E+00  0.15261699518E+03  0.15261699518E+03  0.00000000000E+00 0. -1.
         -2   -1    0    0    0  501 -0.00000000000E+00 -0.00000000000E+00 -0.41364361511E+01  0.41364361511E+01  0.00000000000E+00 0.  1.
         21    1    1    2  502  503  0.24920214287E+02  0.12204853493E+01  0.83485418809E+02  0.87133930350E+02  0.00000000000E+00 0. -1.
         21    1    1    2  503  501 -0.24920214287E+02 -0.12204853493E+01  0.64995140219E+02  0.69619500980E+02  0.00000000000E+00 0.  1.
</event>
<event>
 4    1  0.5740469E+002  0.2090804E+02  0.7546771E-02  0.1520582E+00
          2   -1    0    0  502    0  0.00000000000E+00  0.00000000000E+00  0.64130013191E+02  0.64130013191E+02  0.00000000000E+00 0. -1.
         -2   -1    0    0    0  501 -0.00000000000E+00 -0.00000000000E+00 -0.68497936144E+01  0.68497936144E+01  0.00000000000E+00 0.  1.
         21    1    1    2  502  503 -0.20464986105E+02 -0.42814042375E+01  0.31112148616E+02  0.37484821863E+02  0.00000000000E+00 0. -1.
         21    1    1    2  503  501  0.20464986105E+02  0.42814042375E+01  0.26168070960E+02  0.33494984943E+02  0.00000000000E+00 0.  1.
</event>
<event>
 4    1  0.5740469E+002  0.2558032E+02  0.7546771E-02  0.1462415E+00
          2   -1    0    0  503    0  0.00000000000E+00  0.00000000000E+00  0.22449775424E+03  0.22449775424E+03  0.00000000000E+00 0.  1.
         -2   -1    0    0    0  501 -0.00000000000E+00 -0.00000000000E+00 -0.95621399170E+01  0.95621399170E+01  0.00000000000E+00 0. -1.
         21    1    1    2  502  501  0.22221670489E+02 -0.12670847280E+02  0.98912921018E+01  0.27426094683E+02  0.00000000000E+00 0. -1.
         21    1    1    2  503  502 -0.22221670489E+02  0.12670847280E+02  0.20504432222E+03  0.20663379947E+03  0.00000000000E+00 0.  1.
</event>
<event>
 4    1  0.5740469E+002  0.2087787E+02  0.7546771E-02  0.1521016E+00
          2   -1    0    0  502    0  0.00000000000E+00  0.00000000000E+00  0.83460671076E+03  0.83460671076E+03  0.00000000000E+00 0. -1.
         -2   -1    0    0    0  501 -0.00000000000E+00 -0.00000000000E+00 -0.58623617150E+00  0.58623617150E+00  0.00000000000E+00 0.  1.
         21    1    1    2  502  503  0.82958570708E+01  0.19158915171E+02  0.27906233405E+03  0.27984222619E+03  0.00000000000E+00 0.  1.
         21    1    1    2  503  501 -0.82958570708E+01 -0.19158915171E+02  0.55495814054E+03  0.55535072074E+03  0.00000000000E+00 0. -1.
</event>
<event>
 4    1  0.5740469E+002  0.3166949E+02  0.7546771E-02  0.1405623E+00
          2   -1    0    0  502    0  0.00000000000E+00  0.00000000000E+00  0.18881938453E+02  0.18881938453E+02  0.00000000000E+00 0. -1.
         -2   -1    0    0    0  501 -0.00000000000E+00 -0.00000000000E+00 -0.16582019226E+03  0.16582019226E+03  0.00000000000E+00 0.  1.
         21    1    1    2  502  503 -0.31158606578E+02  0.56654849311E+01  0.26670115668E+01  0.31781589546E+02  0.00000000000E+00 0. -1.
         21    1    1    2  503  501  0.31158606578E+02 -0.56654849311E+01 -0.14960526538E+03  0.15292054117E+03  0.00000000000E+00 0.  1.
</event>
<event>
 4    1  0.5740469E+002  0.2355104E+02  0.7546771E-02  0.1485692E+00
          2   -1    0    0  503    0  0.00000000000E+00  0.00000000000E+00  0.37350675934E+03  0.37350675934E+03  0.00000000000E+00 0. -1.
         -2   -1    0    0    0  501 -0.00000000000E+00 -0.00000000000E+00 -0.99012362720E+01  0.99012362720E+01  0.00000000000E+00 0.  1.
         21    1    1    2  502  501  0.20900025860E+02  0.10855441691E+02  0.50582970734E+01  0.24088131196E+02  0.00000000000E+00 0.  1.
         21    1    1    2  503  502 -0.20900025860E+02 -0.10855441691E+02  0.35854722600E+03  0.35931986442E+03  0.00000000000E+00 0. -1.
</event>
<event>
 4    1  0.5740469E+002  0.2065234E+02  0.7546771E-02  0.1524287E+00
          2   -1    0    0  503    0  0.00000000000E+00  0.00000000000E+00  0.58435376427E+01  0.58435376427E+01  0.00000000000E+00 0.  1.
         -2   -1    0    0    0  501 -0.00000000000E+00 -0.00000000000E+00 -0.78535233856E+02  0.78535233856E+02  0.00000000000E+00 0. -1.
         21    1    1    2  502  501  0.20311826775E+02  0.37348160818E+01 -0.47556613142E+02  0.51847378059E+02  0.00000000000E+00 0. -1.
         21    1    1    2  503  502 -0.20311826775E+02 -0.37348160818E+01 -0.25135083072E+02  0.32531393440E+02  0.00000000000E+00 0.  1.
</event>
<event>
 4    1  0.5740469E+002  0.3283592E+02  0.7546771E-02  0.1396451E+00
          2   -1    0    0  502    0  0.00000000000E+00  0.00000000000E+00  0.32101574236E+03  0.32101574236E+03  0.00000000000E+00 0. -1.
         -2   -1    0    0    0  501 -0.00000000000E+00 -0.00000000000E+00 -0.33910039676E+01  0.33910039676E+01  0.00000000000E+00 0.  1.
         21    1    1    2  502  503 -0.93917070565E+01  0.31464157566E+02  0.17464255431E+03  0.17770261436E+03  0.00000000000E+00 0. -1.
         21    1    1    2  503  501  0.93917070565E+01 -0.31464157566E+02  0.14298218408E+03  0.14670413197E+03  0.00000000000E+00 0.  1.
</event>
<event>
 4    1  0.5740469E+002  0.2091145E+02  0.7546771E-02  0.1520533E+00
          2   -1    0    0  503    0  0.00000000000E+00  0.00000000000E+00  0.11000510281E+02  0.11000510281E+02  0.00000000000E+00 0. -1.
         -2   -1    0    0    0  501 -0.00000000000E+00 -0.00000000000E+00 -0.43543799134E+02  0.43543799134E+02  0.00000000000E+00 0.  1.
         21    1    1    2  502  501  0.14142411214E+02 -0.15403920108E+02 -0.24319837712E+02  0.32074024630E+02  0.00000000000E+00 0.  1.
         21    1    1    2  503  502 -0.14142411214E+02  0.15403920108E+02 -0.82234511412E+01  0.22470284785E+02  0.00000000000E+00 0. -1.
</event>
<event>
 4    1  0.5740469E+002  0.2605539E+02  0.7546771E-02  0.1457335E+00
          2   -1    0    0  502    0  0.00000000000E+00  0.00000000000E+00  0.12172991052E+02  0.12172991052E+02  0.00000000000E+00 0.  1.
         -2   -1    0    0    0  501 -0.00000000000E+00 -0.00000000000E+00 -0.10793536901E+03  0.10793536901E+03  0.00000000000E+00 0. -1.
         21    1    1    2  502  503 -0.15744538441E+02  0.20760362150E+02 -0.61314215454E+01  0.26767096546E+02  0.00000000000E+00 0.  1.
         21    1    1    2  503  501  0.15744538441E+02 -0.20760362150E+02 -0.89630956409E+02  0.93341263513E+02  0.00000000000E+00 0. -1.
</event>
<event>
 4    1  0.5740469E+002  0.3624101E+02  0.7546771E-02  0.1372042E+00
          2   -1    0    0  502    0  0.00000000000E+00  0.00000000000E+00  0.64141564450E+03  0.64141564450E+03  0.00000000000E+00 0.  1.
         -2   -1    0    0    0  501 -0.00000000000E+00 -0.00000000000E+00 -0.37563726161E+01  0.37563726161E+01  0.00000000000E+00 0. -1.
         21    1    1    2  502  503 -0.37066905305E+01 -0.36050951126E+02  0.53639704008E+03  0.53761993568E+03  0.00000000000E+00 0.  1.
         21    1    1    2  503  501  0.37066905305E+01  0.36050951126E+02  0.10126223180E+03  0.10755208143E+03  0.00000000000E+00 0. -1.
</event>
<event>
 4    1  0.5740469E+002  0.2985933E+02  0.7546771E-02  0.1420823E+00
          2   -1    0    0  502    0  0.00000000000E+00  0.00000000000E+00  0.15642815149E+03  0.15642815149E+03  0.00000000000E+00 0. -1.
         -2   -1    0    0    0  501 -0.00000000000E+00 -0.00000000000E+00 -0.66238636728E+01  0.66238636728E+01  0.00000000000E+00 0.  1.
         21    1    1    2  502  503 -0.27451164928E+02 -0.11747906079E+02  0.44448754970E+02  0.53546910009E+02  0.00000000000E+00 0.  1.
         21    1    1    2  503  501  0.27451164928E+02  0.11747906079E+02  0.10535553285E+03  0.10950510515E+03  0.00000000000E+00 0. -1.
</event>
<event>
 4    1  0.5740469E+002  0.2295664E+02  0.7546771E-02  0.1493043E+00
          2   -1    0    0  503    0  0.00000000000E+00  0.00000000000E+00  0.22971290760E+03  0.22971290760E+03  0.00000000000E+00 0. -1.
         -2   -1    0    0    0  501 -0.00000000000E+00 -0.00000000000E+00 -0.41824823390E+01  0.41824823390E+01  0.00000000000E+00 0.  1.
         21    1    1    2  502  501 -0.14003552327E+02  0.18190867885E+02  0.34185909251E+02  0.41178678263E+02  0.00000000000E+00 0.  1.
         21    1    1    2  503  502  0.14003552327E+02 -0.18190867885E+02  0.19134451601E+03  0.19271671168E+03  0.00000000000E+00 0. -1.
</event>
<event>
 4    1  0.5740469E+002  0.2225920E+02  0.7546771E-02  0.1502016E+00
          2   -1    0    0  502    0  0.00000000000E+00  0.00000000000E+00  0.14758693357E+03  0.14758693357E+03  0.00000000000E+00 0.  1.
         -2   -1    0    0    0  501 -0.00000000000E+00 -0.00000000000E+00 -0.10409370141E+02  0.10409370141E+02  0.00000000000E+00 0. -1.
         21    1    1    2  502  503 -0.24632673335E+01 -0.22122479781E+02  0.13361186636E+03  0.13545332270E+03  0.00000000000E+00 0.  1.
         21    1    1    2  503  501  0.24632673335E+01  0.22122479781E+02  0.35656970738E+01  0.22542981019E+02  0.00000000000E+00 0. -1.
</event>
<event>
 4    1  0.5740469E+002  0.2911796E+02  0.7546771E-02  0.1427419E+00
          2   -1    0    0  503    0  0.00000000000E+00  0.00000000000E+00  0.75299632169E+02  0.75299632169E+02  0.00000000000E+00 0. -1.
         -2   -1    0    0    0  501 -0.00000000000E+00 -0.00000000000E+00 -0.15955631832E+02  0.15955631832E+02  0.00000000000E+00 0.  1.
         21    1    1    2  502  501  0.17707511212E+01  0.29064068403E+02  0.49189262199E+01  0.29530517551E+02  0.00000000000E+00 0.  1.
         21    1    1    2  503  502 -0.17707511212E+01 -0.29064068403E+02  0.54425074117E+02  0.61724746450E+02  0.00000000000E+00 0. -1.
</event>
<event>
 4    1  0.5740469E+002  0.2721480E+02  0.7546771E-02  0.1445462E+00
          2   -1    0    0  502    0  0.00000000000E+00  0.00000000000E+00  0.36294169259E+03  0.36294169259E+03  0.00000000000E+00 0. -1.
         -2   -1    0    0    0  501 -0.00000000000E+00 -0.00000000000E+00 -0.46273859301E+01  0.46273859301E+01  0.00000000000E+00 0.  1.
         21    1    1    2  502  503  0.13678942604E+02  0.23527260831E+02  0.31656615773E+03  0.31773381578E+03  0.00000000000E+00 0. -1.
         21    1    1    2  503  501 -0.13678942604E+02 -0.23527260831E+02  0.41748148937E+02  0.49835262743E+02  0.00000000000E+00 0.  1.
</event>
<event>
 4    1  0.5740469E+002  0.3149286E+02  0.7546771E-02  0.1407052E+00
          2   -1    0    0  502    0  0.00000000000E+00  0.00000000000E+00  0.18482807201E+02  0.18482807201E+02  0.00000000000E+00 0. -1.
         -2   -1    0    0    0  501 -0.00000000000E+00 -0.00000000000E+00 -0.54071454160E+02  0.54071454160E+02  0.00000000000E+00 0.  1.
         21    1    1    2  502  503 -0.23996035486E+02 -0.20395852995E+02 -0.14632518054E+02  0.34726231051E+02  0.00000000000E+00 0.  1.
         21    1    1    2  503  501  0.23996035486E+02  0.20395852995E+02 -0.20956128906E+02  0.37828030310E+02  0.00000000000E+00 0. -1.
</event>
<event>
 4    1  0.5740469E+002  0.3035181E+02  0.7546771E-02  0.1416563E+00
          2   -1    0    0  503    0  0.00000000000E+00  0.00000000000E+00  0.21786168917E+03  0.21786168917E+03  0.00000000000E+00 0. -1.
         -2   -1    0    0    0  501 -0.00000000000E+00 -0.00000000000E+00 -0.25103829909E+02  0.25103829909E+02  0.00000000000E+00 0.  1.
         21    1    1    2  502  501  0.27626993380E+02  0.12569080769E+02 -0.14401009044E+02  0.33594964148E+02  0.00000000000E+00 0.  1.
         21    1    1    2  503  502 -0.27626993380E+02 -0.12569080769E+02  0.20715886830E+03  0.20937055493E+03  0.00000000000E+00 0. -1.
</event>
<event>
 4    1  0.5740469E+002  0.2302345E+02  0.7546771E-02  0.1492204E+00
          2   -1    0    0  502    0  0.00000000000E+00  0.00000000000E+00  0.54852491850E+03  0.54852491850E+03  0.00000000000E+00 0. -1.
         -2   -1    0    0    0  501 -0.00000000000E+00 -0.00000000000E+00 -0.12529912196E+01  0.12529912196E+01  0.00000000000E+00 0.  1.
         21    1    1    2  502  503 -0.22575758018E+02  0.45182526138E+01  0.40510862950E+03  0.40576234565E+03  0.00000000000E+00 0. -1.
         21    1    1    2  503  501  0.22575758018E+02 -0.45182526138E+01  0.14216329778E+03  0.14401556406E+03  0.00000000000E+00 0.  1.
</event>
<event>
 4    1  0.5740469E+002  0.3256271E+02  0.7546771E-02  0.1398558E+00
          2   -1    0    0  503    0  0.00000000000E+00  0.00000000000E+00  0.18980497346E+03  0.18980497346E+03  0.00000000000E+00 0. -1.
         -2   -1    0    0    0  501 -0.00000000000E+00 -0.00000000000E+00 -0.67488320918E+01  0.67488320918E+01  0.00000000000E+00 0.  1.
         21    1    1    2  502  501  0.32031053386E+01 -0.32404783289E+02  0.50741458060E+02  0.60291172072E+02  0.00000000000E+00 0.  1.
         21    1    1    2  503  502 -0.32031053386E+01  0.32404783289E+02  0.13231468331E+03  0.13626263348E+03  0.00000000000E+00 0. -1.
</event>
<event>
 4    1  0.5740469E+002  0.4153447E+02  0.7546771E-02  0.1339721E+00
          2   -1    0    0  502    0  0.00000000000E+00  0.00000000000E+00  0.71695464279E+02  0.71695464279E+02  0.00000000000E+00 0.  1.
         -2   -1    0    0    0  501 -0.00000000000E+00 -0.00000000000E+00 -0.36719686944E+02  0.36719686944E+02  0.00000000000E+00 0. -1.
         21    1    1    2  502  503  0.31746843186E+02 -0.26781529190E+02  0.49314719371E+02  0.64475219307E+02  0.00000000000E+00 0.  1.
         21    1    1    2  503  501 -0.31746843186E+02  0.26781529190E+02 -0.14338942037E+02  0.43939931916E+02  0.00000000000E+00 0. -1.
</event>
<event>
 4    1  0.5740469E+002  0.2189220E+02  0.7546771E-02  0.1506898E+00
          2   -1    0    0  502    0  0.00000000000E+00  0.00000000000E+00  0.50732501461E+03  0.50732501461E+03  0.00000000000E+00 0. -1.
         -2   -1    0    0    0  501 -0.00000000000E+00 -0.00000000000E+00 -0.57576305578E+01  0.57576305578E+01  0.00000000000E+00 0.  1.
         21    1    1    2  502  503 -0.19910580976E+02  0.91014904282E+01  0.48533635619E+03  0.48582985397E+03  0.00000000000E+00 0. -1.
         21    1    1    2  503  501  0.19910580976E+02 -0.91014904282E+01  0.16231027856E+02  0.27252791197E+02  0.00000000000E+00 0.  1.
</event>
<event>
 4    1  0.5740469E+002  0.4116735E+02  0.7546771E-02  0.1341778E+00
          2   -1    0    0  502    0  0.00000000000E+00  0.00000000000E+00  0.36000875213E+03  0.36000875213E+03  0.00000000000E+00 0. -1.
         -2   -1    0    0    0  501 -0.00000000000E+00 -0.00000000000E+00 -0.55749599635E+01  0.55749599635E+01  0.00000000000E+00 0.  1.
         21    1    1    2  502  503  0.10759231236E+02 -0.39736497777E+02  0.24932006467E+03  0.25269595358E+03  0.00000000000E+00 0. -1.
         21    1    1    2  503  501 -0.10759231236E+02  0.39736497777E+02  0.10511372750E+03  0.11288775851E+03  0.00000000000E+00 0.  1.
</event>
<event>
 4    1  0.5740469E+002  0.2172312E+02  0.7546771E-02  0.1509186E+00
          2   -1    0    0  502    0  0.00000000000E+00  0.00000000000E+00  0.20306954116E+03  0.20306954116E+03  0.00000000000E+00 0.  1.
         -2   -1    0    0    0  501 -0.00000000000E+00 -0.00000000000E+00 -0.50894486362E+01  0.50894486362E+01  0.00000000000E+00 0. -1.
         21    1    1    2  502  503  0.11578029896E+02 -0.18380506127E+02  0.17571347583E+03  0.17705117726E+03  0.00000000000E+00 0. -1.
         21    1    1    2  503  501 -0.11578029896E+02  0.18380506127E+02  0.22266616700E+02  0.31107812540E+02  0.00000000000E+00 0.  1.
</event>
<event>
 4    1  0.5740469E+002  0.3086523E+02  0.7546771E-02  0.1412223E+00
          2   -1    0    0  502    0  0.00000000000E+00  0.00000000000E+00  0.12680808551E+04  0.12680808551E+04  0.00000000000E+00 0. -1.
         -2   -1    0    0    0  501 -0.00000000000E+00 -0.00000000000E+00 -0.21871704263E+01  0.21871704263E+01  0.00000000000E+00 0.  1.
         21    1    1    2  502  503 -0.28564830949E+02 -0.11692416708E+02  0.11475675826E+04  0.11479825865E+04  0.00000000000E+00 0. -1.
         21    1    1    2  503  501  0.28564830949E+02  0.11692416708E+02  0.11832610199E+03  0.12228543898E+03  0.00000000000E+00 0.  1.
</event>
<event>
 4    1  0.5740469E+002  0.2666949E+02  0.7546771E-02  0.1450957E+00
          2   -1    0    0  503    0  0.00000000000E+00  0.00000000000E+00  0.10274197604E+04  0.10274197604E+04  0.00000000000E+00 0.  1.
         -2   -1    0    0    0  501 -0.00000000000E+00 -0.00000000000E+00 -0.12220496788E+01  0.12220496788E+01  0.00000000000E+00 0. -1.
         21    1    1    2  502  501  0.23584476842E+02 -0.12451275015E+02  0.17446261275E+03  0.17648927742E+03  0.00000000000E+00 0. -1.
         21    1    1    2  503  502 -0.23584476842E+02  0.12451275015E+02  0.85173509795E+03  0.85215253264E+03  0.00000000000E+00 0.  1.
</event>
<event>
 4    1  0.5740469E+002  0.3142615E+02  0.7546771E-02  0.1407595E+00
          2   -1    0    0  503    0  0.00000000000E+00  0.00000000000E+00  0.17760148392E+03  0.17760148392E+03  0.00000000000E+00 0. -1.
         -2   -1    0    0    0  501 -0.00000000000E+00 -0.00000000000E+00 -0.73026611662E+01  0.73026611662E+01  0.00000000000E+00 0.  1.
         21    1    1    2  502  501 -0.92837126988E+01 -0.30023583187E+02  0.39996550184E+02  0.50865773321E+02  0.00000000000E+00 0.  1.
         21    1    1    2  503  502  0.92837126988E+01  0.30023583187E+02  0.13030227257E+03  0.13403837177E+03  0.00000000000E+00 0. -1.
</event>
<event>
 4    1  0.5740469E+002  0.2481710E+02  0.7546771E-02  0.1470860E+00
          2   -1    0    0  502    0  0.00000000000E+00  0.00000000000E+00  0.23697267856E+02  0.23697267856E+02  0.00000000000E+00 0. -1.
         -2   -1    0    0    0  501 -0.00000000000E+00 -0.00000000000E+00 -0.34135628803E+02  0.34135628803E+02  0.00000000000E+00 0.  1.
         21    1    1    2  502  503 -0.16518662459E+02  0.18520863124E+02  0.89064272375E+01  0.26366892620E+02  0.00000000000E+00 0. -1.
         21    1    1    2  503  501  0.16518662459E+02 -0.18520863124E+02 -0.19344788185E+02  0.31466004039E+02  0.00000000000E+00 0.  1.
</event>
<event>
 4    1  0.5740469E+002  0.2814538E+02  0.7546771E-02  0.1436430E+00
          2   -1    0    0  502    0  0.00000000000E+00  0.00000000000E+00  0.44594338227E+03  0.44594338227E+03  0.00000000000E+00 0. -1.
         -2   -1    0    0    0  501 -0.00000000000E+00 -0.00000000000E+00 -0.50328188414E+01  0.50328188414E+01  0.00000000000E+00 0.  1.
         21    1    1    2  502  503  0.25516262646E+01 -0.28029474201E+02  0.40183546807E+03  0.40281994194E+03  0.00000000000E+00 0. -1.
         21    1    1    2  503  501 -0.25516262646E+01  0.28029474201E+02  0.39075095354E+02  0.48156259173E+02  0.00000000000E+00 0.  1.
</event>
<event>
 4    1  0.5740469E+002  0.2872629E+02  0.7546771E-02  0.1430997E+00
          2   -1    0    0  502    0  0.00000000000E+00  0.00000000000E+00  0.39310849128E+03  0.39310849128E+03  0.00000000000E+00 0. -1.
         -2   -1    0    0    0  501 -0.00000000000E+00 -0.00000000000E+00 -0.44342055824E+02  0.44342055824E+02  0.00000000000E+00 0.  1.
         21    1    1    2  502  503  0.24524623531E+02 -0.14958036578E+02  0.38786846357E+03  0.38893077154E+03  0.00000000000E+00 0. -1.
         21    1    1    2  503  501 -0.24524623531E+02  0.14958036578E+02 -0.39102028118E+02  0.48519775561E+02  0.00000000000E+00 0.  1.
</event>
<event>
 4    1  0.5740469E+002  0.3402674E+02  0.7546771E-02  0.1387538E+00
          2   -1    0    0  502    0  0.00000000000E+00  0.00000000000E+00  0.18638642471E+03  0.18638642471E+03  0.00000000000E+00 0. -1.
         -2   -1    0    0    0  501 -0.00000000000E+00 -0.00000000000E+00 -0.85951670049E+01  0.85951670049E+01  0.00000000000E+00 0.  1.
         21    1    1    2  502  503  0.33830974412E+02 -0.36447404893E+01  0.14023142454E+03  0.14430062852E+03  0.00000000000E+00 0. -1.
         21    1    1    2  503  501 -0.33830974412E+02  0.36447404893E+01  0.37559833164E+02  0.50680963193E+02  0.00000000000E+00 0.  1.
</event>
<event>
 4    1  0.5740469E+002  0.2400906E+02  0.7546771E-02  0.1480202E+00
          2   -1    0    0  503    0  0.00000000000E+00  0.00000000000E+00  0.20859187992E+04  0.20859187992E+04  0.00000000000E+00 0. -1.
         -2   -1    0    0    0  501 -0.00000000000E+00 -0.00000000000E+00 -0.28156276565E+00  0.28156276565E+00  0.00000000000E+00 0.  1.
         21    1    1    2  502  501  0.11445028642E+02  0.21105599566E+02  0.11848044847E+04  0.11850477213E+04  0.00000000000E+00 0. -1.
         21    1    1    2  503  502 -0.11445028642E+02 -0.21105599566E+02  0.90083275178E+03  0.90115264062E+03  0.00000000000E+00 0.  1.
</event>
<event>
 4    1  0.5740469E+002  0.2090807E+02  0.7546771E-02  0.1520581E+00
          2   -1    0    0  502    0  0.00000000000E+00  0.00000000000E+00  0.61759221262E+02  0.61759221262E+02  0.00000000000E+00 0.  1.
         -2   -1    0    0    0  501 -0.00000000000E+00 -0.00000000000E+00 -0.38032259320E+02  0.38032259320E+02  0.00000000000E+00 0. -1.
         21    1    1    2  502  503  0.11885861091E+02  0.17200981450E+02  0.56877297241E+02  0.60598468613E+02  0.00000000000E+00 0.  1.
         21    1    1    2  503  501 -0.11885861091E+02 -0.17200981450E+02 -0.33150335300E+02  0.39193011969E+02  0.00000000000E+00 0. -1.
</event>
<event>
 4    1  0.5740469E+002  0.2424566E+02  0.7546771E-02  0.1477422E+00
          2   -1    0    0  502    0  0.00000000000E+00  0.00000000000E+00  0.59806170881E+01  0.59806170881E+01  0.00000000000E+00 0. -1.
         -2   -1    0    0    0  501 -0.00000000000E+00 -0.00000000000E+00 -0.10019335837E+03  0.10019335837E+03  0.00000000000E+00 0.  1.
         21    1    1    2  502  503  0.19730444035E+02  0.14091185158E+02 -0.54417813288E+02  0.59574745690E+02  0.00000000000E+00 0. -1.
         21    1    1    2  503  501 -0.19730444035E+02 -0.14091185158E+02 -0.39794927997E+02  0.46599229771E+02  0.00000000000E+00 0.  1.
</event>
<event>
 4    1  0.5740469E+002  0.3537578E+02  0.7546771E-02  0.1377940E+00
          2   -1    0    0  503    0  0.00000000000E+00  0.00000000000E+00  0.34467775655E+02  0.34467775655E+02  0.00000000000E+00 0.  1.
         -2   -1    0    0    0  501 -0.00000000000E+00 -0.00000000000E+00 -0.52219993220E+02  0.52219993220E+02  0.00000000000E+00 0. -1.
         21    1    1    2  502  501  0.23079607464E+02 -0.26810024484E+02 -0.32802422715E+02  0.48243596772E+02  0.00000000000E+00 0. -1.
         21    1    1    2  503  502 -0.23079607464E+02  0.26810024484E+02  0.15050205150E+02  0.38444172102E+02  0.00000000000E+00 0.  1.
</event>
<event>
 4    1  0.5740469E+002  0.2075727E+02  0.7546771E-02  0.1522759E+00
          2   -1    0    0  503    0  0.00000000000E+00  0.00000000000E+00  0.12449121294E+04  0.12449121294E+04  0.00000000000E+00 0. -1.
         -2   -1    0    0    0  501 -0.00000000000E+00 -0.00000000000E+00 -0.39002250027E+00  0.39002250027E+00  0.00000000000E+00 0.  1.
         21    1    1    2  502  501 -0.57319326983E+01 -0.19950169856E+02  0.41331100368E+03  0.41383191043E+03  0.00000000000E+00 0. -1.
         21    1    1    2  503  502  0.57319326983E+01  0.19950169856E+02  0.83121110322E+03  0.83147024147E+03  0.00000000000E+00 0.  1.
</event>
<event>
 4    1  0.5740469E+002  0.2383807E+02  0.7546771E-02  0.1482234E+00
          2   -1    0    0  502    0  0.00000000000E+00  0.00000000000E+00  0.27415850725E+02  0.27415850725E+02  0.00000000000E+00 0. -1.
         -2   -1    0    0    0  501 -0.00000000000E+00 -0.00000000000E+00 -0.45078669246E+02  0.45078669246E+02  0.00000000000E+00 0.  1.
         21    1    1    2  502  503 -0.11082555697E+02  0.21105227781E+02  0.17809697928E+02  0.29756327407E+02  0.00000000000E+00 0. -1.
         21    1    1    2  503  501  0.11082555697E+02 -0.21105227781E+02 -0.35472516449E+02  0.42738192564E+02  0.00000000000E+00 0.  1.
</event>
<event>
 4    1  0.5740469E+002  0.2517363E+02  0.7546771E-02  0.1466870E+00
          2   -1    0    0  502    0  0.00000000000E+00  0.00000000000E+00  0.19839744327E+03  0.19839744327E+03  0.00000000000E+00 0. -1.
         -2   -1    0    0    0  501 -0.00000000000E+00 -0.00000000000E+00 -0.45949252117E+01  0.45949252117E+01  0.00000000000E+00 0.  1.
         21    1    1    2  502  503  0.91061490642E+01  0.23468906757E+02  0.15294078443E+03  0.15499869379E+03  0.00000000000E+00 0. -1.
         21    1    1    2  503  501 -0.91061490642E+01 -0.23468906757E+02  0.40861733630E+02  0.47993674691E+02  0.00000000000E+00 0.  1.
</event>
<event>
 4    1  0.5740469E+002  0.3516833E+02  0.7546771E-02  0.1379384E+00
          2   -1    0    0  502    0  0.00000000000E+00  0.00000000000E+00  0.13883307804E+03  0.13883307804E+03  0.00000000000E+00 0. -1.
         -2   -1    0    0    0  501 -0.00000000000E+00 -0.00000000000E+00 -0.70867109248E+02  0.70867109248E+02  0.00000000000E+00 0.  1.
         21    1    1    2  502  503  0.33377124323E+02  0.11080564315E+02  0.13202153198E+03  0.13662538652E+03  0.00000000000E+00 0. -1.
         21    1    1    2  503  501 -0.33377124323E+02 -0.11080564315E+02 -0.64055563185E+02  0.73074800777E+02  0.00000000000E+00 0.  1.
</event>
<event>
 4    1  0.5740469E+002  0.2339864E+02  0.7546771E-02  0.1487552E+00
          2   -1    0    0  503    0  0.00000000000E+00  0.00000000000E+00  0.39922414280E+02  0.39922414280E+02  0.00000000000E+00 0.  1.
         -2   -1    0    0    0  501 -0.00000000000E+00 -0.00000000000E+00 -0.35109857361E+02  0.35109857361E+02  0.00000000000E+00 0. -1.
         21    1    1    2  502  501 -0.55902199167E+01 -0.22721039274E+02 -0.26880281669E+02  0.35637700922E+02  0.00000000000E+00 0. -1.
         21    1    1    2  503  502  0.55902199167E+01  0.22721039274E+02  0.31692838588E+02  0.39394570719E+02  0.00000000000E+00 0.  1.
</event>
<event>
 4    1  0.5740469E+002  0.4196384E+02  0.7546771E-02  0.1337347E+00
          2   -1    0    0  503    0  0.00000000000E+00  0.00000000000E+00  0.51150231236E+03  0.51150231236E+03  0.00000000000E+00 0. -1.
         -2   -1    0    0    0  501 -0.00000000000E+00 -0.00000000000E+00 -0.34963228905E+01  0.34963228905E+01  0.00000000000E+00 0.  1.
         21    1    1    2  502  501 -0.97801016673E+00 -0.41952445187E+02  0.28588351860E+03  0.28894696809E+03  0.00000000000E+00 0.  1.
         21    1    1    2  503  502  0.97801016673E+00  0.41952445187E+02  0.22212247088E+03  0.22605166717E+03  0.00000000000E+00 0. -1.
</event>
<event>
 4    1  0.5740469E+002  0.2001762E+02  0.7546771E-02  0.1533766E+00
          2   -1    0    0  503    0  0.00000000000E+00  0.00000000000E+00  0.45701355894E+03  0.45701355894E+03  0.00000000000E+00 0.  1.
         -2   -1    0    0    0  501 -0.00000000000E+00 -0.00000000000E+00 -0.90322873447E+00  0.90322873447E+00  0.00000000000E+00 0. -1.
         21    1    1    2  502  501  0.13333256477E+02  0.14930820041E+02  0.26722705162E+03  0.26797574933E+03  0.00000000000E+00 0.  1.
         21    1    1    2  503  502 -0.13333256477E+02 -0.14930820041E+02  0.18888327859E+03  0.18994103834E+03  0.00000000000E+00 0. -1.
</event>
<event>
 4    1  0.5740469E+002  0.7479049E+02  0.7546771E-02  0.1216487E+00
          2   -1    0    0  502    0  0.00000000000E+00  0.00000000000E+00  0.12354333369E+02  0.12354333369E+02  0.00000000000E+00 0.  1.
         -2   -1    0    0    0  501 -0.00000000000E+00 -0.00000000000E+00 -0.45315204908E+03  0.45315204908E+03  0.00000000000E+00 0. -1.
         21    1    1    2  502  503  0.74751305437E+02  0.24207151299E+01 -0.22719563716E+03  0.23918920350E+03  0.00000000000E+00 0. -1.
         21    1    1    2  503  501 -0.74751305437E+02 -0.24207151299E+01 -0.21360207854E+03  0.22631717894E+03  0.00000000000E+00 0.  1.
</event>
<event>
 4    1  0.5740469E+002  0.2005644E+02  0.7546771E-02  0.1533175E+00
          2   -1    0    0  502    0  0.00000000000E+00  0.00000000000E+00  0.12447827551E+04  0.12447827551E+04  0.00000000000E+00 0.  1.
         -2   -1    0    0    0  501 -0.00000000000E+00 -0.00000000000E+00 -0.38542225622E+00  0.38542225622E+00  0.00000000000E+00 0. -1.
         21    1    1    2  502  503  0.65299211281E+01  0.18963668885E+02  0.87243567570E+03  0.87266618408E+03  0.00000000000E+00 0.  1.
         21    1    1    2  503  501 -0.65299211281E+01 -0.18963668885E+02  0.37196165715E+03  0.37250199328E+03  0.00000000000E+00 0. -1.
</event>
<event>
 4    1  0.5740469E+002  0.2938939E+02  0.7546771E-02  0.1424978E+00
          2   -1    0    0  503    0  0.00000000000E+00  0.00000000000E+00  0.10541297670E+04  0.10541297670E+04  0.00000000000E+00 0. -1.
         -2   -1    0    0    0  501 -0.00000000000E+00 -0.00000000000E+00 -0.17700439732E+01  0.17700439732E+01  0.00000000000E+00 0.  1.
         21    1    1    2  502  501  0.24863496575E+02 -0.15669806505E+02  0.13926673923E+03  0.14233397681E+03  0.00000000000E+00 0.  1.
         21    1    1    2  503  502 -0.24863496575E+02  0.15669806505E+02  0.91309298378E+03  0.91356583415E+03  0.00000000000E+00 0. -1.
</event>
<event>
 4    1  0.5740469E+002  0.2093948E+02  0.7546771E-02  0.1520131E+00
          2   -1    0    0  503    0  0.00000000000E+00  0.00000000000E+00  0.92428953017E+02  0.92428953017E+02  0.00000000000E+00 0.  1.
         -2   -1    0    0    0  501 -0.00000000000E+00 -0.00000000000E+00 -0.74852131030E+01  0.74852131030E+01  0.00000000000E+00 0. -1.
         21    1    1    2  502  501  0.76831728693E+01  0.19478979519E+02  0.12238641505E+02  0.24253785979E+02  0.00000000000E+00 0. -1.
         21    1    1    2  503  502 -0.76831728693E+01 -0.19478979519E+02  0.72705098409E+02  0.75660380141E+02  0.00000000000E+00 0.  1.
</event>
<event>
 4    1  0.5740469E+002  0.2383553E+02  0.7546771E-02  0.1482265E+00
          2   -1    0    0  503    0  0.00000000000E+00  0.00000000000E+00  0.19703130926E+03  0.19703130926E+03  0.00000000000E+00 0.  1.
         -2   -1    0    0    0  501 -0.00000000000E+00 -0.00000000000E+00 -0.39506420624E+01  0.39506420624E+01  0.00000000000E+00 0. -1.
         21    1    1    2  502  501  0.12205135034E+02 -0.20473575375E+02  0.44311329423E+02  0.50315271291E+02  0.00000000000E+00 0. -1.
         21    1    1    2  503  502 -0.12205135034E+02  0.20473575375E+02  0.14876933778E+03  0.15066668003E+03  0.00000000000E+00 0.  1.
</event>
<event>
 4    1  0.5740469E+002  0.2040263E+02  0.7546771E-02  0.1527967E+00
          2   -1    0    0  503    0  0.00000000000E+00  0.00000000000E+00  0.44715972708E+02  0.44715972708E+02  0.00000000000E+00 0.  1.
         -2   -1    0    0    0  501 -0.00000000000E+00 -0.00000000000E+00 -0.45665861746E+02  0.45665861746E+02  0.00000000000E+00 0. -1.
         21    1    1    2  502  501  0.53327876739E+01 -0.19693362458E+02 -0.40797467591E+02  0.45614696219E+02  0.00000000000E+00 0. -1.
         21    1    1    2  503  502 -0.53327876739E+01  0.19693362458E+02  0.39847578553E+02  0.44767138236E+02  0.00000000000E+00 0.  1.
</event>
<event>
 4    1  0.5740469E+002  0.2865779E+02  0.7546771E-02  0.1431630E+00
          2   -1    0    0  502    0  0.00000000000E+00  0.00000000000E+00  0.15488803579E+02  0.15488803579E+02  0.00000000000E+00 0.  1.
         -2   -1    0    0    0  501 -0.00000000000E+00 -0.00000000000E+00 -0.24077718950E+03  0.24077718950E+03  0.00000000000E+00 0. -1.
         21    1    1    2  502  503 -0.23148960024E+02 -0.16893633805E+02  0.50400826022E+00  0.28662226669E+02  0.00000000000E+00 0.  1.
         21    1    1    2  503  501  0.23148960024E+02  0.16893633805E+02 -0.22579239418E+03  0.22760376641E+03  0.00000000000E+00 0. -1.
</event>
<event>
 4    1  0.5740469E+002  0.2389074E+02  0.7546771E-02  0.1481606E+00
          2   -1    0    0  502    0  0.00000000000E+00  0.00000000000E+00  0.14839267649E+04  0.14839267649E+04  0.00000000000E+00 0.  1.
         -2   -1    0    0    0  501 -0.00000000000E+00 -0.00000000000E+00 -0.46721438759E+00  0.46721438759E+00  0.00000000000E+00 0. -1.
         21    1    1    2  502  503  0.21785314853E+01 -0.23791203173E+02  0.42969577670E+03  0.43035941707E+03  0.00000000000E+00 0. -1.
         21    1    1    2  503  501 -0.21785314853E+01  0.23791203173E+02  0.10537637738E+04  0.10540345622E+04  0.00000000000E+00 0.  1.
</event>
<event>
 4    1  0.5740469E+002  0.4041644E+02  0.7546771E-02  0.1346063E+00
          2   -1    0    0  502    0  0.00000000000E+00  0.00000000000E+00  0.57409251988E+03  0.57409251988E+03  0.00000000000E+00 0. -1.
         -2   -1    0    0    0  501 -0.00000000000E+00 -0.00000000000E+00 -0.63192834714E+01  0.63192834714E+01  0.00000000000E+00 0.  1.
         21    1    1    2  502  503  0.32761716145E+02 -0.23667674234E+02  0.49905757314E+03  0.50069147203E+03  0.00000000000E+00 0. -1.
         21    1    1    2  503  501 -0.32761716145E+02  0.23667674234E+02  0.68715663260E+02  0.79720331320E+02  0.00000000000E+00 0.  1.
</event>
<event>
 4    1  0.5740469E+002  0.2592124E+02  0.7546771E-02  0.1458756E+00
          2   -1    0    0  502    0  0.00000000000E+00  0.00000000000E+00  0.36888502613E+03  0.36888502613E+03  0.00000000000E+00 0. -1.
         -2   -1    0    0    0  501 -0.00000000000E+00 -0.00000000000E+00 -0.81977448769E+01  0.81977448769E+01  0.00000000000E+00 0.  1.
         21    1    1    2  502  503  0.18306856772E+01 -0.25856510950E+02  0.34662487343E+03  0.34759274078E+03  0.00000000000E+00 0. -1.
         21    1    1    2  503  501 -0.18306856772E+01  0.25856510950E+02  0.14062407824E+02  0.29490030219E+02  0.00000000000E+00 0.  1.
</event>
<event>
 4    1  0.5740469E+002  0.2601010E+02  0.7546771E-02  0.1457813E+00
          2   -1    0    0  503    0  0.00000000000E+00  0.00000000000E+00  0.41994348016E+03  0.41994348016E+03  0.00000000000E+00 0. -1.
         -2   -1    0    0    0  501 -0.00000000000E+00 -0.00000000000E+00 -0.22250523729E+01  0.22250523729E+01  0.00000000000E+00 0.  1.
         21    1    1    2  502  501 -0.12521889777E+02  0.22797533696E+02  0.97969426597E+02  0.10136337511E+03  0.00000000000E+00 0.  1.
         21    1    1    2  503  502  0.12521889777E+02 -0.22797533696E+02  0.31974900119E+03  0.32080515742E+03  0.00000000000E+00 0. -1.
</event>
<event>
 4    1  0.5740469E+002  0.3143611E+02  0.7546771E-02  0.1407514E+00
          2   -1    0    0  503    0  0.00000000000E+00  0.00000000000E+00  0.75819444110E+02  0.75819444110E+02  0.00000000000E+00 0. -1.
         -2   -1    0    0    0  501 -0.00000000000E+00 -0.00000000000E+00 -0.29569369223E+02  0.29569369223E+02  0.00000000000E+00 0.  1.
         21    1    1    2  502  501 -0.10903266307E+02 -0.29484701071E+02 -0.16279909992E+02  0.35401472890E+02  0.00000000000E+00 0.  1.
         21    1    1    2  503  502  0.10903266307E+02  0.29484701071E+02  0.62529984879E+02  0.69987340444E+02  0.00000000000E+00 0. -1.
</event>
<event>
 4    1  0.5740469E+002  0.2034434E+02  0.7546771E-02  0.1528835E+00
          2   -1    0    0  502    0  0.00000000000E+00  0.00000000000E+00  0.53516338934E+02  0.53516338934E+02  0.00000000000E+00 0. -1.
         -2   -1    0    0    0  501 -0.00000000000E+00 -0.00000000000E+00 -0.52603806551E+02  0.52603806551E+02  0.00000000000E+00 0.  1.
         21    1    1    2  502  503  0.16823510314E+02  0.11439483903E+02  0.49460841705E+02  0.53481465513E+02  0.00000000000E+00 0. -1.
         21    1    1    2  503  501 -0.16823510314E+02 -0.11439483903E+02 -0.48548309321E+02  0.52638679972E+02  0.00000000000E+00 0.  1.
</event>
<event>
 4    1  0.5740469E+002  0.2085397E+02  0.7546771E-02  0.1521360E+00
          2   -1    0    0  502    0  0.00000000000E+00  0.00000000000E+00  0.13106641176E+04  0.13106641176E+04  0.00000000000E+00 0.  1.
         -2   -1    0    0    0  501 -0.00000000000E+00 -0.00000000000E+00 -0.95730442981E+00  0.95730442981E+00  0.00000000000E+00 0. -1.
         21    1    1    2  502  503  0.70344465076E+01 -0.19631726620E+02  0.11849635048E+04  0.11851469934E+04  0.00000000000E+00 0.  1.
         21    1    1    2  503  501 -0.70344465076E+01  0.19631726620E+02  0.12474330832E+03  0.12647442864E+03  0.00000000000E+00 0. -1.
</event>
<event>
 4    1  0.5740469E+002  0.2289488E+02  0.7546771E-02  0.1493822E+00
          2   -1    0    0  502    0  0.00000000000E+00  0.00000000000E+00  0.21250680997E+03  0.21250680997E+03  0.00000000000E+00 0.  1.
         -2   -1    0    0    0  501 -0.00000000000E+00 -0.00000000000E+00 -0.23862884554E+02  0.23862884554E+02  0.00000000000E+00 0. -1.
         21    1    1    2  502  503 -0.24095996630E-02 -0.22894879764E+02  0.20623204453E+03  0.20749899208E+03  0.00000000000E+00 0.  1.
         21    1    1    2  503  501  0.24095996630E-02  0.22894879764E+02 -0.17588119116E+02  0.28870702438E+02  0.00000000000E+00 0. -1.
</event>
<event>
 4    1  0.5740469E+002  0.2850301E+02  0.7546771E-02  0.1433068E+00
          2   -1    0    0  502    0  0.00000000000E+00  0.00000000000E+00  0.95863321163E+02  0.95863321163E+02  0.00000000000E+00 0.  1.
         -2   -1    0    0    0  501 -0.00000000000E+00 -0.00000000000E+00 -0.18076028575E+02  0.18076028575E+02  0.00000000000E+00 0. -1.
         21    1    1    2  502  503 -0.27897340722E+02  0.58446291476E+01  0.80413509181E+02  0.85315612686E+02  0.00000000000E+00 0.  1.
         21    1    1    2  503  501  0.27897340722E+02 -0.58446291476E+01 -0.26262165922E+01  0.28623737052E+02  0.00000000000E+00 0. -1.
</event>
<event>
 4    1  0.5740469E+002  0.3152080E+02  0.7546771E-02  0.1406825E+00
          2   -1    0    0  502    0  0.00000000000E+00  0.00000000000E+00  0.13843753649E+04  0.13843753649E+04  0.00000000000E+00 0. -1.
         -2   -1    0    0    0  501 -0.00000000000E+00 -0.00000000000E+00 -0.13073732543E+01  0.13073732543E+01  0.00000000000E+00 0.  1.
         21    1    1    2  502  503 -0.25179923874E+02  0.18961341777E+02  0.11568426162E+04  0.11572719644E+04  0.00000000000E+00 0. -1.
         21    1    1    2  503  501  0.25179923874E+02 -0.18961341777E+02  0.22622537548E+03  0.22841077374E+03  0.00000000000E+00 0.  1.
</event>
<event>
 4    1  0.5740469E+002  0.3407374E+02  0.7546771E-02  0.1387195E+00
          2   -1    0    0  502    0  0.00000000000E+00  0.00000000000E+00  0.24394860591E+02  0.24394860591E+02  0.00000000000E+00 0. -1.
         -2   -1    0    0    0  501 -0.00000000000E+00 -0.00000000000E+00 -0.10179682951E+03  0.10179682951E+03  0.00000000000E+00 0.  1.
         21    1    1    2  502  503  0.48192287341E+01  0.33731218634E+02  0.73405048676E+01  0.34855459943E+02  0.00000000000E+00 0. -1.
         21    1    1    2  503  501 -0.48192287341E+01 -0.33731218634E+02 -0.84742473785E+02  0.91336230157E+02  0.00000000000E+00 0.  1.
</event>
<event>
 4    1  0.5740469E+002  0.4115628E+02  0.7546771E-02  0.1341840E+00
          2   -1    0    0  503    0  0.00000000000E+00  0.00000000000E+00  0.12270825018E+04  0.12270825018E+04  0.00000000000E+00 0.  1.
         -2   -1    0    0    0  501 -0.00000000000E+00 -0.00000000000E+00 -0.79520539820E+01  0.79520539820E+01  0.00000000000E+00 0. -1.
         21    1    1    2  502  501 -0.16602451449E+02 -0.37658968345E+02  0.48197444838E+02  0.63378489883E+02  0.00000000000E+00 0. -1.
         21    1    1    2  503  502  0.16602451449E+02  0.37658968345E+02  0.11709330030E+04  0.11716560659E+04  0.00000000000E+00 0.  1.
</event>
<event>
 4    1  0.5740469E+002  0.2063051E+02  0.7546771E-02  0.1524606E+00
          2   -1    0    0  503    0  0.00000000000E+00  0.00000000000E+00  0.23804980583E+02  0.23804980583E+02  0.00000000000E+00 0.  1.
         -2   -1    0    0    0  501 -0.00000000000E+00 -0.00000000000E+00 -0.52357368178E+02  0.52357368178E+02  0.00000000000E+00 0. -1.
         21    1    1    2  502  501  0.77646755155E+01 -0.19113544063E+02 -0.45178616622E+02  0.49666136878E+02  0.00000000000E+00 0. -1.
         21    1    1    2  503  502 -0.77646755155E+01  0.19113544063E+02  0.16626229026E+02  0.26496211883E+02  0.00000000000E+00 0.  1.
</event>
<event>
 4    1  0.5740469E+002  0.2342232E+02  0.7546771E-02  0.1487262E+00
          2   -1    0    0  502    0  0.00000000000E+00  0.00000000000E+00  0.12958415135E+04  0.12958415135E+04  0.00000000000E+00 0. -1.
         -2   -1    0    0    0  501 -0.00000000000E+00 -0.00000000000E+00 -0.46210649797E+00  0.46210649797E+00  0.00000000000E+00 0.  1.
         21    1    1    2  502  503  0.64500560498E+00 -0.23413432256E+02  0.46000310519E+03  0.46059902478E+03  0.00000000000E+00 0.  1.
         21    1    1    2  503  501 -0.64500560498E+00  0.23413432256E+02  0.83537630179E+03  0.83570459520E+03  0.00000000000E+00 0. -1.
</event>
<event>
 4    1  0.5740469E+002  0.3525098E+02  0.7546771E-02  0.1378807E+00
          2   -1    0    0  503    0  0.00000000000E+00  0.00000000000E+00  0.16718463688E+04  0.16718463688E+04  0.00000000000E+00 0.  1.
         -2   -1    0    0    0  501 -0.00000000000E+00 -0.00000000000E+00 -0.22470389294E+01  0.22470389294E+01  0.00000000000E+00 0. -1.
         21    1    1    2  502  501  0.19194376533E+02 -0.29567005406E+02  0.15004490056E+03  0.15413015307E+03  0.00000000000E+00 0. -1.
         21    1    1    2  503  502 -0.19194376533E+02  0.29567005406E+02  0.15195544293E+04  0.15199632546E+04  0.00000000000E+00 0.  1.
</event>
<event>
 4    1  0.5740469E+002  0.6492543E+02  0.7546771E-02  0.1243957E+00
          2   -1    0    0  503    0  0.00000000000E+00  0.00000000000E+00  0.42075472218E+02  0.42075472218E+02  0.00000000000E+00 0. -1.
         -2   -1    0    0    0  501 -0.00000000000E+00 -0.00000000000E+00 -0.36662184079E+03  0.36662184079E+03  0.00000000000E+00 0.  1.
         21    1    1    2  502  501 -0.40724678929E+02  0.50564922395E+02 -0.33647799803E+03  0.34268462762E+03  0.00000000000E+00 0.  1.
         21    1    1    2  503  502  0.40724678929E+02 -0.50564922395E+02  0.11931629456E+02  0.66012685388E+02  0.00000000000E+00 0. -1.
</event>
<event>
 4    1  0.5740469E+002  0.2078432E+02  0.7546771E-02  0.1522367E+00
          2   -1    0    0  503    0  0.00000000000E+00  0.00000000000E+00  0.30413641320E+02  0.30413641320E+02  0.00000000000E+00 0.  1.
         -2   -1    0    0    0  501 -0.00000000000E+00 -0.00000000000E+00 -0.18148958908E+02  0.18148958908E+02  0.00000000000E+00 0. -1.
         21    1    1    2  502  501 -0.14225253235E+02  0.15153557523E+02 -0.51885442912E+01  0.21422164388E+02  0.00000000000E+00 0. -1.
         21    1    1    2  503  502  0.14225253235E+02 -0.15153557523E+02  0.17453226704E+02  0.27140435840E+02  0.00000000000E+00 0.  1.
</event>
<event>
 4    1  0.5740469E+002  0.2111915E+02  0.7546771E-02  0.1517570E+00
          2   -1    0    0  502    0  0.00000000000E+00  0.00000000000E+00  0.30708207745E+03  0.30708207745E+03  0.00000000000E+00 0. -1.
         -2   -1    0    0    0  501 -0.00000000000E+00 -0.00000000000E+00 -0.15794548734E+01  0.15794548734E+01  0.00000000000E+00 0.  1.
         21    1    1    2  502  503  0.17065376891E+02 -0.12441516181E+02  0.19651616877E+03  0.19764772451E+03  0.00000000000E+00 0. -1.
         21    1    1    2  503  501 -0.17065376891E+02  0.12441516181E+02  0.10898645380E+03  0.11101380782E+03  0.00000000000E+00 0.  1.
</event>
<event>
 4    1  0.5740469E+002  0.2259956E+02  0.7546771E-02  0.1497589E+00
          2   -1    0    0  502    0  0.00000000000E+00  0.00000000000E+00  0.77741742461E+03  0.77741742461E+03  0.00000000000E+00 0. -1.
         -2   -1    0    0    0  501 -0.00000000000E+00 -0.00000000000E+00 -0.72508078265E+00  0.72508078265E+00  0.00000000000E+00 0.  1.
         21    1    1    2  502  503 -0.12557473383E+02  0.18789621613E+02  0.50759208438E+03  0.50809493615E+03  0.00000000000E+00 0. -1.
         21    1    1    2  503  501  0.12557473383E+02 -0.18789621613E+02  0.26910025945E+03  0.27004756924E+03  0.00000000000E+00 0.  1.
</event>
<event>
 4    1  0.5740469E+002  0.2109498E+02  0.7546771E-02  0.1517913E+00
          2   -1    0    0  503    0  0.00000000000E+00  0.00000000000E+00  0.96843042745E+03  0.96843042745E+03  0.00000000000E+00 0.  1.
         -2   -1    0    0    0  501 -0.00000000000E+00 -0.00000000000E+00 -0.57401988657E+00  0.57401988657E+00  0.00000000000E+00 0. -1.
         21    1    1    2  502  501 -0.32987198239E+01 -0.20835469939E+02  0.26752494576E+03  0.26835535203E+03  0.00000000000E+00 0.  1.
         21    1    1    2  503  502  0.32987198239E+01  0.20835469939E+02  0.70033146181E+03  0.70064909531E+03  0.00000000000E+00 0. -1.
</event>
<event>
 4    1  0.5740469E+002  0.2342954E+02  0.7546771E-02  0.1487174E+00
          2   -1    0    0  503    0  0.00000000000E+00  0.00000000000E+00  0.15427327762E+03  0.15427327762E+03  0.00000000000E+00 0. -1.
         -2   -1    0    0    0  501 -0.00000000000E+00 -0.00000000000E+00 -0.36600816035E+01  0.36600816035E+01  0.00000000000E+00 0.  1.
         21    1    1    2  502  501  0.57972485349E+01  0.22700994478E+02  0.88478088892E+02  0.91527675895E+02  0.00000000000E+00 0. -1.
         21    1    1    2  503  502 -0.57972485349E+01 -0.22700994478E+02  0.62135107126E+02  0.66405683329E+02  0.00000000000E+00 0.  1.
</event>
<event>
 4    1  0.5740469E+002  0.2383934E+02  0.7546771E-02  0.1482219E+00
          2   -1    0    0  503    0  0.00000000000E+00  0.00000000000E+00  0.42290557120E+02  0.42290557120E+02  0.00000000000E+00 0. -1.
         -2   -1    0    0    0  501 -0.00000000000E+00 -0.00000000000E+00 -0.37259655689E+02  0.37259655689E+02  0.00000000000E+00 0.  1.
         21    1    1    2  502  501  0.11380709362E+02 -0.20947402625E+02 -0.29288051453E+02  0.37763794568E+02  0.00000000000E+00 0.  1.
         21    1    1    2  503  502 -0.11380709362E+02  0.20947402625E+02  0.34318952884E+02  0.41786418240E+02  0.00000000000E+00 0. -1.
</event>
<event>
 4    1  0.5740469E+002  0.2405559E+02  0.7546771E-02  0.1479652E+00
          2   -1    0    0  503    0  0.00000000000E+00  0.00000000000E+00  0.14203596276E+03  0.14203596276E+03  0.00000000000E+00 0. -1.
         -2   -1    0    0    0  501 -0.00000000000E+00 -0.00000000000E+00 -0.58514468947E+01  0.58514468947E+01  0.00000000000E+00 0.  1.
         21    1    1    2  502  501  0.21817158230E+02 -0.10133273861E+02  0.27339860444E+02  0.36416199712E+02  0.00000000000E+00 0.  1.
         21    1    1    2  503  502 -0.21817158230E+02  0.10133273861E+02  0.10884465542E+03  0.11147120994E+03  0.00000000000E+00 0. -1.
</event>
<event>
 4    1  0.5740469E+002  0.2317087E+02  0.7546771E-02  0.1490364E+00
          2   -1    0    0  503    0  0.00000000000E+00  0.00000000000E+00  0.24502803390E+03  0.24502803390E+03  0.00000000000E+00 0. -1.
         -2   -1    0    0    0  501 -0.00000000000E+00 -0.00000000000E+00 -0.60414942448E+01  0.60414942448E+01  0.00000000000E+00 0.  1.
         21    1    1    2  502  501  0.47341658670E-01  0.23170825998E+02  0.19276021871E+02  0.30140577928E+02  0.00000000000E+00 0.  1.
         21    1    1    2  503  502 -0.47341658670E-01 -0.23170825998E+02  0.21971051779E+03  0.22092895022E+03  0.00000000000E+00 0. -1.
</event>
<event>
 4    1  0.5740469E+002  0.2375729E+02  0.7546771E-02  0.1483202E+00
          2   -1    0    0  502    0  0.00000000000E+00  0.00000000000E+00  0.16316380075E+03  0.16316380075E+03  0.00000000000E+00 0. -1.
         -2   -1    0    0    0  501 -0.00000000000E+00 -0.00000000000E+00 -0.41719257521E+01  0.41719257521E+01  0.00000000000E+00 0.  1.
         21    1    1    2  502  503  0.17913858833E+02  0.15604560325E+02  0.11407918464E+03  0.11652668797E+03  0.00000000000E+00 0. -1.
         21    1    1    2  503  501 -0.17913858833E+02 -0.15604560325E+02  0.44912690351E+02  0.50809038525E+02  0.00000000000E+00 0.  1.
</event>
<event>
 4    1  0.5740469E+002  0.4568251E+02  0.7546771E-02  0.1318061E+00
          2   -1    0    0  502    0  0.00000000000E+00  0.00000000000E+00  0.51188525202E+03  0.51188525202E+03  0.00000000000E+00 0.  1.
         -2   -1    0    0    0  501 -0.00000000000E+00 -0.00000000000E+00 -0.78661371438E+01  0.78661371438E+01  0.00000000000E+00 0. -1.
         21    1    1    2  502  503 -0.44196169120E+02  0.11558129249E+02  0.43237871811E+03  0.43478528906E+03  0.00000000000E+00 0.  1.
         21    1    1    2  503  501  0.44196169120E+02 -0.11558129249E+02  0.71640396773E+02  0.84966100101E+02  0.00000000000E+00 0. -1.
</event>
<event>
 4    1  0.5740469E+002  0.2035165E+02  0.7546771E-02  0.1528726E+00
          2   -1    0    0  502    0  0.00000000000E+00  0.00000000000E+00  0.17066711394E+02  0.17066711394E+02  0.00000000000E+00 0.  1.
         -2   -1    0    0    0  501 -0.00000000000E+00 -0.00000000000E+00 -0.26214709429E+02  0.26214709429E+02  0.00000000000E+00 0. -1.
         21    1    1    2  502  503 -0.10228137150E+02  0.17594742188E+02 -0.10469936474E+02  0.22886880783E+02  0.00000000000E+00 0. -1.
         21    1    1    2  503  501  0.10228137150E+02 -0.17594742188E+02  0.13219384390E+01  0.20394540040E+02  0.00000000000E+00 0.  1.
</event>
<event>
 4    1  0.5740469E+002  0.2420684E+02  0.7546771E-02  0.1477875E+00
          2   -1    0    0  503    0  0.00000000000E+00  0.00000000000E+00  0.20648804348E+03  0.20648804348E+03  0.00000000000E+00 0. -1.
         -2   -1    0    0    0  501 -0.00000000000E+00 -0.00000000000E+00 -0.43904726638E+01  0.43904726638E+01  0.00000000000E+00 0.  1.
         21    1    1    2  502  501 -0.10491891342E+02 -0.21814932415E+02  0.38345956255E+02  0.45347363995E+02  0.00000000000E+00 0. -1.
         21    1    1    2  503  502  0.10491891342E+02  0.21814932415E+02  0.16375161456E+03  0.16553115215E+03  0.00000000000E+00 0.  1.
</event>
<event>
 4    1  0.5740469E+002  0.2426063E+02  0.7546771E-02  0.1477247E+00
          2   -1    0    0  502    0  0.00000000000E+00  0.00000000000E+00  0.16464398065E+04  0.16464398065E+04  0.00000000000E+00 0.  1.
         -2   -1    0    0    0  501 -0.00000000000E+00 -0.00000000000E+00 -0.53782358064E+00  0.53782358064E+00  0.00000000000E+00 0. -1.
         21    1    1    2  502  503 -0.21991126304E+02  0.10245418707E+02  0.12998007773E+04  0.13000271685E+04  0.00000000000E+00 0. -1.
         21    1    1    2  503  501  0.21991126304E+02 -0.10245418707E+02  0.34610120563E+03  0.34695046157E+03  0.00000000000E+00 0.  1.
</event>
<event>
 4    1  0.5740469E+002  0.3126361E+02  0.7546771E-02  0.1408924E+00
          2   -1    0    0  502    0  0.00000000000E+00  0.00000000000E+00  0.32135741091E+04  0.32135741091E+04  0.00000000000E+00 0.  1.
         -2   -1    0    0    0  501 -0.00000000000E+00 -0.00000000000E+00 -0.35251712146E+00  0.35251712146E+00  0.00000000000E+00 0. -1.
         21    1    1    2  502  503 -0.31233887182E+02  0.13630112425E+01  0.10113818134E+04  0.10118649050E+04  0.00000000000E+00 0.  1.
         21    1    1    2  503  501  0.31233887182E+02 -0.13630112425E+01  0.22018397786E+04  0.22020617212E+04  0.00000000000E+00 0. -1.
</event>
<event>
 4    1  0.5740469E+002  0.3799638E+02  0.7546771E-02  0.1360644E+00
          2   -1    0    0  503    0  0.00000000000E+00  0.00000000000E+00  0.10052100508E+01  0.10052100508E+01  0.00000000000E+00 0.  1.
         -2   -1    0    0    0  501 -0.00000000000E+00 -0.00000000000E+00 -0.14545884103E+04  0.14545884103E+04  0.00000000000E+00 0. -1.
         21    1    1    2  502  501 -0.15795913299E+02  0.34557404824E+02 -0.80852755658E+03  0.80941987550E+03  0.00000000000E+00 0.  1.
         21    1    1    2  503  502  0.15795913299E+02 -0.34557404824E+02 -0.64505564368E+03  0.64617374486E+03  0.00000000000E+00 0. -1.
</event>
<event>
 4    1  0.5740469E+002  0.2773621E+02  0.7546771E-02  0.1440350E+00
          2   -1    0    0  502    0  0.00000000000E+00  0.00000000000E+00  0.58969772869E+01  0.58969772869E+01  0.00000000000E+00 0. -1.
         -2   -1    0    0    0  501 -0.00000000000E+00 -0.00000000000E+00 -0.15785233595E+03  0.15785233595E+03  0.00000000000E+00 0.  1.
         21    1    1    2  502  503  0.19935635562E+02 -0.19283870492E+02 -0.41868704167E+02  0.50222361703E+02  0.00000000000E+00 0. -1.
         21    1    1    2  503  501 -0.19935635562E+02  0.19283870492E+02 -0.11008665450E+03  0.11352695154E+03  0.00000000000E+00 0.  1.
</event>
<event>
 4    1  0.5740469E+002  0.2120238E+02  0.7546771E-02  0.1516395E+00
          2   -1    0    0  502    0  0.00000000000E+00  0.00000000000E+00  0.10157280177E+03  0.10157280177E+03  0.00000000000E+00 0. -1.
         -2   -1    0    0    0  501 -0.00000000000E+00 -0.00000000000E+00 -0.87960752110E+01  0.87960752110E+01  0.00000000000E+00 0.  1.
         21    1    1    2  502  503 -0.11122094977E+02 -0.18051039427E+02  0.85286293958E+02  0.87882267598E+02  0.00000000000E+00 0. -1.
         21    1    1    2  503  501  0.11122094977E+02  0.18051039427E+02  0.74904326040E+01  0.22486609386E+02  0.00000000000E+00 0.  1.
</event>
<event>
 4    1  0.5740469E+002  0.3252328E+02  0.7546771E-02  0.1398865E+00
          2   -1    0    0  503    0  0.00000000000E+00  0.00000000000E+00  0.13434061983E+04  0.13434061983E+04  0.00000000000E+00 0. -1.
         -2   -1    0    0    0  501 -0.00000000000E+00 -0.00000000000E+00 -0.16126657346E+01  0.16126657346E+01  0.00000000000E+00 0.  1.
         21    1    1    2  502  501 -0.31045048515E+02 -0.96937468772E+01  0.18980289950E+03  0.19256921982E+03  0.00000000000E+00 0.  1.
         21    1    1    2  503  502  0.31045048515E+02  0.96937468772E+01  0.11519906331E+04  0.11524496442E+04  0.00000000000E+00 0. -1.
</event>
<event>
 4    1  0.5740469E+002  0.3094402E+02  0.7546771E-02  0.1411566E+00
          2   -1    0    0  502    0  0.00000000000E+00  0.00000000000E+00  0.50855850038E+02  0.50855850038E+02  0.00000000000E+00 0.  1.
         -2   -1    0    0    0  501 -0.00000000000E+00 -0.00000000000E+00 -0.23001626662E+02  0.23001626662E+02  0.00000000000E+00 0. -1.
         21    1    1    2  502  503  0.37066926894E+00  0.30941798760E+02  0.29656911971E+02  0.42860993151E+02  0.00000000000E+00 0. -1.
         21    1    1    2  503  501 -0.37066926894E+00 -0.30941798760E+02 -0.18026885954E+01  0.30996483549E+02  0.00000000000E+00 0.  1.
</event>
<event>
 4    1  0.5740469E+002  0.5752901E+02  0.7546771E-02  0.1268467E+00
          2   -1    0    0  503    0  0.00000000000E+00  0.00000000000E+00  0.49992289743E+02  0.49992289743E+02  0.00000000000E+00 0. -1.
         -2   -1    0    0    0  501 -0.00000000000E+00 -0.00000000000E+00 -0.90699350737E+02  0.90699350737E+02  0.00000000000E+00 0.  1.
         21    1    1    2  502  501 -0.32827910706E+02 -0.47243154191E+02 -0.56912686712E+02  0.80923675448E+02  0.00000000000E+00 0.  1.
         21    1    1    2  503  502  0.32827910706E+02  0.47243154191E+02  0.16205625718E+02  0.59767965033E+02  0.00000000000E+00 0. -1.
</event>
<event>
 4    1  0.5740469E+002  0.2274261E+02  0.7546771E-02  0.1495756E+00
          2   -1    0    0  502    0  0.00000000000E+00  0.00000000000E+00  0.17213825491E+02  0.17213825491E+02  0.00000000000E+00 0.  1.
         -2   -1    0    0    0  501 -0.00000000000E+00 -0.00000000000E+00 -0.30366340798E+02  0.30366340798E+02  0.00000000000E+00 0. -1.
         21    1    1    2  502  503 -0.19732639828E+02 -0.11307044998E+02 -0.41371717227E+01  0.23115850212E+02  0.00000000000E+00 0.  1.
         21    1    1    2  503  501  0.19732639828E+02  0.11307044998E+02 -0.90153435843E+01  0.24464316077E+02  0.00000000000E+00 0. -1.
</event>
<event>
 4    1  0.5740469E+002  0.2219425E+02  0.7546771E-02  0.1502872E+00
          2   -1    0    0  502    0  0.00000000000E+00  0.00000000000E+00  0.10133925301E+04  0.10133925301E+04  0.00000000000E+00 0. -1.
         -2   -1    0    0    0  501 -0.00000000000E+00 -0.00000000000E+00 -0.49244300360E+00  0.49244300360E+00  0.00000000000E+00 0.  1.
         21    1    1    2  502  503 -0.21771951055E+02 -0.43089525226E+01  0.56409712057E+03  0.56453356531E+03  0.00000000000E+00 0.  1.
         21    1    1    2  503  501  0.21771951055E+02  0.43089525226E+01  0.44880296656E+03  0.44935140782E+03  0.00000000000E+00 0. -1.
</event>
<event>
 4    1  0.5740469E+002  0.2227975E+02  0.7546771E-02  0.1501746E+00
          2   -1    0    0  503    0  0.00000000000E+00  0.00000000000E+00  0.84094012347E+03  0.84094012347E+03  0.00000000000E+00 0.  1.
         -2   -1    0    0    0  501 -0.00000000000E+00 -0.00000000000E+00 -0.62607650309E+00  0.62607650309E+00  0.00000000000E+00 0. -1.
         21    1    1    2  502  501 -0.22272568613E+02  0.56555641737E+00  0.31953656153E+03  0.32031234962E+03  0.00000000000E+00 0. -1.
         21    1    1    2  503  502  0.22272568613E+02 -0.56555641737E+00  0.52077748544E+03  0.52125385035E+03  0.00000000000E+00 0.  1.
</event>
<event>
 4    1  0.5740469E+002  0.2863768E+02  0.7546771E-02  0.1431816E+00
          2   -1    0    0  502    0  0.00000000000E+00  0.00000000000E+00  0.10649958250E+04  0.10649958250E+04  0.00000000000E+00 0. -1.
         -2   -1    0    0    0  501 -0.00000000000E+00 -0.00000000000E+00 -0.85830010444E+00  0.85830010444E+00  0.00000000000E+00 0.  1.
         21    1    1    2  502  503 -0.22021721684E+02  0.18307386481E+02  0.70293941231E+03  0.70352251848E+03  0.00000000000E+00 0. -1.
         21    1    1    2  503  501  0.22021721684E+02 -0.18307386481E+02  0.36119811256E+03  0.36233160660E+03  0.00000000000E+00 0.  1.
</event>
<event>
 4    1  0.5740469E+002  0.4330096E+02  0.7546771E-02  0.1330157E+00
          2   -1    0    0  502    0  0.00000000000E+00  0.00000000000E+00  0.89815478000E+03  0.89815478000E+03  0.00000000000E+00 0. -1.
         -2   -1    0    0    0  501 -0.00000000000E+00 -0.00000000000E+00 -0.27530522764E+02  0.27530522764E+02  0.00000000000E+00 0.  1.
         21    1    1    2  502  503 -0.29696533748E+02  0.31513315837E+02  0.88026066594E+03  0.88132503266E+03  0.00000000000E+00 0. -1.
         21    1    1    2  503  501  0.29696533748E+02 -0.31513315837E+02 -0.96364086976E+01  0.44360270110E+02  0.00000000000E+00 0.  1.
</event>
<event>
 4    1  0.5740469E+002  0.2306363E+02  0.7546771E-02  0.1491701E+00
          2   -1    0    0  503    0  0.00000000000E+00  0.00000000000E+00  0.51844861662E+03  0.51844861662E+03  0.00000000000E+00 0. -1.
         -2   -1    0    0    0  501 -0.00000000000E+00 -0.00000000000E+00 -0.24453941267E+01  0.24453941267E+01  0.00000000000E+00 0.  1.
         21    1    1    2  502  501  0.20058572147E+02 -0.11383531205E+02  0.59576968954E+02  0.63885415621E+02  0.00000000000E+00 0.  1.
         21    1    1    2  503  502 -0.20058572147E+02  0.11383531205E+02  0.45642625354E+03  0.45700859512E+03  0.00000000000E+00 0. -1.
</event>
<event>
 4    1  0.5740469E+002  0.2022872E+02  0.7546771E-02  0.1530568E+00
          2   -1    0    0  502    0  0.00000000000E+00  0.00000000000E+00  0.10537958333E+01  0.10537958333E+01  0.00000000000E+00 0.  1.
         -2   -1    0    0    0  501 -0.00000000000E+00 -0.00000000000E+00 -0.85833187270E+03  0.85833187270E+03  0.00000000000E+00 0. -1.
         21    1    1    2  502  503 -0.20179587462E+02  0.14090043342E+01 -0.11066707281E+03  0.11250067576E+03  0.00000000000E+00 0.  1.
         21    1    1    2  503  501  0.20179587462E+02 -0.14090043342E+01 -0.74661100406E+03  0.74688499277E+03  0.00000000000E+00 0. -1.
</event>
<event>
 4    1  0.5740469E+002  0.2069656E+02  0.7546771E-02  0.1523642E+00
          2   -1    0    0  502    0  0.00000000000E+00  0.00000000000E+00  0.14836171837E+04  0.14836171837E+04  0.00000000000E+00 0.  1.
         -2   -1    0    0    0  501 -0.00000000000E+00 -0.00000000000E+00 -0.47772353344E+00  0.47772353344E+00  0.00000000000E+00 0. -1.
         21    1    1    2  502  503 -0.84664887779E+01  0.18885605381E+02  0.12083153005E+04  0.12084925374E+04  0.00000000000E+00 0.  1.
         21    1    1    2  503  501  0.84664887779E+01 -0.18885605381E+02  0.27482415967E+03  0.27560236984E+03  0.00000000000E+00 0. -1.
</event>
<event>
 4    1  0.5740469E+002  0.2716638E+02  0.7546771E-02  0.1445944E+00
          2   -1    0    0  502    0  0.00000000000E+00  0.00000000000E+00  0.13678445096E+03  0.13678445096E+03  0.00000000000E+00 0.  1.
         -2   -1    0    0    0  501 -0.00000000000E+00 -0.00000000000E+00 -0.94942343477E+01  0.94942343477E+01  0.00000000000E+00 0. -1.
         21    1    1    2  502  503 -0.22615339881E+01 -0.27072083114E+02  0.11170128033E+03  0.11495733230E+03  0.00000000000E+00 0.  1.
         21    1    1    2  503  501  0.22615339881E+01  0.27072083114E+02  0.15588936273E+02  0.31321353007E+02  0.00000000000E+00 0. -1.
</event>
<event>
 4    1  0.5740469E+002  0.2596301E+02  0.7546771E-02  0.1458312E+00
          2   -1    0    0  502    0  0.00000000000E+00  0.00000000000E+00  0.20544295990E+03  0.20544295990E+03  0.00000000000E+00 0. -1.
         -2   -1    0    0    0  501 -0.00000000000E+00 -0.00000000000E+00 -0.63739809276E+01  0.63739809276E+01  0.00000000000E+00 0.  1.
         21    1    1    2  502  503 -0.24018039750E+02 -0.98595939725E+01  0.17330916051E+03  0.17524309670E+03  0.00000000000E+00 0. -1.
         21    1    1    2  503  501  0.24018039750E+02  0.98595939725E+01  0.25759818471E+02  0.36573844129E+02  0.00000000000E+00 0.  1.
</event>
<event>
 4    1  0.5740469E+002  0.2180398E+02  0.7546771E-02  0.1508089E+00
          2   -1    0    0  502    0  0.00000000000E+00  0.00000000000E+00  0.10587715184E+04  0.10587715184E+04  0.00000000000E+00 0. -1.
         -2   -1    0    0    0  501 -0.00000000000E+00 -0.00000000000E+00 -0.44933370064E+00  0.44933370064E+00  0.00000000000E+00 0.  1.
         21    1    1    2  502  503  0.19086659782E+02  0.10541015626E+02  0.54307007880E+03  0.54350761180E+03  0.00000000000E+00 0. -1.
         21    1    1    2  503  501 -0.19086659782E+02 -0.10541015626E+02  0.51525210590E+03  0.51571324031E+03  0.00000000000E+00 0.  1.
</event>
<event>
 4    1  0.5740469E+002  0.3412161E+02  0.7546771E-02  0.1386846E+00
          2   -1    0    0  502    0  0.00000000000E+00  0.00000000000E+00  0.22461370230E+01  0.22461370230E+01  0.00000000000E+00 0. -1.
         -2   -1    0    0    0  501 -0.00000000000E+00 -0.00000000000E+00 -0.86049138496E+03  0.86049138496E+03  0.00000000000E+00 0.  1.
         21    1    1    2  502  503 -0.34112135001E+02  0.80394805710E+00 -0.15711659775E+03  0.16077907007E+03  0.00000000000E+00 0. -1.
         21    1    1    2  503  501  0.34112135001E+02 -0.80394805710E+00 -0.70112865019E+03  0.70195845191E+03  0.00000000000E+00 0.  1.
</event>
<event>
 4    1  0.5740469E+002  0.3711706E+02  0.7546771E-02  0.1366261E+00
          2   -1    0    0  502    0  0.00000000000E+00  0.00000000000E+00  0.88872008078E+03  0.88872008078E+03  0.00000000000E+00 0. -1.
         -2   -1    0    0    0  501 -0.00000000000E+00 -0.00000000000E+00 -0.17588642115E+01  0.17588642115E+01  0.00000000000E+00 0.  1.
         21    1    1    2  502  503 -0.10847660085E+02 -0.35496542986E+02  0.59684412810E+03  0.59799714844E+03  0.00000000000E+00 0. -1.
         21    1    1    2  503  501  0.10847660085E+02  0.35496542986E+02  0.29011708846E+03  0.29248179655E+03  0.00000000000E+00 0.  1.
</event>
<event>
 4    1  0.5740469E+002  0.2842381E+02  0.7546771E-02  0.1433807E+00
          2   -1    0    0  502    0  0.00000000000E+00  0.00000000000E+00  0.30500205161E+01  0.30500205161E+01  0.00000000000E+00 0.  1.
         -2   -1    0    0    0  501 -0.00000000000E+00 -0.00000000000E+00 -0.56472232090E+03  0.56472232090E+03  0.00000000000E+00 0. -1.
         21    1    1    2  502  503 -0.17593764287E+02  0.22324260577E+02 -0.73980402082E+02  0.79252842500E+02  0.00000000000E+00 0.  1.
         21    1    1    2  503  501  0.17593764287E+02 -0.22324260577E+02 -0.48769189830E+03  0.48851949892E+03  0.00000000000E+00 0. -1.
</event>
<event>
 4    1  0.5740469E+002  0.2237574E+02  0.7546771E-02  0.1500489E+00
          2   -1    0    0  502    0  0.00000000000E+00  0.00000000000E+00  0.92716715977E+03  0.92716715977E+03  0.00000000000E+00 0.  1.
         -2   -1    0    0    0  501 -0.00000000000E+00 -0.00000000000E+00 -0.97580087467E+00  0.97580087467E+00  0.00000000000E+00 0. -1.
         21    1    1    2  502  503 -0.41603377439E+01  0.21985568495E+02  0.77322763518E+03  0.77355132308E+03  0.00000000000E+00 0.  1.
         21    1    1    2  503  501  0.41603377439E+01 -0.21985568495E+02  0.15296372372E+03  0.15459163757E+03  0.00000000000E+00 0. -1.
</event>
<event>
 4    1  0.5740469E+002  0.2596491E+02  0.7546771E-02  0.1458292E+00
          2   -1    0    0  502    0  0.00000000000E+00  0.00000000000E+00  0.53731642835E+03  0.53731642835E+03  0.00000000000E+00 0.  1.
         -2   -1    0    0    0  501 -0.00000000000E+00 -0.00000000000E+00 -0.66617732274E+01  0.66617732274E+01  0.00000000000E+00 0. -1.
         21    1    1    2  502  503  0.15960538497E+02 -0.20480173614E+02  0.51036750737E+03  0.51102756176E+03  0.00000000000E+00 0.  1.
         21    1    1    2  503  501 -0.15960538497E+02  0.20480173614E+02  0.20287147752E+02  0.32950639816E+02  0.00000000000E+00 0. -1.
</event>
<event>
 4    1  0.5740469E+002  0.4196696E+02  0.7546771E-02  0.1337330E+00
          2   -1    0    0  502    0  0.00000000000E+00  0.00000000000E+00  0.46760204297E+03  0.46760204297E+03  0.00000000000E+00 0.  1.
         -2   -1    0    0    0  501 -0.00000000000E+00 -0.00000000000E+00 -0.83111944460E+01  0.83111944460E+01  0.00000000000E+00 0. -1.
         21    1    1    2  502  503 -0.31943093324E+02 -0.27218834145E+02  0.40560710471E+03  0.40777242370E+03  0.00000000000E+00 0.  1.
         21    1    1    2  503  501  0.31943093324E+02  0.27218834145E+02  0.53683743814E+02  0.68140813711E+02  0.00000000000E+00 0. -1.
</event>
<event>
 4    1  0.5740469E+002  0.4250215E+02  0.7546771E-02  0.1334416E+00
          2   -1    0    0  502    0  0.00000000000E+00  0.00000000000E+00  0.76726404963E+02  0.76726404963E+02  0.00000000000E+00 0. -1.
         -2   -1    0    0    0  501 -0.00000000000E+00 -0.00000000000E+00 -0.23782389622E+02  0.23782389622E+02  0.00000000000E+00 0.  1.
         21    1    1    2  502  503 -0.34149691681E+02  0.25302792061E+02  0.31505311882E+02  0.52905740755E+02  0.00000000000E+00 0. -1.
         21    1    1    2  503  501  0.34149691681E+02 -0.25302792061E+02  0.21438703459E+02  0.47603053831E+02  0.00000000000E+00 0.  1.
</event>
<event>
 4    1  0.5740469E+002  0.2413405E+02  0.7546771E-02  0.1478728E+00
          2   -1    0    0  502    0  0.00000000000E+00  0.00000000000E+00  0.14617616359E+03  0.14617616359E+03  0.00000000000E+00 0. -1.
         -2   -1    0    0    0  501 -0.00000000000E+00 -0.00000000000E+00 -0.15287873645E+02  0.15287873645E+02  0.00000000000E+00 0.  1.
         21    1    1    2  502  503  0.21491847092E+01  0.24038164981E+02  0.13486253611E+03  0.13700494887E+03  0.00000000000E+00 0. -1.
         21    1    1    2  503  501 -0.21491847092E+01 -0.24038164981E+02 -0.39742461682E+01  0.24459088355E+02  0.00000000000E+00 0.  1.
</event>
<event>
 4    1  0.5740469E+002  0.4223604E+02  0.7546771E-02  0.1335858E+00
          2   -1    0    0  503    0  0.00000000000E+00  0.00000000000E+00  0.18217383683E+03  0.18217383683E+03  0.00000000000E+00 0.  1.
         -2   -1    0    0    0  501 -0.00000000000E+00 -0.00000000000E+00 -0.15978002755E+02  0.15978002755E+02  0.00000000000E+00 0. -1.
         21    1    1    2  502  501 -0.36480934250E+02  0.21284379126E+02  0.21451936709E+02  0.47371604861E+02  0.00000000000E+00 0. -1.
         21    1    1    2  503  502  0.36480934250E+02 -0.21284379126E+02  0.14474389736E+03  0.15078023472E+03  0.00000000000E+00 0.  1.
</event>
<event>
 4    1  0.5740469E+002  0.3854183E+02  0.7546771E-02  0.1357249E+00
          2   -1    0    0  502    0  0.00000000000E+00  0.00000000000E+00  0.29171032853E+02  0.29171032853E+02  0.00000000000E+00 0.  1.
         -2   -1    0    0    0  501 -0.00000000000E+00 -0.00000000000E+00 -0.86166201903E+02  0.86166201903E+02  0.00000000000E+00 0. -1.
         21    1    1    2  502  503  0.39983497970E+01 -0.38333876905E+02  0.83839940027E+01  0.39443177801E+02  0.00000000000E+00 0.  1.
         21    1    1    2  503  501 -0.39983497970E+01  0.38333876905E+02 -0.65379163052E+02  0.75894056955E+02  0.00000000000E+00 0. -1.
</event>
<event>
 4    1  0.5740469E+002  0.2077852E+02  0.7546771E-02  0.1522451E+00
          2   -1    0    0  503    0  0.00000000000E+00  0.00000000000E+00  0.44616897530E+02  0.44616897530E+02  0.00000000000E+00 0.  1.
         -2   -1    0    0    0  501 -0.00000000000E+00 -0.00000000000E+00 -0.15089610256E+02  0.15089610256E+02  0.00000000000E+00 0. -1.
         21    1    1    2  502  501 -0.18699970884E+02  0.90585877186E+01 -0.31162836201E+01  0.21010905409E+02  0.00000000000E+00 0. -1.
         21    1    1    2  503  502  0.18699970884E+02 -0.90585877186E+01  0.32643570894E+02  0.38695602376E+02  0.00000000000E+00 0.  1.
</event>
<event>
 4    1  0.5740469E+002  0.4035091E+02  0.7546771E-02  0.1346442E+00
          2   -1    0    0  503    0  0.00000000000E+00  0.00000000000E+00  0.93541767547E+01  0.93541767547E+01  0.00000000000E+00 0.  1.
         -2   -1    0    0    0  501 -0.00000000000E+00 -0.00000000000E+00 -0.46936990022E+03  0.46936990022E+03  0.00000000000E+00 0. -1.
         21    1    1    2  502  501  0.40126254366E+02 -0.42520418731E+01 -0.41986897375E+03  0.42180345099E+03  0.00000000000E+00 0. -1.
         21    1    1    2  503  502 -0.40126254366E+02  0.42520418731E+01 -0.40146749710E+02  0.56920625979E+02  0.00000000000E+00 0.  1.
</event>
<event>
 4    1  0.5740469E+002  0.2540609E+02  0.7546771E-02  0.1464311E+00
          2   -1    0    0  503    0  0.00000000000E+00  0.00000000000E+00  0.96311861571E+03  0.96311861571E+03  0.00000000000E+00 0.  1.
         -2   -1    0    0    0  501 -0.00000000000E+00 -0.00000000000E+00 -0.70401100979E+00  0.70401100979E+00  0.00000000000E+00 0. -1.
         21    1    1    2  502  501 -0.10397153450E+02 -0.23181208429E+02  0.37557608472E+03  0.37643440947E+03  0.00000000000E+00 0. -1.
         21    1    1    2  503  502  0.10397153450E+02  0.23181208429E+02  0.58683851999E+03  0.58738821725E+03  0.00000000000E+00 0.  1.
</event>
<event>
 4    1  0.5740469E+002  0.2893339E+02  0.7546771E-02  0.1429097E+00
          2   -1    0    0  503    0  0.00000000000E+00  0.00000000000E+00  0.10249304522E+04  0.10249304522E+04  0.00000000000E+00 0. -1.
         -2   -1    0    0    0  501 -0.00000000000E+00 -0.00000000000E+00 -0.11458688117E+01  0.11458688117E+01  0.00000000000E+00 0.  1.
         21    1    1    2  502  501 -0.25111618045E+02  0.14371775681E+02  0.23695118349E+03  0.23871113224E+03  0.00000000000E+00 0.  1.
         21    1    1    2  503  502  0.25111618045E+02 -0.14371775681E+02  0.78683339990E+03  0.78736518877E+03  0.00000000000E+00 0. -1.
</event>
<event>
 4    1  0.5740469E+002  0.2071451E+02  0.7546771E-02  0.1523380E+00
          2   -1    0    0  503    0  0.00000000000E+00  0.00000000000E+00  0.18860847430E+02  0.18860847430E+02  0.00000000000E+00 0.  1.
         -2   -1    0    0    0  501 -0.00000000000E+00 -0.00000000000E+00 -0.23966660659E+02  0.23966660659E+02  0.00000000000E+00 0. -1.
         21    1    1    2  502  501 -0.16470291070E+02 -0.12562664311E+02 -0.73769361357E+01  0.21988865575E+02  0.00000000000E+00 0.  1.
         21    1    1    2  503  502  0.16470291070E+02  0.12562664311E+02  0.22711229066E+01  0.20838642513E+02  0.00000000000E+00 0. -1.
</event>
<event>
 4    1  0.5740469E+002  0.3803267E+02  0.7546771E-02  0.1360416E+00
          2   -1    0    0  503    0  0.00000000000E+00  0.00000000000E+00  0.10995489472E+04  0.10995489472E+04  0.00000000000E+00 0. -1.
         -2   -1    0    0    0  501 -0.00000000000E+00 -0.00000000000E+00 -0.15646517588E+01  0.15646517588E+01  0.00000000000E+00 0.  1.
         21    1    1    2  502  501 -0.28319410369E+02  0.25386911577E+02  0.32930565731E+03  0.33149464583E+03  0.00000000000E+00 0.  1.
         21    1    1    2  503  502  0.28319410369E+02 -0.25386911577E+02  0.76867863815E+03  0.76961895314E+03  0.00000000000E+00 0. -1.
</event>
<event>
 4    1  0.5740469E+002  0.2036367E+02  0.7546771E-02  0.1528547E+00
          2   -1    0    0  503    0  0.00000000000E+00  0.00000000000E+00  0.47307689006E+03  0.47307689006E+03  0.00000000000E+00 0.  1.
         -2   -1    0    0    0  501 -0.00000000000E+00 -0.00000000000E+00 -0.19254847924E+01  0.19254847924E+01  0.00000000000E+00 0. -1.
         21    1    1    2  502  501 -0.26802516852E+01  0.20186512062E+02  0.60281131722E+02  0.63627775853E+02  0.00000000000E+00 0. -1.
         21    1    1    2  503  502  0.26802516852E+01 -0.20186512062E+02  0.41087027354E+03  0.41137459900E+03  0.00000000000E+00 0.  1.
</event>
<event>
 4    1  0.5740469E+002  0.2558496E+02  0.7546771E-02  0.1462365E+00
          2   -1    0    0  502    0  0.00000000000E+00  0.00000000000E+00  0.11978922541E+03  0.11978922541E+03  0.00000000000E+00 0. -1.
         -2   -1    0    0    0  501 -0.00000000000E+00 -0.00000000000E+00 -0.13940412336E+02  0.13940412336E+02  0.00000000000E+00 0.  1.
         21    1    1    2  502  503 -0.18004950040E+02 -0.18177234481E+02  0.10506220556E+03  0.10813259044E+03  0.00000000000E+00 0. -1.
         21    1    1    2  503  501  0.18004950040E+02  0.18177234481E+02  0.78660751938E+00  0.25597047305E+02  0.00000000000E+00 0.  1.
</event>
<event>
 4    1  0.5740469E+002  0.2050742E+02  0.7546771E-02  0.1526415E+00
          2   -1    0    0  502    0  0.00000000000E+00  0.00000000000E+00  0.44589828826E+03  0.44589828826E+03  0.00000000000E+00 0.  1.
         -2   -1    0    0    0  501 -0.00000000000E+00 -0.00000000000E+00 -0.16017296526E+01  0.16017296526E+01  0.00000000000E+00 0. -1.
         21    1    1    2  502  503 -0.14528593194E+02  0.14473229719E+02  0.36562075554E+03  0.36619542771E+03  0.00000000000E+00 0.  1.
         21    1    1    2  503  501  0.14528593194E+02 -0.14473229719E+02  0.78675803071E+02  0.81304590200E+02  0.00000000000E+00 0. -1.
</event>
<event>
 4    1  0.5740469E+002  0.2498733E+02  0.7546771E-02  0.1468945E+00
          2   -1    0    0  502    0  0.00000000000E+00  0.00000000000E+00  0.17601431223E+03  0.17601431223E+03  0.00000000000E+00 0. -1.
         -2   -1    0    0    0  501 -0.00000000000E+00 -0.00000000000E+00 -0.51270821352E+01  0.51270821352E+01  0.00000000000E+00 0.  1.
         21    1    1    2  502  503  0.16251695518E+02  0.18980222363E+02  0.13571933469E+03  0.13800037774E+03  0.00000000000E+00 0. -1.
         21    1    1    2  503  501 -0.16251695518E+02 -0.18980222363E+02  0.35167895407E+02  0.43141016626E+02  0.00000000000E+00 0.  1.
</event>
<event>
 4    1  0.5740469E+002  0.6043485E+02  0.7546771E-02  0.1258362E+00
          2   -1    0    0  503    0  0.00000000000E+00  0.00000000000E+00  0.65136536318E+03  0.65136536318E+03  0.00000000000E+00 0. -1.
         -2   -1    0    0    0  501 -0.00000000000E+00 -0.00000000000E+00 -0.71496678572E+01  0.71496678572E+01  0.00000000000E+00 0.  1.
         21    1    1    2  502  501 -0.43005966232E+02 -0.42460071132E+02  0.47503805596E+03  0.47886691823E+03  0.00000000000E+00 0. -1.
         21    1    1    2  503  502  0.43005966232E+02  0.42460071132E+02  0.16917763937E+03  0.17964811280E+03  0.00000000000E+00 0.  1.
</event>
<event>
 4    1  0.5740469E+002  0.2129087E+02  0.7546771E-02  0.1515152E+00
          2   -1    0    0  503    0  0.00000000000E+00  0.00000000000E+00  0.28098643218E+03  0.28098643218E+03  0.00000000000E+00 0. -1.
         -2   -1    0    0    0  501 -0.00000000000E+00 -0.00000000000E+00 -0.13132201859E+02  0.13132201859E+02  0.00000000000E+00 0.  1.
         21    1    1    2  502  501 -0.15649592659E+02  0.14435761003E+02 -0.38034340531E+01  0.21627923079E+02  0.00000000000E+00 0.  1.
         21    1    1    2  503  502  0.15649592659E+02 -0.14435761003E+02  0.27165766437E+03  0.27249071096E+03  0.00000000000E+00 0. -1.
</event>
<event>
 4    1  0.5740469E+002  0.2099056E+02  0.7546771E-02  0.1519400E+00
          2   -1    0    0  503    0  0.00000000000E+00  0.00000000000E+00  0.17391074487E+04  0.17391074487E+04  0.00000000000E+00 0. -1.
         -2   -1    0    0    0  501 -0.00000000000E+00 -0.00000000000E+00 -0.41472157354E+00  0.41472157354E+00  0.00000000000E+00 0.  1.
         21    1    1    2  502  501  0.61366612559E+01  0.20073494628E+02  0.32680299530E+03  0.32747641370E+03  0.00000000000E+00 0.  1.
         21    1    1    2  503  502 -0.61366612559E+01 -0.20073494628E+02  0.14118897319E+04  0.14120457566E+04  0.00000000000E+00 0. -1.
</event>
<event>
 4    1  0.5740469E+002  0.2165114E+02  0.7546771E-02  0.1510168E+00
          2   -1    0    0  503    0  0.00000000000E+00  0.00000000000E+00  0.19200266298E+03  0.19200266298E+03  0.00000000000E+00 0.  1.
         -2   -1    0    0    0  501 -0.00000000000E+00 -0.00000000000E+00 -0.53186425608E+01  0.53186425608E+01  0.00000000000E+00 0. -1.
         21    1    1    2  502  501 -0.12416103737E+02 -0.17737311784E+02  0.20777325786E+02  0.30007817783E+02  0.00000000000E+00 0. -1.
         21    1    1    2  503  502  0.12416103737E+02  0.17737311784E+02  0.16590669464E+03  0.16731348776E+03  0.00000000000E+00 0.  1.
</event>
<event>
 4    1  0.5740469E+002  0.3460000E+02  0.7546771E-02  0.1383397E+00
          2   -1    0    0  503    0  0.00000000000E+00  0.00000000000E+00  0.11531750180E+04  0.11531750180E+04  0.00000000000E+00 0.  1.
         -2   -1    0    0    0  501 -0.00000000000E+00 -0.00000000000E+00 -0.13445114022E+01  0.13445114022E+01  0.00000000000E+00 0. -1.
         21    1    1    2  502  501 -0.30397476303E+02 -0.16527359361E+02  0.30035836324E+03  0.30234468168E+03  0.00000000000E+00 0. -1.
         21    1    1    2  503  502  0.30397476303E+02  0.16527359361E+02  0.85147214333E+03  0.85217484769E+03  0.00000000000E+00 0.  1.
</event>
<event>
 4    1  0.5740469E+002  0.3129664E+02  0.7546771E-02  0.1408654E+00
          2   -1    0    0  503    0  0.00000000000E+00  0.00000000000E+00  0.18155473251E+03  0.18155473251E+03  0.00000000000E+00 0. -1.
         -2   -1    0    0    0  501 -0.00000000000E+00 -0.00000000000E+00 -0.83510378788E+01  0.83510378788E+01  0.00000000000E+00 0.  1.
         21    1    1    2  502  501  0.25760514335E+02  0.17772895167E+02  0.30108653942E+02  0.43428227498E+02  0.00000000000E+00 0.  1.
         21    1    1    2  503  502 -0.25760514335E+02 -0.17772895167E+02  0.14309504069E+03  0.14647754289E+03  0.00000000000E+00 0. -1.
</event>
<event>
 4    1  0.5740469E+002  0.4009876E+02  0.7546771E-02  0.1347908E+00
          2   -1    0    0  503    0  0.00000000000E+00  0.00000000000E+00  0.11455653195E+04  0.11455653195E+04  0.00000000000E+00 0.  1.
         -2   -1    0    0    0  501 -0.00000000000E+00 -0.00000000000E+00 -0.14657335720E+01  0.14657335720E+01  0.00000000000E+00 0. -1.
         21    1    1    2  502  501  0.23596014254E+02 -0.32421266992E+02  0.45396439447E+03  0.45573191889E+03  0.00000000000E+00 0. -1.
         21    1    1    2  503  502 -0.23596014254E+02  0.32421266992E+02  0.69013519142E+03  0.69129913415E+03  0.00000000000E+00 0.  1.
</event>
<event>
 4    1  0.5740469E+002  0.2426274E+02  0.7546771E-02  0.1477223E+00
          2   -1    0    0  503    0  0.00000000000E+00  0.00000000000E+00  0.92219649103E+02  0.92219649103E+02  0.00000000000E+00 0. -1.
         -2   -1    0    0    0  501 -0.00000000000E+00 -0.00000000000E+00 -0.12683971689E+02  0.12683971689E+02  0.00000000000E+00 0.  1.
         21    1    1    2  502  501  0.11863873447E+01  0.24233716051E+02  0.28002829731E+01  0.24423801779E+02  0.00000000000E+00 0.  1.
         21    1    1    2  503  502 -0.11863873447E+01 -0.24233716051E+02  0.76735394440E+02  0.80479819014E+02  0.00000000000E+00 0. -1.
</event>
<event>
 4    1  0.5740469E+002  0.2993761E+02  0.7546771E-02  0.1420140E+00
          2   -1    0    0  502    0  0.00000000000E+00  0.00000000000E+00  0.18839950325E+01  0.18839950325E+01  0.00000000000E+00 0. -1.
         -2   -1    0    0    0  501 -0.00000000000E+00 -0.00000000000E+00 -0.47783822735E+03  0.47783822735E+03  0.00000000000E+00 0.  1.
         21    1    1    2  502  503 -0.21046254436E+02  0.21291208419E+02 -0.22201962835E+03  0.22402896187E+03  0.00000000000E+00 0.  1.
         21    1    1    2  503  501  0.21046254436E+02 -0.21291208419E+02 -0.25393460396E+03  0.25569326051E+03  0.00000000000E+00 0. -1.
</event>
<event>
 4    1  0.5740469E+002  0.2806348E+02  0.7546771E-02  0.1437208E+00
          2   -1    0    0  502    0  0.00000000000E+00  0.00000000000E+00  0.54397809099E+03  0.54397809099E+03  0.00000000000E+00 0.  1.
         -2   -1    0    0    0  501 -0.00000000000E+00 -0.00000000000E+00 -0.34343519300E+01  0.34343519300E+01  0.00000000000E+00 0. -1.
         21    1    1    2  502  503 -0.27901038840E+02  0.30151069026E+01  0.47844025426E+03  0.47926259580E+03  0.00000000000E+00 0.  1.
         21    1    1    2  503  501  0.27901038840E+02 -0.30151069026E+01  0.62103484800E+02  0.68149847118E+02  0.00000000000E+00 0. -1.
</event>
<event>
 4    1  0.5740469E+002  0.3367450E+02  0.7546771E-02  0.1390129E+00
          2   -1    0    0  502    0  0.00000000000E+00  0.00000000000E+00  0.98796761340E+03  0.98796761340E+03  0.00000000000E+00 0. -1.
         -2   -1    0    0    0  501 -0.00000000000E+00 -0.00000000000E+00 -0.29619793614E+02  0.29619793614E+02  0.00000000000E+00 0.  1.
         21    1    1    2  502  503 -0.33596355379E+02 -0.22928382684E+01  0.97801220275E+03  0.97859176419E+03  0.00000000000E+00 0. -1.
         21    1    1    2  503  501  0.33596355379E+02  0.22928382684E+01 -0.19664382966E+02  0.38995642828E+02  0.00000000000E+00 0.  1.
</event>
<event>
 4    1  0.5740469E+002  0.2048875E+02  0.7546771E-02  0.1526691E+00
          2   -1    0    0  502    0  0.00000000000E+00  0.00000000000E+00  0.17918060487E+04  0.17918060487E+04  0.00000000000E+00 0.  1.
         -2   -1    0    0    0  501 -0.00000000000E+00 -0.00000000000E+00 -0.29327547681E+00  0.29327547681E+00  0.00000000000E+00 0. -1.
         21    1    1    2  502  503  0.18229070856E+02  0.93535985537E+01  0.12976344499E+04  0.12977961914E+04  0.00000000000E+00 0. -1.
         21    1    1    2  503  501 -0.18229070856E+02 -0.93535985537E+01  0.49387832338E+03  0.49430313284E+03  0.00000000000E+00 0.  1.
</event>
<event>
 4    1  0.5740469E+002  0.2944878E+02  0.7546771E-02  0.1424448E+00
          2   -1    0    0  502    0  0.00000000000E+00  0.00000000000E+00  0.50107955485E+03  0.50107955485E+03  0.00000000000E+00 0.  1.
         -2   -1    0    0    0  501 -0.00000000000E+00 -0.00000000000E+00 -0.31031543686E+01  0.31031543686E+01  0.00000000000E+00 0. -1.
         21    1    1    2  502  503  0.15771309895E+02 -0.24869591113E+02  0.41663733089E+03  0.41767678445E+03  0.00000000000E+00 0.  1.
         21    1    1    2  503  501 -0.15771309895E+02  0.24869591113E+02  0.81339069591E+02  0.86505924767E+02  0.00000000000E+00 0. -1.
</event>
<event>
 4    1  0.5740469E+002  0.2239295E+02  0.7546771E-02  0.1500265E+00
          2   -1    0    0  502    0  0.00000000000E+00  0.00000000000E+00  0.55819998604E+03  0.55819998604E+03  0.00000000000E+00 0. -1.
         -2   -1    0    0    0  501 -0.00000000000E+00 -0.00000000000E+00 -0.10805163461E+01  0.10805163461E+01  0.00000000000E+00 0.  1.
         21    1    1    2  502  503  0.20107236153E+02 -0.98561179049E+01  0.16373114985E+03  0.16525535827E+03  0.00000000000E+00 0.  1.
         21    1    1    2  503  501 -0.20107236153E+02  0.98561179049E+01  0.39338831984E+03  0.39402514411E+03  0.00000000000E+00 0. -1.
</event>
<event>
 4    1  0.5740469E+002  0.3198627E+02  0.7546771E-02  0.1403086E+00
          2   -1    0    0  502    0  0.00000000000E+00  0.00000000000E+00  0.21041647100E+04  0.21041647100E+04  0.00000000000E+00 0.  1.
         -2   -1    0    0    0  501 -0.00000000000E+00 -0.00000000000E+00 -0.19626071167E+01  0.19626071167E+01  0.00000000000E+00 0. -1.
         21    1    1    2  502  503  0.32572730285E+01  0.31819991064E+02  0.19644476991E+04  0.19647080913E+04  0.00000000000E+00 0.  1.
         21    1    1    2  503  501 -0.32572730285E+01 -0.31819991064E+02  0.13775440378E+03  0.14141922577E+03  0.00000000000E+00 0. -1.
</event>
<event>
 4    1  0.5740469E+002  0.2245326E+02  0.7546771E-02  0.1499480E+00
          2   -1    0    0  502    0  0.00000000000E+00  0.00000000000E+00  0.16721214211E+04  0.16721214211E+04  0.00000000000E+00 0. -1.
         -2   -1    0    0    0  501 -0.00000000000E+00 -0.00000000000E+00 -0.31728279669E+00  0.31728279669E+00  0.00000000000E+00 0.  1.
         21    1    1    2  502  503  0.32447770302E+01 -0.22217564343E+02  0.10223917936E+04  0.10226383175E+04  0.00000000000E+00 0. -1.
         21    1    1    2  503  501 -0.32447770302E+01  0.22217564343E+02  0.64941234464E+03  0.64980038636E+03  0.00000000000E+00 0.  1.
</event>
<event>
 4    1  0.5740469E+002  0.2629464E+02  0.7546771E-02  0.1454825E+00
          2   -1    0    0  502    0  0.00000000000E+00  0.00000000000E+00  0.21982836184E+03  0.21982836184E+03  0.00000000000E+00 0.  1.
         -2   -1    0    0    0  501 -0.00000000000E+00 -0.00000000000E+00 -0.45193495164E+01  0.45193495164E+01  0.00000000000E+00 0. -1.
         21    1    1    2  502  503 -0.25776015977E+02  0.51966597724E+01  0.16950849676E+03  0.17153582350E+03  0.00000000000E+00 0.  1.
         21    1    1    2  503  501  0.25776015977E+02 -0.51966597724E+01  0.45800515572E+02  0.52811887857E+02  0.00000000000E+00 0. -1.
</event>
<event>
 4    1  0.5740469E+002  0.3453278E+02  0.7546771E-02  0.1383878E+00
          2   -1    0    0  502    0  0.00000000000E+00  0.00000000000E+00  0.48448668069E+01  0.48448668069E+01  0.00000000000E+00 0.  1.
         -2   -1    0    0    0  501 -0.00000000000E+00 -0.00000000000E+00 -0.34362511226E+03  0.34362511226E+03  0.00000000000E+00 0. -1.
         21    1    1    2  502  503 -0.34467939111E+02  0.21151769704E+01 -0.76586843397E+02  0.84012245427E+02  0.00000000000E+00 0.  1.
         21    1    1    2  503  501  0.34467939111E+02 -0.21151769704E+01 -0.26219340205E+03  0.26445773364E+03  0.00000000000E+00 0. -1.
</event>
<event>
 4    1  0.5740469E+002  0.2103868E+02  0.7546771E-02  0.1518713E+00
          2   -1    0    0  502    0  0.00000000000E+00  0.00000000000E+00  0.73187846651E+02  0.73187846651E+02  0.00000000000E+00 0. -1.
         -2   -1    0    0    0  501 -0.00000000000E+00 -0.00000000000E+00 -0.12773120907E+02  0.12773120907E+02  0.00000000000E+00 0.  1.
         21    1    1    2  502  503 -0.26300426613E+01  0.20873644959E+02  0.61394748956E+02  0.64899471320E+02  0.00000000000E+00 0. -1.
         21    1    1    2  503  501  0.26300426613E+01 -0.20873644959E+02 -0.98002321179E+00  0.21061496237E+02  0.00000000000E+00 0.  1.
</event>
<event>
 4    1  0.5740469E+002  0.3100618E+02  0.7546771E-02  0.1411049E+00
          2   -1    0    0  502    0  0.00000000000E+00  0.00000000000E+00  0.19353866959E+03  0.19353866959E+03  0.00000000000E+00 0. -1.
         -2   -1    0    0    0  501 -0.00000000000E+00 -0.00000000000E+00 -0.75706125359E+01  0.75706125359E+01  0.00000000000E+00 0.  1.
         21    1    1    2  502  503  0.20325203611E+02  0.23415157111E+02  0.15194866707E+03  0.15507991781E+03  0.00000000000E+00 0. -1.
         21    1    1    2  503  501 -0.20325203611E+02 -0.23415157111E+02  0.34019389988E+02  0.46029364318E+02  0.00000000000E+00 0.  1.
</event>
<event>
 4    1  0.5740469E+002  0.2353466E+02  0.7546771E-02  0.1485891E+00
          2   -1    0    0  502    0  0.00000000000E+00  0.00000000000E+00  0.42559691116E+02  0.42559691116E+02  0.00000000000E+00 0. -1.
         -2   -1    0    0    0  501 -0.00000000000E+00 -0.00000000000E+00 -0.29329659239E+02  0.29329659239E+02  0.00000000000E+00 0.  1.
         21    1    1    2  502  503  0.23446630817E+02 -0.20336784059E+01  0.33424021336E+02  0.40878423976E+02  0.00000000000E+00 0. -1.
         21    1    1    2  503  501 -0.23446630817E+02  0.20336784059E+01 -0.20193989459E+02  0.31010926378E+02  0.00000000000E+00 0.  1.
</event>
<event>
 4    1  0.5740469E+002  0.2386983E+02  0.7546771E-02  0.1481855E+00
          2   -1    0    0  503    0  0.00000000000E+00  0.00000000000E+00  0.65863023423E+03  0.65863023423E+03  0.00000000000E+00 0.  1.
         -2   -1    0    0    0  501 -0.00000000000E+00 -0.00000000000E+00 -0.86743357618E+00  0.86743357618E+00  0.00000000000E+00 0. -1.
         21    1    1    2  502  501  0.14449640874E+02  0.18999388317E+02  0.34605195340E+03  0.34687421831E+03  0.00000000000E+00 0.  1.
         21    1    1    2  503  502 -0.14449640874E+02 -0.18999388317E+02  0.31171084726E+03  0.31262344950E+03  0.00000000000E+00 0. -1.
</event>
<event>
 4    1  0.5740469E+002  0.3822585E+02  0.7546771E-02  0.1359208E+00
          2   -1    0    0  502    0  0.00000000000E+00  0.00000000000E+00  0.35803805694E+03  0.35803805694E+03  0.00000000000E+00 0. -1.
         -2   -1    0    0    0  501 -0.00000000000E+00 -0.00000000000E+00 -0.40951712570E+01  0.40951712570E+01  0.00000000000E+00 0.  1.
         21    1    1    2  502  503 -0.37673416416E+02 -0.64753048049E+01  0.18755696323E+03  0.19141272249E+03  0.00000000000E+00 0. -1.
         21    1    1    2  503  501  0.37673416416E+02  0.64753048049E+01  0.16638592246E+03  0.17072050571E+03  0.00000000000E+00 0.  1.
</event>
<event>
 4    1  0.5740469E+002  0.2162137E+02  0.7546771E-02  0.1510575E+00
          2   -1    0    0  502    0  0.00000000000E+00  0.00000000000E+00  0.17697671371E+04  0.17697671371E+04  0.00000000000E+00 0.  1.
         -2   -1    0    0    0  501 -0.00000000000E+00 -0.00000000000E+00 -0.32439506172E+00  0.32439506172E+00  0.00000000000E+00 0. -1.
         21    1    1    2  502  503 -0.21621292344E+02 -0.56667829320E-01  0.12661298535E+04  0.12663144512E+04  0.00000000000E+00 0.  1.
         21    1    1    2  503  501  0.21621292344E+02  0.56667829320E-01  0.50331288854E+03  0.50377708093E+03  0.00000000000E+00 0. -1.
</event>
<event>
 4    1  0.5740469E+002  0.2023940E+02  0.7546771E-02  0.1530407E+00
          2   -1    0    0  503    0  0.00000000000E+00  0.00000000000E+00  0.60963764805E+02  0.60963764805E+02  0.00000000000E+00 0.  1.
         -2   -1    0    0    0  501 -0.00000000000E+00 -0.00000000000E+00 -0.20381825913E+02  0.20381825913E+02  0.00000000000E+00 0. -1.
         21    1    1    2  502  501  0.80425300380E+01 -0.18572860681E+02 -0.13009325222E+02  0.24059841770E+02  0.00000000000E+00 0. -1.
         21    1    1    2  503  502 -0.80425300380E+01  0.18572860681E+02  0.53591264114E+02  0.57285748948E+02  0.00000000000E+00 0.  1.
</event>
<event>
 4    1  0.5740469E+002  0.2096273E+02  0.7546771E-02  0.1519798E+00
          2   -1    0    0  503    0  0.00000000000E+00  0.00000000000E+00  0.84033595103E+02  0.84033595103E+02  0.00000000000E+00 0. -1.
         -2   -1    0    0    0  501 -0.00000000000E+00 -0.00000000000E+00 -0.73939291777E+01  0.73939291777E+01  0.00000000000E+00 0.  1.
         21    1    1    2  502  501  0.16852242582E+02 -0.12467470580E+02  0.13585383952E+02  0.24979963167E+02  0.00000000000E+00 0.  1.
         21    1    1    2  503  502 -0.16852242582E+02  0.12467470580E+02  0.63054281973E+02  0.66447561113E+02  0.00000000000E+00 0. -1.
</event>
<event>
 4    1  0.5740469E+002  0.2469300E+02  0.7546771E-02  0.1472267E+00
          2   -1    0    0  502    0  0.00000000000E+00  0.00000000000E+00  0.30494638975E+01  0.30494638975E+01  0.00000000000E+00 0.  1.
         -2   -1    0    0    0  501 -0.00000000000E+00 -0.00000000000E+00 -0.20097432139E+03  0.20097432139E+03  0.00000000000E+00 0. -1.
         21    1    1    2  502  503  0.78265756156E+01  0.23419840071E+02 -0.91684158920E+02  0.94951193735E+02  0.00000000000E+00 0. -1.
         21    1    1    2  503  501 -0.78265756156E+01 -0.23419840071E+02 -0.10624069858E+03  0.10907259156E+03  0.00000000000E+00 0.  1.
</event>
<event>
 4    1  0.5740469E+002  0.2256968E+02  0.7546771E-02  0.1497974E+00
          2   -1    0    0  503    0  0.00000000000E+00  0.00000000000E+00  0.21020795816E+04  0.21020795816E+04  0.00000000000E+00 0. -1.
         -2   -1    0    0    0  501 -0.00000000000E+00 -0.00000000000E+00 -0.26687651686E+00  0.26687651686E+00  0.00000000000E+00 0.  1.
         21    1    1    2  502  501 -0.64852530906E+01  0.21617863564E+02  0.73208967427E+03  0.73243749338E+03  0.00000000000E+00 0.  1.
         21    1    1    2  503  502  0.64852530906E+01 -0.21617863564E+02  0.13697230308E+04  0.13699089647E+04  0.00000000000E+00 0. -1.
</event>
<event>
 4    1  0.5740469E+002  0.5820859E+02  0.7546771E-02  0.1266044E+00
          2   -1    0    0  502    0  0.00000000000E+00  0.00000000000E+00  0.65975572872E+02  0.65975572872E+02  0.00000000000E+00 0.  1.
         -2   -1    0    0    0  501 -0.00000000000E+00 -0.00000000000E+00 -0.51387805733E+02  0.51387805733E+02  0.00000000000E+00 0. -1.
         21    1    1    2  502  503 -0.31029498820E+02  0.49248447513E+02  0.58332317055E+01  0.58500136509E+02  0.00000000000E+00 0. -1.
         21    1    1    2  503  501  0.31029498820E+02 -0.49248447513E+02  0.87545354329E+01  0.58863242096E+02  0.00000000000E+00 0.  1.
</event>
<event>
 4    1  0.5740469E+002  0.2633486E+02  0.7546771E-02  0.1454406E+00
          2   -1    0    0  502    0  0.00000000000E+00  0.00000000000E+00  0.29885221753E+03  0.29885221753E+03  0.00000000000E+00 0. -1.
         -2   -1    0    0    0  501 -0.00000000000E+00 -0.00000000000E+00 -0.29619826970E+01  0.29619826970E+01  0.00000000000E+00 0.  1.
         21    1    1    2  502  503  0.81630371601E+01  0.25037769926E+02  0.21816615523E+03  0.21974984957E+03  0.00000000000E+00 0.  1.
         21    1    1    2  503  501 -0.81630371601E+01 -0.25037769926E+02  0.77724079606E+02  0.82064350660E+02  0.00000000000E+00 0. -1.
</event>
<event>
 4    1  0.5740469E+002  0.2134057E+02  0.7546771E-02  0.1514458E+00
          2   -1    0    0  502    0  0.00000000000E+00  0.00000000000E+00  0.92139560239E+03  0.92139560239E+03  0.00000000000E+00 0.  1.
         -2   -1    0    0    0  501 -0.00000000000E+00 -0.00000000000E+00 -0.23208358668E+01  0.23208358668E+01  0.00000000000E+00 0. -1.
         21    1    1    2  502  503 -0.11716457686E+02  0.17836608734E+02  0.86927317355E+03  0.86953508856E+03  0.00000000000E+00 0.  1.
         21    1    1    2  503  501  0.11716457686E+02 -0.17836608734E+02  0.49801592980E+02  0.54181349699E+02  0.00000000000E+00 0. -1.
</event>
<event>
 4    1  0.5740469E+002  0.2630109E+02  0.7546771E-02  0.1454758E+00
          2   -1    0    0  503    0  0.00000000000E+00  0.00000000000E+00  0.13185515299E+04  0.13185515299E+04  0.00000000000E+00 0.  1.
         -2   -1    0    0    0  501 -0.00000000000E+00 -0.00000000000E+00 -0.59421341624E+00  0.59421341624E+00  0.00000000000E+00 0. -1.
         21    1    1    2  502  501 -0.16144430619E+02  0.20763062023E+02  0.43326667379E+03  0.43406423258E+03  0.00000000000E+00 0. -1.
         21    1    1    2  503  502  0.16144430619E+02 -0.20763062023E+02  0.88469064271E+03  0.88508151075E+03  0.00000000000E+00 0.  1.
</event>
<event>
 4    1  0.5740469E+002  0.2249849E+02  0.7546771E-02  0.1498893E+00
          2   -1    0    0  502    0  0.00000000000E+00  0.00000000000E+00  0.24359322846E+03  0.24359322846E+03  0.00000000000E+00 0. -1.
         -2   -1    0    0    0  501 -0.00000000000E+00 -0.00000000000E+00 -0.26739023864E+01  0.26739023864E+01  0.00000000000E+00 0.  1.
         21    1    1    2  502  503  0.44990224539E+01 -0.22044068382E+02  0.17858936369E+03  0.18000095271E+03  0.00000000000E+00 0.  1.
         21    1    1    2  503  501 -0.44990224539E+01  0.22044068382E+02  0.62329962387E+02  0.66266178139E+02  0.00000000000E+00 0. -1.
</event>
<event>
 4    1  0.5740469E+002  0.2297480E+02  0.7546771E-02  0.1492815E+00
          2   -1    0    0  502    0  0.00000000000E+00  0.00000000000E+00  0.11821470644E+04  0.11821470644E+04  0.00000000000E+00 0. -1.
         -2   -1    0    0    0  501 -0.00000000000E+00 -0.00000000000E+00 -0.68342211097E+00  0.68342211097E+00  0.00000000000E+00 0.  1.
         21    1    1    2  502  503  0.15106092570E+02  0.17310327803E+02  0.93894151750E+03  0.93922255870E+03  0.00000000000E+00 0. -1.
         21    1    1    2  503  501 -0.15106092570E+02 -0.17310327803E+02  0.24252212482E+03  0.24360792785E+03  0.00000000000E+00 0.  1.
</event>
<event>
 4    1  0.5740469E+002  0.3192518E+02  0.7546771E-02  0.1403573E+00
          2   -1    0    0  503    0  0.00000000000E+00  0.00000000000E+00  0.53895197385E+03  0.53895197385E+03  0.00000000000E+00 0. -1.
         -2   -1    0    0    0  501 -0.00000000000E+00 -0.00000000000E+00 -0.18926186528E+01  0.18926186528E+01  0.00000000000E+00 0.  1.
         21    1    1    2  502  501 -0.69071786499E+01  0.31169023537E+02  0.26089322607E+03  0.26283929036E+03  0.00000000000E+00 0.  1.
         21    1    1    2  503  502  0.69071786499E+01 -0.31169023537E+02  0.27616612913E+03  0.27800530215E+03  0.00000000000E+00 0. -1.
</event>
<event>
 4    1  0.5740469E+002  0.2278218E+02  0.7546771E-02  0.1495252E+00
          2   -1    0    0  503    0  0.00000000000E+00  0.00000000000E+00  0.19336964455E+02  0.19336964455E+02  0.00000000000E+00 0.  1.
         -2   -1    0    0    0  501 -0.00000000000E+00 -0.00000000000E+00 -0.99816816428E+02  0.99816816428E+02  0.00000000000E+00 0. -1.
         21    1    1    2  502  501 -0.21343466540E+02 -0.79676884847E+01 -0.91180615097E+02  0.93983680462E+02  0.00000000000E+00 0. -1.
         21    1    1    2  503  502  0.21343466540E+02  0.79676884847E+01  0.10700763124E+02  0.25170100421E+02  0.00000000000E+00 0.  1.
</event>
<event>
 4    1  0.5740469E+002  0.2976590E+02  0.7546771E-02  0.1421642E+00
          2   -1    0    0  503    0  0.00000000000E+00  0.00000000000E+00  0.92484763329E+02  0.92484763329E+02  0.00000000000E+00 0. -1.
         -2   -1    0    0    0  501 -0.00000000000E+00 -0.00000000000E+00 -0.14841043733E+02  0.14841043733E+02  0.00000000000E+00 0.  1.
         21    1    1    2  502  501 -0.80166416337E+01 -0.28666043520E+02  0.68714917648E+01  0.30548747818E+02  0.00000000000E+00 0.  1.
         21    1    1    2  503  502  0.80166416337E+01  0.28666043520E+02  0.70772227831E+02  0.76777059245E+02  0.00000000000E+00 0. -1.
</event>
<event>
 4    1  0.5740469E+002  0.2602196E+02  0.7546771E-02  0.1457688E+00
          2   -1    0    0  503    0  0.00000000000E+00  0.00000000000E+00  0.11368254382E+03  0.11368254382E+03  0.00000000000E+00 0. -1.
         -2   -1    0    0    0  501 -0.00000000000E+00 -0.00000000000E+00 -0.59629749973E+01  0.59629749973E+01  0.00000000000E+00 0.  1.
         21    1    1    2  502  501  0.21746434011E+02 -0.14291073748E+02  0.51877936842E+02  0.58038457182E+02  0.00000000000E+00 0. -1.
         21    1    1    2  503  502 -0.21746434011E+02  0.14291073748E+02  0.55841631983E+02  0.61607061638E+02  0.00000000000E+00 0.  1.
</event>
<event>
 4    1  0.5740469E+002  0.2949194E+02  0.7546771E-02  0.1424064E+00
          2   -1    0    0  503    0  0.00000000000E+00  0.00000000000E+00  0.29350782023E+02  0.29350782023E+02  0.00000000000E+00 0.  1.
         -2   -1    0    0    0  501 -0.00000000000E+00 -0.00000000000E+00 -0.10714100727E+03  0.10714100727E+03  0.00000000000E+00 0. -1.
         21    1    1    2  502  501 -0.29207369111E+02 -0.40870644735E+01  0.19150550879E+02  0.35164159387E+02  0.00000000000E+00 0.  1.
         21    1    1    2  503  502  0.29207369111E+02  0.40870644735E+01 -0.96940776126E+02  0.10132762991E+03  0.00000000000E+00 0. -1.
</event>
<event>
 4    1  0.5740469E+002  0.5304734E+02  0.7546771E-02  0.1285475E+00
          2   -1    0    0  503    0  0.00000000000E+00  0.00000000000E+00  0.76288938352E+03  0.76288938352E+03  0.00000000000E+00 0. -1.
         -2   -1    0    0    0  501 -0.00000000000E+00 -0.00000000000E+00 -0.91369729449E+01  0.91369729449E+01  0.00000000000E+00 0.  1.
         21    1    1    2  502  501  0.40769083904E+02  0.33939677925E+02  0.78796087513E+02  0.94988648519E+02  0.00000000000E+00 0.  1.
         21    1    1    2  503  502 -0.40769083904E+02 -0.33939677925E+02  0.67495632306E+03  0.67703770794E+03  0.00000000000E+00 0. -1.
</event>
<event>
 4    1  0.5740469E+002  0.2040094E+02  0.7546771E-02  0.1527992E+00
          2   -1    0    0  503    0  0.00000000000E+00  0.00000000000E+00  0.22298196684E+01  0.22298196684E+01  0.00000000000E+00 0.  1.
         -2   -1    0    0    0  501 -0.00000000000E+00 -0.00000000000E+00 -0.20944059808E+03  0.20944059808E+03  0.00000000000E+00 0. -1.
         21    1    1    2  502  501 -0.18327968165E+02 -0.89601331854E+01 -0.13851673954E+03  0.14001101934E+03  0.00000000000E+00 0. -1.
         21    1    1    2  503  502  0.18327968165E+02  0.89601331854E+01 -0.68694038868E+02  0.71659398405E+02  0.00000000000E+00 0.  1.
</event>
<event>
 4    1  0.5740469E+002  0.2408331E+02  0.7546771E-02  0.1479325E+00
          2   -1    0    0  503    0  0.00000000000E+00  0.00000000000E+00  0.19013056623E+03  0.19013056623E+03  0.00000000000E+00 0.  1.
         -2   -1    0    0    0  501 -0.00000000000E+00 -0.00000000000E+00 -0.33295516381E+01  0.33295516381E+01  0.00000000000E+00 0. -1.
         21    1    1    2  502  501 -0.11446554588E+02  0.21189195725E+02  0.65400356371E+02  0.69693703022E+02  0.00000000000E+00 0.  1.
         21    1    1    2  503  502  0.11446554588E+02 -0.21189195725E+02  0.12140065822E+03  0.12376641485E+03  0.00000000000E+00 0. -1.
</event>
<event>
 4    1  0.5740469E+002  0.4072104E+02  0.7546771E-02  0.1344312E+00
          2   -1    0    0  502    0  0.00000000000E+00  0.00000000000E+00  0.43600336182E+02  0.43600336182E+02  0.00000000000E+00 0. -1.
         -2   -1    0    0    0  501 -0.00000000000E+00 -0.00000000000E+00 -0.62770165204E+02  0.62770165204E+02  0.00000000000E+00 0.  1.
         21    1    1    2  502  503  0.51727394529E+01  0.40391158577E+02  0.23803772149E+02  0.47168024054E+02  0.00000000000E+00 0. -1.
         21    1    1    2  503  501 -0.51727394529E+01 -0.40391158577E+02 -0.42973601171E+02  0.59202477332E+02  0.00000000000E+00 0.  1.
</event>
<event>
 4    1  0.5740469E+002  0.3964259E+02  0.7546771E-02  0.1350593E+00
          2   -1    0    0  503    0  0.00000000000E+00  0.00000000000E+00  0.13655973277E+03  0.13655973277E+03  0.00000000000E+00 0.  1.
         -2   -1    0    0    0  501 -0.00000000000E+00 -0.00000000000E+00 -0.22649553005E+02  0.22649553005E+02  0.00000000000E+00 0. -1.
         21    1    1    2  502  501 -0.37697178629E+02 -0.12266117881E+02  0.11234147567E+01  0.39658504576E+02  0.00000000000E+00 0. -1.
         21    1    1    2  503  502  0.37697178629E+02  0.12266117881E+02  0.11278676501E+03  0.11955078120E+03  0.00000000000E+00 0.  1.
</event>
<event>
 4    1  0.5740469E+002  0.2240948E+02  0.7546771E-02  0.1500050E+00
          2   -1    0    0  503    0  0.00000000000E+00  0.00000000000E+00  0.66260099723E+02  0.66260099723E+02  0.00000000000E+00 0. -1.
         -2   -1    0    0    0  501 -0.00000000000E+00 -0.00000000000E+00 -0.16239900295E+02  0.16239900295E+02  0.00000000000E+00 0.  1.
         21    1    1    2  502  501  0.13285118595E+02 -0.18046894157E+02 -0.51139942863E+01  0.22985597716E+02  0.00000000000E+00 0.  1.
         21    1    1    2  503  502 -0.13285118595E+02  0.18046894157E+02  0.55134193714E+02  0.59514402302E+02  0.00000000000E+00 0. -1.
</event>
<event>
 4    1  0.5740469E+002  0.2274378E+02  0.7546771E-02  0.1495741E+00
          2   -1    0    0  502    0  0.00000000000E+00  0.00000000000E+00  0.81517710502E+02  0.81517710502E+02  0.00000000000E+00 0. -1.
         -2   -1    0    0    0  501 -0.00000000000E+00 -0.00000000000E+00 -0.11459196624E+02  0.11459196624E+02  0.00000000000E+00 0.  1.
         21    1    1    2  502  503  0.15492577456E+02 -0.16651119741E+02  0.66084200663E+02  0.69888492058E+02  0.00000000000E+00 0. -1.
         21    1    1    2  503  501 -0.15492577456E+02  0.16651119741E+02  0.39743132151E+01  0.23088415068E+02  0.00000000000E+00 0.  1.
</event>
<event>
 4    1  0.5740469E+002  0.2551644E+02  0.7546771E-02  0.1463108E+00
          2   -1    0    0  503    0  0.00000000000E+00  0.00000000000E+00  0.27574524717E+02  0.27574524717E+02  0.00000000000E+00 0.  1.
         -2   -1    0    0    0  501 -0.00000000000E+00 -0.00000000000E+00 -0.24515286435E+02  0.24515286435E+02  0.00000000000E+00 0. -1.
         21    1    1    2  502  501  0.18738300093E+02 -0.17319488532E+02 -0.34698820002E+01  0.25751284521E+02  0.00000000000E+00 0.  1.
         21    1    1    2  503  502 -0.18738300093E+02  0.17319488532E+02  0.65291202825E+01  0.26338526631E+02  0.00000000000E+00 0. -1.
</event>
<event>
 4    1  0.5740469E+002  0.2591297E+02  0.7546771E-02  0.1458844E+00
          2   -1    0    0  502    0  0.00000000000E+00  0.00000000000E+00  0.11357294527E+04  0.11357294527E+04  0.00000000000E+00 0. -1.
         -2   -1    0    0    0  501 -0.00000000000E+00 -0.00000000000E+00 -0.72334921083E+00  0.72334921083E+00  0.00000000000E+00 0.  1.
         21    1    1    2  502  503 -0.25866159615E+02 -0.15568957916E+01  0.32466126385E+03  0.32569374937E+03  0.00000000000E+00 0.  1.
         21    1    1    2  503  501  0.25866159615E+02  0.15568957916E+01  0.81034483961E+03  0.81075905251E+03  0.00000000000E+00 0. -1.
</event>
<event>
 4    1  0.5740469E+002  0.2030768E+02  0.7546771E-02  0.1529383E+00
          2   -1    0    0  503    0  0.00000000000E+00  0.00000000000E+00  0.20167432030E+02  0.20167432030E+02  0.00000000000E+00 0.  1.
         -2   -1    0    0    0  501 -0.00000000000E+00 -0.00000000000E+00 -0.21526440084E+02  0.21526440084E+02  0.00000000000E+00 0. -1.
         21    1    1    2  502  501 -0.19911917934E+02  0.39896810219E+01 -0.53436329848E+01  0.20998962926E+02  0.00000000000E+00 0.  1.
         21    1    1    2  503  502  0.19911917934E+02 -0.39896810219E+01  0.39846249310E+01  0.20694909189E+02  0.00000000000E+00 0. -1.
</event>
<event>
 4    1  0.5740469E+002  0.2593227E+02  0.7546771E-02  0.1458639E+00
          2   -1    0    0  503    0  0.00000000000E+00  0.00000000000E+00  0.11725879096E+02  0.11725879096E+02  0.00000000000E+00 0. -1.
         -2   -1    0    0    0  501 -0.00000000000E+00 -0.00000000000E+00 -0.58189145549E+02  0.58189145549E+02  0.00000000000E+00 0.  1.
         21    1    1    2  502  501 -0.22068572425E+02  0.13618389594E+02 -0.27428897061E+02  0.37746878255E+02  0.00000000000E+00 0.  1.
         21    1    1    2  503  502  0.22068572425E+02 -0.13618389594E+02 -0.19034369391E+02  0.32168146390E+02  0.00000000000E+00 0. -1.
</event>
<event>
 4    1  0.5740469E+002  0.2125738E+02  0.7546771E-02  0.1515622E+00
          2   -1    0    0  502    0  0.00000000000E+00  0.00000000000E+00  0.34625769914E+02  0.34625769914E+02  0.00000000000E+00 0.  1.
         -2   -1    0    0    0  501 -0.00000000000E+00 -0.00000000000E+00 -0.29105172544E+02  0.29105172544E+02  0.00000000000E+00 0. -1.
         21    1    1    2  502  503  0.13885239739E+02  0.16095843908E+02  0.26427065186E+02  0.33915569405E+02  0.00000000000E+00 0.  1.
         21    1    1    2  503  501 -0.13885239739E+02 -0.16095843908E+02 -0.20906467816E+02  0.29815373053E+02  0.00000000000E+00 0. -1.
</event>
<event>
 4    1  0.5740469E+002  0.2117121E+02  0.7546771E-02  0.1516834E+00
          2   -1    0    0  503    0  0.00000000000E+00  0.00000000000E+00  0.37804596281E+03  0.37804596281E+03  0.00000000000E+00 0.  1.
         -2   -1    0    0    0  501 -0.00000000000E+00 -0.00000000000E+00 -0.13497467198E+01  0.13497467198E+01  0.00000000000E+00 0. -1.
         21    1    1    2  502  501 -0.13108861750E+02  0.16624620787E+02  0.12219946179E+03  0.12401987233E+03  0.00000000000E+00 0. -1.
         21    1    1    2  503  502  0.13108861750E+02 -0.16624620787E+02  0.25449675431E+03  0.25537583720E+03  0.00000000000E+00 0.  1.
</event>
<event>
 4    1  0.5740469E+002  0.2384363E+02  0.7546771E-02  0.1482168E+00
          2   -1    0    0  503    0  0.00000000000E+00  0.00000000000E+00  0.73380113975E+03  0.73380113975E+03  0.00000000000E+00 0. -1.
         -2   -1    0    0    0  501 -0.00000000000E+00 -0.00000000000E+00 -0.83362566972E+00  0.83362566972E+00  0.00000000000E+00 0.  1.
         21    1    1    2  502  501  0.65852372282E+01 -0.22916226152E+02  0.26887427317E+03  0.26992942326E+03  0.00000000000E+00 0. -1.
         21    1    1    2  503  502 -0.65852372282E+01  0.22916226152E+02  0.46409324091E+03  0.46470534215E+03  0.00000000000E+00 0.  1.
</event>
<event>
 4    1  0.5740469E+002  0.2103392E+02  0.7546771E-02  0.1518781E+00
          2   -1    0    0  503    0  0.00000000000E+00  0.00000000000E+00  0.90072868412E+02  0.90072868412E+02  0.00000000000E+00 0.  1.
         -2   -1    0    0    0  501 -0.00000000000E+00 -0.00000000000E+00 -0.17324473272E+02  0.17324473272E+02  0.00000000000E+00 0. -1.
         21    1    1    2  502  501  0.20148198854E+02  0.60395214185E+01 -0.90790635534E+01  0.22909716957E+02  0.00000000000E+00 0. -1.
         21    1    1    2  503  502 -0.20148198854E+02 -0.60395214185E+01  0.81827458693E+02  0.84487624728E+02  0.00000000000E+00 0.  1.
</event>
<event>
 4    1  0.5740469E+002  0.2924920E+02  0.7546771E-02  0.1426235E+00
          2   -1    0    0  502    0  0.00000000000E+00  0.00000000000E+00  0.38892182705E+03  0.38892182705E+03  0.00000000000E+00 0. -1.
         -2   -1    0    0    0  501 -0.00000000000E+00 -0.00000000000E+00 -0.25486083225E+01  0.25486083225E+01  0.00000000000E+00 0.  1.
         21    1    1    2  502  503 -0.19049152554E+02 -0.22195622023E+02  0.12076538268E+03  0.12425696561E+03  0.00000000000E+00 0. -1.
         21    1    1    2  503  501  0.19049152554E+02  0.22195622023E+02  0.26560783605E+03  0.26721346976E+03  0.00000000000E+00 0.  1.
</event>
<event>
 4    1  0.5740469E+002  0.2284076E+02  0.7546771E-02  0.1494508E+00
          2   -1    0    0  503    0  0.00000000000E+00  0.00000000000E+00  0.17186655762E+04  0.17186655762E+04  0.00000000000E+00 0. -1.
         -2   -1    0    0    0  501 -0.00000000000E+00 -0.00000000000E+00 -0.30831146094E+00  0.30831146094E+00  0.00000000000E+00 0.  1.
         21    1    1    2  502  501  0.45454395306E+01 -0.22383902743E+02  0.96599458984E+03  0.96626458474E+03  0.00000000000E+00 0.  1.
         21    1    1    2  503  502 -0.45454395306E+01  0.22383902743E+02  0.75236267493E+03  0.75270930295E+03  0.00000000000E+00 0. -1.
</event>
<event>
 4    1  0.5740469E+002  0.2944205E+02  0.7546771E-02  0.1424508E+00
          2   -1    0    0  503    0  0.00000000000E+00  0.00000000000E+00  0.41142731796E+01  0.41142731796E+01  0.00000000000E+00 0.  1.
         -2   -1    0    0    0  501 -0.00000000000E+00 -0.00000000000E+00 -0.36288472857E+03  0.36288472857E+03  0.00000000000E+00 0. -1.
         21    1    1    2  502  501  0.89009144809E+01  0.28064354868E+02 -0.60548409966E+02  0.67327143428E+02  0.00000000000E+00 0.  1.
         21    1    1    2  503  502 -0.89009144809E+01 -0.28064354868E+02 -0.29822204543E+03  0.29967185833E+03  0.00000000000E+00 0. -1.
</event>
<event>
 4    1  0.5740469E+002  0.2161039E+02  0.7546771E-02  0.1510726E+00
          2   -1    0    0  502    0  0.00000000000E+00  0.00000000000E+00  0.23409035209E+03  0.23409035209E+03  0.00000000000E+00 0.  1.
         -2   -1    0    0    0  501 -0.00000000000E+00 -0.00000000000E+00 -0.28278356483E+01  0.28278356483E+01  0.00000000000E+00 0. -1.
         21    1    1    2  502  503 -0.63419601155E+01  0.20658858796E+02  0.17991815730E+03  0.18121134686E+03  0.00000000000E+00 0.  1.
         21    1    1    2  503  501  0.63419601155E+01 -0.20658858796E+02  0.51344359139E+02  0.55706840875E+02  0.00000000000E+00 0. -1.
</event>
<event>
 4    1  0.5740469E+002  0.3868433E+02  0.7546771E-02  0.1356373E+00
          2   -1    0    0  502    0  0.00000000000E+00  0.00000000000E+00  0.23565671833E+02  0.23565671833E+02  0.00000000000E+00 0.  1.
         -2   -1    0    0    0  501 -0.00000000000E+00 -0.00000000000E+00 -0.36671057714E+03  0.36671057714E+03  0.00000000000E+00 0. -1.
         21    1    1    2  502  503 -0.36854713950E+02  0.11756158965E+02  0.58672691775E+01  0.39126743560E+02  0.00000000000E+00 0.  1.
         21    1    1    2  503  501  0.36854713950E+02 -0.11756158965E+02 -0.34901217449E+03  0.35114950542E+03  0.00000000000E+00 0. -1.
</event>
<event>
 4    1  0.5740469E+002  0.2022470E+02  0.7546771E-02  0.1530628E+00
          2   -1    0    0  503    0  0.00000000000E+00  0.00000000000E+00  0.31213294128E+03  0.31213294128E+03  0.00000000000E+00 0. -1.
         -2   -1    0    0    0  501 -0.00000000000E+00 -0.00000000000E+00 -0.13114992770E+01  0.13114992770E+01  0.00000000000E+00 0.  1.
         21    1    1    2  502  501  0.88034415976E+01  0.18208182318E+02  0.15100408149E+03  0.15235245686E+03  0.00000000000E+00 0. -1.
         21    1    1    2  503  502 -0.88034415976E+01 -0.18208182318E+02  0.15981736052E+03  0.16109198369E+03  0.00000000000E+00 0.  1.
</event>
<event>
 4    1  0.5740469E+002  0.2257011E+02  0.7546771E-02  0.1497968E+00
          2   -1    0    0  503    0  0.00000000000E+00  0.00000000000E+00  0.77690725893E+01  0.77690725893E+01  0.00000000000E+00 0.  1.
         -2   -1    0    0    0  501 -0.00000000000E+00 -0.00000000000E+00 -0.29424819346E+03  0.29424819346E+03  0.00000000000E+00 0. -1.
         21    1    1    2  502  501 -0.61161903471E+01 -0.21725605279E+02 -0.27636414769E+03  0.27728424376E+03  0.00000000000E+00 0. -1.
         21    1    1    2  503  502  0.61161903471E+01  0.21725605279E+02 -0.10114973181E+02  0.24733022289E+02  0.00000000000E+00 0.  1.
</event>
<event>
 4    1  0.5740469E+002  0.2124804E+02  0.7546771E-02  0.1515753E+00
          2   -1    0    0  503    0  0.00000000000E+00  0.00000000000E+00  0.50036426863E+01  0.50036426863E+01  0.00000000000E+00 0.  1.
         -2   -1    0    0    0  501 -0.00000000000E+00 -0.00000000000E+00 -0.13849248495E+03  0.13849248495E+03  0.00000000000E+00 0. -1.
         21    1    1    2  502  501  0.19625025555E+02  0.81447892717E+01 -0.10909910409E+03  0.11114897091E+03  0.00000000000E+00 0. -1.
         21    1    1    2  503  502 -0.19625025555E+02 -0.81447892717E+01 -0.24389738171E+02  0.32347156727E+02  0.00000000000E+00 0.  1.
</event>
<event>
 4    1  0.5740469E+002  0.2318700E+02  0.7546771E-02  0.1490163E+00
          2   -1    0    0  503    0  0.00000000000E+00  0.00000000000E+00  0.12100294026E+04  0.12100294026E+04  0.00000000000E+00 0. -1.
         -2   -1    0    0    0  501 -0.00000000000E+00 -0.00000000000E+00 -0.11893704780E+01  0.11893704780E+01  0.00000000000E+00 0.  1.
         21    1    1    2  502  501 -0.16391681113E+02 -0.16399685603E+02  0.12509766558E+03  0.12722838847E+03  0.00000000000E+00 0.  1.
         21    1    1    2  503  502  0.16391681113E+02  0.16399685603E+02  0.10837423666E+04  0.10839903846E+04  0.00000000000E+00 0. -1.
</event>
<event>
 4    1  0.5740469E+002  0.2228798E+02  0.7546771E-02  0.1501638E+00
          2   -1    0    0  502    0  0.00000000000E+00  0.00000000000E+00  0.18822831757E+04  0.18822831757E+04  0.00000000000E+00 0.  1.
         -2   -1    0    0    0  501 -0.00000000000E+00 -0.00000000000E+00 -0.55360623854E+00  0.55360623854E+00  0.00000000000E+00 0. -1.
         21    1    1    2  502  503  0.12953054147E+02 -0.18137592039E+02  0.16218746730E+04  0.16220278076E+04  0.00000000000E+00 0.  1.
         21    1    1    2  503  501 -0.12953054147E+02  0.18137592039E+02  0.25985489646E+03  0.26080897429E+03  0.00000000000E+00 0. -1.
</event>
<event>
 4    1  0.5740469E+002  0.2471205E+02  0.7546771E-02  0.1472050E+00
          2   -1    0    0  503    0  0.00000000000E+00  0.00000000000E+00  0.16701761590E+02  0.16701761590E+02  0.00000000000E+00 0.  1.
         -2   -1    0    0    0  501 -0.00000000000E+00 -0.00000000000E+00 -0.65940348054E+03  0.65940348054E+03  0.00000000000E+00 0. -1.
         21    1    1    2  502  501 -0.13656979331E+02 -0.20595450040E+02 -0.64989725434E+03  0.65036691709E+03  0.00000000000E+00 0. -1.
         21    1    1    2  503  502  0.13656979331E+02  0.20595450040E+02  0.71955353825E+01  0.25738325048E+02  0.00000000000E+00 0.  1.
</event>
<event>
 4    1  0.5740469E+002  0.2263019E+02  0.7546771E-02  0.1497195E+00
          2   -1    0    0  502    0  0.00000000000E+00  0.00000000000E+00  0.14827695511E+04  0.14827695511E+04  0.00000000000E+00 0. -1.
         -2   -1    0    0    0  501 -0.00000000000E+00 -0.00000000000E+00 -0.56951947595E+01  0.56951947595E+01  0.00000000000E+00 0.  1.
         21    1    1    2  502  503  0.20685359376E+02 -0.91783198884E+01  0.14598496741E+04  0.14600250671E+04  0.00000000000E+00 0. -1.
         21    1    1    2  503  501 -0.20685359376E+02  0.91783198884E+01  0.17224682239E+02  0.28439678738E+02  0.00000000000E+00 0.  1.
</event>
<event>
 4    1  0.5740469E+002  0.3604125E+02  0.7546771E-02  0.1373387E+00
          2   -1    0    0  502    0  0.00000000000E+00  0.00000000000E+00  0.32222221610E+03  0.32222221610E+03  0.00000000000E+00 0. -1.
         -2   -1    0    0    0  501 -0.00000000000E+00 -0.00000000000E+00 -0.40819498361E+01  0.40819498361E+01  0.00000000000E+00 0.  1.
         21    1    1    2  502  503  0.36010091639E+02 -0.14983604407E+01  0.17724548727E+03  0.18087270259E+03  0.00000000000E+00 0.  1.
         21    1    1    2  503  501 -0.36010091639E+02  0.14983604407E+01  0.14089477899E+03  0.14543146335E+03  0.00000000000E+00 0. -1.
</event>
<event>
 4    1  0.5740469E+002  0.2630680E+02  0.7546771E-02  0.1454698E+00
          2   -1    0    0  503    0  0.00000000000E+00  0.00000000000E+00  0.32303339239E+01  0.32303339239E+01  0.00000000000E+00 0.  1.
         -2   -1    0    0    0  501 -0.00000000000E+00 -0.00000000000E+00 -0.22822052981E+03  0.22822052981E+03  0.00000000000E+00 0. -1.
         21    1    1    2  502  501 -0.22357561408E+02  0.13863165716E+02 -0.14114372155E+03  0.14357436418E+03  0.00000000000E+00 0. -1.
         21    1    1    2  503  502  0.22357561408E+02 -0.13863165716E+02 -0.83846474333E+02  0.87876499554E+02  0.00000000000E+00 0.  1.
</event>
<event>
 4    1  0.5740469E+002  0.2163415E+02  0.7546771E-02  0.1510400E+00
          2   -1    0    0  503    0  0.00000000000E+00  0.00000000000E+00  0.15234605420E+01  0.15234605420E+01  0.00000000000E+00 0. -1.
         -2   -1    0    0    0  501 -0.00000000000E+00 -0.00000000000E+00 -0.46915349989E+03  0.46915349989E+03  0.00000000000E+00 0.  1.
         21    1    1    2  502  501  0.76296335862E+01  0.20244134453E+02 -0.37207768477E+03  0.37270610377E+03  0.00000000000E+00 0.  1.
         21    1    1    2  503  502 -0.76296335862E+01 -0.20244134453E+02 -0.95552354580E+02  0.97970856657E+02  0.00000000000E+00 0. -1.
</event>
<event>
 4    1  0.5740469E+002  0.4074785E+02  0.7546771E-02  0.1344158E+00
          2   -1    0    0  503    0  0.00000000000E+00  0.00000000000E+00  0.64048731820E+03  0.64048731820E+03  0.00000000000E+00 0.  1.
         -2   -1    0    0    0  501 -0.00000000000E+00 -0.00000000000E+00 -0.53777019236E+01  0.53777019236E+01  0.00000000000E+00 0. -1.
         21    1    1    2  502  501  0.19207044920E+02  0.35937117090E+02  0.85146820838E+02  0.94394745924E+02  0.00000000000E+00 0. -1.
         21    1    1    2  503  502 -0.19207044920E+02 -0.35937117090E+02  0.54996279544E+03  0.55147027420E+03  0.00000000000E+00 0.  1.
</event>
<event>
 4    1  0.5740469E+002  0.2140524E+02  0.7546771E-02  0.1513557E+00
          2   -1    0    0  502    0  0.00000000000E+00  0.00000000000E+00  0.19645725685E+03  0.19645725685E+03  0.00000000000E+00 0. -1.
         -2   -1    0    0    0  501 -0.00000000000E+00 -0.00000000000E+00 -0.25712154288E+02  0.25712154288E+02  0.00000000000E+00 0.  1.
         21    1    1    2  502  503  0.20821776864E+02 -0.49636423539E+01  0.19129952284E+03  0.19249335463E+03  0.00000000000E+00 0. -1.
         21    1    1    2  503  501 -0.20821776864E+02  0.49636423539E+01 -0.20554420276E+02  0.29676056511E+02  0.00000000000E+00 0.  1.
</event>
<event>
 4    1  0.5740469E+002  0.2451072E+02  0.7546771E-02  0.1474352E+00
          2   -1    0    0  503    0  0.00000000000E+00  0.00000000000E+00  0.14829735856E+04  0.14829735856E+04  0.00000000000E+00 0. -1.
         -2   -1    0    0    0  501 -0.00000000000E+00 -0.00000000000E+00 -0.10209430833E+01  0.10209430833E+01  0.00000000000E+00 0.  1.
         21    1    1    2  502  501  0.21724579547E+02 -0.11349801959E+02  0.16469948858E+03  0.16651335351E+03  0.00000000000E+00 0.  1.
         21    1    1    2  503  502 -0.21724579547E+02  0.11349801959E+02  0.13172531539E+04  0.13174811751E+04  0.00000000000E+00 0. -1.
</event>
<event>
 4    1  0.5740469E+002  0.4885023E+02  0.7546771E-02  0.1303236E+00
          2   -1    0    0  503    0  0.00000000000E+00  0.00000000000E+00  0.41500028431E+03  0.41500028431E+03  0.00000000000E+00 0. -1.
         -2   -1    0    0    0  501 -0.00000000000E+00 -0.00000000000E+00 -0.16078634349E+02  0.16078634349E+02  0.00000000000E+00 0.  1.
         21    1    1    2  502  501 -0.47880025205E+02  0.96875134073E+01  0.26710471399E+02  0.55675793771E+02  0.00000000000E+00 0.  1.
         21    1    1    2  503  502  0.47880025205E+02 -0.96875134073E+01  0.37221117856E+03  0.37540312488E+03  0.00000000000E+00 0. -1.
</event>
<event>
 4    1  0.5740469E+002  0.3306479E+02  0.7546771E-02  0.1394704E+00
          2   -1    0    0  503    0  0.00000000000E+00  0.00000000000E+00  0.13649792313E+04  0.13649792313E+04  0.00000000000E+00 0. -1.
         -2   -1    0    0    0  501 -0.00000000000E+00 -0.00000000000E+00 -0.22491454151E+01  0.22491454151E+01  0.00000000000E+00 0.  1.
         21    1    1    2  502  501  0.17728484842E+02  0.27910233426E+02  0.13281549224E+03  0.13686940959E+03  0.00000000000E+00 0.  1.
         21    1    1    2  503  502 -0.17728484842E+02 -0.27910233426E+02  0.12299145936E+04  0.12303589671E+04  0.00000000000E+00 0. -1.
</event>
<event>
 4    1  0.5740469E+002  0.3479290E+02  0.7546771E-02  0.1382025E+00
          2   -1    0    0  503    0  0.00000000000E+00  0.00000000000E+00  0.32925618902E+03  0.32925618902E+03  0.00000000000E+00 0. -1.
         -2   -1    0    0    0  501 -0.00000000000E+00 -0.00000000000E+00 -0.78969382473E+02  0.78969382473E+02  0.00000000000E+00 0.  1.
         21    1    1    2  502  501 -0.19491940758E+02  0.28820308066E+02 -0.74161273491E+02  0.81917277771E+02  0.00000000000E+00 0.  1.
         21    1    1    2  503  502  0.19491940758E+02 -0.28820308066E+02  0.32444808004E+03  0.32630829372E+03  0.00000000000E+00 0. -1.
</event>
<event>
 4    1  0.5740469E+002  0.2162493E+02  0.7546771E-02  0.1510526E+00
          2   -1    0    0  502    0  0.00000000000E+00  0.00000000000E+00  0.15872455476E+04  0.15872455476E+04  0.00000000000E+00 0. -1.
         -2   -1    0    0    0  501 -0.00000000000E+00 -0.00000000000E+00 -0.40209239955E+01  0.40209239955E+01  0.00000000000E+00 0.  1.
         21    1    1    2  502  503  0.17145336277E+02 -0.13178582957E+02  0.15575421765E+04  0.15576922896E+04  0.00000000000E+00 0. -1.
         21    1    1    2  503  501 -0.17145336277E+02  0.13178582957E+02  0.25682447079E+02  0.33574181938E+02  0.00000000000E+00 0.  1.
</event>
<event>
 4    1  0.5740469E+002  0.3926137E+02  0.7546771E-02  0.1352869E+00
          2   -1    0    0  502    0  0.00000000000E+00  0.00000000000E+00  0.60429287015E+02  0.60429287015E+02  0.00000000000E+00 0.  1.
         -2   -1    0    0    0  501 -0.00000000000E+00 -0.00000000000E+00 -0.33337976477E+02  0.33337976477E+02  0.00000000000E+00 0. -1.
         21    1    1    2  502  503 -0.24870527911E+02  0.30379460849E+02  0.36266296877E+02  0.53448097152E+02  0.00000000000E+00 0.  1.
         21    1    1    2  503  501  0.24870527911E+02 -0.30379460849E+02 -0.91749863387E+01  0.40319166340E+02  0.00000000000E+00 0. -1.
</event>
<event>
 4    1  0.5740469E+002  0.6270127E+02  0.7546771E-02  0.1250921E+00
          2   -1    0    0  503    0  0.00000000000E+00  0.00000000000E+00  0.33427063459E+02  0.33427063459E+02  0.00000000000E+00 0.  1.
         -2   -1    0    0    0  501 -0.00000000000E+00 -0.00000000000E+00 -0.24123664885E+03  0.24123664885E+03  0.00000000000E+00 0. -1.
         21    1    1    2  502  501 -0.42437420162E+02 -0.46157498181E+02 -0.20221550507E+03  0.21171339060E+03  0.00000000000E+00 0. -1.
         21    1    1    2  503  502  0.42437420162E+02  0.46157498181E+02 -0.55940803184E+01  0.62950321707E+02  0.00000000000E+00 0.  1.
</event>
<event>
 4    1  0.5740469E+002  0.3958588E+02  0.7546771E-02  0.1350930E+00
          2   -1    0    0  503    0  0.00000000000E+00  0.00000000000E+00  0.76369057340E+03  0.76369057340E+03  0.00000000000E+00 0. -1.
         -2   -1    0    0    0  501 -0.00000000000E+00 -0.00000000000E+00 -0.33234448260E+01  0.33234448260E+01  0.00000000000E+00 0.  1.
         21    1    1    2  502  501  0.38943627263E+02 -0.71018147242E+01  0.14297013401E+03  0.14834925378E+03  0.00000000000E+00 0. -1.
         21    1    1    2  503  502 -0.38943627263E+02  0.71018147242E+01  0.61739699456E+03  0.61866476445E+03  0.00000000000E+00 0.  1.
</event>
<event>
 4    1  0.5740469E+002  0.2781278E+02  0.7546771E-02  0.1439610E+00
          2   -1    0    0  503    0  0.00000000000E+00  0.00000000000E+00  0.17753799694E+04  0.17753799694E+04  0.00000000000E+00 0. -1.
         -2   -1    0    0    0  501 -0.00000000000E+00 -0.00000000000E+00 -0.19885567953E+01  0.19885567953E+01  0.00000000000E+00 0.  1.
         21    1    1    2  502  501  0.27084266989E+02  0.63240359230E+01  0.10138271159E+03  0.10512851734E+03  0.00000000000E+00 0.  1.
         21    1    1    2  503  502 -0.27084266989E+02 -0.63240359230E+01  0.16720087010E+04  0.16722400088E+04  0.00000000000E+00 0. -1.
</event>
<event>
 4    1  0.5740469E+002  0.2268520E+02  0.7546771E-02  0.1496489E+00
          2   -1    0    0  503    0  0.00000000000E+00  0.00000000000E+00  0.22169670811E+04  0.22169670811E+04  0.00000000000E+00 0. -1.
         -2   -1    0    0    0  501 -0.00000000000E+00 -0.00000000000E+00 -0.27336308091E+00  0.27336308091E+00  0.00000000000E+00 0.  1.
         21    1    1    2  502  501  0.16148632481E+02 -0.15932360600E+02  0.15389233401E+04  0.15390905319E+04  0.00000000000E+00 0. -1.
         21    1    1    2  503  502 -0.16148632481E+02  0.15932360600E+02  0.67777037791E+03  0.67814991235E+03  0.00000000000E+00 0.  1.
</event>
<event>
 4    1  0.5740469E+002  0.2004644E+02  0.7546771E-02  0.1533327E+00
          2   -1    0    0  502    0  0.00000000000E+00  0.00000000000E+00  0.59340389430E+03  0.59340389430E+03  0.00000000000E+00 0.  1.
         -2   -1    0    0    0  501 -0.00000000000E+00 -0.00000000000E+00 -0.16379711524E+01  0.16379711524E+01  0.00000000000E+00 0. -1.
         21    1    1    2  502  503 -0.17943357952E+02  0.89384276232E+01  0.52374496796E+03  0.52412846808E+03  0.00000000000E+00 0.  1.
         21    1    1    2  503  501  0.17943357952E+02 -0.89384276232E+01  0.68020955182E+02  0.70913397372E+02  0.00000000000E+00 0. -1.
</event>
<event>
 4    1  0.5740469E+002  0.2001916E+02  0.7546771E-02  0.1533743E+00
          2   -1    0    0  502    0  0.00000000000E+00  0.00000000000E+00  0.60282100464E+01  0.60282100464E+01  0.00000000000E+00 0.  1.
         -2   -1    0    0    0  501 -0.00000000000E+00 -0.00000000000E+00 -0.94226474524E+02  0.94226474524E+02  0.00000000000E+00 0. -1.
         21    1    1    2  502  503  0.19536120562E+02 -0.43711303358E+01 -0.16898604256E+02  0.26197893290E+02  0.00000000000E+00 0.  1.
         21    1    1    2  503  501 -0.19536120562E+02  0.43711303358E+01 -0.71299660222E+02  0.74056791281E+02  0.00000000000E+00 0. -1.
</event>
<event>
 4    1  0.5740469E+002  0.3772716E+02  0.7546771E-02  0.1362345E+00
          2   -1    0    0  503    0  0.00000000000E+00  0.00000000000E+00  0.78803188969E+03  0.78803188969E+03  0.00000000000E+00 0. -1.
         -2   -1    0    0    0  501 -0.00000000000E+00 -0.00000000000E+00 -0.72666743531E+01  0.72666743531E+01  0.00000000000E+00 0.  1.
         21    1    1    2  502  501 -0.20122871471E+01  0.37673455303E+02  0.45677455443E+02  0.59243298945E+02  0.00000000000E+00 0.  1.
         21    1    1    2  503  502  0.20122871471E+01 -0.37673455303E+02  0.73508775990E+03  0.73605526510E+03  0.00000000000E+00 0. -1.
</event>
<event>
 4    1  0.5740469E+002  0.2403588E+02  0.7546771E-02  0.1479885E+00
          2   -1    0    0  502    0  0.00000000000E+00  0.00000000000E+00  0.76648578588E+02  0.76648578588E+02  0.00000000000E+00 0. -1.
         -2   -1    0    0    0  501 -0.00000000000E+00 -0.00000000000E+00 -0.11534183062E+02  0.11534183062E+02  0.00000000000E+00 0.  1.
         21    1    1    2  502  503 -0.14886312496E+02 -0.18871176269E+02  0.58512184741E+02  0.63256615122E+02  0.00000000000E+00 0. -1.
         21    1    1    2  503  501  0.14886312496E+02  0.18871176269E+02  0.66022107850E+01  0.24926146528E+02  0.00000000000E+00 0.  1.
</event>
<event>
 4    1  0.5740469E+002  0.2318466E+02  0.7546771E-02  0.1490192E+00
          2   -1    0    0  503    0  0.00000000000E+00  0.00000000000E+00  0.13040994832E+02  0.13040994832E+02  0.00000000000E+00 0.  1.
         -2   -1    0    0    0  501 -0.00000000000E+00 -0.00000000000E+00 -0.11062477619E+03  0.11062477619E+03  0.00000000000E+00 0. -1.
         21    1    1    2  502  501  0.19375085524E+02  0.12733211605E+02 -0.97768991551E+02  0.10048036786E+03  0.00000000000E+00 0. -1.
         21    1    1    2  503  502 -0.19375085524E+02 -0.12733211605E+02  0.18521019311E+00  0.23185403159E+02  0.00000000000E+00 0.  1.
</event>
<event>
 4    1  0.5740469E+002  0.3043425E+02  0.7546771E-02  0.1415860E+00
          2   -1    0    0  503    0  0.00000000000E+00  0.00000000000E+00  0.56572837897E+02  0.56572837897E+02  0.00000000000E+00 0.  1.
         -2   -1    0    0    0  501 -0.00000000000E+00 -0.00000000000E+00 -0.50221140221E+02  0.50221140221E+02  0.00000000000E+00 0. -1.
         21    1    1    2  502  501  0.22577717404E+02 -0.20408094135E+02 -0.40661426064E+02  0.50789715484E+02  0.00000000000E+00 0. -1.
         21    1    1    2  503  502 -0.22577717404E+02  0.20408094135E+02  0.47013123741E+02  0.56004262634E+02  0.00000000000E+00 0.  1.
</event>
<event>
 4    1  0.5740469E+002  0.2969279E+02  0.7546771E-02  0.1422285E+00
          2   -1    0    0  503    0  0.00000000000E+00  0.00000000000E+00  0.11609139324E+03  0.11609139324E+03  0.00000000000E+00 0.  1.
         -2   -1    0    0    0  501 -0.00000000000E+00 -0.00000000000E+00 -0.19966240291E+02  0.19966240291E+02  0.00000000000E+00 0. -1.
         21    1    1    2  502  501  0.20717237311E+02 -0.21271052603E+02 -0.54874061325E+01  0.30195582900E+02  0.00000000000E+00 0. -1.
         21    1    1    2  503  502 -0.20717237311E+02  0.21271052603E+02  0.10161255908E+03  0.10586205063E+03  0.00000000000E+00 0.  1.
</event>
<event>
 4    1  0.5740469E+002  0.3716831E+02  0.7546771E-02  0.1365929E+00
          2   -1    0    0  502    0  0.00000000000E+00  0.00000000000E+00  0.17907988703E+04  0.17907988703E+04  0.00000000000E+00 0. -1.
         -2   -1    0    0    0  501 -0.00000000000E+00 -0.00000000000E+00 -0.63073908970E+01  0.63073908970E+01  0.00000000000E+00 0.  1.
         21    1    1    2  502  503 -0.81285067641E+01  0.36268590591E+02  0.17340579772E+04  0.17344562698E+04  0.00000000000E+00 0. -1.
         21    1    1    2  503  501  0.81285067641E+01 -0.36268590591E+02  0.50433502132E+02  0.62649991405E+02  0.00000000000E+00 0.  1.
</event>
<event>
 4    1  0.5740469E+002  0.4636054E+02  0.7546771E-02  0.1314773E+00
          2   -1    0    0  503    0  0.00000000000E+00  0.00000000000E+00  0.20174786976E+04  0.20174786976E+04  0.00000000000E+00 0.  1.
         -2   -1    0    0    0  501 -0.00000000000E+00 -0.00000000000E+00 -0.11410767345E+01  0.11410767345E+01  0.00000000000E+00 0. -1.
         21    1    1    2  502  501  0.44944144894E+02  0.11372029289E+02  0.74813933104E+03  0.74957438447E+03  0.00000000000E+00 0. -1.
         21    1    1    2  503  502 -0.44944144894E+02 -0.11372029289E+02  0.12681982898E+04  0.12690453899E+04  0.00000000000E+00 0.  1.
</event>
<event>
 4    1  0.5740469E+002  0.2469652E+02  0.7546771E-02  0.1472227E+00
          2   -1    0    0  503    0  0.00000000000E+00  0.00000000000E+00  0.94209234972E+03  0.94209234972E+03  0.00000000000E+00 0. -1.
         -2   -1    0    0    0  501 -0.00000000000E+00 -0.00000000000E+00 -0.90702568647E+00  0.90702568647E+00  0.00000000000E+00 0.  1.
         21    1    1    2  502  501 -0.19811448495E+02  0.14745325376E+02  0.21833825361E+03  0.21973054203E+03  0.00000000000E+00 0.  1.
         21    1    1    2  503  502  0.19811448495E+02 -0.14745325376E+02  0.72284707043E+03  0.72326883338E+03  0.00000000000E+00 0. -1.
</event>
<event>
 4    1  0.5740469E+002  0.2050046E+02  0.7546771E-02  0.1526518E+00
          2   -1    0    0  503    0  0.00000000000E+00  0.00000000000E+00  0.78700186338E+02  0.78700186338E+02  0.00000000000E+00 0. -1.
         -2   -1    0    0    0  501 -0.00000000000E+00 -0.00000000000E+00 -0.15912357322E+02  0.15912357322E+02  0.00000000000E+00 0.  1.
         21    1    1    2  502  501  0.74179467224E+01  0.19111324543E+02 -0.71658928863E+01  0.21716783376E+02  0.00000000000E+00 0.  1.
         21    1    1    2  503  502 -0.74179467224E+01 -0.19111324543E+02  0.69953721902E+02  0.72895760284E+02  0.00000000000E+00 0. -1.
</event>
<event>
 4    1  0.5740469E+002  0.2670699E+02  0.7546771E-02  0.1450574E+00
          2   -1    0    0  503    0  0.00000000000E+00  0.00000000000E+00  0.18717478971E+03  0.18717478971E+03  0.00000000000E+00 0.  1.
         -2   -1    0    0    0  501 -0.00000000000E+00 -0.00000000000E+00 -0.43717465021E+01  0.43717465021E+01  0.00000000000E+00 0. -1.
         21    1    1    2  502  501  0.25718096562E+02 -0.72002115538E+01  0.12571172968E+03  0.12851732379E+03  0.00000000000E+00 0.  1.
         21    1    1    2  503  502 -0.25718096562E+02  0.72002115538E+01  0.57091313535E+02  0.63029212421E+02  0.00000000000E+00 0. -1.
</event>
<event>
 4    1  0.5740469E+002  0.3107913E+02  0.7546771E-02  0.1410445E+00
          2   -1    0    0  502    0  0.00000000000E+00  0.00000000000E+00  0.76974398678E+03  0.76974398678E+03  0.00000000000E+00 0. -1.
         -2   -1    0    0    0  501 -0.00000000000E+00 -0.00000000000E+00 -0.14721642868E+01  0.14721642868E+01  0.00000000000E+00 0.  1.
         21    1    1    2  502  503  0.30443292665E+02  0.62544569078E+01  0.23598192395E+03  0.23801970661E+03  0.00000000000E+00 0.  1.
         21    1    1    2  503  501 -0.30443292665E+02 -0.62544569078E+01  0.53228989854E+03  0.53319644446E+03  0.00000000000E+00 0. -1.
</event>
<event>
 4    1  0.5740469E+002  0.2278830E+02  0.7546771E-02  0.1495174E+00
          2   -1    0    0  502    0  0.00000000000E+00  0.00000000000E+00  0.11683063005E+02  0.11683063005E+02  0.00000000000E+00 0.  1.
         -2   -1    0    0    0  501 -0.00000000000E+00 -0.00000000000E+00 -0.44745974622E+02  0.44745974622E+02  0.00000000000E+00 0. -1.
         21    1    1    2  502  503 -0.22381014401E+02  0.42891584693E+01 -0.18827952322E+02  0.29560082453E+02  0.00000000000E+00 0. -1.
         21    1    1    2  503  501  0.22381014401E+02 -0.42891584693E+01 -0.14234959294E+02  0.26868955174E+02  0.00000000000E+00 0.  1.
</event>
<event>
 4    1  0.5740469E+002  0.2355915E+02  0.7546771E-02  0.1485594E+00
          2   -1    0    0  503    0  0.00000000000E+00  0.00000000000E+00  0.96499411763E+03  0.96499411763E+03  0.00000000000E+00 0.  1.
         -2   -1    0    0    0  501 -0.00000000000E+00 -0.00000000000E+00 -0.58760912016E+00  0.58760912016E+00  0.00000000000E+00 0. -1.
         21    1    1    2  502  501 -0.23464088184E+02  0.21143069021E+01  0.55245298728E+03  0.55295509482E+03  0.00000000000E+00 0.  1.
         21    1    1    2  503  502  0.23464088184E+02 -0.21143069021E+01  0.41195352123E+03  0.41262663193E+03  0.00000000000E+00 0. -1.
</event>
<event>
 4    1  0.5740469E+002  0.2553923E+02  0.7546771E-02  0.1462860E+00
          2   -1    0    0  503    0  0.00000000000E+00  0.00000000000E+00  0.16692700408E+04  0.16692700408E+04  0.00000000000E+00 0.  1.
         -2   -1    0    0    0  501 -0.00000000000E+00 -0.00000000000E+00 -0.43365023556E+00  0.43365023556E+00  0.00000000000E+00 0. -1.
         21    1    1    2  502  501  0.16671151499E+02 -0.19347484956E+02  0.57180633524E+03  0.57237639495E+03  0.00000000000E+00 0. -1.
         21    1    1    2  503  502 -0.16671151499E+02  0.19347484956E+02  0.10970300553E+04  0.10973272961E+04  0.00000000000E+00 0.  1.
</event>
<event>
 4    1  0.5740469E+002  0.2012572E+02  0.7546771E-02  0.1532122E+00
          2   -1    0    0  502    0  0.00000000000E+00  0.00000000000E+00  0.73111963008E+01  0.73111963008E+01  0.00000000000E+00 0. -1.
         -2   -1    0    0    0  501 -0.00000000000E+00 -0.00000000000E+00 -0.12081752597E+03  0.12081752597E+03  0.00000000000E+00 0.  1.
         21    1    1    2  502  503  0.17013255451E+02  0.10751457055E+02 -0.96124044088E+01  0.22303430417E+02  0.00000000000E+00 0. -1.
         21    1    1    2  503  501 -0.17013255451E+02 -0.10751457055E+02 -0.10389392526E+03  0.10582529185E+03  0.00000000000E+00 0.  1.
</event>
<event>
 4    1  0.5740469E+002  0.2780557E+02  0.7546771E-02  0.1439680E+00
          2   -1    0    0  503    0  0.00000000000E+00  0.00000000000E+00  0.27637388135E+03  0.27637388135E+03  0.00000000000E+00 0.  1.
         -2   -1    0    0    0  501 -0.00000000000E+00 -0.00000000000E+00 -0.59079098579E+01  0.59079098579E+01  0.00000000000E+00 0. -1.
         21    1    1    2  502  501 -0.48903417225E+01  0.27372144024E+02  0.32822053297E+02  0.43016704817E+02  0.00000000000E+00 0. -1.
         21    1    1    2  503  502  0.48903417225E+01 -0.27372144024E+02  0.23764391819E+03  0.23926508639E+03  0.00000000000E+00 0.  1.
</event>
<event>
 4    1  0.5740469E+002  0.2019026E+02  0.7546771E-02  0.1531147E+00
          2   -1    0    0  503    0  0.00000000000E+00  0.00000000000E+00  0.14538935620E+02  0.14538935620E+02  0.00000000000E+00 0. -1.
         -2   -1    0    0    0  501 -0.00000000000E+00 -0.00000000000E+00 -0.28699401373E+02  0.28699401373E+02  0.00000000000E+00 0.  1.
         21    1    1    2  502  501  0.77252211194E+01  0.18653885108E+02 -0.10361559185E+02  0.22693796062E+02  0.00000000000E+00 0.  1.
         21    1    1    2  503  502 -0.77252211194E+01 -0.18653885108E+02 -0.37989065685E+01  0.20544540931E+02  0.00000000000E+00 0. -1.
</event>
<event>
 4    1  0.5740469E+002  0.3355379E+02  0.7546771E-02  0.1391026E+00
          2   -1    0    0  502    0  0.00000000000E+00  0.00000000000E+00  0.13570446560E+02  0.13570446560E+02  0.00000000000E+00 0. -1.
         -2   -1    0    0    0  501 -0.00000000000E+00 -0.00000000000E+00 -0.88935492362E+02  0.88935492362E+02  0.00000000000E+00 0.  1.
         21    1    1    2  502  503  0.19927902287E+02 -0.26995104664E+02 -0.24401635202E+02  0.41488513662E+02  0.00000000000E+00 0.  1.
         21    1    1    2  503  501 -0.19927902287E+02  0.26995104664E+02 -0.50963410600E+02  0.61017425260E+02  0.00000000000E+00 0. -1.
</event>
<event>
 4    1  0.5740469E+002  0.2096708E+02  0.7546771E-02  0.1519735E+00
          2   -1    0    0  503    0  0.00000000000E+00  0.00000000000E+00  0.46431456240E+03  0.46431456240E+03  0.00000000000E+00 0.  1.
         -2   -1    0    0    0  501 -0.00000000000E+00 -0.00000000000E+00 -0.68797174707E+01  0.68797174707E+01  0.00000000000E+00 0. -1.
         21    1    1    2  502  501  0.28743553352E+01 -0.20769125026E+02  0.99319724216E+01  0.23200485968E+02  0.00000000000E+00 0. -1.
         21    1    1    2  503  502 -0.28743553352E+01  0.20769125026E+02  0.44750287251E+03  0.44799379390E+03  0.00000000000E+00 0.  1.
</event>
<event>
 4    1  0.5740469E+002  0.2464895E+02  0.7546771E-02  0.1472769E+00
          2   -1    0    0  503    0  0.00000000000E+00  0.00000000000E+00  0.10281996104E+04  0.10281996104E+04  0.00000000000E+00 0.  1.
         -2   -1    0    0    0  501 -0.00000000000E+00 -0.00000000000E+00 -0.95268433573E+00  0.95268433573E+00  0.00000000000E+00 0. -1.
         21    1    1    2  502  501 -0.22381893612E+02 -0.10325762412E+02  0.19652385181E+03  0.19806361317E+03  0.00000000000E+00 0. -1.
         21    1    1    2  503  502  0.22381893612E+02  0.10325762412E+02  0.83072307427E+03  0.83108868158E+03  0.00000000000E+00 0.  1.
</event>
<event>
 4    1  0.5740469E+002  0.4463601E+02  0.7546771E-02  0.1323270E+00
          2   -1    0    0  503    0  0.00000000000E+00  0.00000000000E+00  0.11599514203E+04  0.11599514203E+04  0.00000000000E+00 0.  1.
         -2   -1    0    0    0  501 -0.00000000000E+00 -0.00000000000E+00 -0.17179635799E+01  0.17179635799E+01  0.00000000000E+00 0. -1.
         21    1    1    2  502  501  0.18147771425E+01 -0.44599105100E+02  0.58714493682E+03  0.58883915497E+03  0.00000000000E+00 0. -1.
         21    1    1    2  503  502 -0.18147771425E+01  0.44599105100E+02  0.57108851986E+03  0.57283022887E+03  0.00000000000E+00 0.  1.
</event>
<event>
 4    1  0.5740469E+002  0.3455135E+02  0.7546771E-02  0.1383745E+00
          2   -1    0    0  502    0  0.00000000000E+00  0.00000000000E+00  0.28566863811E+02  0.28566863811E+02  0.00000000000E+00 0.  1.
         -2   -1    0    0    0  501 -0.00000000000E+00 -0.00000000000E+00 -0.85363607231E+02  0.85363607231E+02  0.00000000000E+00 0. -1.
         21    1    1    2  502  503 -0.29014251640E+02  0.18760829275E+02  0.12300996672E+02  0.36675741743E+02  0.00000000000E+00 0.  1.
         21    1    1    2  503  501  0.29014251640E+02 -0.18760829275E+02 -0.69097740092E+02  0.77254729299E+02  0.00000000000E+00 0. -1.
</event>
<event>
 4    1  0.5740469E+002  0.2425833E+02  0.7546771E-02  0.1477274E+00
          2   -1    0    0  503    0  0.00000000000E+00  0.00000000000E+00  0.12825188874E+02  0.12825188874E+02  0.00000000000E+00 0. -1.
         -2   -1    0    0    0  501 -0.00000000000E+00 -0.00000000000E+00 -0.47637664445E+02  0.47637664445E+02  0.00000000000E+00 0.  1.
         21    1    1    2  502  501  0.16297543902E+02  0.17968214261E+02 -0.23207175787E+02  0.33571411483E+02  0.00000000000E+00 0.  1.
         21    1    1    2  503  502 -0.16297543902E+02 -0.17968214261E+02 -0.11605299784E+02  0.26891441836E+02  0.00000000000E+00 0. -1.
</event>
<event>
 4    1  0.5740469E+002  0.3618732E+02  0.7546771E-02  0.1372403E+00
          2   -1    0    0  503    0  0.00000000000E+00  0.00000000000E+00  0.20563073979E+04  0.20563073979E+04  0.00000000000E+00 0. -1.
         -2   -1    0    0    0  501 -0.00000000000E+00 -0.00000000000E+00 -0.14611505499E+01  0.14611505499E+01  0.00000000000E+00 0.  1.
         21    1    1    2  502  501  0.16171905982E+02  0.32372695531E+02  0.25462397778E+03  0.25718260443E+03  0.00000000000E+00 0.  1.
         21    1    1    2  503  502 -0.16171905982E+02 -0.32372695531E+02  0.18002222695E+04  0.18005859440E+04  0.00000000000E+00 0. -1.
</event>
<event>
 4    1  0.5740469E+002  0.2253226E+02  0.7546771E-02  0.1498457E+00
          2   -1    0    0  503    0  0.00000000000E+00  0.00000000000E+00  0.51857563701E+02  0.51857563701E+02  0.00000000000E+00 0. -1.
         -2   -1    0    0    0  501 -0.00000000000E+00 -0.00000000000E+00 -0.13020332699E+02  0.13020332699E+02  0.00000000000E+00 0.  1.
         21    1    1    2  502  501 -0.48407535271E+01 -0.22006130199E+02  0.32617478748E+01  0.22767117961E+02  0.00000000000E+00 0. -1.
         21    1    1    2  503  502  0.48407535271E+01  0.22006130199E+02  0.35575483127E+02  0.42110778439E+02  0.00000000000E+00 0.  1.
</event>
<event>
 4    1  0.5740469E+002  0.4605963E+02  0.7546771E-02  0.1316224E+00
          2   -1    0    0  503    0  0.00000000000E+00  0.00000000000E+00  0.25736406873E+04  0.25736406873E+04  0.00000000000E+00 0. -1.
         -2   -1    0    0    0  501 -0.00000000000E+00 -0.00000000000E+00 -0.18004354232E+01  0.18004354232E+01  0.00000000000E+00 0.  1.
         21    1    1    2  502  501  0.34098760215E+02  0.30963908179E+02  0.33775344310E+03  0.34087956433E+03  0.00000000000E+00 0.  1.
         21    1    1    2  503  502 -0.34098760215E+02 -0.30963908179E+02  0.22340868087E+04  0.22345615583E+04  0.00000000000E+00 0. -1.
</event>
<event>
 4    1  0.5740469E+002  0.2664019E+02  0.7546771E-02  0.1451256E+00
          2   -1    0    0  502    0  0.00000000000E+00  0.00000000000E+00  0.27009778230E+03  0.27009778230E+03  0.00000000000E+00 0. -1.
         -2   -1    0    0    0  501 -0.00000000000E+00 -0.00000000000E+00 -0.29916137250E+01  0.29916137250E+01  0.00000000000E+00 0.  1.
         21    1    1    2  502  503 -0.48348169400E+01  0.26197791488E+02  0.18118535420E+03  0.18313337301E+03  0.00000000000E+00 0. -1.
         21    1    1    2  503  501  0.48348169400E+01 -0.26197791488E+02  0.85920814372E+02  0.89956023011E+02  0.00000000000E+00 0.  1.
</event>
<event>
 4    1  0.5740469E+002  0.3022173E+02  0.7546771E-02  0.1417679E+00
          2   -1    0    0  503    0  0.00000000000E+00  0.00000000000E+00  0.86088173611E+03  0.86088173611E+03  0.00000000000E+00 0.  1.
         -2   -1    0    0    0  501 -0.00000000000E+00 -0.00000000000E+00 -0.42461526665E+01  0.42461526665E+01  0.00000000000E+00 0. -1.
         21    1    1    2  502  501 -0.96667736309E+01  0.28634012234E+02  0.53671882433E+02  0.61595650276E+02  0.00000000000E+00 0. -1.
         21    1    1    2  503  502  0.96667736309E+01 -0.28634012234E+02  0.80296370101E+03  0.80353223850E+03  0.00000000000E+00 0.  1.
</event>
<event>
 4    1  0.5740469E+002  0.1012855E+03  0.7546771E-02  0.1161599E+00
          2   -1    0    0  502    0  0.00000000000E+00  0.00000000000E+00  0.25288123289E+04  0.25288123289E+04  0.00000000000E+00 0. -1.
         -2   -1    0    0    0  501 -0.00000000000E+00 -0.00000000000E+00 -0.40757630170E+01  0.40757630170E+01  0.00000000000E+00 0.  1.
         21    1    1    2  502  503  0.95062952986E+02 -0.34954016546E+02  0.13488764761E+04  0.13526738321E+04  0.00000000000E+00 0. -1.
         21    1    1    2  503  501 -0.95062952986E+02  0.34954016546E+02  0.11758600897E+04  0.11802142597E+04  0.00000000000E+00 0.  1.
</event>
<event>
 4    1  0.5740469E+002  0.2435277E+02  0.7546771E-02  0.1476176E+00
          2   -1    0    0  503    0  0.00000000000E+00  0.00000000000E+00  0.10292108707E+04  0.10292108707E+04  0.00000000000E+00 0.  1.
         -2   -1    0    0    0  501 -0.00000000000E+00 -0.00000000000E+00 -0.70310937991E+00  0.70310937991E+00  0.00000000000E+00 0. -1.
         21    1    1    2  502  501  0.74409033468E+00  0.24341401519E+02  0.29549644671E+03  0.29649824201E+03  0.00000000000E+00 0. -1.
         21    1    1    2  503  502 -0.74409033468E+00 -0.24341401519E+02  0.73301131465E+03  0.73341573811E+03  0.00000000000E+00 0.  1.
</event>
<event>
 4    1  0.5740469E+002  0.2195866E+02  0.7546771E-02  0.1506005E+00
          2   -1    0    0  503    0  0.00000000000E+00  0.00000000000E+00  0.47381391035E+03  0.47381391035E+03  0.00000000000E+00 0. -1.
         -2   -1    0    0    0  501 -0.00000000000E+00 -0.00000000000E+00 -0.81139872697E+01  0.81139872697E+01  0.00000000000E+00 0.  1.
         21    1    1    2  502  501  0.19643475412E+02 -0.98140992765E+01  0.75030290076E+01  0.23205131225E+02  0.00000000000E+00 0.  1.
         21    1    1    2  503  502 -0.19643475412E+02  0.98140992765E+01  0.45819689408E+03  0.45872276640E+03  0.00000000000E+00 0. -1.
</event>
<event>
 4    1  0.5740469E+002  0.2624701E+02  0.7546771E-02  0.1455322E+00
          2   -1    0    0  503    0  0.00000000000E+00  0.00000000000E+00  0.24639909376E+03  0.24639909376E+03  0.00000000000E+00 0.  1.
         -2   -1    0    0    0  501 -0.00000000000E+00 -0.00000000000E+00 -0.61478693680E+01  0.61478693680E+01  0.00000000000E+00 0. -1.
         21    1    1    2  502  501 -0.21525354837E+02  0.15018806691E+02  0.26886028541E+02  0.37573447885E+02  0.00000000000E+00 0. -1.
         21    1    1    2  503  502  0.21525354837E+02 -0.15018806691E+02  0.21336519585E+03  0.21497351524E+03  0.00000000000E+00 0.  1.
</event>
<event>
 4    1  0.5740469E+002  0.3170191E+02  0.7546771E-02  0.1405362E+00
          2   -1    0    0  502    0  0.00000000000E+00  0.00000000000E+00  0.47087400774E+02  0.47087400774E+02  0.00000000000E+00 0. -1.
         -2   -1    0    0    0  501 -0.00000000000E+00 -0.00000000000E+00 -0.18241473582E+03  0.18241473582E+03  0.00000000000E+00 0.  1.
         21    1    1    2  502  503 -0.19090693370E+02 -0.25309220955E+02  0.40165371873E+02  0.51169017348E+02  0.00000000000E+00 0. -1.
         21    1    1    2  503  501  0.19090693370E+02  0.25309220955E+02 -0.17549270692E+03  0.17833311925E+03  0.00000000000E+00 0.  1.
</event>
<event>
 4    1  0.5740469E+002  0.3866199E+02  0.7546771E-02  0.1356510E+00
          2   -1    0    0  502    0  0.00000000000E+00  0.00000000000E+00  0.39417266841E+03  0.39417266841E+03  0.00000000000E+00 0. -1.
         -2   -1    0    0    0  501 -0.00000000000E+00 -0.00000000000E+00 -0.42214205159E+01  0.42214205159E+01  0.00000000000E+00 0.  1.
         21    1    1    2  502  503  0.13930481410E+02 -0.36065092164E+02  0.25849926883E+03  0.26137448454E+03  0.00000000000E+00 0. -1.
         21    1    1    2  503  501 -0.13930481410E+02  0.36065092164E+02  0.13145197907E+03  0.13701960439E+03  0.00000000000E+00 0.  1.
</event>
<event>
 4    1  0.5740469E+002  0.2152964E+02  0.7546771E-02  0.1511836E+00
          2   -1    0    0  502    0  0.00000000000E+00  0.00000000000E+00  0.23799157698E+02  0.23799157698E+02  0.00000000000E+00 0.  1.
         -2   -1    0    0    0  501 -0.00000000000E+00 -0.00000000000E+00 -0.61506244891E+02  0.61506244891E+02  0.00000000000E+00 0. -1.
         21    1    1    2  502  503  0.20554511412E+02 -0.64060505857E+01  0.16405056627E+02  0.27067532330E+02  0.00000000000E+00 0.  1.
         21    1    1    2  503  501 -0.20554511412E+02  0.64060505857E+01 -0.54112143820E+02  0.58237870259E+02  0.00000000000E+00 0. -1.
</event>
<event>
 4    1  0.5740469E+002  0.2653189E+02  0.7546771E-02  0.1452368E+00
          2   -1    0    0  502    0  0.00000000000E+00  0.00000000000E+00  0.63409006237E+03  0.63409006237E+03  0.00000000000E+00 0. -1.
         -2   -1    0    0    0  501 -0.00000000000E+00 -0.00000000000E+00 -0.11105095363E+01  0.11105095363E+01  0.00000000000E+00 0.  1.
         21    1    1    2  502  503  0.19504477046E+02  0.17986569350E+02  0.32212596104E+03  0.32321676330E+03  0.00000000000E+00 0.  1.
         21    1    1    2  503  501 -0.19504477046E+02 -0.17986569350E+02  0.31085359179E+03  0.31198380861E+03  0.00000000000E+00 0. -1.
</event>
<event>
 4    1  0.5740469E+002  0.2091580E+02  0.7546771E-02  0.1520470E+00
          2   -1    0    0  502    0  0.00000000000E+00  0.00000000000E+00  0.32850270626E+03  0.32850270626E+03  0.00000000000E+00 0.  1.
         -2   -1    0    0    0  501 -0.00000000000E+00 -0.00000000000E+00 -0.23727323916E+01  0.23727323916E+01  0.00000000000E+00 0. -1.
         21    1    1    2  502  503 -0.96450997211E+01 -0.18559165974E+02  0.27264719086E+03  0.27344827897E+03  0.00000000000E+00 0.  1.
         21    1    1    2  503  501  0.96450997211E+01  0.18559165974E+02  0.53482783009E+02  0.57427159678E+02  0.00000000000E+00 0. -1.
</event>
<event>
 4    1  0.5740469E+002  0.2189260E+02  0.7546771E-02  0.1506892E+00
          2   -1    0    0  502    0  0.00000000000E+00  0.00000000000E+00  0.64480952887E+02  0.64480952887E+02  0.00000000000E+00 0. -1.
         -2   -1    0    0    0  501 -0.00000000000E+00 -0.00000000000E+00 -0.23589339008E+02  0.23589339008E+02  0.00000000000E+00 0.  1.
         21    1    1    2  502  503 -0.92463698265E+00  0.21873066288E+02  0.56888732078E+02  0.60955834994E+02  0.00000000000E+00 0. -1.
         21    1    1    2  503  501  0.92463698265E+00 -0.21873066288E+02 -0.15997118198E+02  0.27114456901E+02  0.00000000000E+00 0.  1.
</event>
<event>
 4    1  0.5740469E+002  0.2520855E+02  0.7546771E-02  0.1466484E+00
          2   -1    0    0  503    0  0.00000000000E+00  0.00000000000E+00  0.43565864275E+03  0.43565864275E+03  0.00000000000E+00 0. -1.
         -2   -1    0    0    0  501 -0.00000000000E+00 -0.00000000000E+00 -0.14755903408E+01  0.14755903408E+01  0.00000000000E+00 0.  1.
         21    1    1    2  502  501  0.25104732910E+02  0.22855168814E+01  0.19366920191E+03  0.19530292105E+03  0.00000000000E+00 0.  1.
         21    1    1    2  503  502 -0.25104732910E+02 -0.22855168814E+01  0.24051385050E+03  0.24183131204E+03  0.00000000000E+00 0. -1.
</event>
<event>
 4    1  0.5740469E+002  0.2657668E+02  0.7546771E-02  0.1451907E+00
          2   -1    0    0  502    0  0.00000000000E+00  0.00000000000E+00  0.19172629093E+03  0.19172629093E+03  0.00000000000E+00 0.  1.
         -2   -1    0    0    0  501 -0.00000000000E+00 -0.00000000000E+00 -0.41898981714E+01  0.41898981714E+01  0.00000000000E+00 0. -1.
         21    1    1    2  502  503  0.19066318418E+02 -0.18514732868E+02  0.12780664492E+03  0.13054063856E+03  0.00000000000E+00 0.  1.
         21    1    1    2  503  501 -0.19066318418E+02  0.18514732868E+02  0.59729747847E+02  0.65375550545E+02  0.00000000000E+00 0. -1.
</event>
<event>
 4    1  0.5740469E+002  0.2474271E+02  0.7546771E-02  0.1471702E+00
          2   -1    0    0  502    0  0.00000000000E+00  0.00000000000E+00  0.78844418627E+03  0.78844418627E+03  0.00000000000E+00 0.  1.
         -2   -1    0    0    0  501 -0.00000000000E+00 -0.00000000000E+00 -0.81512877963E+00  0.81512877963E+00  0.00000000000E+00 0. -1.
         21    1    1    2  502  503  0.77935864885E+01 -0.23483223124E+02  0.30787136170E+03  0.30886401071E+03  0.00000000000E+00 0. -1.
         21    1    1    2  503  501 -0.77935864885E+01  0.23483223124E+02  0.47975769579E+03  0.48039530434E+03  0.00000000000E+00 0.  1.
</event>
<event>
 4    1  0.5740469E+002  0.2830245E+02  0.7546771E-02  0.1434946E+00
          2   -1    0    0  502    0  0.00000000000E+00  0.00000000000E+00  0.45812308396E+02  0.45812308396E+02  0.00000000000E+00 0. -1.
         -2   -1    0    0    0  501 -0.00000000000E+00 -0.00000000000E+00 -0.22704244942E+02  0.22704244942E+02  0.00000000000E+00 0.  1.
         21    1    1    2  502  503 -0.13052839405E+02  0.25112783172E+02  0.27979416929E+02  0.39797942998E+02  0.00000000000E+00 0. -1.
         21    1    1    2  503  501  0.13052839405E+02 -0.25112783172E+02 -0.48713534749E+01  0.28718610340E+02  0.00000000000E+00 0.  1.
</event>
<event>
 4    1  0.5740469E+002  0.2433329E+02  0.7546771E-02  0.1476402E+00
          2   -1    0    0  502    0  0.00000000000E+00  0.00000000000E+00  0.34191146792E+02  0.34191146792E+02  0.00000000000E+00 0.  1.
         -2   -1    0    0    0  501 -0.00000000000E+00 -0.00000000000E+00 -0.18666777575E+02  0.18666777575E+02  0.00000000000E+00 0. -1.
         21    1    1    2  502  503  0.78191963549E+01 -0.23042769966E+02  0.14867408236E+02  0.28515765937E+02  0.00000000000E+00 0.  1.
         21    1    1    2  503  501 -0.78191963549E+01  0.23042769966E+02  0.65696098150E+00  0.24342158431E+02  0.00000000000E+00 0. -1.
</event>
<event>
 4    1  0.5740469E+002  0.2015428E+02  0.7546771E-02  0.1531690E+00
          2   -1    0    0  502    0  0.00000000000E+00  0.00000000000E+00  0.28590289561E+03  0.28590289561E+03  0.00000000000E+00 0. -1.
         -2   -1    0    0    0  501 -0.00000000000E+00 -0.00000000000E+00 -0.16123982257E+01  0.16123982257E+01  0.00000000000E+00 0.  1.
         21    1    1    2  502  503  0.98169790472E+01 -0.17601761763E+02  0.19170771671E+03  0.19276421800E+03  0.00000000000E+00 0. -1.
         21    1    1    2  503  501 -0.98169790472E+01  0.17601761763E+02  0.92582780676E+02  0.94751075838E+02  0.00000000000E+00 0.  1.
</event>
<event>
 4    1  0.5740469E+002  0.2092900E+02  0.7546771E-02  0.1520281E+00
          2   -1    0    0  503    0  0.00000000000E+00  0.00000000000E+00  0.74280782750E+00  0.74280782750E+00  0.00000000000E+00 0. -1.
         -2   -1    0    0    0  501 -0.00000000000E+00 -0.00000000000E+00 -0.82073665176E+03  0.82073665176E+03  0.00000000000E+00 0.  1.
         21    1    1    2  502  501  0.20716936977E+02 -0.29717665818E+01 -0.62792793286E+03  0.62827662040E+03  0.00000000000E+00 0.  1.
         21    1    1    2  503  502 -0.20716936977E+02  0.29717665818E+01 -0.19206591108E+03  0.19320283919E+03  0.00000000000E+00 0. -1.
</event>
<event>
 4    1  0.5740469E+002  0.2129143E+02  0.7546771E-02  0.1515144E+00
          2   -1    0    0  503    0  0.00000000000E+00  0.00000000000E+00  0.13888306252E+03  0.13888306252E+03  0.00000000000E+00 0. -1.
         -2   -1    0    0    0  501 -0.00000000000E+00 -0.00000000000E+00 -0.12621887482E+02  0.12621887482E+02  0.00000000000E+00 0.  1.
         21    1    1    2  502  501  0.68428849138E+01 -0.20161841910E+02 -0.20955720385E+01  0.21394306844E+02  0.00000000000E+00 0.  1.
         21    1    1    2  503  502 -0.68428849138E+01  0.20161841910E+02  0.12835674708E+03  0.13011064316E+03  0.00000000000E+00 0. -1.
</event>
<event>
 4    1  0.5740469E+002  0.3110755E+02  0.7546771E-02  0.1410210E+00
          2   -1    0    0  502    0  0.00000000000E+00  0.00000000000E+00  0.12686865366E+04  0.12686865366E+04  0.00000000000E+00 0.  1.
         -2   -1    0    0    0  501 -0.00000000000E+00 -0.00000000000E+00 -0.13312652309E+02  0.13312652309E+02  0.00000000000E+00 0. -1.
         21    1    1    2  502  503  0.15539123944E+02 -0.26948384131E+02  0.12500528302E+04  0.12504398259E+04  0.00000000000E+00 0.  1.
         21    1    1    2  503  501 -0.15539123944E+02  0.26948384131E+02  0.53210540942E+01  0.31559363062E+02  0.00000000000E+00 0. -1.
</event>
<event>
 4    1  0.5740469E+002  0.2498849E+02  0.7546771E-02  0.1468932E+00
          2   -1    0    0  503    0  0.00000000000E+00  0.00000000000E+00  0.38321524760E+03  0.38321524760E+03  0.00000000000E+00 0.  1.
         -2   -1    0    0    0  501 -0.00000000000E+00 -0.00000000000E+00 -0.17552757669E+01  0.17552757669E+01  0.00000000000E+00 0. -1.
         21    1    1    2  502  501 -0.96868268979E+01  0.23034542203E+02  0.24226870519E+03  0.24355399867E+03  0.00000000000E+00 0.  1.
         21    1    1    2  503  502  0.96868268979E+01 -0.23034542203E+02  0.13919126664E+03  0.14141652471E+03  0.00000000000E+00 0. -1.
</event>
<event>
 4    1  0.5740469E+002  0.2558324E+02  0.7546771E-02  0.1462383E+00
          2   -1    0    0  503    0  0.00000000000E+00  0.00000000000E+00  0.94144316186E+03  0.94144316186E+03  0.00000000000E+00 0.  1.
         -2   -1    0    0    0  501 -0.00000000000E+00 -0.00000000000E+00 -0.71026068500E+00  0.71026068500E+00  0.00000000000E+00 0. -1.
         21    1    1    2  502  501 -0.20621782979E+02 -0.15140820839E+02  0.40179631565E+03  0.40260996219E+03  0.00000000000E+00 0. -1.
         21    1    1    2  503  502  0.20621782979E+02  0.15140820839E+02  0.53893658552E+03  0.53954346035E+03  0.00000000000E+00 0.  1.
</event>
<event>
 4    1  0.5740469E+002  0.2498717E+02  0.7546771E-02  0.1468947E+00
          2   -1    0    0  503    0  0.00000000000E+00  0.00000000000E+00  0.27873814691E+02  0.27873814691E+02  0.00000000000E+00 0.  1.
         -2   -1    0    0    0  501 -0.00000000000E+00 -0.00000000000E+00 -0.31018347399E+02  0.31018347399E+02  0.00000000000E+00 0. -1.
         21    1    1    2  502  501  0.39995982573E+01 -0.24664996246E+02 -0.17094113100E+02  0.30274866287E+02  0.00000000000E+00 0. -1.
         21    1    1    2  503  502 -0.39995982573E+01  0.24664996246E+02  0.13949580391E+02  0.28617295803E+02  0.00000000000E+00 0.  1.
</event>
<event>
 4    1  0.5740469E+002  0.2524458E+02  0.7546771E-02  0.1466086E+00
          2   -1    0    0  502    0  0.00000000000E+00  0.00000000000E+00  0.17089758509E+01  0.17089758509E+01  0.00000000000E+00 0. -1.
         -2   -1    0    0    0  501 -0.00000000000E+00 -0.00000000000E+00 -0.41771303312E+03  0.41771303312E+03  0.00000000000E+00 0.  1.
         21    1    1    2  502  503 -0.22313529882E+02  0.11806569189E+02 -0.13931867498E+03  0.14158736487E+03  0.00000000000E+00 0. -1.
         21    1    1    2  503  501  0.22313529882E+02 -0.11806569189E+02 -0.27668538228E+03  0.27783464410E+03  0.00000000000E+00 0.  1.
</event>
<event>
 4    1  0.5740469E+002  0.2478419E+02  0.7546771E-02  0.1471232E+00
          2   -1    0    0  503    0  0.00000000000E+00  0.00000000000E+00  0.90332817509E+03  0.90332817509E+03  0.00000000000E+00 0. -1.
         -2   -1    0    0    0  501 -0.00000000000E+00 -0.00000000000E+00 -0.57105013605E+01  0.57105013605E+01  0.00000000000E+00 0.  1.
         21    1    1    2  502  501 -0.22361733372E+02  0.10686859116E+02  0.22208474692E+02  0.33278708287E+02  0.00000000000E+00 0.  1.
         21    1    1    2  503  502  0.22361733372E+02 -0.10686859116E+02  0.87540919904E+03  0.87575996817E+03  0.00000000000E+00 0. -1.
</event>
<event>
 4    1  0.5740469E+002  0.8308387E+02  0.7546771E-02  0.1196864E+00
          2   -1    0    0  502    0  0.00000000000E+00  0.00000000000E+00  0.74619467020E+03  0.74619467020E+03  0.00000000000E+00 0.  1.
         -2   -1    0    0    0  501 -0.00000000000E+00 -0.00000000000E+00 -0.51527171980E+02  0.51527171980E+02  0.00000000000E+00 0. -1.
         21    1    1    2  502  503  0.32604231948E+02 -0.76419190833E+02  0.70862045055E+03  0.71347450663E+03  0.00000000000E+00 0.  1.
         21    1    1    2  503  501 -0.32604231948E+02  0.76419190833E+02 -0.13952952332E+02  0.84247335550E+02  0.00000000000E+00 0. -1.
</event>
<event>
 4    1  0.5740469E+002  0.2732470E+02  0.7546771E-02  0.1444373E+00
          2   -1    0    0  502    0  0.00000000000E+00  0.00000000000E+00  0.76104740586E+02  0.76104740586E+02  0.00000000000E+00 0. -1.
         -2   -1    0    0    0  501 -0.00000000000E+00 -0.00000000000E+00 -0.10324291350E+02  0.10324291350E+02  0.00000000000E+00 0.  1.
         21    1    1    2  502  503 -0.21070974729E+02  0.17396928415E+02  0.42528908425E+02  0.50550441602E+02  0.00000000000E+00 0.  1.
         21    1    1    2  503  501  0.21070974729E+02 -0.17396928415E+02  0.23251540811E+02  0.35878590334E+02  0.00000000000E+00 0. -1.
</event>
<event>
 4    1  0.5740469E+002  0.2556156E+02  0.7546771E-02  0.1462618E+00
          2   -1    0    0  502    0  0.00000000000E+00  0.00000000000E+00  0.23231134959E+04  0.23231134959E+04  0.00000000000E+00 0.  1.
         -2   -1    0    0    0  501 -0.00000000000E+00 -0.00000000000E+00 -0.36043929935E+00  0.36043929935E+00  0.00000000000E+00 0. -1.
         21    1    1    2  502  503  0.12569326347E+02 -0.22257704543E+02  0.17058843102E+04  0.17060758111E+04  0.00000000000E+00 0.  1.
         21    1    1    2  503  501 -0.12569326347E+02  0.22257704543E+02  0.61686874637E+03  0.61739812408E+03  0.00000000000E+00 0. -1.
</event>
<event>
 4    1  0.5740469E+002  0.3201334E+02  0.7546771E-02  0.1402871E+00
          2   -1    0    0  503    0  0.00000000000E+00  0.00000000000E+00  0.19040771703E+03  0.19040771703E+03  0.00000000000E+00 0. -1.
         -2   -1    0    0    0  501 -0.00000000000E+00 -0.00000000000E+00 -0.59449970835E+01  0.59449970835E+01  0.00000000000E+00 0.  1.
         21    1    1    2  502  501  0.31427688433E+02  0.60954398501E+01  0.62030260657E+02  0.69804063094E+02  0.00000000000E+00 0. -1.
         21    1    1    2  503  502 -0.31427688433E+02 -0.60954398501E+01  0.12243245929E+03  0.12654865102E+03  0.00000000000E+00 0.  1.
</event>
<event>
 4    1  0.5740469E+002  0.3551581E+02  0.7546771E-02  0.1376973E+00
          2   -1    0    0  502    0  0.00000000000E+00  0.00000000000E+00  0.10776948867E+03  0.10776948867E+03  0.00000000000E+00 0.  1.
         -2   -1    0    0    0  501 -0.00000000000E+00 -0.00000000000E+00 -0.14350010487E+02  0.14350010487E+02  0.00000000000E+00 0. -1.
         21    1    1    2  502  503  0.33546252116E+02  0.11662825225E+02  0.72927489547E+02  0.81115912464E+02  0.00000000000E+00 0.  1.
         21    1    1    2  503  501 -0.33546252116E+02 -0.11662825225E+02  0.20491988633E+02  0.41003586689E+02  0.00000000000E+00 0. -1.
</event>
<event>
 4    1  0.5740469E+002  0.4430428E+02  0.7546771E-02  0.1324955E+00
          2   -1    0    0  503    0  0.00000000000E+00  0.00000000000E+00  0.43097899571E+04  0.43097899571E+04  0.00000000000E+00 0. -1.
         -2   -1    0    0    0  501 -0.00000000000E+00 -0.00000000000E+00 -0.46477863163E+00  0.46477863163E+00  0.00000000000E+00 0.  1.
         21    1    1    2  502  501  0.89743737071E+00  0.44295191136E+02  0.18492471139E+04  0.18497777590E+04  0.00000000000E+00 0.  1.
         21    1    1    2  503  502 -0.89743737071E+00 -0.44295191136E+02  0.24600780646E+04  0.24604769767E+04  0.00000000000E+00 0. -1.
</event>
<event>
 4    1  0.5740469E+002  0.2955549E+02  0.7546771E-02  0.1423499E+00
          2   -1    0    0  503    0  0.00000000000E+00  0.00000000000E+00  0.15007888969E+04  0.15007888969E+04  0.00000000000E+00 0.  1.
         -2   -1    0    0    0  501 -0.00000000000E+00 -0.00000000000E+00 -0.18191084266E+01  0.18191084266E+01  0.00000000000E+00 0. -1.
         21    1    1    2  502  501 -0.14944737652E+02 -0.25498659514E+02  0.12992631348E+03  0.13324553934E+03  0.00000000000E+00 0. -1.
         21    1    1    2  503  502  0.14944737652E+02  0.25498659514E+02  0.13690434750E+04  0.13693624660E+04  0.00000000000E+00 0.  1.
</event>
<event>
 4    1  0.5740469E+002  0.3175622E+02  0.7546771E-02  0.1404925E+00
          2   -1    0    0  503    0  0.00000000000E+00  0.00000000000E+00  0.96973047536E+01  0.96973047536E+01  0.00000000000E+00 0.  1.
         -2   -1    0    0    0  501 -0.00000000000E+00 -0.00000000000E+00 -0.11871709028E+03  0.11871709028E+03  0.00000000000E+00 0. -1.
         21    1    1    2  502  501  0.25530540359E+01  0.31653423449E+02 -0.31898204860E+02  0.45010585136E+02  0.00000000000E+00 0. -1.
         21    1    1    2  503  502 -0.25530540359E+01 -0.31653423449E+02 -0.77121580665E+02  0.83403809897E+02  0.00000000000E+00 0.  1.
</event>
<event>
 4    1  0.5740469E+002  0.6322613E+02  0.7546771E-02  0.1249248E+00
          2   -1    0    0  502    0  0.00000000000E+00  0.00000000000E+00  0.68780406651E+02  0.68780406651E+02  0.00000000000E+00 0. -1.
         -2   -1    0    0    0  501 -0.00000000000E+00 -0.00000000000E+00 -0.23880341068E+03  0.23880341068E+03  0.00000000000E+00 0.  1.
         21    1    1    2  502  503  0.56094650817E+02 -0.29170776202E+02  0.48762554278E+02  0.79845668225E+02  0.00000000000E+00 0. -1.
         21    1    1    2  503  501 -0.56094650817E+02  0.29170776202E+02 -0.21878555831E+03  0.22773814911E+03  0.00000000000E+00 0.  1.
</event>
<event>
 4    1  0.5740469E+002  0.2386253E+02  0.7546771E-02  0.1481942E+00
          2   -1    0    0  502    0  0.00000000000E+00  0.00000000000E+00  0.25206709828E+02  0.25206709828E+02  0.00000000000E+00 0.  1.
         -2   -1    0    0    0  501 -0.00000000000E+00 -0.00000000000E+00 -0.34219528769E+02  0.34219528769E+02  0.00000000000E+00 0. -1.
         21    1    1    2  502  503 -0.44445978527E+01 -0.23444953285E+02  0.12815340575E+02  0.27086034014E+02  0.00000000000E+00 0.  1.
         21    1    1    2  503  501  0.44445978527E+01  0.23444953285E+02 -0.21828159516E+02  0.32340204582E+02  0.00000000000E+00 0. -1.
</event>
<event>
 4    1  0.5740469E+002  0.3632303E+02  0.7546771E-02  0.1371493E+00
          2   -1    0    0  503    0  0.00000000000E+00  0.00000000000E+00  0.10781490833E+04  0.10781490833E+04  0.00000000000E+00 0. -1.
         -2   -1    0    0    0  501 -0.00000000000E+00 -0.00000000000E+00 -0.15008185447E+01  0.15008185447E+01  0.00000000000E+00 0.  1.
         21    1    1    2  502  501 -0.25945999939E+02  0.25419824288E+02  0.30637173182E+03  0.30851742323E+03  0.00000000000E+00 0.  1.
         21    1    1    2  503  502  0.25945999939E+02 -0.25419824288E+02  0.77027653292E+03  0.77113247859E+03  0.00000000000E+00 0. -1.
</event>
<event>
 4    1  0.5740469E+002  0.2170606E+02  0.7546771E-02  0.1509418E+00
          2   -1    0    0  502    0  0.00000000000E+00  0.00000000000E+00  0.10842256282E+03  0.10842256282E+03  0.00000000000E+00 0. -1.
         -2   -1    0    0    0  501 -0.00000000000E+00 -0.00000000000E+00 -0.17907025006E+02  0.17907025006E+02  0.00000000000E+00 0.  1.
         21    1    1    2  502  503 -0.72862874373E+01  0.20446588216E+02  0.10022669193E+03  0.10255019615E+03  0.00000000000E+00 0. -1.
         21    1    1    2  503  501  0.72862874373E+01 -0.20446588216E+02 -0.97111541174E+01  0.23779391679E+02  0.00000000000E+00 0.  1.
</event>
<event>
 4    1  0.5740469E+002  0.4338906E+02  0.7546771E-02  0.1329694E+00
          2   -1    0    0  502    0  0.00000000000E+00  0.00000000000E+00  0.23768158039E+04  0.23768158039E+04  0.00000000000E+00 0.  1.
         -2   -1    0    0    0  501 -0.00000000000E+00 -0.00000000000E+00 -0.12466056523E+01  0.12466056523E+01  0.00000000000E+00 0. -1.
         21    1    1    2  502  503  0.37761186204E+02  0.21370615546E+02  0.19057631954E+04  0.19062570570E+04  0.00000000000E+00 0.  1.
         21    1    1    2  503  501 -0.37761186204E+02 -0.21370615546E+02  0.46980600286E+03  0.47180535258E+03  0.00000000000E+00 0. -1.
</event>
<event>
 4    1  0.5740469E+002  0.3086781E+02  0.7546771E-02  0.1412202E+00
          2   -1    0    0  503    0  0.00000000000E+00  0.00000000000E+00  0.18444088285E+04  0.18444088285E+04  0.00000000000E+00 0.  1.
         -2   -1    0    0    0  501 -0.00000000000E+00 -0.00000000000E+00 -0.27167651488E+01  0.27167651488E+01  0.00000000000E+00 0. -1.
         21    1    1    2  502  501  0.17703023419E+01 -0.30817006649E+02  0.89717851496E+02  0.94879474842E+02  0.00000000000E+00 0. -1.
         21    1    1    2  503  502 -0.17703023419E+01  0.30817006649E+02  0.17519742119E+04  0.17522461188E+04  0.00000000000E+00 0.  1.
</event>
<event>
 4    1  0.5740469E+002  0.3396745E+02  0.7546771E-02  0.1387971E+00
          2   -1    0    0  502    0  0.00000000000E+00  0.00000000000E+00  0.94467434760E+02  0.94467434760E+02  0.00000000000E+00 0.  1.
         -2   -1    0    0    0  501 -0.00000000000E+00 -0.00000000000E+00 -0.22423942411E+02  0.22423942411E+02  0.00000000000E+00 0. -1.
         21    1    1    2  502  503  0.32648348028E+02 -0.93740553526E+01  0.75459904849E+02  0.82752551517E+02  0.00000000000E+00 0.  1.
         21    1    1    2  503  501 -0.32648348028E+02  0.93740553526E+01 -0.34164125003E+01  0.34138825654E+02  0.00000000000E+00 0. -1.
</event>
<event>
 4    1  0.5740469E+002  0.2493000E+02  0.7546771E-02  0.1469588E+00
          2   -1    0    0  503    0  0.00000000000E+00  0.00000000000E+00  0.20515684295E+03  0.20515684295E+03  0.00000000000E+00 0.  1.
         -2   -1    0    0    0  501 -0.00000000000E+00 -0.00000000000E+00 -0.97680369092E+01  0.97680369092E+01  0.00000000000E+00 0. -1.
         21    1    1    2  502  501  0.15919028345E+02 -0.19185660034E+02  0.84381548265E+01  0.26319336452E+02  0.00000000000E+00 0. -1.
         21    1    1    2  503  502 -0.15919028345E+02  0.19185660034E+02  0.18695065121E+03  0.18860554340E+03  0.00000000000E+00 0.  1.
</event>
<event>
 4    1  0.5740469E+002  0.2087440E+02  0.7546771E-02  0.1521066E+00
          2   -1    0    0  503    0  0.00000000000E+00  0.00000000000E+00  0.21180480408E+01  0.21180480408E+01  0.00000000000E+00 0. -1.
         -2   -1    0    0    0  501 -0.00000000000E+00 -0.00000000000E+00 -0.20764289814E+03  0.20764289814E+03  0.00000000000E+00 0.  1.
         21    1    1    2  502  501  0.65719393843E-01 -0.20874295596E+02 -0.11283582179E+03  0.11475043885E+03  0.00000000000E+00 0.  1.
         21    1    1    2  503  502 -0.65719393843E-01  0.20874295596E+02 -0.92689028301E+02  0.95010507330E+02  0.00000000000E+00 0. -1.
</event>
<event>
 4    1  0.5740469E+002  0.2039842E+02  0.7546771E-02  0.1528030E+00
          2   -1    0    0  503    0  0.00000000000E+00  0.00000000000E+00  0.58600022888E+03  0.58600022888E+03  0.00000000000E+00 0. -1.
         -2   -1    0    0    0  501 -0.00000000000E+00 -0.00000000000E+00 -0.71052753323E+00  0.71052753323E+00  0.00000000000E+00 0.  1.
         21    1    1    2  502  501  0.20266707329E+02  0.23143421097E+01  0.28512367824E+03  0.28585242259E+03  0.00000000000E+00 0.  1.
         21    1    1    2  503  502 -0.20266707329E+02 -0.23143421097E+01  0.30016602311E+03  0.30085833383E+03  0.00000000000E+00 0. -1.
</event>
<event>
 4    1  0.5740469E+002  0.2986852E+02  0.7546771E-02  0.1420743E+00
          2   -1    0    0  503    0  0.00000000000E+00  0.00000000000E+00  0.26967301769E+01  0.26967301769E+01  0.00000000000E+00 0.  1.
         -2   -1    0    0    0  501 -0.00000000000E+00 -0.00000000000E+00 -0.33456912553E+03  0.33456912553E+03  0.00000000000E+00 0. -1.
         21    1    1    2  502  501 -0.15229143777E+02 -0.25694394768E+02 -0.14808199998E+03  0.15106424945E+03  0.00000000000E+00 0.  1.
         21    1    1    2  503  502  0.15229143777E+02  0.25694394768E+02 -0.18379039537E+03  0.18620160626E+03  0.00000000000E+00 0. -1.
</event>
<event>
 4    1  0.5740469E+002  0.3951872E+02  0.7546771E-02  0.1351329E+00
          2   -1    0    0  502    0  0.00000000000E+00  0.00000000000E+00  0.20257321238E+03  0.20257321238E+03  0.00000000000E+00 0.  1.
         -2   -1    0    0    0  501 -0.00000000000E+00 -0.00000000000E+00 -0.10477398306E+02  0.10477398306E+02  0.00000000000E+00 0. -1.
         21    1    1    2  502  503  0.24361490025E+02 -0.31116664578E+02  0.15080049819E+03  0.15589265302E+03  0.00000000000E+00 0.  1.
         21    1    1    2  503  501 -0.24361490025E+02  0.31116664578E+02  0.41295315880E+02  0.57157957664E+02  0.00000000000E+00 0. -1.
</event>
<event>
 4    1  0.5740469E+002  0.2088015E+02  0.7546771E-02  0.1520983E+00
          2   -1    0    0  503    0  0.00000000000E+00  0.00000000000E+00  0.13872282364E+04  0.13872282364E+04  0.00000000000E+00 0. -1.
         -2   -1    0    0    0  501 -0.00000000000E+00 -0.00000000000E+00 -0.38784011879E+00  0.38784011879E+00  0.00000000000E+00 0.  1.
         21    1    1    2  502  501 -0.20422014899E+02 -0.43499586985E+01  0.39126620698E+03  0.39182295180E+03  0.00000000000E+00 0.  1.
         21    1    1    2  503  502  0.20422014899E+02  0.43499586985E+01  0.99557418932E+03  0.99579312473E+03  0.00000000000E+00 0. -1.
</event>
<event>
 4    1  0.5740469E+002  0.2221187E+02  0.7546771E-02  0.1502639E+00
          2   -1    0    0  502    0  0.00000000000E+00  0.00000000000E+00  0.11042231307E+02  0.11042231307E+02  0.00000000000E+00 0. -1.
         -2   -1    0    0    0  501 -0.00000000000E+00 -0.00000000000E+00 -0.63052595786E+02  0.63052595786E+02  0.00000000000E+00 0.  1.
         21    1    1    2  502  503  0.21134233875E+02 -0.68345612295E+01 -0.60069557815E+01  0.23009793272E+02  0.00000000000E+00 0. -1.
         21    1    1    2  503  501 -0.21134233875E+02  0.68345612295E+01 -0.46003408697E+02  0.51085033820E+02  0.00000000000E+00 0.  1.
</event>
<event>
 4    1  0.5740469E+002  0.2074660E+02  0.7546771E-02  0.1522914E+00
          2   -1    0    0  503    0  0.00000000000E+00  0.00000000000E+00  0.12000749352E+04  0.12000749352E+04  0.00000000000E+00 0.  1.
         -2   -1    0    0    0  501 -0.00000000000E+00 -0.00000000000E+00 -0.20928379335E+01  0.20928379335E+01  0.00000000000E+00 0. -1.
         21    1    1    2  502  501 -0.20238692871E+02  0.45625255265E+01  0.51831656174E+02  0.55829579167E+02  0.00000000000E+00 0. -1.
         21    1    1    2  503  502  0.20238692871E+02 -0.45625255265E+01  0.11461504411E+04  0.11463381940E+04  0.00000000000E+00 0.  1.
</event>
