<event>
 4    1  0.6729064E+001  0.2456934E+02  0.7546771E-02  0.1473679E+00
          2   -1    0    0  502    0  0.00000000000E+00  0.00000000000E+00  0.24001676065E+03  0.24001676065E+03  0.00000000000E+00 0. -1.
         -2   -1    0    0    0  501 -0.00000000000E+00 -0.00000000000E+00 -0.26064725611E+01  0.26064725611E+01  0.00000000000E+00 0.  1.
          1    1    1    2  502    0  0.19861880158E+02  0.14462293918E+02  0.95984452120E+02  0.99079096067E+02  0.00000000000E+00 0. -1.
         -1    1    1    2    0  501 -0.19861880158E+02 -0.14462293918E+02  0.14142583597E+03  0.14354413714E+03  0.00000000000E+00 0.  1.
</event>
<event>
 4    1  0.6729064E+001  0.2036694E+02  0.7546771E-02  0.1528498E+00
          2   -1    0    0  502    0  0.00000000000E+00  0.00000000000E+00  0.24325488529E+03  0.24325488529E+03  0.00000000000E+00 0.  1.
         -2   -1    0    0    0  501 -0.00000000000E+00 -0.00000000000E+00 -0.20357566230E+01  0.20357566230E+01  0.00000000000E+00 0. -1.
          1    1    1    2  502    0 -0.16109685236E+02 -0.12461558943E+02  0.71192983535E+02  0.74048992662E+02  0.00000000000E+00 0. -1.
         -1    1    1    2    0  501  0.16109685236E+02  0.12461558943E+02  0.17002614513E+03  0.17124164925E+03  0.00000000000E+00 0.  1.
</event>
<event>
 4    1  0.6729064E+001  0.2886842E+02  0.7546771E-02  0.1429691E+00
          2   -1    0    0  502    0  0.00000000000E+00  0.00000000000E+00  0.83708920262E+03  0.83708920262E+03  0.00000000000E+00 0.  1.
         -2   -1    0    0    0  501 -0.00000000000E+00 -0.00000000000E+00 -0.10514812623E+01  0.10514812623E+01  0.00000000000E+00 0. -1.
          1    1    1    2  502    0  0.19621761083E+02 -0.21174801798E+02  0.51464916362E+03  0.51545819166E+03  0.00000000000E+00 0.  1.
         -1    1    1    2    0  501 -0.19621761083E+02  0.21174801798E+02  0.32138855774E+03  0.32268249222E+03  0.00000000000E+00 0. -1.
</event>
<event>
 4    1  0.6729064E+001  0.3043381E+02  0.7546771E-02  0.1415863E+00
          2   -1    0    0  502    0  0.00000000000E+00  0.00000000000E+00  0.62451797793E+03  0.62451797793E+03  0.00000000000E+00 0.  1.
         -2   -1    0    0    0  501 -0.00000000000E+00 -0.00000000000E+00 -0.29194958047E+01  0.29194958047E+01  0.00000000000E+00 0. -1.
          1    1    1    2  502    0 -0.10271457728E+02  0.28648108038E+02  0.53085106250E+03  0.53172273555E+03  0.00000000000E+00 0.  1.
         -1    1    1    2    0  501  0.10271457728E+02 -0.28648108038E+02  0.90747419621E+02  0.95714738185E+02  0.00000000000E+00 0. -1.
</event>
<event>
 4    1  0.6729064E+001  0.4487990E+02  0.7546771E-02  0.1322041E+00
          2   -1    0    0  502    0  0.00000000000E+00  0.00000000000E+00  0.21245759049E+03  0.21245759049E+03  0.00000000000E+00 0. -1.
         -2   -1    0    0    0  501 -0.00000000000E+00 -0.00000000000E+00 -0.18682693113E+02  0.18682693113E+02  0.00000000000E+00 0.  1.
          1    1    1    2  502    0  0.14305062467E+02  0.42539049444E+02  0.15778004137E+02  0.47572586164E+02  0.00000000000E+00 0.  1.
         -1    1    1    2    0  501 -0.14305062467E+02 -0.42539049444E+02  0.17799689324E+03  0.18356769744E+03  0.00000000000E+00 0. -1.
</event>
<event>
 4    1  0.6729064E+001  0.4780369E+02  0.7546771E-02  0.1307986E+00
          2   -1    0    0  502    0  0.00000000000E+00  0.00000000000E+00  0.25145827513E+03  0.25145827513E+03  0.00000000000E+00 0.  1.
         -2   -1    0    0    0  501 -0.00000000000E+00 -0.00000000000E+00 -0.13923103254E+02  0.13923103254E+02  0.00000000000E+00 0. -1.
          1    1    1    2  502    0  0.43844507869E+02  0.19048684197E+02  0.19696383880E+03  0.20268188631E+03  0.00000000000E+00 0.  1.
         -1    1    1    2    0  501 -0.43844507869E+02 -0.19048684197E+02  0.40571333077E+02  0.62699492084E+02  0.00000000000E+00 0. -1.
</event>
<event>
 4    1  0.6729064E+001  0.5718161E+02  0.7546771E-02  0.1269721E+00
          2   -1    0    0  502    0  0.00000000000E+00  0.00000000000E+00  0.34054851192E+03  0.34054851192E+03  0.00000000000E+00 0. -1.
         -2   -1    0    0    0  501 -0.00000000000E+00 -0.00000000000E+00 -0.11871967842E+02  0.11871967842E+02  0.00000000000E+00 0.  1.
          1    1    1    2  502    0 -0.53045222089E+02  0.21352763978E+02  0.24140001292E+03  0.24808003215E+03  0.00000000000E+00 0. -1.
         -1    1    1    2    0  501  0.53045222089E+02 -0.21352763978E+02  0.87276531161E+02  0.10434044761E+03  0.00000000000E+00 0.  1.
</event>
<event>
 4    1  0.6729064E+001  0.2784790E+02  0.7546771E-02  0.1439272E+00
          2   -1    0    0  502    0  0.00000000000E+00  0.00000000000E+00  0.52641200339E+01  0.52641200339E+01  0.00000000000E+00 0. -1.
         -2   -1    0    0    0  501 -0.00000000000E+00 -0.00000000000E+00 -0.14912684774E+03  0.14912684774E+03  0.00000000000E+00 0.  1.
          1    1    1    2  502    0 -0.20232611456E+02  0.19134964371E+02 -0.80430657627E+02  0.85115193204E+02  0.00000000000E+00 0.  1.
         -1    1    1    2    0  501  0.20232611456E+02 -0.19134964371E+02 -0.63432070080E+02  0.69275774571E+02  0.00000000000E+00 0. -1.
</event>
<event>
 4    1  0.6729064E+001  0.6826548E+02  0.7546771E-02  0.1234071E+00
          2   -1    0    0  502    0  0.00000000000E+00  0.00000000000E+00  0.20216044888E+04  0.20216044888E+04  0.00000000000E+00 0.  1.
         -2   -1    0    0    0  501 -0.00000000000E+00 -0.00000000000E+00 -0.26600392865E+01  0.26600392865E+01  0.00000000000E+00 0. -1.
          1    1    1    2  502    0  0.56711060427E+02 -0.38000420115E+02  0.13791446638E+04  0.13808331471E+04  0.00000000000E+00 0.  1.
         -1    1    1    2    0  501 -0.56711060427E+02  0.38000420115E+02  0.63979978570E+03  0.64343138102E+03  0.00000000000E+00 0. -1.
</event>
<event>
 4    1  0.6729064E+001  0.3831497E+02  0.7546771E-02  0.1358653E+00
          2   -1    0    0  502    0  0.00000000000E+00  0.00000000000E+00  0.85783654453E+03  0.85783654453E+03  0.00000000000E+00 0. -1.
         -2   -1    0    0    0  501 -0.00000000000E+00 -0.00000000000E+00 -0.24595099367E+01  0.24595099367E+01  0.00000000000E+00 0.  1.
          1    1    1    2  502    0 -0.64465167869E+01  0.37768760547E+02  0.19044288977E+03  0.19425892802E+03  0.00000000000E+00 0.  1.
         -1    1    1    2    0  501  0.64465167869E+01 -0.37768760547E+02  0.66493414482E+03  0.66603712645E+03  0.00000000000E+00 0. -1.
</event>
<event>
 4    1  0.6729064E+001  0.2189808E+02  0.7546771E-02  0.1506819E+00
          2   -1    0    0  502    0  0.00000000000E+00  0.00000000000E+00  0.25235867007E+04  0.25235867007E+04  0.00000000000E+00 0. -1.
         -2   -1    0    0    0  501 -0.00000000000E+00 -0.00000000000E+00 -0.19223887129E+00  0.19223887129E+00  0.00000000000E+00 0.  1.
          1    1    1    2  502    0  0.12089539107E+02 -0.18258398681E+02  0.11260552402E+04  0.11262681431E+04  0.00000000000E+00 0.  1.
         -1    1    1    2    0  501 -0.12089539107E+02  0.18258398681E+02  0.13973392216E+04  0.13975107965E+04  0.00000000000E+00 0. -1.
</event>
<event>
 4    1  0.6729064E+001  0.2238279E+02  0.7546771E-02  0.1500397E+00
          2   -1    0    0  502    0  0.00000000000E+00  0.00000000000E+00  0.74700321850E+02  0.74700321850E+02  0.00000000000E+00 0. -1.
         -2   -1    0    0    0  501 -0.00000000000E+00 -0.00000000000E+00 -0.69439406199E+01  0.69439406199E+01  0.00000000000E+00 0.  1.
          1    1    1    2  502    0  0.14562324174E+02 -0.16997881880E+02  0.26331986508E+02  0.34559554211E+02  0.00000000000E+00 0.  1.
         -1    1    1    2    0  501 -0.14562324174E+02  0.16997881880E+02  0.41424394722E+02  0.47084708259E+02  0.00000000000E+00 0. -1.
</event>
<event>
 4    1  0.6729064E+001  0.6567501E+02  0.7546771E-02  0.1241681E+00
          2   -1    0    0  502    0  0.00000000000E+00  0.00000000000E+00  0.13915351930E+03  0.13915351930E+03  0.00000000000E+00 0. -1.
         -2   -1    0    0    0  501 -0.00000000000E+00 -0.00000000000E+00 -0.31245047516E+02  0.31245047516E+02  0.00000000000E+00 0.  1.
          1    1    1    2  502    0  0.46953405394E+01  0.65506947206E+02  0.46348132958E+02  0.80382558952E+02  0.00000000000E+00 0. -1.
         -1    1    1    2    0  501 -0.46953405394E+01 -0.65506947206E+02  0.61560338822E+02  0.90016007859E+02  0.00000000000E+00 0.  1.
</event>
<event>
 4    1  0.6729064E+001  0.3266608E+02  0.7546771E-02  0.1397758E+00
          2   -1    0    0  502    0  0.00000000000E+00  0.00000000000E+00  0.21970249600E+01  0.21970249600E+01  0.00000000000E+00 0.  1.
         -2   -1    0    0    0  501 -0.00000000000E+00 -0.00000000000E+00 -0.49382737137E+03  0.49382737137E+03  0.00000000000E+00 0. -1.
          1    1    1    2  502    0 -0.10852216550E+02  0.30810743462E+02 -0.21397803354E+03  0.21645708894E+03  0.00000000000E+00 0. -1.
         -1    1    1    2    0  501  0.10852216550E+02 -0.30810743462E+02 -0.27765231287E+03  0.27956730739E+03  0.00000000000E+00 0.  1.
</event>
<event>
 4    1  0.6729064E+001  0.2002786E+02  0.7546771E-02  0.1533610E+00
          2   -1    0    0  502    0  0.00000000000E+00  0.00000000000E+00  0.35351481412E+00  0.35351481412E+00  0.00000000000E+00 0. -1.
         -2   -1    0    0    0  501 -0.00000000000E+00 -0.00000000000E+00 -0.11376156604E+04  0.11376156604E+04  0.00000000000E+00 0.  1.
          1    1    1    2  502    0  0.19998954842E+02  0.10755969031E+01 -0.53957326123E+03  0.53994482990E+03  0.00000000000E+00 0. -1.
         -1    1    1    2    0  501 -0.19998954842E+02 -0.10755969031E+01 -0.59768888438E+03  0.59802434534E+03  0.00000000000E+00 0.  1.
</event>
<event>
 4    1  0.6729064E+001  0.2028425E+02  0.7546771E-02  0.1529734E+00
          2   -1    0    0  502    0  0.00000000000E+00  0.00000000000E+00  0.41364911880E+02  0.41364911880E+02  0.00000000000E+00 0. -1.
         -2   -1    0    0    0  501 -0.00000000000E+00 -0.00000000000E+00 -0.99495966394E+01  0.99495966394E+01  0.00000000000E+00 0.  1.
          1    1    1    2  502    0 -0.17696767249E+02  0.99133785316E+01  0.15281498257E+02  0.25396354738E+02  0.00000000000E+00 0. -1.
         -1    1    1    2    0  501  0.17696767249E+02 -0.99133785316E+01  0.16133816984E+02  0.25918153782E+02  0.00000000000E+00 0.  1.
</event>
<event>
 4    1  0.6729064E+001  0.5404085E+02  0.7546771E-02  0.1281543E+00
          2   -1    0    0  502    0  0.00000000000E+00  0.00000000000E+00  0.40907611329E+02  0.40907611329E+02  0.00000000000E+00 0.  1.
         -2   -1    0    0    0  501 -0.00000000000E+00 -0.00000000000E+00 -0.98321776794E+02  0.98321776794E+02  0.00000000000E+00 0. -1.
          1    1    1    2  502    0  0.89236197351E+01  0.53298993529E+02 -0.65140906518E+02  0.84638947314E+02  0.00000000000E+00 0. -1.
         -1    1    1    2    0  501 -0.89236197351E+01 -0.53298993529E+02  0.77267410525E+01  0.54590440809E+02  0.00000000000E+00 0.  1.
</event>
<event>
 4    1  0.6729064E+001  0.2028997E+02  0.7546771E-02  0.1529648E+00
          2   -1    0    0  502    0  0.00000000000E+00  0.00000000000E+00  0.40166834531E+03  0.40166834531E+03  0.00000000000E+00 0. -1.
         -2   -1    0    0    0  501 -0.00000000000E+00 -0.00000000000E+00 -0.10834797228E+01  0.10834797228E+01  0.00000000000E+00 0.  1.
          1    1    1    2  502    0 -0.15326751489E+02  0.13295617990E+02  0.15348100704E+03  0.15481635021E+03  0.00000000000E+00 0. -1.
         -1    1    1    2    0  501  0.15326751489E+02 -0.13295617990E+02  0.24710385855E+03  0.24793547483E+03  0.00000000000E+00 0.  1.
</event>
<event>
 4    1  0.6729064E+001  0.4329592E+02  0.7546771E-02  0.1330184E+00
          2   -1    0    0  502    0  0.00000000000E+00  0.00000000000E+00  0.11299847310E+04  0.11299847310E+04  0.00000000000E+00 0.  1.
         -2   -1    0    0    0  501 -0.00000000000E+00 -0.00000000000E+00 -0.16716129767E+01  0.16716129767E+01  0.00000000000E+00 0. -1.
          1    1    1    2  502    0 -0.12959381093E+02  0.41310910665E+02  0.61349225771E+03  0.61501811938E+03  0.00000000000E+00 0.  1.
         -1    1    1    2    0  501  0.12959381093E+02 -0.41310910665E+02  0.51482086028E+03  0.51663822456E+03  0.00000000000E+00 0. -1.
</event>
<event>
 4    1  0.6729064E+001  0.2152788E+02  0.7546771E-02  0.1511860E+00
          2   -1    0    0  502    0  0.00000000000E+00  0.00000000000E+00  0.11972865860E+01  0.11972865860E+01  0.00000000000E+00 0. -1.
         -2   -1    0    0    0  501 -0.00000000000E+00 -0.00000000000E+00 -0.39735976483E+03  0.39735976483E+03  0.00000000000E+00 0.  1.
          1    1    1    2  502    0  0.20352476472E+02 -0.70161576971E+01 -0.23012830161E+03  0.23113304603E+03  0.00000000000E+00 0.  1.
         -1    1    1    2    0  501 -0.20352476472E+02  0.70161576971E+01 -0.16603417664E+03  0.16742400539E+03  0.00000000000E+00 0. -1.
</event>
<event>
 4    1  0.6729064E+001  0.2087943E+02  0.7546771E-02  0.1520993E+00
          2   -1    0    0  502    0  0.00000000000E+00  0.00000000000E+00  0.13199387461E+03  0.13199387461E+03  0.00000000000E+00 0.  1.
         -2   -1    0    0    0  501 -0.00000000000E+00 -0.00000000000E+00 -0.34244555464E+01  0.34244555464E+01  0.00000000000E+00 0. -1.
          1    1    1    2  502    0  0.20504709356E+02  0.39379663497E+01  0.77046154631E+02  0.79825187930E+02  0.00000000000E+00 0. -1.
         -1    1    1    2    0  501 -0.20504709356E+02 -0.39379663497E+01  0.51523264432E+02  0.55593142225E+02  0.00000000000E+00 0.  1.
</event>
<event>
 4    1  0.6729064E+001  0.2081174E+02  0.7546771E-02  0.1521970E+00
          2   -1    0    0  502    0  0.00000000000E+00  0.00000000000E+00  0.67832408297E+01  0.67832408297E+01  0.00000000000E+00 0.  1.
         -2   -1    0    0    0  501 -0.00000000000E+00 -0.00000000000E+00 -0.74382961029E+02  0.74382961029E+02  0.00000000000E+00 0. -1.
          1    1    1    2  502    0  0.61856778630E+01 -0.19871229420E+02 -0.18530259504E+02  0.27865729608E+02  0.00000000000E+00 0.  1.
         -1    1    1    2    0  501 -0.61856778630E+01  0.19871229420E+02 -0.49069460696E+02  0.53300472252E+02  0.00000000000E+00 0. -1.
</event>
<event>
 4    1  0.6729064E+001  0.3179186E+02  0.7546771E-02  0.1404639E+00
          2   -1    0    0  502    0  0.00000000000E+00  0.00000000000E+00  0.85788757699E+02  0.85788757699E+02  0.00000000000E+00 0. -1.
         -2   -1    0    0    0  501 -0.00000000000E+00 -0.00000000000E+00 -0.22606309653E+02  0.22606309653E+02  0.00000000000E+00 0.  1.
          1    1    1    2  502    0  0.22114139209E+02  0.22840476173E+02 -0.59124913895E+01  0.32336976655E+02  0.00000000000E+00 0. -1.
         -1    1    1    2    0  501 -0.22114139209E+02 -0.22840476173E+02  0.69094939436E+02  0.76058090697E+02  0.00000000000E+00 0.  1.
</event>
<event>
 4    1  0.6729064E+001  0.3006717E+02  0.7546771E-02  0.1419014E+00
          2   -1    0    0  502    0  0.00000000000E+00  0.00000000000E+00  0.11237773984E+02  0.11237773984E+02  0.00000000000E+00 0.  1.
         -2   -1    0    0    0  501 -0.00000000000E+00 -0.00000000000E+00 -0.11539169565E+03  0.11539169565E+03  0.00000000000E+00 0. -1.
          1    1    1    2  502    0 -0.27535266646E+02 -0.12076584262E+02 -0.86919829213E+02  0.91973319539E+02  0.00000000000E+00 0. -1.
         -1    1    1    2    0  501  0.27535266646E+02  0.12076584262E+02 -0.17234092452E+02  0.34656150094E+02  0.00000000000E+00 0.  1.
</event>
<event>
 4    1  0.6729064E+001  0.2367901E+02  0.7546771E-02  0.1484143E+00
          2   -1    0    0  502    0  0.00000000000E+00  0.00000000000E+00  0.44362150221E+02  0.44362150221E+02  0.00000000000E+00 0. -1.
         -2   -1    0    0    0  501 -0.00000000000E+00 -0.00000000000E+00 -0.17516061013E+02  0.17516061013E+02  0.00000000000E+00 0.  1.
          1    1    1    2  502    0 -0.13829557162E+02 -0.19220786692E+02  0.29748546489E+02  0.38021984569E+02  0.00000000000E+00 0. -1.
         -1    1    1    2    0  501  0.13829557162E+02  0.19220786692E+02 -0.29024572809E+01  0.23856226664E+02  0.00000000000E+00 0.  1.
</event>
<event>
 4    1  0.6729064E+001  0.6831656E+02  0.7546771E-02  0.1233924E+00
          2   -1    0    0  502    0  0.00000000000E+00  0.00000000000E+00  0.91112050486E+03  0.91112050486E+03  0.00000000000E+00 0.  1.
         -2   -1    0    0    0  501 -0.00000000000E+00 -0.00000000000E+00 -0.11054146494E+02  0.11054146494E+02  0.00000000000E+00 0. -1.
          1    1    1    2  502    0  0.67705152662E+02 -0.91194762600E+01  0.11227124121E+03  0.13142292093E+03  0.00000000000E+00 0. -1.
         -1    1    1    2    0  501 -0.67705152662E+02  0.91194762600E+01  0.78779511716E+03  0.79075173042E+03  0.00000000000E+00 0.  1.
</event>
<event>
 4    1  0.6729064E+001  0.2513192E+02  0.7546771E-02  0.1467333E+00
          2   -1    0    0  502    0  0.00000000000E+00  0.00000000000E+00  0.42632880733E+02  0.42632880733E+02  0.00000000000E+00 0.  1.
         -2   -1    0    0    0  501 -0.00000000000E+00 -0.00000000000E+00 -0.14981892356E+02  0.14981892356E+02  0.00000000000E+00 0. -1.
          1    1    1    2  502    0 -0.82579616530E+01 -0.23736456402E+02  0.16864419060E+02  0.30265854083E+02  0.00000000000E+00 0.  1.
         -1    1    1    2    0  501  0.82579616530E+01  0.23736456402E+02  0.10786569317E+02  0.27348919006E+02  0.00000000000E+00 0. -1.
</event>
<event>
 4    1  0.6729064E+001  0.2555957E+02  0.7546771E-02  0.1462640E+00
          2   -1    0    0  502    0  0.00000000000E+00  0.00000000000E+00  0.17876292304E+03  0.17876292304E+03  0.00000000000E+00 0. -1.
         -2   -1    0    0    0  501 -0.00000000000E+00 -0.00000000000E+00 -0.56735051758E+01  0.56735051758E+01  0.00000000000E+00 0.  1.
          1    1    1    2  502    0 -0.57072962459E+01  0.24914219869E+02  0.31532611451E+02  0.40590604418E+02  0.00000000000E+00 0.  1.
         -1    1    1    2    0  501  0.57072962459E+01 -0.24914219869E+02  0.14155680641E+03  0.14384582379E+03  0.00000000000E+00 0. -1.
</event>
<event>
 4    1  0.6729064E+001  0.2152322E+02  0.7546771E-02  0.1511924E+00
          2   -1    0    0  502    0  0.00000000000E+00  0.00000000000E+00  0.26789075187E+01  0.26789075187E+01  0.00000000000E+00 0.  1.
         -2   -1    0    0    0  501 -0.00000000000E+00 -0.00000000000E+00 -0.32988541955E+03  0.32988541955E+03  0.00000000000E+00 0. -1.
          1    1    1    2  502    0  0.10529175549E+02  0.18771928120E+02 -0.27830230898E+03  0.27913334449E+03  0.00000000000E+00 0. -1.
         -1    1    1    2    0  501 -0.10529175549E+02 -0.18771928120E+02 -0.48904203048E+02  0.53430982574E+02  0.00000000000E+00 0.  1.
</event>
<event>
 4    1  0.6729064E+001  0.2032759E+02  0.7546771E-02  0.1529085E+00
          2   -1    0    0  502    0  0.00000000000E+00  0.00000000000E+00  0.25743898139E+03  0.25743898139E+03  0.00000000000E+00 0.  1.
         -2   -1    0    0    0  501 -0.00000000000E+00 -0.00000000000E+00 -0.39532087011E+01  0.39532087011E+01  0.00000000000E+00 0. -1.
          1    1    1    2  502    0 -0.52871229261E+01 -0.19627976136E+02  0.22747045374E+03  0.22837692187E+03  0.00000000000E+00 0.  1.
         -1    1    1    2    0  501  0.52871229261E+01  0.19627976136E+02  0.26015318950E+02  0.33015268227E+02  0.00000000000E+00 0. -1.
</event>
<event>
 4    1  0.6729064E+001  0.2165848E+02  0.7546771E-02  0.1510067E+00
          2   -1    0    0  502    0  0.00000000000E+00  0.00000000000E+00  0.32711180640E+02  0.32711180640E+02  0.00000000000E+00 0. -1.
         -2   -1    0    0    0  501 -0.00000000000E+00 -0.00000000000E+00 -0.18325835913E+02  0.18325835913E+02  0.00000000000E+00 0.  1.
          1    1    1    2  502    0 -0.13653175703E+02 -0.16813109785E+02  0.19093135929E+02  0.28872784885E+02  0.00000000000E+00 0. -1.
         -1    1    1    2    0  501  0.13653175703E+02  0.16813109785E+02 -0.47077912016E+01  0.22164231668E+02  0.00000000000E+00 0.  1.
</event>
<event>
 4    1  0.6729064E+001  0.4483497E+02  0.7546771E-02  0.1322267E+00
          2   -1    0    0  502    0  0.00000000000E+00  0.00000000000E+00  0.32287661801E+04  0.32287661801E+04  0.00000000000E+00 0. -1.
         -2   -1    0    0    0  501 -0.00000000000E+00 -0.00000000000E+00 -0.90584815258E+00  0.90584815258E+00  0.00000000000E+00 0.  1.
          1    1    1    2  502    0  0.16380161532E+02  0.41735654629E+02  0.25169502084E+04  0.25173495041E+04  0.00000000000E+00 0. -1.
         -1    1    1    2    0  501 -0.16380161532E+02 -0.41735654629E+02  0.71091012356E+03  0.71232252410E+03  0.00000000000E+00 0.  1.
</event>
<event>
 4    1  0.6729064E+001  0.2396973E+02  0.7546771E-02  0.1480667E+00
          2   -1    0    0  502    0  0.00000000000E+00  0.00000000000E+00  0.50061500883E+02  0.50061500883E+02  0.00000000000E+00 0.  1.
         -2   -1    0    0    0  501 -0.00000000000E+00 -0.00000000000E+00 -0.28587231957E+02  0.28587231957E+02  0.00000000000E+00 0. -1.
          1    1    1    2  502    0  0.22190857393E+02 -0.90616719869E+01 -0.19686115519E+02  0.31017594930E+02  0.00000000000E+00 0. -1.
         -1    1    1    2    0  501 -0.22190857393E+02  0.90616719869E+01  0.41160384445E+02  0.47631137911E+02  0.00000000000E+00 0.  1.
</event>
<event>
 4    1  0.6729064E+001  0.2531564E+02  0.7546771E-02  0.1465303E+00
          2   -1    0    0  502    0  0.00000000000E+00  0.00000000000E+00  0.72623065733E+02  0.72623065733E+02  0.00000000000E+00 0.  1.
         -2   -1    0    0    0  501 -0.00000000000E+00 -0.00000000000E+00 -0.92447407815E+01  0.92447407815E+01  0.00000000000E+00 0. -1.
          1    1    1    2  502    0  0.24778572436E+02 -0.51869158091E+01  0.22964551526E+02  0.34179707055E+02  0.00000000000E+00 0. -1.
         -1    1    1    2    0  501 -0.24778572436E+02  0.51869158091E+01  0.40413773425E+02  0.47688099459E+02  0.00000000000E+00 0.  1.
</event>
<event>
 4    1  0.6729064E+001  0.3356131E+02  0.7546771E-02  0.1390970E+00
          2   -1    0    0  502    0  0.00000000000E+00  0.00000000000E+00  0.15384181990E+01  0.15384181990E+01  0.00000000000E+00 0.  1.
         -2   -1    0    0    0  501 -0.00000000000E+00 -0.00000000000E+00 -0.95839710059E+03  0.95839710059E+03  0.00000000000E+00 0. -1.
          1    1    1    2  502    0 -0.20559755658E+02 -0.26526556855E+02 -0.24523109124E+03  0.24751696888E+03  0.00000000000E+00 0.  1.
         -1    1    1    2    0  501  0.20559755658E+02  0.26526556855E+02 -0.71162759115E+03  0.71241854991E+03  0.00000000000E+00 0. -1.
</event>
<event>
 4    1  0.6729064E+001  0.2567490E+02  0.7546771E-02  0.1461393E+00
          2   -1    0    0  502    0  0.00000000000E+00  0.00000000000E+00  0.33053748949E+03  0.33053748949E+03  0.00000000000E+00 0.  1.
         -2   -1    0    0    0  501 -0.00000000000E+00 -0.00000000000E+00 -0.21369036451E+01  0.21369036451E+01  0.00000000000E+00 0. -1.
          1    1    1    2  502    0  0.12899499820E+02  0.22199175473E+02  0.20716561977E+03  0.20875055570E+03  0.00000000000E+00 0.  1.
         -1    1    1    2    0  501 -0.12899499820E+02 -0.22199175473E+02  0.12123496607E+03  0.12392383744E+03  0.00000000000E+00 0. -1.
</event>
<event>
 4    1  0.6729064E+001  0.2400401E+02  0.7546771E-02  0.1480261E+00
          2   -1    0    0  502    0  0.00000000000E+00  0.00000000000E+00  0.32724759880E+02  0.32724759880E+02  0.00000000000E+00 0.  1.
         -2   -1    0    0    0  501 -0.00000000000E+00 -0.00000000000E+00 -0.23450439293E+02  0.23450439293E+02  0.00000000000E+00 0. -1.
          1    1    1    2  502    0 -0.20873652414E+02 -0.11852553031E+02 -0.93833832288E+01  0.25772858966E+02  0.00000000000E+00 0. -1.
         -1    1    1    2    0  501  0.20873652414E+02  0.11852553031E+02  0.18657703815E+02  0.30402340208E+02  0.00000000000E+00 0.  1.
</event>
<event>
 4    1  0.6729064E+001  0.2555195E+02  0.7546771E-02  0.1462723E+00
          2   -1    0    0  502    0  0.00000000000E+00  0.00000000000E+00  0.33505415528E+02  0.33505415528E+02  0.00000000000E+00 0. -1.
         -2   -1    0    0    0  501 -0.00000000000E+00 -0.00000000000E+00 -0.20723155433E+02  0.20723155433E+02  0.00000000000E+00 0.  1.
          1    1    1    2  502    0 -0.24789517419E+02 -0.61953007575E+01  0.13014845612E+02  0.28675566806E+02  0.00000000000E+00 0. -1.
         -1    1    1    2    0  501  0.24789517419E+02  0.61953007575E+01 -0.23258551726E+00  0.25553004155E+02  0.00000000000E+00 0.  1.
</event>
<event>
 4    1  0.6729064E+001  0.6557959E+02  0.7546771E-02  0.1241969E+00
          2   -1    0    0  502    0  0.00000000000E+00  0.00000000000E+00  0.15402873640E+03  0.15402873640E+03  0.00000000000E+00 0. -1.
         -2   -1    0    0    0  501 -0.00000000000E+00 -0.00000000000E+00 -0.44886552610E+02  0.44886552610E+02  0.00000000000E+00 0.  1.
          1    1    1    2  502    0 -0.31045752390E+02 -0.57765425647E+02 -0.65737970133E+01  0.65908254027E+02  0.00000000000E+00 0.  1.
         -1    1    1    2    0  501  0.31045752390E+02  0.57765425647E+02  0.11571598081E+03  0.13300703499E+03  0.00000000000E+00 0. -1.
</event>
<event>
 4    1  0.6729064E+001  0.7607151E+02  0.7546771E-02  0.1213274E+00
          2   -1    0    0  502    0  0.00000000000E+00  0.00000000000E+00  0.23643096419E+04  0.23643096419E+04  0.00000000000E+00 0. -1.
         -2   -1    0    0    0  501 -0.00000000000E+00 -0.00000000000E+00 -0.27753887160E+01  0.27753887160E+01  0.00000000000E+00 0.  1.
          1    1    1    2  502    0 -0.17962497579E+02 -0.73920381111E+02  0.15875117458E+04  0.15893333248E+04  0.00000000000E+00 0. -1.
         -1    1    1    2    0  501  0.17962497579E+02  0.73920381111E+02  0.77402250741E+03  0.77775170590E+03  0.00000000000E+00 0.  1.
</event>
<event>
 4    1  0.6729064E+001  0.2592157E+02  0.7546771E-02  0.1458753E+00
          2   -1    0    0  502    0  0.00000000000E+00  0.00000000000E+00  0.19414152184E+04  0.19414152184E+04  0.00000000000E+00 0.  1.
         -2   -1    0    0    0  501 -0.00000000000E+00 -0.00000000000E+00 -0.42511868203E+00  0.42511868203E+00  0.00000000000E+00 0. -1.
          1    1    1    2  502    0  0.66282395295E+01 -0.25059812168E+02  0.55190611505E+03  0.55251451345E+03  0.00000000000E+00 0.  1.
         -1    1    1    2    0  501 -0.66282395295E+01  0.25059812168E+02  0.13890839847E+04  0.13893258236E+04  0.00000000000E+00 0. -1.
</event>
<event>
 4    1  0.6729064E+001  0.2770903E+02  0.7546771E-02  0.1440613E+00
          2   -1    0    0  502    0  0.00000000000E+00  0.00000000000E+00  0.71514119013E+02  0.71514119013E+02  0.00000000000E+00 0. -1.
         -2   -1    0    0    0  501 -0.00000000000E+00 -0.00000000000E+00 -0.10736357412E+02  0.10736357412E+02  0.00000000000E+00 0.  1.
          1    1    1    2  502    0  0.26473412198E+02  0.81822271405E+01  0.30542743989E+02  0.41238933119E+02  0.00000000000E+00 0.  1.
         -1    1    1    2    0  501 -0.26473412198E+02 -0.81822271405E+01  0.30235017611E+02  0.41011543306E+02  0.00000000000E+00 0. -1.
</event>
<event>
 4    1  0.6729064E+001  0.2706132E+02  0.7546771E-02  0.1446993E+00
          2   -1    0    0  502    0  0.00000000000E+00  0.00000000000E+00  0.17689840112E+03  0.17689840112E+03  0.00000000000E+00 0.  1.
         -2   -1    0    0    0  501 -0.00000000000E+00 -0.00000000000E+00 -0.54940625840E+01  0.54940625840E+01  0.00000000000E+00 0. -1.
          1    1    1    2  502    0  0.26031082180E+02 -0.73957866609E+01  0.40423903731E+02  0.48645728411E+02  0.00000000000E+00 0. -1.
         -1    1    1    2    0  501 -0.26031082180E+02  0.73957866609E+01  0.13098043481E+03  0.13374673530E+03  0.00000000000E+00 0.  1.
</event>
<event>
 4    1  0.6729064E+001  0.2502329E+02  0.7546771E-02  0.1468543E+00
          2   -1    0    0  502    0  0.00000000000E+00  0.00000000000E+00  0.46842930915E+03  0.46842930915E+03  0.00000000000E+00 0. -1.
         -2   -1    0    0    0  501 -0.00000000000E+00 -0.00000000000E+00 -0.13713764555E+01  0.13713764555E+01  0.00000000000E+00 0.  1.
          1    1    1    2  502    0  0.65484296305E+01  0.24151258632E+02  0.19619434243E+03  0.19778368291E+03  0.00000000000E+00 0. -1.
         -1    1    1    2    0  501 -0.65484296305E+01 -0.24151258632E+02  0.27086359026E+03  0.27201700269E+03  0.00000000000E+00 0.  1.
</event>
<event>
 4    1  0.6729064E+001  0.2003656E+02  0.7546771E-02  0.1533478E+00
          2   -1    0    0  502    0  0.00000000000E+00  0.00000000000E+00  0.57968280826E+00  0.57968280826E+00  0.00000000000E+00 0. -1.
         -2   -1    0    0    0  501 -0.00000000000E+00 -0.00000000000E+00 -0.90290718726E+03  0.90290718726E+03  0.00000000000E+00 0.  1.
          1    1    1    2  502    0 -0.93355641947E+01 -0.17728815036E+02 -0.23312118204E+03  0.23398065980E+03  0.00000000000E+00 0. -1.
         -1    1    1    2    0  501  0.93355641947E+01  0.17728815036E+02 -0.66920632241E+03  0.66950621027E+03  0.00000000000E+00 0.  1.
</event>
<event>
 4    1  0.6729064E+001  0.2057486E+02  0.7546771E-02  0.1525422E+00
          2   -1    0    0  502    0  0.00000000000E+00  0.00000000000E+00  0.41668430638E+02  0.41668430638E+02  0.00000000000E+00 0. -1.
         -2   -1    0    0    0  501 -0.00000000000E+00 -0.00000000000E+00 -0.25409397988E+02  0.25409397988E+02  0.00000000000E+00 0.  1.
          1    1    1    2  502    0  0.15140782095E+02 -0.13931323154E+02 -0.17853353517E+02  0.27240911862E+02  0.00000000000E+00 0.  1.
         -1    1    1    2    0  501 -0.15140782095E+02  0.13931323154E+02  0.34112386167E+02  0.39836916764E+02  0.00000000000E+00 0. -1.
</event>
<event>
 4    1  0.6729064E+001  0.4367239E+02  0.7546771E-02  0.1328213E+00
          2   -1    0    0  502    0  0.00000000000E+00  0.00000000000E+00  0.11840386656E+04  0.11840386656E+04  0.00000000000E+00 0. -1.
         -2   -1    0    0    0  501 -0.00000000000E+00 -0.00000000000E+00 -0.68107060747E+01  0.68107060747E+01  0.00000000000E+00 0.  1.
          1    1    1    2  502    0 -0.40884614899E+02  0.15353369312E+02  0.68345491777E+02  0.81107237229E+02  0.00000000000E+00 0.  1.
         -1    1    1    2    0  501  0.40884614899E+02 -0.15353369312E+02  0.11088824678E+04  0.11097421345E+04  0.00000000000E+00 0. -1.
</event>
<event>
 4    1  0.6729064E+001  0.2039344E+02  0.7546771E-02  0.1528104E+00
          2   -1    0    0  502    0  0.00000000000E+00  0.00000000000E+00  0.20612347103E+03  0.20612347103E+03  0.00000000000E+00 0.  1.
         -2   -1    0    0    0  501 -0.00000000000E+00 -0.00000000000E+00 -0.46812336669E+01  0.46812336669E+01  0.00000000000E+00 0. -1.
          1    1    1    2  502    0  0.20342524744E+02  0.14401854665E+01  0.21215031947E+02  0.29427368683E+02  0.00000000000E+00 0. -1.
         -1    1    1    2    0  501 -0.20342524744E+02 -0.14401854665E+01  0.18022720542E+03  0.18137733601E+03  0.00000000000E+00 0.  1.
</event>
<event>
 4    1  0.6729064E+001  0.3960517E+02  0.7546771E-02  0.1350815E+00
          2   -1    0    0  502    0  0.00000000000E+00  0.00000000000E+00  0.73345229348E+03  0.73345229348E+03  0.00000000000E+00 0. -1.
         -2   -1    0    0    0  501 -0.00000000000E+00 -0.00000000000E+00 -0.25703069561E+01  0.25703069561E+01  0.00000000000E+00 0.  1.
          1    1    1    2  502    0 -0.18251640590E+02 -0.35148928131E+02  0.51626045319E+03  0.51777738948E+03  0.00000000000E+00 0. -1.
         -1    1    1    2    0  501  0.18251640590E+02  0.35148928131E+02  0.21462153334E+03  0.21824521096E+03  0.00000000000E+00 0.  1.
</event>
<event>
 4    1  0.6729064E+001  0.2162739E+02  0.7546771E-02  0.1510493E+00
          2   -1    0    0  502    0  0.00000000000E+00  0.00000000000E+00  0.11437398642E+04  0.11437398642E+04  0.00000000000E+00 0.  1.
         -2   -1    0    0    0  501 -0.00000000000E+00 -0.00000000000E+00 -0.44904614914E+00  0.44904614914E+00  0.00000000000E+00 0. -1.
          1    1    1    2  502    0  0.11699825125E+01 -0.21595722973E+02  0.74257537714E+03  0.74289025761E+03  0.00000000000E+00 0.  1.
         -1    1    1    2    0  501 -0.11699825125E+01  0.21595722973E+02  0.40071544087E+03  0.40129865270E+03  0.00000000000E+00 0. -1.
</event>
<event>
 4    1  0.6729064E+001  0.2853380E+02  0.7546771E-02  0.1432781E+00
          2   -1    0    0  502    0  0.00000000000E+00  0.00000000000E+00  0.99640643706E+03  0.99640643706E+03  0.00000000000E+00 0.  1.
         -2   -1    0    0    0  501 -0.00000000000E+00 -0.00000000000E+00 -0.90047014565E+00  0.90047014565E+00  0.00000000000E+00 0. -1.
          1    1    1    2  502    0 -0.25149604037E+02 -0.13478683600E+02  0.34603628322E+03  0.34721072391E+03  0.00000000000E+00 0. -1.
         -1    1    1    2    0  501  0.25149604037E+02  0.13478683600E+02  0.64946968370E+03  0.65009618330E+03  0.00000000000E+00 0.  1.
</event>
<event>
 4    1  0.6729064E+001  0.2709896E+02  0.7546771E-02  0.1446617E+00
          2   -1    0    0  502    0  0.00000000000E+00  0.00000000000E+00  0.10836146483E+04  0.10836146483E+04  0.00000000000E+00 0.  1.
         -2   -1    0    0    0  501 -0.00000000000E+00 -0.00000000000E+00 -0.67786729529E+00  0.67786729529E+00  0.00000000000E+00 0. -1.
          1    1    1    2  502    0  0.12061256045E+02  0.24266849462E+02  0.55025744759E+03  0.55092432557E+03  0.00000000000E+00 0.  1.
         -1    1    1    2    0  501 -0.12061256045E+02 -0.24266849462E+02  0.53267933344E+03  0.53336819005E+03  0.00000000000E+00 0. -1.
</event>
<event>
 4    1  0.6729064E+001  0.3366685E+02  0.7546771E-02  0.1390186E+00
          2   -1    0    0  502    0  0.00000000000E+00  0.00000000000E+00  0.23548605296E+01  0.23548605296E+01  0.00000000000E+00 0.  1.
         -2   -1    0    0    0  501 -0.00000000000E+00 -0.00000000000E+00 -0.48204855342E+03  0.48204855342E+03  0.00000000000E+00 0. -1.
          1    1    1    2  502    0  0.21017155611E+02  0.26300869226E+02 -0.23047241016E+03  0.23291841575E+03  0.00000000000E+00 0. -1.
         -1    1    1    2    0  501 -0.21017155611E+02 -0.26300869226E+02 -0.24922128273E+03  0.25148499820E+03  0.00000000000E+00 0.  1.
</event>
<event>
 4    1  0.6729064E+001  0.2169307E+02  0.7546771E-02  0.1509595E+00
          2   -1    0    0  502    0  0.00000000000E+00  0.00000000000E+00  0.10629672646E+02  0.10629672646E+02  0.00000000000E+00 0. -1.
         -2   -1    0    0    0  501 -0.00000000000E+00 -0.00000000000E+00 -0.61013765066E+02  0.61013765066E+02  0.00000000000E+00 0.  1.
          1    1    1    2  502    0 -0.17032398771E+02 -0.13434528871E+02 -0.64273076755E+01  0.22625195200E+02  0.00000000000E+00 0. -1.
         -1    1    1    2    0  501  0.17032398771E+02  0.13434528871E+02 -0.43956784744E+02  0.49018242512E+02  0.00000000000E+00 0.  1.
</event>
<event>
 4    1  0.6729064E+001  0.2363339E+02  0.7546771E-02  0.1484694E+00
          2   -1    0    0  502    0  0.00000000000E+00  0.00000000000E+00  0.71928060643E+03  0.71928060643E+03  0.00000000000E+00 0. -1.
         -2   -1    0    0    0  501 -0.00000000000E+00 -0.00000000000E+00 -0.17317293975E+01  0.17317293975E+01  0.00000000000E+00 0.  1.
          1    1    1    2  502    0  0.12029846960E+02  0.20342568471E+02  0.91029362084E+02  0.94047233193E+02  0.00000000000E+00 0.  1.
         -1    1    1    2    0  501 -0.12029846960E+02 -0.20342568471E+02  0.62651951495E+03  0.62696510263E+03  0.00000000000E+00 0. -1.
</event>
<event>
 4    1  0.6729064E+001  0.5544267E+02  0.7546771E-02  0.1276156E+00
          2   -1    0    0  502    0  0.00000000000E+00  0.00000000000E+00  0.46308765742E+03  0.46308765742E+03  0.00000000000E+00 0. -1.
         -2   -1    0    0    0  501 -0.00000000000E+00 -0.00000000000E+00 -0.74812902504E+01  0.74812902504E+01  0.00000000000E+00 0.  1.
          1    1    1    2  502    0 -0.94055127539E+01  0.54639049318E+02  0.30680583085E+03  0.31177509077E+03  0.00000000000E+00 0. -1.
         -1    1    1    2    0  501  0.94055127539E+01 -0.54639049318E+02  0.14880053632E+03  0.15879385690E+03  0.00000000000E+00 0.  1.
</event>
<event>
 4    1  0.6729064E+001  0.2038193E+02  0.7546771E-02  0.1528275E+00
          2   -1    0    0  502    0  0.00000000000E+00  0.00000000000E+00  0.40972105408E+02  0.40972105408E+02  0.00000000000E+00 0.  1.
         -2   -1    0    0    0  501 -0.00000000000E+00 -0.00000000000E+00 -0.10508250765E+02  0.10508250765E+02  0.00000000000E+00 0. -1.
          1    1    1    2  502    0 -0.87570535921E+01  0.18404816659E+02  0.20055904995E+02  0.28594800035E+02  0.00000000000E+00 0.  1.
         -1    1    1    2    0  501  0.87570535921E+01 -0.18404816659E+02  0.10407949648E+02  0.22885556138E+02  0.00000000000E+00 0. -1.
</event>
<event>
 4    1  0.6729064E+001  0.2879964E+02  0.7546771E-02  0.1430322E+00
          2   -1    0    0  502    0  0.00000000000E+00  0.00000000000E+00  0.25654322672E+03  0.25654322672E+03  0.00000000000E+00 0. -1.
         -2   -1    0    0    0  501 -0.00000000000E+00 -0.00000000000E+00 -0.35311142888E+01  0.35311142888E+01  0.00000000000E+00 0.  1.
          1    1    1    2  502    0  0.28621450185E+02  0.31987363189E+01  0.88726207018E+02  0.93283220016E+02  0.00000000000E+00 0. -1.
         -1    1    1    2    0  501 -0.28621450185E+02 -0.31987363189E+01  0.16428590541E+03  0.16679112099E+03  0.00000000000E+00 0.  1.
</event>
<event>
 4    1  0.6729064E+001  0.2338629E+02  0.7546771E-02  0.1487704E+00
          2   -1    0    0  502    0  0.00000000000E+00  0.00000000000E+00  0.18830320901E+02  0.18830320901E+02  0.00000000000E+00 0. -1.
         -2   -1    0    0    0  501 -0.00000000000E+00 -0.00000000000E+00 -0.57222727035E+02  0.57222727035E+02  0.00000000000E+00 0.  1.
          1    1    1    2  502    0 -0.32630099412E+01  0.23157529972E+02 -0.45880680638E+02  0.51497138601E+02  0.00000000000E+00 0.  1.
         -1    1    1    2    0  501  0.32630099412E+01 -0.23157529972E+02  0.74882745035E+01  0.24555909336E+02  0.00000000000E+00 0. -1.
</event>
<event>
 4    1  0.6729064E+001  0.2268251E+02  0.7546771E-02  0.1496524E+00
          2   -1    0    0  502    0  0.00000000000E+00  0.00000000000E+00  0.31582695488E+02  0.31582695488E+02  0.00000000000E+00 0. -1.
         -2   -1    0    0    0  501 -0.00000000000E+00 -0.00000000000E+00 -0.38026213807E+02  0.38026213807E+02  0.00000000000E+00 0.  1.
          1    1    1    2  502    0 -0.34647321938E+01 -0.22416334057E+02  0.23091868075E+02  0.32368669619E+02  0.00000000000E+00 0. -1.
         -1    1    1    2    0  501  0.34647321938E+01  0.22416334057E+02 -0.29535386393E+02  0.37240239676E+02  0.00000000000E+00 0.  1.
</event>
<event>
 4    1  0.6729064E+001  0.1055516E+03  0.7546771E-02  0.1154521E+00
          2   -1    0    0  502    0  0.00000000000E+00  0.00000000000E+00  0.10419849232E+04  0.10419849232E+04  0.00000000000E+00 0. -1.
         -2   -1    0    0    0  501 -0.00000000000E+00 -0.00000000000E+00 -0.11795097476E+02  0.11795097476E+02  0.00000000000E+00 0.  1.
          1    1    1    2  502    0 -0.10467795665E+01 -0.10554642642E+03  0.67620791622E+03  0.68439629590E+03  0.00000000000E+00 0. -1.
         -1    1    1    2    0  501  0.10467795665E+01  0.10554642642E+03  0.35398190951E+03  0.36938372479E+03  0.00000000000E+00 0.  1.
</event>
<event>
 4    1  0.6729064E+001  0.2692789E+02  0.7546771E-02  0.1448334E+00
          2   -1    0    0  502    0  0.00000000000E+00  0.00000000000E+00  0.51161202232E+03  0.51161202232E+03  0.00000000000E+00 0. -1.
         -2   -1    0    0    0  501 -0.00000000000E+00 -0.00000000000E+00 -0.25128704824E+01  0.25128704824E+01  0.00000000000E+00 0.  1.
          1    1    1    2  502    0  0.15516158669E+02  0.22008180063E+02  0.42428496823E+03  0.42513861909E+03  0.00000000000E+00 0. -1.
         -1    1    1    2    0  501 -0.15516158669E+02 -0.22008180063E+02  0.84814183604E+02  0.88986273716E+02  0.00000000000E+00 0.  1.
</event>
<event>
 4    1  0.6729064E+001  0.3951383E+02  0.7546771E-02  0.1351359E+00
          2   -1    0    0  502    0  0.00000000000E+00  0.00000000000E+00  0.67455567205E+03  0.67455567205E+03  0.00000000000E+00 0.  1.
         -2   -1    0    0    0  501 -0.00000000000E+00 -0.00000000000E+00 -0.23555292539E+01  0.23555292539E+01  0.00000000000E+00 0. -1.
          1    1    1    2  502    0 -0.31110193952E+02 -0.24361819446E+02  0.29149855503E+03  0.29416449480E+03  0.00000000000E+00 0. -1.
         -1    1    1    2    0  501  0.31110193952E+02  0.24361819446E+02  0.38070158776E+03  0.38274670650E+03  0.00000000000E+00 0.  1.
</event>
<event>
 4    1  0.6729064E+001  0.4055443E+02  0.7546771E-02  0.1345267E+00
          2   -1    0    0  502    0  0.00000000000E+00  0.00000000000E+00  0.71216178605E+03  0.71216178605E+03  0.00000000000E+00 0.  1.
         -2   -1    0    0    0  501 -0.00000000000E+00 -0.00000000000E+00 -0.28651465620E+01  0.28651465620E+01  0.00000000000E+00 0. -1.
          1    1    1    2  502    0  0.40222844163E+02  0.51753519513E+01  0.51210464145E+03  0.51370791823E+03  0.00000000000E+00 0.  1.
         -1    1    1    2    0  501 -0.40222844163E+02 -0.51753519513E+01  0.19719199804E+03  0.20131901438E+03  0.00000000000E+00 0. -1.
</event>
<event>
 4    1  0.6729064E+001  0.8855911E+02  0.7546771E-02  0.1185261E+00
          2   -1    0    0  502    0  0.00000000000E+00  0.00000000000E+00  0.16930785719E+03  0.16930785719E+03  0.00000000000E+00 0.  1.
         -2   -1    0    0    0  501 -0.00000000000E+00 -0.00000000000E+00 -0.61832592636E+02  0.61832592636E+02  0.00000000000E+00 0. -1.
          1    1    1    2  502    0  0.40495741477E+01  0.88466471396E+02 -0.41450119027E+01  0.88656058652E+02  0.00000000000E+00 0. -1.
         -1    1    1    2    0  501 -0.40495741477E+01 -0.88466471396E+02  0.11162027646E+03  0.14248439118E+03  0.00000000000E+00 0.  1.
</event>
<event>
 4    1  0.6729064E+001  0.2654872E+02  0.7546771E-02  0.1452195E+00
          2   -1    0    0  502    0  0.00000000000E+00  0.00000000000E+00  0.19487169536E+03  0.19487169536E+03  0.00000000000E+00 0.  1.
         -2   -1    0    0    0  501 -0.00000000000E+00 -0.00000000000E+00 -0.15153410782E+02  0.15153410782E+02  0.00000000000E+00 0. -1.
          1    1    1    2  502    0 -0.14445492695E+02 -0.22274696573E+02 -0.17677536216E+01  0.26607504947E+02  0.00000000000E+00 0. -1.
         -1    1    1    2    0  501  0.14445492695E+02  0.22274696573E+02  0.18148603820E+03  0.18341760120E+03  0.00000000000E+00 0.  1.
</event>
<event>
 4    1  0.6729064E+001  0.2139434E+02  0.7546771E-02  0.1513709E+00
          2   -1    0    0  502    0  0.00000000000E+00  0.00000000000E+00  0.45829521005E+01  0.45829521005E+01  0.00000000000E+00 0.  1.
         -2   -1    0    0    0  501 -0.00000000000E+00 -0.00000000000E+00 -0.12351396439E+03  0.12351396439E+03  0.00000000000E+00 0. -1.
          1    1    1    2  502    0  0.18520800820E+02  0.10709702908E+02 -0.87485883234E+02  0.90063852708E+02  0.00000000000E+00 0. -1.
         -1    1    1    2    0  501 -0.18520800820E+02 -0.10709702908E+02 -0.31445129058E+02  0.38033063785E+02  0.00000000000E+00 0.  1.
</event>
<event>
 4    1  0.6729064E+001  0.2322479E+02  0.7546771E-02  0.1489695E+00
          2   -1    0    0  502    0  0.00000000000E+00  0.00000000000E+00  0.15125069127E+04  0.15125069127E+04  0.00000000000E+00 0.  1.
         -2   -1    0    0    0  501 -0.00000000000E+00 -0.00000000000E+00 -0.35947553001E+00  0.35947553001E+00  0.00000000000E+00 0. -1.
          1    1    1    2  502    0  0.17251501911E+02  0.15549163052E+02  0.68865967370E+03  0.68905118603E+03  0.00000000000E+00 0.  1.
         -1    1    1    2    0  501 -0.17251501911E+02 -0.15549163052E+02  0.82348776348E+03  0.82381520221E+03  0.00000000000E+00 0. -1.
</event>
<event>
 4    1  0.6729064E+001  0.2591290E+02  0.7546771E-02  0.1458845E+00
          2   -1    0    0  502    0  0.00000000000E+00  0.00000000000E+00  0.14089587912E+04  0.14089587912E+04  0.00000000000E+00 0. -1.
         -2   -1    0    0    0  501 -0.00000000000E+00 -0.00000000000E+00 -0.48035496548E+00  0.48035496548E+00  0.00000000000E+00 0.  1.
          1    1    1    2  502    0  0.24187297323E+02  0.92979998832E+01  0.76673224432E+03  0.76717000243E+03  0.00000000000E+00 0. -1.
         -1    1    1    2    0  501 -0.24187297323E+02 -0.92979998832E+01  0.64174619193E+03  0.64226914375E+03  0.00000000000E+00 0.  1.
</event>
<event>
 4    1  0.6729064E+001  0.2202336E+02  0.7546771E-02  0.1505140E+00
          2   -1    0    0  502    0  0.00000000000E+00  0.00000000000E+00  0.62001138972E+02  0.62001138972E+02  0.00000000000E+00 0.  1.
         -2   -1    0    0    0  501 -0.00000000000E+00 -0.00000000000E+00 -0.91702991844E+01  0.91702991844E+01  0.00000000000E+00 0. -1.
          1    1    1    2  502    0  0.37310980583E+01 -0.21705006740E+02  0.40056002276E+02  0.45711177283E+02  0.00000000000E+00 0.  1.
         -1    1    1    2    0  501 -0.37310980583E+01  0.21705006740E+02  0.12774837512E+02  0.25460260873E+02  0.00000000000E+00 0. -1.
</event>
<event>
 4    1  0.6729064E+001  0.3604171E+02  0.7546771E-02  0.1373384E+00
          2   -1    0    0  502    0  0.00000000000E+00  0.00000000000E+00  0.11937572571E+03  0.11937572571E+03  0.00000000000E+00 0. -1.
         -2   -1    0    0    0  501 -0.00000000000E+00 -0.00000000000E+00 -0.10949964606E+02  0.10949964606E+02  0.00000000000E+00 0.  1.
          1    1    1    2  502    0 -0.22229811744E+02  0.28369712667E+02  0.59359754189E+02  0.69444838141E+02  0.00000000000E+00 0.  1.
         -1    1    1    2    0  501  0.22229811744E+02 -0.28369712667E+02  0.49066006918E+02  0.60880852177E+02  0.00000000000E+00 0. -1.
</event>
<event>
 4    1  0.6729064E+001  0.6089554E+02  0.7546771E-02  0.1256820E+00
          2   -1    0    0  502    0  0.00000000000E+00  0.00000000000E+00  0.23234001566E+02  0.23234001566E+02  0.00000000000E+00 0. -1.
         -2   -1    0    0    0  501 -0.00000000000E+00 -0.00000000000E+00 -0.17190326235E+03  0.17190326235E+03  0.00000000000E+00 0.  1.
          1    1    1    2  502    0 -0.60805308673E+02  0.33138700125E+01 -0.48237868057E+02  0.77686287155E+02  0.00000000000E+00 0. -1.
         -1    1    1    2    0  501  0.60805308673E+02 -0.33138700125E+01 -0.10043139273E+03  0.11745097676E+03  0.00000000000E+00 0.  1.
</event>
<event>
 4    1  0.6729064E+001  0.2266231E+02  0.7546771E-02  0.1496783E+00
          2   -1    0    0  502    0  0.00000000000E+00  0.00000000000E+00  0.22183400964E+03  0.22183400964E+03  0.00000000000E+00 0.  1.
         -2   -1    0    0    0  501 -0.00000000000E+00 -0.00000000000E+00 -0.23206331729E+01  0.23206331729E+01  0.00000000000E+00 0. -1.
          1    1    1    2  502    0  0.21894346838E+02 -0.58495853150E+01  0.11520222083E+03  0.11741010074E+03  0.00000000000E+00 0.  1.
         -1    1    1    2    0  501 -0.21894346838E+02  0.58495853150E+01  0.10431115563E+03  0.10674454207E+03  0.00000000000E+00 0. -1.
</event>
<event>
 4    1  0.6729064E+001  0.2525689E+02  0.7546771E-02  0.1465950E+00
          2   -1    0    0  502    0  0.00000000000E+00  0.00000000000E+00  0.39292689012E+01  0.39292689012E+01  0.00000000000E+00 0. -1.
         -2   -1    0    0    0  501 -0.00000000000E+00 -0.00000000000E+00 -0.16510182899E+03  0.16510182899E+03  0.00000000000E+00 0.  1.
          1    1    1    2  502    0  0.18243134763E+02  0.17467065721E+02 -0.69671851699E+02  0.74108550587E+02  0.00000000000E+00 0. -1.
         -1    1    1    2    0  501 -0.18243134763E+02 -0.17467065721E+02 -0.91500708386E+02  0.94922547301E+02  0.00000000000E+00 0.  1.
</event>
<event>
 4    1  0.6729064E+001  0.5623686E+02  0.7546771E-02  0.1273184E+00
          2   -1    0    0  502    0  0.00000000000E+00  0.00000000000E+00  0.91525441686E+03  0.91525441686E+03  0.00000000000E+00 0. -1.
         -2   -1    0    0    0  501 -0.00000000000E+00 -0.00000000000E+00 -0.29992268480E+02  0.29992268480E+02  0.00000000000E+00 0.  1.
          1    1    1    2  502    0  0.34669008732E+02 -0.44279156667E+02 -0.19338792599E+01  0.56270096593E+02  0.00000000000E+00 0.  1.
         -1    1    1    2    0  501 -0.34669008732E+02  0.44279156667E+02  0.88719602764E+03  0.88897658874E+03  0.00000000000E+00 0. -1.
</event>
<event>
 4    1  0.6729064E+001  0.2035635E+02  0.7546771E-02  0.1528656E+00
          2   -1    0    0  502    0  0.00000000000E+00  0.00000000000E+00  0.34702608975E+03  0.34702608975E+03  0.00000000000E+00 0.  1.
         -2   -1    0    0    0  501 -0.00000000000E+00 -0.00000000000E+00 -0.15724410143E+01  0.15724410143E+01  0.00000000000E+00 0. -1.
          1    1    1    2  502    0 -0.20067641251E+02  0.34162216946E+01  0.25822466461E+03  0.25902578676E+03  0.00000000000E+00 0.  1.
         -1    1    1    2    0  501  0.20067641251E+02 -0.34162216946E+01  0.87228984131E+02  0.89572744005E+02  0.00000000000E+00 0. -1.
</event>
<event>
 4    1  0.6729064E+001  0.3013590E+02  0.7546771E-02  0.1418419E+00
          2   -1    0    0  502    0  0.00000000000E+00  0.00000000000E+00  0.22929127241E+04  0.22929127241E+04  0.00000000000E+00 0.  1.
         -2   -1    0    0    0  501 -0.00000000000E+00 -0.00000000000E+00 -0.40246216528E+00  0.40246216528E+00  0.00000000000E+00 0. -1.
          1    1    1    2  502    0 -0.91611858754E+01  0.28709674989E+02  0.10018388417E+04  0.10022919922E+04  0.00000000000E+00 0. -1.
         -1    1    1    2    0  501  0.91611858754E+01 -0.28709674989E+02  0.12906714202E+04  0.12910231941E+04  0.00000000000E+00 0.  1.
</event>
<event>
 4    1  0.6729064E+001  0.2858698E+02  0.7546771E-02  0.1432286E+00
          2   -1    0    0  502    0  0.00000000000E+00  0.00000000000E+00  0.18884781315E+01  0.18884781315E+01  0.00000000000E+00 0. -1.
         -2   -1    0    0    0  501 -0.00000000000E+00 -0.00000000000E+00 -0.70109262317E+03  0.70109262317E+03  0.00000000000E+00 0.  1.
          1    1    1    2  502    0 -0.20407288711E+02  0.20018946972E+02 -0.56706275383E+03  0.56778286558E+03  0.00000000000E+00 0.  1.
         -1    1    1    2    0  501  0.20407288711E+02 -0.20018946972E+02 -0.13214139121E+03  0.13519823571E+03  0.00000000000E+00 0. -1.
</event>
<event>
 4    1  0.6729064E+001  0.3327732E+02  0.7546771E-02  0.1393096E+00
          2   -1    0    0  502    0  0.00000000000E+00  0.00000000000E+00  0.14023211742E+02  0.14023211742E+02  0.00000000000E+00 0. -1.
         -2   -1    0    0    0  501 -0.00000000000E+00 -0.00000000000E+00 -0.12233474518E+03  0.12233474518E+03  0.00000000000E+00 0.  1.
          1    1    1    2  502    0  0.30141438938E+02 -0.14102256723E+02 -0.13562334028E+02  0.35934897944E+02  0.00000000000E+00 0. -1.
         -1    1    1    2    0  501 -0.30141438938E+02  0.14102256723E+02 -0.94749199409E+02  0.10042305898E+03  0.00000000000E+00 0.  1.
</event>
<event>
 4    1  0.6729064E+001  0.2394134E+02  0.7546771E-02  0.1481004E+00
          2   -1    0    0  502    0  0.00000000000E+00  0.00000000000E+00  0.88027839901E+02  0.88027839901E+02  0.00000000000E+00 0. -1.
         -2   -1    0    0    0  501 -0.00000000000E+00 -0.00000000000E+00 -0.66148344689E+01  0.66148344689E+01  0.00000000000E+00 0.  1.
          1    1    1    2  502    0 -0.20555528771E+02 -0.12274278527E+02  0.46622852458E+02  0.52410667309E+02  0.00000000000E+00 0. -1.
         -1    1    1    2    0  501  0.20555528771E+02  0.12274278527E+02  0.34790152974E+02  0.42232007061E+02  0.00000000000E+00 0.  1.
</event>
<event>
 4    1  0.6729064E+001  0.2008677E+02  0.7546771E-02  0.1532713E+00
          2   -1    0    0  502    0  0.00000000000E+00  0.00000000000E+00  0.30361769952E+03  0.30361769952E+03  0.00000000000E+00 0. -1.
         -2   -1    0    0    0  501 -0.00000000000E+00 -0.00000000000E+00 -0.13786316829E+01  0.13786316829E+01  0.00000000000E+00 0.  1.
          1    1    1    2  502    0 -0.93317902815E+01 -0.17787522313E+02  0.12215630229E+03  0.12379677076E+03  0.00000000000E+00 0.  1.
         -1    1    1    2    0  501  0.93317902815E+01  0.17787522313E+02  0.18008276555E+03  0.18119956045E+03  0.00000000000E+00 0. -1.
</event>
<event>
 4    1  0.6729064E+001  0.2568374E+02  0.7546771E-02  0.1461298E+00
          2   -1    0    0  502    0  0.00000000000E+00  0.00000000000E+00  0.61140329858E+01  0.61140329858E+01  0.00000000000E+00 0.  1.
         -2   -1    0    0    0  501 -0.00000000000E+00 -0.00000000000E+00 -0.10942203333E+03  0.10942203333E+03  0.00000000000E+00 0. -1.
          1    1    1    2  502    0  0.25635206557E+02 -0.15781940772E+01 -0.44822710516E+02  0.51659751159E+02  0.00000000000E+00 0.  1.
         -1    1    1    2    0  501 -0.25635206557E+02  0.15781940772E+01 -0.58485289831E+02  0.63876315160E+02  0.00000000000E+00 0. -1.
</event>
<event>
 4    1  0.6729064E+001  0.2402977E+02  0.7546771E-02  0.1479957E+00
          2   -1    0    0  502    0  0.00000000000E+00  0.00000000000E+00  0.14458789906E+04  0.14458789906E+04  0.00000000000E+00 0. -1.
         -2   -1    0    0    0  501 -0.00000000000E+00 -0.00000000000E+00 -0.54361919394E+00  0.54361919394E+00  0.00000000000E+00 0.  1.
          1    1    1    2  502    0 -0.11071953755E+02 -0.21327018375E+02  0.10952187232E+04  0.10954823054E+04  0.00000000000E+00 0. -1.
         -1    1    1    2    0  501  0.11071953755E+02  0.21327018375E+02  0.35011664820E+03  0.35094030436E+03  0.00000000000E+00 0.  1.
</event>
<event>
 4    1  0.6729064E+001  0.2035602E+02  0.7546771E-02  0.1528661E+00
          2   -1    0    0  502    0  0.00000000000E+00  0.00000000000E+00  0.12084042411E+02  0.12084042411E+02  0.00000000000E+00 0.  1.
         -2   -1    0    0    0  501 -0.00000000000E+00 -0.00000000000E+00 -0.37737126514E+02  0.37737126514E+02  0.00000000000E+00 0. -1.
          1    1    1    2  502    0 -0.14077355198E+02 -0.14703593570E+02 -0.52982235056E+01  0.21034228428E+02  0.00000000000E+00 0.  1.
         -1    1    1    2    0  501  0.14077355198E+02  0.14703593570E+02 -0.20354860598E+02  0.28786940497E+02  0.00000000000E+00 0. -1.
</event>
<event>
 4    1  0.6729064E+001  0.2420630E+02  0.7546771E-02  0.1477882E+00
          2   -1    0    0  502    0  0.00000000000E+00  0.00000000000E+00  0.25033005742E+04  0.25033005742E+04  0.00000000000E+00 0. -1.
         -2   -1    0    0    0  501 -0.00000000000E+00 -0.00000000000E+00 -0.28285095511E+00  0.28285095511E+00  0.00000000000E+00 0.  1.
          1    1    1    2  502    0  0.14591123652E+02 -0.19314342955E+02  0.17713653073E+04  0.17715306931E+04  0.00000000000E+00 0. -1.
         -1    1    1    2    0  501 -0.14591123652E+02  0.19314342955E+02  0.73165241591E+03  0.73205273201E+03  0.00000000000E+00 0.  1.
</event>
<event>
 4    1  0.6729064E+001  0.2146422E+02  0.7546771E-02  0.1512739E+00
          2   -1    0    0  502    0  0.00000000000E+00  0.00000000000E+00  0.41923197724E+03  0.41923197724E+03  0.00000000000E+00 0. -1.
         -2   -1    0    0    0  501 -0.00000000000E+00 -0.00000000000E+00 -0.11657594798E+01  0.11657594798E+01  0.00000000000E+00 0.  1.
          1    1    1    2  502    0 -0.14881669392E+02  0.15467659490E+02  0.15871044717E+03  0.16015529531E+03  0.00000000000E+00 0.  1.
         -1    1    1    2    0  501  0.14881669392E+02 -0.15467659490E+02  0.25935577059E+03  0.26024244141E+03  0.00000000000E+00 0. -1.
</event>
<event>
 4    1  0.6729064E+001  0.3156002E+02  0.7546771E-02  0.1406508E+00
          2   -1    0    0  502    0  0.00000000000E+00  0.00000000000E+00  0.30727759979E+02  0.30727759979E+02  0.00000000000E+00 0. -1.
         -2   -1    0    0    0  501 -0.00000000000E+00 -0.00000000000E+00 -0.38062990439E+02  0.38062990439E+02  0.00000000000E+00 0.  1.
          1    1    1    2  502    0  0.74228546986E+01 -0.30674679543E+02  0.95819792088E+01  0.32982556943E+02  0.00000000000E+00 0. -1.
         -1    1    1    2    0  501 -0.74228546986E+01  0.30674679543E+02 -0.16917209670E+02  0.35808193475E+02  0.00000000000E+00 0.  1.
</event>
<event>
 4    1  0.6729064E+001  0.4462905E+02  0.7546771E-02  0.1323305E+00
          2   -1    0    0  502    0  0.00000000000E+00  0.00000000000E+00  0.21433245162E+04  0.21433245162E+04  0.00000000000E+00 0.  1.
         -2   -1    0    0    0  501 -0.00000000000E+00 -0.00000000000E+00 -0.12464679764E+01  0.12464679764E+01  0.00000000000E+00 0. -1.
          1    1    1    2  502    0  0.33188760566E+02  0.29837198325E+02  0.16119515862E+04  0.16125692756E+04  0.00000000000E+00 0. -1.
         -1    1    1    2    0  501 -0.33188760566E+02 -0.29837198325E+02  0.53012646207E+03  0.53200170866E+03  0.00000000000E+00 0.  1.
</event>
<event>
 4    1  0.6729064E+001  0.2301974E+02  0.7546771E-02  0.1492250E+00
          2   -1    0    0  502    0  0.00000000000E+00  0.00000000000E+00  0.11388746285E+04  0.11388746285E+04  0.00000000000E+00 0.  1.
         -2   -1    0    0    0  501 -0.00000000000E+00 -0.00000000000E+00 -0.48073381140E+00  0.48073381140E+00  0.00000000000E+00 0. -1.
          1    1    1    2  502    0 -0.22204464293E+02  0.60720706529E+01  0.46709405213E+03  0.46766094749E+03  0.00000000000E+00 0. -1.
         -1    1    1    2    0  501  0.22204464293E+02 -0.60720706529E+01  0.67129984257E+03  0.67169441483E+03  0.00000000000E+00 0.  1.
</event>
<event>
 4    1  0.6729064E+001  0.2224808E+02  0.7546771E-02  0.1502162E+00
          2   -1    0    0  502    0  0.00000000000E+00  0.00000000000E+00  0.44211725152E+02  0.44211725152E+02  0.00000000000E+00 0.  1.
         -2   -1    0    0    0  501 -0.00000000000E+00 -0.00000000000E+00 -0.11221412595E+02  0.11221412595E+02  0.00000000000E+00 0. -1.
          1    1    1    2  502    0  0.22137147782E+02 -0.22189702118E+01  0.15166034395E+02  0.26925559233E+02  0.00000000000E+00 0. -1.
         -1    1    1    2    0  501 -0.22137147782E+02  0.22189702118E+01  0.17824278162E+02  0.28507578514E+02  0.00000000000E+00 0.  1.
</event>
<event>
 4    1  0.6729064E+001  0.2823367E+02  0.7546771E-02  0.1435594E+00
          2   -1    0    0  502    0  0.00000000000E+00  0.00000000000E+00  0.22902475363E+02  0.22902475363E+02  0.00000000000E+00 0.  1.
         -2   -1    0    0    0  501 -0.00000000000E+00 -0.00000000000E+00 -0.35566562979E+02  0.35566562979E+02  0.00000000000E+00 0. -1.
          1    1    1    2  502    0 -0.22912764440E+02  0.16496834876E+02 -0.20565846398E+01  0.28308477097E+02  0.00000000000E+00 0. -1.
         -1    1    1    2    0  501  0.22912764440E+02 -0.16496834876E+02 -0.10607502977E+02  0.30160561245E+02  0.00000000000E+00 0.  1.
</event>
<event>
 4    1  0.6729064E+001  0.3607202E+02  0.7546771E-02  0.1373179E+00
          2   -1    0    0  502    0  0.00000000000E+00  0.00000000000E+00  0.16840239843E+04  0.16840239843E+04  0.00000000000E+00 0.  1.
         -2   -1    0    0    0  501 -0.00000000000E+00 -0.00000000000E+00 -0.13911285748E+01  0.13911285748E+01  0.00000000000E+00 0. -1.
          1    1    1    2  502    0  0.26773494134E+02 -0.24173754894E+02  0.27942879018E+03  0.28174747416E+03  0.00000000000E+00 0. -1.
         -1    1    1    2    0  501 -0.26773494134E+02  0.24173754894E+02  0.14032040655E+04  0.14036676387E+04  0.00000000000E+00 0.  1.
</event>
<event>
 4    1  0.6729064E+001  0.3738772E+02  0.7546771E-02  0.1364513E+00
          2   -1    0    0  502    0  0.00000000000E+00  0.00000000000E+00  0.92926078810E+03  0.92926078810E+03  0.00000000000E+00 0. -1.
         -2   -1    0    0    0  501 -0.00000000000E+00 -0.00000000000E+00 -0.17797977763E+01  0.17797977763E+01  0.00000000000E+00 0.  1.
          1    1    1    2  502    0 -0.21736243049E+02  0.30420018514E+02  0.28057203913E+03  0.28305213465E+03  0.00000000000E+00 0.  1.
         -1    1    1    2    0  501  0.21736243049E+02 -0.30420018514E+02  0.64690895120E+03  0.64798845123E+03  0.00000000000E+00 0. -1.
</event>
<event>
 4    1  0.6729064E+001  0.2854417E+02  0.7546771E-02  0.1432684E+00
          2   -1    0    0  502    0  0.00000000000E+00  0.00000000000E+00  0.53639368294E+03  0.53639368294E+03  0.00000000000E+00 0. -1.
         -2   -1    0    0    0  501 -0.00000000000E+00 -0.00000000000E+00 -0.17352018289E+01  0.17352018289E+01  0.00000000000E+00 0.  1.
          1    1    1    2  502    0  0.26748540650E+02 -0.99642073118E+01  0.17234889594E+03  0.17469662786E+03  0.00000000000E+00 0.  1.
         -1    1    1    2    0  501 -0.26748540650E+02  0.99642073118E+01  0.36230958517E+03  0.36343225690E+03  0.00000000000E+00 0. -1.
</event>
<event>
 4    1  0.6729064E+001  0.4036426E+02  0.7546771E-02  0.1346364E+00
          2   -1    0    0  502    0  0.00000000000E+00  0.00000000000E+00  0.30628273765E+04  0.30628273765E+04  0.00000000000E+00 0. -1.
         -2   -1    0    0    0  501 -0.00000000000E+00 -0.00000000000E+00 -0.74071676171E+00  0.74071676171E+00  0.00000000000E+00 0.  1.
          1    1    1    2  502    0  0.39891834279E+02  0.61575321559E+01  0.23442505819E+04  0.23445980603E+04  0.00000000000E+00 0. -1.
         -1    1    1    2    0  501 -0.39891834279E+02 -0.61575321559E+01  0.71783607780E+03  0.71897003292E+03  0.00000000000E+00 0.  1.
</event>
<event>
 4    1  0.6729064E+001  0.2126233E+02  0.7546771E-02  0.1515552E+00
          2   -1    0    0  502    0  0.00000000000E+00  0.00000000000E+00  0.24132938769E+03  0.24132938769E+03  0.00000000000E+00 0.  1.
         -2   -1    0    0    0  501 -0.00000000000E+00 -0.00000000000E+00 -0.23857062490E+01  0.23857062490E+01  0.00000000000E+00 0. -1.
          1    1    1    2  502    0 -0.10913326184E+02  0.18247904706E+02  0.17594518119E+03  0.17722526202E+03  0.00000000000E+00 0.  1.
         -1    1    1    2    0  501  0.10913326184E+02 -0.18247904706E+02  0.62998500251E+02  0.66489831918E+02  0.00000000000E+00 0. -1.
</event>
<event>
 4    1  0.6729064E+001  0.2073165E+02  0.7546771E-02  0.1523131E+00
          2   -1    0    0  502    0  0.00000000000E+00  0.00000000000E+00  0.21604705503E+02  0.21604705503E+02  0.00000000000E+00 0.  1.
         -2   -1    0    0    0  501 -0.00000000000E+00 -0.00000000000E+00 -0.30569658924E+02  0.30569658924E+02  0.00000000000E+00 0. -1.
          1    1    1    2  502    0 -0.60425255975E+01 -0.19831516666E+02  0.10933885165E+02  0.23438238280E+02  0.00000000000E+00 0.  1.
         -1    1    1    2    0  501  0.60425255975E+01  0.19831516666E+02 -0.19898838586E+02  0.28736126147E+02  0.00000000000E+00 0. -1.
</event>
<event>
 4    1  0.6729064E+001  0.2872880E+02  0.7546771E-02  0.1430974E+00
          2   -1    0    0  502    0  0.00000000000E+00  0.00000000000E+00  0.22229659769E+01  0.22229659769E+01  0.00000000000E+00 0.  1.
         -2   -1    0    0    0  501 -0.00000000000E+00 -0.00000000000E+00 -0.38073794872E+03  0.38073794872E+03  0.00000000000E+00 0. -1.
          1    1    1    2  502    0 -0.27463610583E+02 -0.84317384124E+01 -0.21943589827E+03  0.22130851219E+03  0.00000000000E+00 0.  1.
         -1    1    1    2    0  501  0.27463610583E+02  0.84317384124E+01 -0.15907908447E+03  0.16165240250E+03  0.00000000000E+00 0. -1.
</event>
<event>
 4    1  0.6729064E+001  0.3659277E+02  0.7546771E-02  0.1369698E+00
          2   -1    0    0  502    0  0.00000000000E+00  0.00000000000E+00  0.15053121164E+04  0.15053121164E+04  0.00000000000E+00 0. -1.
         -2   -1    0    0    0  501 -0.00000000000E+00 -0.00000000000E+00 -0.91229580934E+00  0.91229580934E+00  0.00000000000E+00 0.  1.
          1    1    1    2  502    0 -0.30983951708E+02 -0.19468576458E+02  0.87115066304E+03  0.87191886575E+03  0.00000000000E+00 0. -1.
         -1    1    1    2    0  501  0.30983951708E+02  0.19468576458E+02  0.63324915757E+03  0.63430554648E+03  0.00000000000E+00 0.  1.
</event>
<event>
 4    1  0.6729064E+001  0.2254149E+02  0.7546771E-02  0.1498337E+00
          2   -1    0    0  502    0  0.00000000000E+00  0.00000000000E+00  0.15693721040E+02  0.15693721040E+02  0.00000000000E+00 0. -1.
         -2   -1    0    0    0  501 -0.00000000000E+00 -0.00000000000E+00 -0.37072126505E+02  0.37072126505E+02  0.00000000000E+00 0.  1.
          1    1    1    2  502    0 -0.92510513179E+01 -0.20555699870E+02 -0.13003275742E+01  0.22578963648E+02  0.00000000000E+00 0. -1.
         -1    1    1    2    0  501  0.92510513179E+01  0.20555699870E+02 -0.20078077891E+02  0.30186883897E+02  0.00000000000E+00 0.  1.
</event>
<event>
 4    1  0.6729064E+001  0.3667490E+02  0.7546771E-02  0.1369156E+00
          2   -1    0    0  502    0  0.00000000000E+00  0.00000000000E+00  0.79580932863E+02  0.79580932863E+02  0.00000000000E+00 0. -1.
         -2   -1    0    0    0  501 -0.00000000000E+00 -0.00000000000E+00 -0.17345351488E+02  0.17345351488E+02  0.00000000000E+00 0.  1.
          1    1    1    2  502    0 -0.30805015701E+02  0.19902245550E+02  0.38869005744E+02  0.53440134522E+02  0.00000000000E+00 0.  1.
         -1    1    1    2    0  501  0.30805015701E+02 -0.19902245550E+02  0.23366575631E+02  0.43486149829E+02  0.00000000000E+00 0. -1.
</event>
<event>
 4    1  0.6729064E+001  0.2333254E+02  0.7546771E-02  0.1488364E+00
          2   -1    0    0  502    0  0.00000000000E+00  0.00000000000E+00  0.10908199546E+02  0.10908199546E+02  0.00000000000E+00 0.  1.
         -2   -1    0    0    0  501 -0.00000000000E+00 -0.00000000000E+00 -0.51986869150E+02  0.51986869150E+02  0.00000000000E+00 0. -1.
          1    1    1    2  502    0  0.23295062001E+02  0.13218694830E+01 -0.26827810708E+02  0.35554727955E+02  0.00000000000E+00 0. -1.
         -1    1    1    2    0  501 -0.23295062001E+02 -0.13218694830E+01 -0.14250858897E+02  0.27340340741E+02  0.00000000000E+00 0.  1.
</event>
<event>
 4    1  0.6729064E+001  0.3829806E+02  0.7546771E-02  0.1358758E+00
          2   -1    0    0  502    0  0.00000000000E+00  0.00000000000E+00  0.65195142925E+03  0.65195142925E+03  0.00000000000E+00 0.  1.
         -2   -1    0    0    0  501 -0.00000000000E+00 -0.00000000000E+00 -0.30730953507E+01  0.30730953507E+01  0.00000000000E+00 0. -1.
          1    1    1    2  502    0 -0.23733208714E+02  0.30057879066E+02  0.49396078132E+03  0.49544323062E+03  0.00000000000E+00 0.  1.
         -1    1    1    2    0  501  0.23733208714E+02 -0.30057879066E+02  0.15491755258E+03  0.15958129398E+03  0.00000000000E+00 0. -1.
</event>
<event>
 4    1  0.6729064E+001  0.3743628E+02  0.7546771E-02  0.1364201E+00
          2   -1    0    0  502    0  0.00000000000E+00  0.00000000000E+00  0.21957273934E+03  0.21957273934E+03  0.00000000000E+00 0. -1.
         -2   -1    0    0    0  501 -0.00000000000E+00 -0.00000000000E+00 -0.97166162073E+01  0.97166162073E+01  0.00000000000E+00 0.  1.
          1    1    1    2  502    0  0.34980358249E+02 -0.13336032962E+02  0.17208196273E+03  0.17610700479E+03  0.00000000000E+00 0. -1.
         -1    1    1    2    0  501 -0.34980358249E+02  0.13336032962E+02  0.37774160410E+02  0.53182350767E+02  0.00000000000E+00 0.  1.
</event>
<event>
 4    1  0.6729064E+001  0.2277455E+02  0.7546771E-02  0.1495349E+00
          2   -1    0    0  502    0  0.00000000000E+00  0.00000000000E+00  0.68323508189E+03  0.68323508189E+03  0.00000000000E+00 0. -1.
         -2   -1    0    0    0  501 -0.00000000000E+00 -0.00000000000E+00 -0.19535430981E+01  0.19535430981E+01  0.00000000000E+00 0.  1.
          1    1    1    2  502    0 -0.16731430568E+02  0.15451186454E+02  0.60852167328E+03  0.60894770447E+03  0.00000000000E+00 0. -1.
         -1    1    1    2    0  501  0.16731430568E+02 -0.15451186454E+02  0.72759865516E+02  0.76240920519E+02  0.00000000000E+00 0.  1.
</event>
<event>
 4    1  0.6729064E+001  0.2582228E+02  0.7546771E-02  0.1459811E+00
          2   -1    0    0  502    0  0.00000000000E+00  0.00000000000E+00  0.14131281445E+03  0.14131281445E+03  0.00000000000E+00 0.  1.
         -2   -1    0    0    0  501 -0.00000000000E+00 -0.00000000000E+00 -0.14349845036E+02  0.14349845036E+02  0.00000000000E+00 0. -1.
          1    1    1    2  502    0 -0.23753156800E+02 -0.10128073360E+02 -0.28219742337E+00  0.25823825498E+02  0.00000000000E+00 0. -1.
         -1    1    1    2    0  501  0.23753156800E+02  0.10128073360E+02  0.12724516684E+03  0.12983883399E+03  0.00000000000E+00 0.  1.
</event>
<event>
 4    1  0.6729064E+001  0.2312940E+02  0.7546771E-02  0.1490880E+00
          2   -1    0    0  502    0  0.00000000000E+00  0.00000000000E+00  0.36349946785E+03  0.36349946785E+03  0.00000000000E+00 0. -1.
         -2   -1    0    0    0  501 -0.00000000000E+00 -0.00000000000E+00 -0.15136992649E+01  0.15136992649E+01  0.00000000000E+00 0.  1.
          1    1    1    2  502    0  0.45958426560E+01 -0.22668197013E+02  0.15059919458E+03  0.15236497738E+03  0.00000000000E+00 0.  1.
         -1    1    1    2    0  501 -0.45958426560E+01  0.22668197013E+02  0.21138657401E+03  0.21264818974E+03  0.00000000000E+00 0. -1.
</event>
<event>
 4    1  0.6729064E+001  0.2601806E+02  0.7546771E-02  0.1457729E+00
          2   -1    0    0  502    0  0.00000000000E+00  0.00000000000E+00  0.76969155116E+03  0.76969155116E+03  0.00000000000E+00 0. -1.
         -2   -1    0    0    0  501 -0.00000000000E+00 -0.00000000000E+00 -0.24993674945E+01  0.24993674945E+01  0.00000000000E+00 0.  1.
          1    1    1    2  502    0 -0.20901433082E+02 -0.15494183148E+02  0.69442406419E+03  0.69491130408E+03  0.00000000000E+00 0. -1.
         -1    1    1    2    0  501  0.20901433082E+02  0.15494183148E+02  0.72768119476E+02  0.77279614572E+02  0.00000000000E+00 0.  1.
</event>
<event>
 4    1  0.6729064E+001  0.2306660E+02  0.7546771E-02  0.1491664E+00
          2   -1    0    0  502    0  0.00000000000E+00  0.00000000000E+00  0.32982356804E+03  0.32982356804E+03  0.00000000000E+00 0.  1.
         -2   -1    0    0    0  501 -0.00000000000E+00 -0.00000000000E+00 -0.63556613535E+01  0.63556613535E+01  0.00000000000E+00 0. -1.
          1    1    1    2  502    0  0.15300131273E+02  0.17261920215E+02  0.16535199282E+02  0.28380992262E+02  0.00000000000E+00 0. -1.
         -1    1    1    2    0  501 -0.15300131273E+02 -0.17261920215E+02  0.30693270741E+03  0.30779823713E+03  0.00000000000E+00 0.  1.
</event>
<event>
 4    1  0.6729064E+001  0.6035378E+02  0.7546771E-02  0.1258635E+00
          2   -1    0    0  502    0  0.00000000000E+00  0.00000000000E+00  0.10498235090E+04  0.10498235090E+04  0.00000000000E+00 0.  1.
         -2   -1    0    0    0  501 -0.00000000000E+00 -0.00000000000E+00 -0.48698347945E+01  0.48698347945E+01  0.00000000000E+00 0. -1.
          1    1    1    2  502    0  0.60294548077E+02  0.26733245928E+01  0.80524014256E+03  0.80749877176E+03  0.00000000000E+00 0.  1.
         -1    1    1    2    0  501 -0.60294548077E+02 -0.26733245928E+01  0.23971353159E+03  0.24719457199E+03  0.00000000000E+00 0. -1.
</event>
<event>
 4    1  0.6729064E+001  0.3740248E+02  0.7546771E-02  0.1364418E+00
          2   -1    0    0  502    0  0.00000000000E+00  0.00000000000E+00  0.89418284211E+02  0.89418284211E+02  0.00000000000E+00 0.  1.
         -2   -1    0    0    0  501 -0.00000000000E+00 -0.00000000000E+00 -0.32253102005E+02  0.32253102005E+02  0.00000000000E+00 0. -1.
          1    1    1    2  502    0  0.24220743421E+02  0.28500902417E+02 -0.15072327813E+02  0.40325189598E+02  0.00000000000E+00 0. -1.
         -1    1    1    2    0  501 -0.24220743421E+02 -0.28500902417E+02  0.72237510020E+02  0.81346196618E+02  0.00000000000E+00 0.  1.
</event>
<event>
 4    1  0.6729064E+001  0.3229516E+02  0.7546771E-02  0.1400646E+00
          2   -1    0    0  502    0  0.00000000000E+00  0.00000000000E+00  0.66558227770E+02  0.66558227770E+02  0.00000000000E+00 0. -1.
         -2   -1    0    0    0  501 -0.00000000000E+00 -0.00000000000E+00 -0.17426575567E+02  0.17426575567E+02  0.00000000000E+00 0.  1.
          1    1    1    2  502    0  0.21650144931E+01 -0.32222510349E+02  0.11234312107E+02  0.34193379907E+02  0.00000000000E+00 0.  1.
         -1    1    1    2    0  501 -0.21650144931E+01  0.32222510349E+02  0.37897340096E+02  0.49791423431E+02  0.00000000000E+00 0. -1.
</event>
<event>
 4    1  0.6729064E+001  0.2442199E+02  0.7546771E-02  0.1475375E+00
          2   -1    0    0  502    0  0.00000000000E+00  0.00000000000E+00  0.10330537467E+04  0.10330537467E+04  0.00000000000E+00 0. -1.
         -2   -1    0    0    0  501 -0.00000000000E+00 -0.00000000000E+00 -0.57736021634E+00  0.57736021634E+00  0.00000000000E+00 0.  1.
          1    1    1    2  502    0 -0.24147088055E+02 -0.36539912290E+01  0.51841910938E+03  0.51899403319E+03  0.00000000000E+00 0.  1.
         -1    1    1    2    0  501  0.24147088055E+02  0.36539912290E+01  0.51405727712E+03  0.51463707374E+03  0.00000000000E+00 0. -1.
</event>
<event>
 4    1  0.6729064E+001  0.3519423E+02  0.7546771E-02  0.1379203E+00
          2   -1    0    0  502    0  0.00000000000E+00  0.00000000000E+00  0.76330586477E+03  0.76330586477E+03  0.00000000000E+00 0. -1.
         -2   -1    0    0    0  501 -0.00000000000E+00 -0.00000000000E+00 -0.16808166653E+01  0.16808166653E+01  0.00000000000E+00 0.  1.
          1    1    1    2  502    0 -0.42540860268E+01  0.34936177249E+02  0.45192230468E+03  0.45329063877E+03  0.00000000000E+00 0.  1.
         -1    1    1    2    0  501  0.42540860268E+01 -0.34936177249E+02  0.30970274342E+03  0.31169604266E+03  0.00000000000E+00 0. -1.
</event>
<event>
 4    1  0.6729064E+001  0.2721016E+02  0.7546771E-02  0.1445508E+00
          2   -1    0    0  502    0  0.00000000000E+00  0.00000000000E+00  0.68190536539E+02  0.68190536539E+02  0.00000000000E+00 0. -1.
         -2   -1    0    0    0  501 -0.00000000000E+00 -0.00000000000E+00 -0.17525801817E+02  0.17525801817E+02  0.00000000000E+00 0.  1.
          1    1    1    2  502    0 -0.13946817663E+02  0.23364050880E+02 -0.11036287117E+01  0.27232528211E+02  0.00000000000E+00 0.  1.
         -1    1    1    2    0  501  0.13946817663E+02 -0.23364050880E+02  0.51768363434E+02  0.58483810145E+02  0.00000000000E+00 0. -1.
</event>
<event>
 4    1  0.6729064E+001  0.2124150E+02  0.7546771E-02  0.1515845E+00
          2   -1    0    0  502    0  0.00000000000E+00  0.00000000000E+00  0.81612176238E+03  0.81612176238E+03  0.00000000000E+00 0. -1.
         -2   -1    0    0    0  501 -0.00000000000E+00 -0.00000000000E+00 -0.55894830001E+00  0.55894830001E+00  0.00000000000E+00 0.  1.
          1    1    1    2  502    0 -0.86836030030E+01  0.19385466795E+02  0.45039768174E+03  0.45089829563E+03  0.00000000000E+00 0.  1.
         -1    1    1    2    0  501  0.86836030030E+01 -0.19385466795E+02  0.36516513234E+03  0.36578241505E+03  0.00000000000E+00 0. -1.
</event>
<event>
 4    1  0.6729064E+001  0.2963812E+02  0.7546771E-02  0.1422768E+00
          2   -1    0    0  502    0  0.00000000000E+00  0.00000000000E+00  0.73333939680E+03  0.73333939680E+03  0.00000000000E+00 0.  1.
         -2   -1    0    0    0  501 -0.00000000000E+00 -0.00000000000E+00 -0.55989731437E+01  0.55989731437E+01  0.00000000000E+00 0. -1.
          1    1    1    2  502    0 -0.40103060076E+01  0.29365553693E+02  0.36298328234E+02  0.46861358607E+02  0.00000000000E+00 0. -1.
         -1    1    1    2    0  501  0.40103060076E+01 -0.29365553693E+02  0.69144209542E+03  0.69207701134E+03  0.00000000000E+00 0.  1.
</event>
<event>
 4    1  0.6729064E+001  0.2713019E+02  0.7546771E-02  0.1446305E+00
          2   -1    0    0  502    0  0.00000000000E+00  0.00000000000E+00  0.10278437403E+02  0.10278437403E+02  0.00000000000E+00 0.  1.
         -2   -1    0    0    0  501 -0.00000000000E+00 -0.00000000000E+00 -0.71679439026E+02  0.71679439026E+02  0.00000000000E+00 0. -1.
          1    1    1    2  502    0  0.22861276793E+02  0.14608527165E+02 -0.31968661841E+02  0.41929015997E+02  0.00000000000E+00 0.  1.
         -1    1    1    2    0  501 -0.22861276793E+02 -0.14608527165E+02 -0.29432339782E+02  0.40028860433E+02  0.00000000000E+00 0. -1.
</event>
<event>
 4    1  0.6729064E+001  0.3462219E+02  0.7546771E-02  0.1383239E+00
          2   -1    0    0  502    0  0.00000000000E+00  0.00000000000E+00  0.12367844050E+03  0.12367844050E+03  0.00000000000E+00 0. -1.
         -2   -1    0    0    0  501 -0.00000000000E+00 -0.00000000000E+00 -0.12472725944E+02  0.12472725944E+02  0.00000000000E+00 0.  1.
          1    1    1    2  502    0 -0.29965127449E+02  0.17343224468E+02  0.23459834856E+02  0.41821766455E+02  0.00000000000E+00 0.  1.
         -1    1    1    2    0  501  0.29965127449E+02 -0.17343224468E+02  0.87745879699E+02  0.94329399988E+02  0.00000000000E+00 0. -1.
</event>
<event>
 4    1  0.6729064E+001  0.2692381E+02  0.7546771E-02  0.1448375E+00
          2   -1    0    0  502    0  0.00000000000E+00  0.00000000000E+00  0.28313822296E+01  0.28313822296E+01  0.00000000000E+00 0.  1.
         -2   -1    0    0    0  501 -0.00000000000E+00 -0.00000000000E+00 -0.26243044959E+03  0.26243044959E+03  0.00000000000E+00 0. -1.
          1    1    1    2  502    0 -0.26790259220E+02 -0.26783977406E+01 -0.15052794641E+03  0.15291682201E+03  0.00000000000E+00 0. -1.
         -1    1    1    2    0  501  0.26790259220E+02  0.26783977406E+01 -0.10907112096E+03  0.11234500982E+03  0.00000000000E+00 0.  1.
</event>
<event>
 4    1  0.6729064E+001  0.2072656E+02  0.7546771E-02  0.1523205E+00
          2   -1    0    0  502    0  0.00000000000E+00  0.00000000000E+00  0.48111330333E+02  0.48111330333E+02  0.00000000000E+00 0.  1.
         -2   -1    0    0    0  501 -0.00000000000E+00 -0.00000000000E+00 -0.15633985721E+02  0.15633985721E+02  0.00000000000E+00 0. -1.
          1    1    1    2  502    0  0.20244099518E+02  0.44459561881E+01 -0.46340765688E+01  0.21238285179E+02  0.00000000000E+00 0. -1.
         -1    1    1    2    0  501 -0.20244099518E+02 -0.44459561881E+01  0.37111421181E+02  0.42507030875E+02  0.00000000000E+00 0.  1.
</event>
<event>
 4    1  0.6729064E+001  0.2180072E+02  0.7546771E-02  0.1508133E+00
          2   -1    0    0  502    0  0.00000000000E+00  0.00000000000E+00  0.75909556775E+02  0.75909556775E+02  0.00000000000E+00 0.  1.
         -2   -1    0    0    0  501 -0.00000000000E+00 -0.00000000000E+00 -0.62913964419E+01  0.62913964419E+01  0.00000000000E+00 0. -1.
          1    1    1    2  502    0 -0.12458117598E+02 -0.17890406603E+02  0.31953243475E+02  0.38681793018E+02  0.00000000000E+00 0. -1.
         -1    1    1    2    0  501  0.12458117598E+02  0.17890406603E+02  0.37664916858E+02  0.43519160199E+02  0.00000000000E+00 0.  1.
</event>
<event>
 4    1  0.6729064E+001  0.2379866E+02  0.7546771E-02  0.1482706E+00
          2   -1    0    0  502    0  0.00000000000E+00  0.00000000000E+00  0.13221161302E+03  0.13221161302E+03  0.00000000000E+00 0. -1.
         -2   -1    0    0    0  501 -0.00000000000E+00 -0.00000000000E+00 -0.49698402566E+01  0.49698402566E+01  0.00000000000E+00 0.  1.
          1    1    1    2  502    0 -0.18318137220E+02 -0.15192827397E+02  0.89103837542E+02  0.92227273733E+02  0.00000000000E+00 0. -1.
         -1    1    1    2    0  501  0.18318137220E+02  0.15192827397E+02  0.38137935221E+02  0.44954179543E+02  0.00000000000E+00 0.  1.
</event>
<event>
 4    1  0.6729064E+001  0.2331035E+02  0.7546771E-02  0.1488637E+00
          2   -1    0    0  502    0  0.00000000000E+00  0.00000000000E+00  0.57442212034E+02  0.57442212034E+02  0.00000000000E+00 0. -1.
         -2   -1    0    0    0  501 -0.00000000000E+00 -0.00000000000E+00 -0.11469168353E+02  0.11469168353E+02  0.00000000000E+00 0.  1.
          1    1    1    2  502    0 -0.23143337049E+02  0.27853976904E+01  0.85633371560E+01  0.24833510290E+02  0.00000000000E+00 0.  1.
         -1    1    1    2    0  501  0.23143337049E+02 -0.27853976904E+01  0.37409706524E+02  0.44077870097E+02  0.00000000000E+00 0. -1.
</event>
<event>
 4    1  0.6729064E+001  0.2260648E+02  0.7546771E-02  0.1497500E+00
          2   -1    0    0  502    0  0.00000000000E+00  0.00000000000E+00  0.32187130859E+03  0.32187130859E+03  0.00000000000E+00 0.  1.
         -2   -1    0    0    0  501 -0.00000000000E+00 -0.00000000000E+00 -0.16738998217E+01  0.16738998217E+01  0.00000000000E+00 0. -1.
          1    1    1    2  502    0  0.42852147074E+01  0.22196615588E+02  0.19679773609E+03  0.19809190226E+03  0.00000000000E+00 0.  1.
         -1    1    1    2    0  501 -0.42852147074E+01 -0.22196615588E+02  0.12339967267E+03  0.12545330615E+03  0.00000000000E+00 0. -1.
</event>
<event>
 4    1  0.6729064E+001  0.3098926E+02  0.7546771E-02  0.1411190E+00
          2   -1    0    0  502    0  0.00000000000E+00  0.00000000000E+00  0.45204639305E+01  0.45204639305E+01  0.00000000000E+00 0. -1.
         -2   -1    0    0    0  501 -0.00000000000E+00 -0.00000000000E+00 -0.21273785218E+03  0.21273785218E+03  0.00000000000E+00 0.  1.
          1    1    1    2  502    0  0.37230457352E+01  0.30764799640E+02 -0.10816336789E+03  0.11251510174E+03  0.00000000000E+00 0. -1.
         -1    1    1    2    0  501 -0.37230457352E+01 -0.30764799640E+02 -0.10005402036E+03  0.10474321437E+03  0.00000000000E+00 0.  1.
</event>
<event>
 4    1  0.6729064E+001  0.7020340E+02  0.7546771E-02  0.1228622E+00
          2   -1    0    0  502    0  0.00000000000E+00  0.00000000000E+00  0.10380973681E+03  0.10380973681E+03  0.00000000000E+00 0.  1.
         -2   -1    0    0    0  501 -0.00000000000E+00 -0.00000000000E+00 -0.66594818974E+02  0.66594818974E+02  0.00000000000E+00 0. -1.
          1    1    1    2  502    0 -0.38629331040E+01  0.70097040015E+02  0.64259106882E+02  0.95172212795E+02  0.00000000000E+00 0.  1.
         -1    1    1    2    0  501  0.38629331040E+01 -0.70097040015E+02 -0.27044189043E+02  0.75232342992E+02  0.00000000000E+00 0. -1.
</event>
<event>
 4    1  0.6729064E+001  0.6989559E+02  0.7546771E-02  0.1229474E+00
          2   -1    0    0  502    0  0.00000000000E+00  0.00000000000E+00  0.18466615500E+02  0.18466615500E+02  0.00000000000E+00 0. -1.
         -2   -1    0    0    0  501 -0.00000000000E+00 -0.00000000000E+00 -0.36788362612E+03  0.36788362612E+03  0.00000000000E+00 0.  1.
          1    1    1    2  502    0 -0.65678053539E+02  0.23912057428E+02 -0.27708755631E+03  0.28576722532E+03  0.00000000000E+00 0.  1.
         -1    1    1    2    0  501  0.65678053539E+02 -0.23912057428E+02 -0.72329454317E+02  0.10058301630E+03  0.00000000000E+00 0. -1.
</event>
<event>
 4    1  0.6729064E+001  0.5186135E+02  0.7546771E-02  0.1290298E+00
          2   -1    0    0  502    0  0.00000000000E+00  0.00000000000E+00  0.37614520012E+03  0.37614520012E+03  0.00000000000E+00 0.  1.
         -2   -1    0    0    0  501 -0.00000000000E+00 -0.00000000000E+00 -0.48515511960E+02  0.48515511960E+02  0.00000000000E+00 0. -1.
          1    1    1    2  502    0 -0.29305247866E+01 -0.51778485211E+02  0.35987472254E+03  0.36359237537E+03  0.00000000000E+00 0.  1.
         -1    1    1    2    0  501  0.29305247866E+01  0.51778485211E+02 -0.32245034378E+02  0.61068336709E+02  0.00000000000E+00 0. -1.
</event>
<event>
 4    1  0.6729064E+001  0.5871935E+02  0.7546771E-02  0.1264247E+00
          2   -1    0    0  502    0  0.00000000000E+00  0.00000000000E+00  0.18785509032E+03  0.18785509032E+03  0.00000000000E+00 0. -1.
         -2   -1    0    0    0  501 -0.00000000000E+00 -0.00000000000E+00 -0.18388520333E+02  0.18388520333E+02  0.00000000000E+00 0.  1.
          1    1    1    2  502    0  0.19020299514E+02  0.55553491788E+02  0.80289421305E+02  0.99470364516E+02  0.00000000000E+00 0.  1.
         -1    1    1    2    0  501 -0.19020299514E+02 -0.55553491788E+02  0.89177148683E+02  0.10677324614E+03  0.00000000000E+00 0. -1.
</event>
<event>
 4    1  0.6729064E+001  0.2406039E+02  0.7546771E-02  0.1479595E+00
          2   -1    0    0  502    0  0.00000000000E+00  0.00000000000E+00  0.54514690267E+03  0.54514690267E+03  0.00000000000E+00 0.  1.
         -2   -1    0    0    0  501 -0.00000000000E+00 -0.00000000000E+00 -0.13270581382E+01  0.13270581382E+01  0.00000000000E+00 0. -1.
          1    1    1    2  502    0  0.20795177258E+02  0.12102189799E+02  0.14977760162E+03  0.15169783236E+03  0.00000000000E+00 0. -1.
         -1    1    1    2    0  501 -0.20795177258E+02 -0.12102189799E+02  0.39404224290E+03  0.39477612844E+03  0.00000000000E+00 0.  1.
</event>
<event>
 4    1  0.6729064E+001  0.2897424E+02  0.7546771E-02  0.1428725E+00
          2   -1    0    0  502    0  0.00000000000E+00  0.00000000000E+00  0.16408494781E+04  0.16408494781E+04  0.00000000000E+00 0. -1.
         -2   -1    0    0    0  501 -0.00000000000E+00 -0.00000000000E+00 -0.57610278425E+00  0.57610278425E+00  0.00000000000E+00 0.  1.
          1    1    1    2  502    0  0.18669066124E+02  0.22157906207E+02  0.10946930051E+04  0.10950763819E+04  0.00000000000E+00 0. -1.
         -1    1    1    2    0  501 -0.18669066124E+02 -0.22157906207E+02  0.54558037020E+03  0.54634919894E+03  0.00000000000E+00 0.  1.
</event>
<event>
 4    1  0.6729064E+001  0.2502410E+02  0.7546771E-02  0.1468534E+00
          2   -1    0    0  502    0  0.00000000000E+00  0.00000000000E+00  0.76065773411E+03  0.76065773411E+03  0.00000000000E+00 0.  1.
         -2   -1    0    0    0  501 -0.00000000000E+00 -0.00000000000E+00 -0.86426138494E+00  0.86426138494E+00  0.00000000000E+00 0. -1.
          1    1    1    2  502    0 -0.20764488961E+02 -0.13965736087E+02  0.29694571342E+03  0.29799825923E+03  0.00000000000E+00 0. -1.
         -1    1    1    2    0  501  0.20764488961E+02  0.13965736087E+02  0.46284775930E+03  0.46352373626E+03  0.00000000000E+00 0.  1.
</event>
<event>
 4    1  0.6729064E+001  0.3057517E+02  0.7546771E-02  0.1414663E+00
          2   -1    0    0  502    0  0.00000000000E+00  0.00000000000E+00  0.75234722099E+03  0.75234722099E+03  0.00000000000E+00 0.  1.
         -2   -1    0    0    0  501 -0.00000000000E+00 -0.00000000000E+00 -0.14330935802E+01  0.14330935802E+01  0.00000000000E+00 0. -1.
          1    1    1    2  502    0  0.28821422016E+02  0.10206211536E+02  0.51287910006E+03  0.51378965774E+03  0.00000000000E+00 0.  1.
         -1    1    1    2    0  501 -0.28821422016E+02 -0.10206211536E+02  0.23803502735E+03  0.23999065683E+03  0.00000000000E+00 0. -1.
</event>
<event>
 4    1  0.6729064E+001  0.5184688E+02  0.7546771E-02  0.1290358E+00
          2   -1    0    0  502    0  0.00000000000E+00  0.00000000000E+00  0.33941076836E+03  0.33941076836E+03  0.00000000000E+00 0.  1.
         -2   -1    0    0    0  501 -0.00000000000E+00 -0.00000000000E+00 -0.14552203173E+02  0.14552203173E+02  0.00000000000E+00 0. -1.
          1    1    1    2  502    0 -0.45428419414E+02 -0.24987143255E+02  0.42949144174E+02  0.67325534560E+02  0.00000000000E+00 0. -1.
         -1    1    1    2    0  501  0.45428419414E+02  0.24987143255E+02  0.28190942101E+03  0.28663743697E+03  0.00000000000E+00 0.  1.
</event>
<event>
 4    1  0.6729064E+001  0.2105247E+02  0.7546771E-02  0.1518517E+00
          2   -1    0    0  502    0  0.00000000000E+00  0.00000000000E+00  0.62096223619E+03  0.62096223619E+03  0.00000000000E+00 0.  1.
         -2   -1    0    0    0  501 -0.00000000000E+00 -0.00000000000E+00 -0.76703806855E+00  0.76703806855E+00  0.00000000000E+00 0. -1.
          1    1    1    2  502    0  0.16306095527E+02 -0.13316071434E+02  0.39204072726E+03  0.39260557604E+03  0.00000000000E+00 0.  1.
         -1    1    1    2    0  501 -0.16306095527E+02  0.13316071434E+02  0.22815447087E+03  0.22912369822E+03  0.00000000000E+00 0. -1.
</event>
<event>
 4    1  0.6729064E+001  0.2020039E+02  0.7546771E-02  0.1530994E+00
          2   -1    0    0  502    0  0.00000000000E+00  0.00000000000E+00  0.36484589765E+02  0.36484589765E+02  0.00000000000E+00 0. -1.
         -2   -1    0    0    0  501 -0.00000000000E+00 -0.00000000000E+00 -0.14436096525E+02  0.14436096525E+02  0.00000000000E+00 0.  1.
          1    1    1    2  502    0 -0.67287492966E+01 -0.19046777573E+02 -0.10594228843E+01  0.20228153150E+02  0.00000000000E+00 0.  1.
         -1    1    1    2    0  501  0.67287492966E+01  0.19046777573E+02  0.23107916124E+02  0.30692533140E+02  0.00000000000E+00 0. -1.
</event>
<event>
 4    1  0.6729064E+001  0.2768987E+02  0.7546771E-02  0.1440799E+00
          2   -1    0    0  502    0  0.00000000000E+00  0.00000000000E+00  0.42717387190E+03  0.42717387190E+03  0.00000000000E+00 0.  1.
         -2   -1    0    0    0  501 -0.00000000000E+00 -0.00000000000E+00 -0.18896968192E+01  0.18896968192E+01  0.00000000000E+00 0. -1.
          1    1    1    2  502    0  0.19640781408E+02  0.19518413770E+02  0.16458886091E+03  0.16690183314E+03  0.00000000000E+00 0. -1.
         -1    1    1    2    0  501 -0.19640781408E+02 -0.19518413770E+02  0.26069531417E+03  0.26216173558E+03  0.00000000000E+00 0.  1.
</event>
<event>
 4    1  0.6729064E+001  0.2955092E+02  0.7546771E-02  0.1423540E+00
          2   -1    0    0  502    0  0.00000000000E+00  0.00000000000E+00  0.27575965013E+03  0.27575965013E+03  0.00000000000E+00 0. -1.
         -2   -1    0    0    0  501 -0.00000000000E+00 -0.00000000000E+00 -0.41005280087E+01  0.41005280087E+01  0.00000000000E+00 0.  1.
          1    1    1    2  502    0  0.28415440729E+02  0.81129158174E+01  0.20260510321E+03  0.20474883277E+03  0.00000000000E+00 0.  1.
         -1    1    1    2    0  501 -0.28415440729E+02 -0.81129158174E+01  0.69054018905E+02  0.75111345360E+02  0.00000000000E+00 0. -1.
</event>
<event>
 4    1  0.6729064E+001  0.2683324E+02  0.7546771E-02  0.1449291E+00
          2   -1    0    0  502    0  0.00000000000E+00  0.00000000000E+00  0.46351215636E+03  0.46351215636E+03  0.00000000000E+00 0.  1.
         -2   -1    0    0    0  501 -0.00000000000E+00 -0.00000000000E+00 -0.21027043182E+01  0.21027043182E+01  0.00000000000E+00 0. -1.
          1    1    1    2  502    0  0.22443899988E+02  0.14706933617E+02  0.11171433625E+03  0.11489175543E+03  0.00000000000E+00 0. -1.
         -1    1    1    2    0  501 -0.22443899988E+02 -0.14706933617E+02  0.34969511580E+03  0.35072310525E+03  0.00000000000E+00 0.  1.
</event>
<event>
 4    1  0.6729064E+001  0.2064488E+02  0.7546771E-02  0.1524396E+00
          2   -1    0    0  502    0  0.00000000000E+00  0.00000000000E+00  0.35375000349E+01  0.35375000349E+01  0.00000000000E+00 0. -1.
         -2   -1    0    0    0  501 -0.00000000000E+00 -0.00000000000E+00 -0.13773617515E+03  0.13773617515E+03  0.00000000000E+00 0.  1.
          1    1    1    2  502    0 -0.10287910997E+02  0.17898881372E+02 -0.92098936161E+02  0.94384453747E+02  0.00000000000E+00 0.  1.
         -1    1    1    2    0  501  0.10287910997E+02 -0.17898881372E+02 -0.42099738951E+02  0.46889221435E+02  0.00000000000E+00 0. -1.
</event>
<event>
 4    1  0.6729064E+001  0.3222446E+02  0.7546771E-02  0.1401202E+00
          2   -1    0    0  502    0  0.00000000000E+00  0.00000000000E+00  0.25216048066E+01  0.25216048066E+01  0.00000000000E+00 0.  1.
         -2   -1    0    0    0  501 -0.00000000000E+00 -0.00000000000E+00 -0.41707116776E+03  0.41707116776E+03  0.00000000000E+00 0. -1.
          1    1    1    2  502    0 -0.23775479848E+02  0.21751838744E+02 -0.18370614022E+03  0.18651102349E+03  0.00000000000E+00 0.  1.
         -1    1    1    2    0  501  0.23775479848E+02 -0.21751838744E+02 -0.23084342274E+03  0.23308174908E+03  0.00000000000E+00 0. -1.
</event>
<event>
 4    1  0.6729064E+001  0.3786585E+02  0.7546771E-02  0.1361467E+00
          2   -1    0    0  502    0  0.00000000000E+00  0.00000000000E+00  0.72850980223E+01  0.72850980223E+01  0.00000000000E+00 0.  1.
         -2   -1    0    0    0  501 -0.00000000000E+00 -0.00000000000E+00 -0.21612003542E+03  0.21612003542E+03  0.00000000000E+00 0. -1.
          1    1    1    2  502    0  0.32248362923E+02  0.19846046702E+02 -0.71033204556E+02  0.80495581434E+02  0.00000000000E+00 0. -1.
         -1    1    1    2    0  501 -0.32248362923E+02 -0.19846046702E+02 -0.13780173284E+03  0.14290955200E+03  0.00000000000E+00 0.  1.
</event>
<event>
 4    1  0.6729064E+001  0.2220130E+02  0.7546771E-02  0.1502779E+00
          2   -1    0    0  502    0  0.00000000000E+00  0.00000000000E+00  0.28163447252E+02  0.28163447252E+02  0.00000000000E+00 0.  1.
         -2   -1    0    0    0  501 -0.00000000000E+00 -0.00000000000E+00 -0.28222237167E+02  0.28222237167E+02  0.00000000000E+00 0. -1.
          1    1    1    2  502    0 -0.54296566600E+00 -0.22194661376E+02 -0.17405758522E+02  0.28210959484E+02  0.00000000000E+00 0. -1.
         -1    1    1    2    0  501  0.54296566600E+00  0.22194661376E+02  0.17346968607E+02  0.28174724935E+02  0.00000000000E+00 0.  1.
</event>
<event>
 4    1  0.6729064E+001  0.2396248E+02  0.7546771E-02  0.1480753E+00
          2   -1    0    0  502    0  0.00000000000E+00  0.00000000000E+00  0.15648638404E+03  0.15648638404E+03  0.00000000000E+00 0.  1.
         -2   -1    0    0    0  501 -0.00000000000E+00 -0.00000000000E+00 -0.36727432994E+01  0.36727432994E+01  0.00000000000E+00 0. -1.
          1    1    1    2  502    0 -0.23769867466E+02 -0.30321561918E+01  0.78847193435E+02  0.82408012251E+02  0.00000000000E+00 0. -1.
         -1    1    1    2    0  501  0.23769867466E+02  0.30321561918E+01  0.73966447302E+02  0.77751115085E+02  0.00000000000E+00 0.  1.
</event>
<event>
 4    1  0.6729064E+001  0.2150206E+02  0.7546771E-02  0.1512216E+00
          2   -1    0    0  502    0  0.00000000000E+00  0.00000000000E+00  0.44585411294E+03  0.44585411294E+03  0.00000000000E+00 0.  1.
         -2   -1    0    0    0  501 -0.00000000000E+00 -0.00000000000E+00 -0.16310632284E+01  0.16310632284E+01  0.00000000000E+00 0. -1.
          1    1    1    2  502    0 -0.21500771731E+02 -0.23504340661E+00  0.35714444691E+03  0.35779113235E+03  0.00000000000E+00 0. -1.
         -1    1    1    2    0  501  0.21500771731E+02  0.23504340661E+00  0.87078602796E+02  0.89694043812E+02  0.00000000000E+00 0.  1.
</event>
<event>
 4    1  0.6729064E+001  0.2066079E+02  0.7546771E-02  0.1524163E+00
          2   -1    0    0  502    0  0.00000000000E+00  0.00000000000E+00  0.91485537463E+03  0.91485537463E+03  0.00000000000E+00 0. -1.
         -2   -1    0    0    0  501 -0.00000000000E+00 -0.00000000000E+00 -0.56349509070E+00  0.56349509070E+00  0.00000000000E+00 0.  1.
          1    1    1    2  502    0 -0.52997319151E+01  0.19969503409E+02  0.26734264383E+03  0.26813980949E+03  0.00000000000E+00 0.  1.
         -1    1    1    2    0  501  0.52997319151E+01 -0.19969503409E+02  0.64694923571E+03  0.64727906023E+03  0.00000000000E+00 0. -1.
</event>
<event>
 4    1  0.6729064E+001  0.5329378E+02  0.7546771E-02  0.1284490E+00
          2   -1    0    0  502    0  0.00000000000E+00  0.00000000000E+00  0.81827407197E+03  0.81827407197E+03  0.00000000000E+00 0. -1.
         -2   -1    0    0    0  501 -0.00000000000E+00 -0.00000000000E+00 -0.40757929005E+01  0.40757929005E+01  0.00000000000E+00 0.  1.
          1    1    1    2  502    0  0.55010216707E+01  0.53009111356E+02  0.56548808715E+03  0.56799384137E+03  0.00000000000E+00 0. -1.
         -1    1    1    2    0  501 -0.55010216707E+01 -0.53009111356E+02  0.24871019193E+03  0.25435602351E+03  0.00000000000E+00 0.  1.
</event>
<event>
 4    1  0.6729064E+001  0.2251985E+02  0.7546771E-02  0.1498617E+00
          2   -1    0    0  502    0  0.00000000000E+00  0.00000000000E+00  0.20755393974E+03  0.20755393974E+03  0.00000000000E+00 0.  1.
         -2   -1    0    0    0  501 -0.00000000000E+00 -0.00000000000E+00 -0.12964307981E+02  0.12964307981E+02  0.00000000000E+00 0. -1.
          1    1    1    2  502    0 -0.21450045161E+02 -0.68585204271E+01 -0.20318454314E+01  0.22611327597E+02  0.00000000000E+00 0. -1.
         -1    1    1    2    0  501  0.21450045161E+02  0.68585204271E+01  0.19662147719E+03  0.19790692012E+03  0.00000000000E+00 0.  1.
</event>
<event>
 4    1  0.6729064E+001  0.2647662E+02  0.7546771E-02  0.1452938E+00
          2   -1    0    0  502    0  0.00000000000E+00  0.00000000000E+00  0.17498519855E+04  0.17498519855E+04  0.00000000000E+00 0.  1.
         -2   -1    0    0    0  501 -0.00000000000E+00 -0.00000000000E+00 -0.41437756866E+00  0.41437756866E+00  0.00000000000E+00 0. -1.
          1    1    1    2  502    0  0.10178858533E+02  0.24441813279E+02  0.71521322763E+03  0.71570313146E+03  0.00000000000E+00 0. -1.
         -1    1    1    2    0  501 -0.10178858533E+02 -0.24441813279E+02  0.10342243803E+04  0.10345632316E+04  0.00000000000E+00 0.  1.
</event>
<event>
 4    1  0.6729064E+001  0.2514870E+02  0.7546771E-02  0.1467147E+00
          2   -1    0    0  502    0  0.00000000000E+00  0.00000000000E+00  0.47863700427E+03  0.47863700427E+03  0.00000000000E+00 0. -1.
         -2   -1    0    0    0  501 -0.00000000000E+00 -0.00000000000E+00 -0.14928424454E+01  0.14928424454E+01  0.00000000000E+00 0.  1.
          1    1    1    2  502    0 -0.11911572770E+02 -0.22148854418E+02  0.15721095775E+03  0.15920974391E+03  0.00000000000E+00 0.  1.
         -1    1    1    2    0  501  0.11911572770E+02  0.22148854418E+02  0.31993320407E+03  0.32092010281E+03  0.00000000000E+00 0. -1.
</event>
<event>
 4    1  0.6729064E+001  0.5456476E+02  0.7546771E-02  0.1279508E+00
          2   -1    0    0  502    0  0.00000000000E+00  0.00000000000E+00  0.13486185625E+04  0.13486185625E+04  0.00000000000E+00 0. -1.
         -2   -1    0    0    0  501 -0.00000000000E+00 -0.00000000000E+00 -0.22300114228E+01  0.22300114228E+01  0.00000000000E+00 0.  1.
          1    1    1    2  502    0  0.60252548128E+01  0.54231072711E+02  0.74079003141E+03  0.74279686562E+03  0.00000000000E+00 0. -1.
         -1    1    1    2    0  501 -0.60252548128E+01 -0.54231072711E+02  0.60559851963E+03  0.60805170826E+03  0.00000000000E+00 0.  1.
</event>
<event>
 4    1  0.6729064E+001  0.3879704E+02  0.7546771E-02  0.1355683E+00
          2   -1    0    0  502    0  0.00000000000E+00  0.00000000000E+00  0.40364718878E+03  0.40364718878E+03  0.00000000000E+00 0. -1.
         -2   -1    0    0    0  501 -0.00000000000E+00 -0.00000000000E+00 -0.37491049194E+01  0.37491049194E+01  0.00000000000E+00 0.  1.
          1    1    1    2  502    0  0.26065747337E+02  0.28736518846E+02  0.21485630085E+03  0.21833103471E+03  0.00000000000E+00 0. -1.
         -1    1    1    2    0  501 -0.26065747337E+02 -0.28736518846E+02  0.18504178301E+03  0.18906525899E+03  0.00000000000E+00 0.  1.
</event>
<event>
 4    1  0.6729064E+001  0.2225536E+02  0.7546771E-02  0.1502066E+00
          2   -1    0    0  502    0  0.00000000000E+00  0.00000000000E+00  0.48649157893E+02  0.48649157893E+02  0.00000000000E+00 0.  1.
         -2   -1    0    0    0  501 -0.00000000000E+00 -0.00000000000E+00 -0.35187677947E+02  0.35187677947E+02  0.00000000000E+00 0. -1.
          1    1    1    2  502    0  0.19976291808E+02  0.98106435918E+01 -0.28606846636E+02  0.36244346270E+02  0.00000000000E+00 0. -1.
         -1    1    1    2    0  501 -0.19976291808E+02 -0.98106435918E+01  0.42068326582E+02  0.47592489570E+02  0.00000000000E+00 0.  1.
</event>
<event>
 4    1  0.6729064E+001  0.2342543E+02  0.7546771E-02  0.1487224E+00
          2   -1    0    0  502    0  0.00000000000E+00  0.00000000000E+00  0.14949550014E+04  0.14949550014E+04  0.00000000000E+00 0. -1.
         -2   -1    0    0    0  501 -0.00000000000E+00 -0.00000000000E+00 -0.38427001191E+00  0.38427001191E+00  0.00000000000E+00 0.  1.
          1    1    1    2  502    0  0.20355171712E+02 -0.11593858074E+02  0.90547484220E+03  0.90577780963E+03  0.00000000000E+00 0. -1.
         -1    1    1    2    0  501 -0.20355171712E+02  0.11593858074E+02  0.58909588918E+03  0.58956146178E+03  0.00000000000E+00 0.  1.
</event>
<event>
 4    1  0.6729064E+001  0.2431008E+02  0.7546771E-02  0.1476672E+00
          2   -1    0    0  502    0  0.00000000000E+00  0.00000000000E+00  0.22248701245E+04  0.22248701245E+04  0.00000000000E+00 0. -1.
         -2   -1    0    0    0  501 -0.00000000000E+00 -0.00000000000E+00 -0.30981936093E+00  0.30981936093E+00  0.00000000000E+00 0.  1.
          1    1    1    2  502    0 -0.16456303349E+02 -0.17893294902E+02  0.15324907041E+04  0.15326835088E+04  0.00000000000E+00 0. -1.
         -1    1    1    2    0  501  0.16456303349E+02  0.17893294902E+02  0.69206960107E+03  0.69249643511E+03  0.00000000000E+00 0.  1.
</event>
<event>
 4    1  0.6729064E+001  0.3591043E+02  0.7546771E-02  0.1374273E+00
          2   -1    0    0  502    0  0.00000000000E+00  0.00000000000E+00  0.90453333312E+03  0.90453333312E+03  0.00000000000E+00 0.  1.
         -2   -1    0    0    0  501 -0.00000000000E+00 -0.00000000000E+00 -0.20860714973E+01  0.20860714973E+01  0.00000000000E+00 0. -1.
          1    1    1    2  502    0 -0.22145490453E+02 -0.28268991607E+02  0.19616669631E+03  0.19942650620E+03  0.00000000000E+00 0. -1.
         -1    1    1    2    0  501  0.22145490453E+02  0.28268991607E+02  0.70628056531E+03  0.70719289842E+03  0.00000000000E+00 0.  1.
</event>
<event>
 4    1  0.6729064E+001  0.2361281E+02  0.7546771E-02  0.1484943E+00
          2   -1    0    0  502    0  0.00000000000E+00  0.00000000000E+00  0.93267596238E+03  0.93267596238E+03  0.00000000000E+00 0.  1.
         -2   -1    0    0    0  501 -0.00000000000E+00 -0.00000000000E+00 -0.59800173727E+00  0.59800173727E+00  0.00000000000E+00 0. -1.
          1    1    1    2  502    0  0.40200164403E+01 -0.23268094808E+02  0.47435363822E+03  0.47494098461E+03  0.00000000000E+00 0.  1.
         -1    1    1    2    0  501 -0.40200164403E+01  0.23268094808E+02  0.45772432243E+03  0.45833297951E+03  0.00000000000E+00 0. -1.
</event>
<event>
 4    1  0.6729064E+001  0.2819841E+02  0.7546771E-02  0.1435928E+00
          2   -1    0    0  502    0  0.00000000000E+00  0.00000000000E+00  0.38502431777E+03  0.38502431777E+03  0.00000000000E+00 0.  1.
         -2   -1    0    0    0  501 -0.00000000000E+00 -0.00000000000E+00 -0.50803371807E+01  0.50803371807E+01  0.00000000000E+00 0. -1.
          1    1    1    2  502    0 -0.26520435107E+02  0.95821043029E+01  0.39706662111E+02  0.48700813311E+02  0.00000000000E+00 0. -1.
         -1    1    1    2    0  501  0.26520435107E+02 -0.95821043029E+01  0.34023731848E+03  0.34140384164E+03  0.00000000000E+00 0.  1.
</event>
<event>
 4    1  0.6729064E+001  0.3619030E+02  0.7546771E-02  0.1372383E+00
          2   -1    0    0  502    0  0.00000000000E+00  0.00000000000E+00  0.20868220805E+03  0.20868220805E+03  0.00000000000E+00 0. -1.
         -2   -1    0    0    0  501 -0.00000000000E+00 -0.00000000000E+00 -0.73140759180E+01  0.73140759180E+01  0.00000000000E+00 0.  1.
          1    1    1    2  502    0 -0.10541738447E+02 -0.34620937217E+02  0.14136613056E+03  0.14592505067E+03  0.00000000000E+00 0. -1.
         -1    1    1    2    0  501  0.10541738447E+02  0.34620937217E+02  0.60002001569E+02  0.70071233296E+02  0.00000000000E+00 0.  1.
</event>
<event>
 4    1  0.6729064E+001  0.4637446E+02  0.7546771E-02  0.1314706E+00
          2   -1    0    0  502    0  0.00000000000E+00  0.00000000000E+00  0.10073246421E+04  0.10073246421E+04  0.00000000000E+00 0.  1.
         -2   -1    0    0    0  501 -0.00000000000E+00 -0.00000000000E+00 -0.22206549623E+01  0.22206549623E+01  0.00000000000E+00 0. -1.
          1    1    1    2  502    0 -0.32492728451E+02 -0.33087956483E+02  0.40338847842E+03  0.40604538513E+03  0.00000000000E+00 0.  1.
         -1    1    1    2    0  501  0.32492728451E+02  0.33087956483E+02  0.60171550872E+03  0.60349991193E+03  0.00000000000E+00 0. -1.
</event>
<event>
 4    1  0.6729064E+001  0.3931042E+02  0.7546771E-02  0.1352575E+00
          2   -1    0    0  502    0  0.00000000000E+00  0.00000000000E+00  0.14027909371E+04  0.14027909371E+04  0.00000000000E+00 0.  1.
         -2   -1    0    0    0  501 -0.00000000000E+00 -0.00000000000E+00 -0.11102569170E+01  0.11102569170E+01  0.00000000000E+00 0. -1.
          1    1    1    2  502    0  0.34235890844E+02 -0.19318715310E+02  0.76283795596E+03  0.76385015287E+03  0.00000000000E+00 0.  1.
         -1    1    1    2    0  501 -0.34235890844E+02  0.19318715310E+02  0.63884272417E+03  0.64005104110E+03  0.00000000000E+00 0. -1.
</event>
<event>
 4    1  0.6729064E+001  0.2204509E+02  0.7546771E-02  0.1504850E+00
          2   -1    0    0  502    0  0.00000000000E+00  0.00000000000E+00  0.18389008567E+02  0.18389008567E+02  0.00000000000E+00 0. -1.
         -2   -1    0    0    0  501 -0.00000000000E+00 -0.00000000000E+00 -0.29455593172E+02  0.29455593172E+02  0.00000000000E+00 0.  1.
          1    1    1    2  502    0 -0.99318677990E+01 -0.19681061662E+02 -0.13202704778E+02  0.25696256529E+02  0.00000000000E+00 0.  1.
         -1    1    1    2    0  501  0.99318677990E+01  0.19681061662E+02  0.21361201736E+01  0.22148345210E+02  0.00000000000E+00 0. -1.
</event>
<event>
 4    1  0.6729064E+001  0.2288961E+02  0.7546771E-02  0.1493889E+00
          2   -1    0    0  502    0  0.00000000000E+00  0.00000000000E+00  0.20848453296E+03  0.20848453296E+03  0.00000000000E+00 0. -1.
         -2   -1    0    0    0  501 -0.00000000000E+00 -0.00000000000E+00 -0.29380741249E+01  0.29380741249E+01  0.00000000000E+00 0.  1.
          1    1    1    2  502    0 -0.55255132890E+01 -0.22212679414E+02  0.62567213411E+02  0.66622748501E+02  0.00000000000E+00 0.  1.
         -1    1    1    2    0  501  0.55255132890E+01  0.22212679414E+02  0.14297924543E+03  0.14479985859E+03  0.00000000000E+00 0. -1.
</event>
<event>
 4    1  0.6729064E+001  0.2759606E+02  0.7546771E-02  0.1441711E+00
          2   -1    0    0  502    0  0.00000000000E+00  0.00000000000E+00  0.72905173931E+03  0.72905173931E+03  0.00000000000E+00 0. -1.
         -2   -1    0    0    0  501 -0.00000000000E+00 -0.00000000000E+00 -0.10479686660E+01  0.10479686660E+01  0.00000000000E+00 0.  1.
          1    1    1    2  502    0 -0.25207370277E+02  0.11230802395E+02  0.38480397585E+03  0.38579222681E+03  0.00000000000E+00 0.  1.
         -1    1    1    2    0  501  0.25207370277E+02 -0.11230802395E+02  0.34319979480E+03  0.34430748117E+03  0.00000000000E+00 0. -1.
</event>
<event>
 4    1  0.6729064E+001  0.2103141E+02  0.7546771E-02  0.1518817E+00
          2   -1    0    0  502    0  0.00000000000E+00  0.00000000000E+00  0.13152886261E+03  0.13152886261E+03  0.00000000000E+00 0.  1.
         -2   -1    0    0    0  501 -0.00000000000E+00 -0.00000000000E+00 -0.39759691813E+01  0.39759691813E+01  0.00000000000E+00 0. -1.
          1    1    1    2  502    0 -0.20508990272E+02 -0.46584861798E+01  0.90380834822E+02  0.92795557429E+02  0.00000000000E+00 0. -1.
         -1    1    1    2    0  501  0.20508990272E+02  0.46584861798E+01  0.37172058603E+02  0.42709274358E+02  0.00000000000E+00 0.  1.
</event>
<event>
 4    1  0.6729064E+001  0.8264993E+02  0.7546771E-02  0.1197826E+00
          2   -1    0    0  502    0  0.00000000000E+00  0.00000000000E+00  0.44406137750E+03  0.44406137750E+03  0.00000000000E+00 0. -1.
         -2   -1    0    0    0  501 -0.00000000000E+00 -0.00000000000E+00 -0.34344579611E+02  0.34344579611E+02  0.00000000000E+00 0.  1.
          1    1    1    2  502    0  0.35504670717E+02  0.74635307148E+02  0.38259397354E+03  0.39141941611E+03  0.00000000000E+00 0. -1.
         -1    1    1    2    0  501 -0.35504670717E+02 -0.74635307148E+02  0.27122824353E+02  0.86986541009E+02  0.00000000000E+00 0.  1.
</event>
<event>
 4    1  0.6729064E+001  0.3012638E+02  0.7546771E-02  0.1418501E+00
          2   -1    0    0  502    0  0.00000000000E+00  0.00000000000E+00  0.10249220410E+04  0.10249220410E+04  0.00000000000E+00 0.  1.
         -2   -1    0    0    0  501 -0.00000000000E+00 -0.00000000000E+00 -0.88954297998E+00  0.88954297998E+00  0.00000000000E+00 0. -1.
          1    1    1    2  502    0 -0.17165318774E+02 -0.24757838437E+02  0.47756435562E+03  0.47851364922E+03  0.00000000000E+00 0.  1.
         -1    1    1    2    0  501  0.17165318774E+02  0.24757838437E+02  0.54646814245E+03  0.54729793481E+03  0.00000000000E+00 0. -1.
</event>
<event>
 4    1  0.6729064E+001  0.3124215E+02  0.7546771E-02  0.1409101E+00
          2   -1    0    0  502    0  0.00000000000E+00  0.00000000000E+00  0.72680938729E+00  0.72680938729E+00  0.00000000000E+00 0.  1.
         -2   -1    0    0    0  501 -0.00000000000E+00 -0.00000000000E+00 -0.15717928519E+04  0.15717928519E+04  0.00000000000E+00 0. -1.
          1    1    1    2  502    0 -0.15288373704E+02 -0.27245872809E+02 -0.10855410073E+04  0.10859904928E+04  0.00000000000E+00 0. -1.
         -1    1    1    2    0  501  0.15288373704E+02  0.27245872809E+02 -0.48552503524E+03  0.48652916850E+03  0.00000000000E+00 0.  1.
</event>
<event>
 4    1  0.6729064E+001  0.2119955E+02  0.7546771E-02  0.1516435E+00
          2   -1    0    0  502    0  0.00000000000E+00  0.00000000000E+00  0.55054701564E+01  0.55054701564E+01  0.00000000000E+00 0. -1.
         -2   -1    0    0    0  501 -0.00000000000E+00 -0.00000000000E+00 -0.89216044200E+02  0.89216044200E+02  0.00000000000E+00 0.  1.
          1    1    1    2  502    0  0.21031481485E+01 -0.21094964963E+02 -0.55664112501E+02  0.59564370218E+02  0.00000000000E+00 0.  1.
         -1    1    1    2    0  501 -0.21031481485E+01  0.21094964963E+02 -0.28046461542E+02  0.35157144138E+02  0.00000000000E+00 0. -1.
</event>
<event>
 4    1  0.6729064E+001  0.2805359E+02  0.7546771E-02  0.1437302E+00
          2   -1    0    0  502    0  0.00000000000E+00  0.00000000000E+00  0.11766523330E+04  0.11766523330E+04  0.00000000000E+00 0.  1.
         -2   -1    0    0    0  501 -0.00000000000E+00 -0.00000000000E+00 -0.68858915667E+00  0.68858915667E+00  0.00000000000E+00 0. -1.
          1    1    1    2  502    0  0.25535195026E+02  0.11617129554E+02  0.48831364765E+03  0.48911882234E+03  0.00000000000E+00 0. -1.
         -1    1    1    2    0  501 -0.25535195026E+02 -0.11617129554E+02  0.68765009619E+03  0.68822209981E+03  0.00000000000E+00 0.  1.
</event>
<event>
 4    1  0.6729064E+001  0.3200054E+02  0.7546771E-02  0.1402973E+00
          2   -1    0    0  502    0  0.00000000000E+00  0.00000000000E+00  0.54084064913E+03  0.54084064913E+03  0.00000000000E+00 0. -1.
         -2   -1    0    0    0  501 -0.00000000000E+00 -0.00000000000E+00 -0.20940801887E+01  0.20940801887E+01  0.00000000000E+00 0.  1.
          1    1    1    2  502    0 -0.31781512098E+02  0.37376452055E+01  0.35340816413E+03  0.35485400516E+03  0.00000000000E+00 0. -1.
         -1    1    1    2    0  501  0.31781512098E+02 -0.37376452055E+01  0.18533840482E+03  0.18808072417E+03  0.00000000000E+00 0.  1.
</event>
<event>
 4    1  0.6729064E+001  0.4521793E+02  0.7546771E-02  0.1320353E+00
          2   -1    0    0  502    0  0.00000000000E+00  0.00000000000E+00  0.28897367053E+02  0.28897367053E+02  0.00000000000E+00 0.  1.
         -2   -1    0    0    0  501 -0.00000000000E+00 -0.00000000000E+00 -0.73217341121E+02  0.73217341121E+02  0.00000000000E+00 0. -1.
          1    1    1    2  502    0 -0.36868217091E+02  0.26180065426E+02 -0.12798608327E+02  0.46994314894E+02  0.00000000000E+00 0. -1.
         -1    1    1    2    0  501  0.36868217091E+02 -0.26180065426E+02 -0.31521365740E+02  0.55120393280E+02  0.00000000000E+00 0.  1.
</event>
<event>
 4    1  0.6729064E+001  0.2695064E+02  0.7546771E-02  0.1448105E+00
          2   -1    0    0  502    0  0.00000000000E+00  0.00000000000E+00  0.13356916181E+04  0.13356916181E+04  0.00000000000E+00 0.  1.
         -2   -1    0    0    0  501 -0.00000000000E+00 -0.00000000000E+00 -0.55567488309E+00  0.55567488309E+00  0.00000000000E+00 0. -1.
          1    1    1    2  502    0  0.24111024241E+02 -0.12041409905E+02  0.76527508152E+03  0.76574949392E+03  0.00000000000E+00 0. -1.
         -1    1    1    2    0  501 -0.24111024241E+02  0.12041409905E+02  0.56986086166E+03  0.57049779903E+03  0.00000000000E+00 0.  1.
</event>
<event>
 4    1  0.6729064E+001  0.2416280E+02  0.7546771E-02  0.1478391E+00
          2   -1    0    0  502    0  0.00000000000E+00  0.00000000000E+00  0.67101329694E+01  0.67101329694E+01  0.00000000000E+00 0. -1.
         -2   -1    0    0    0  501 -0.00000000000E+00 -0.00000000000E+00 -0.87699680533E+02  0.87699680533E+02  0.00000000000E+00 0.  1.
          1    1    1    2  502    0 -0.22576926758E+02  0.86094768517E+01 -0.44684494942E+02  0.50799063000E+02  0.00000000000E+00 0.  1.
         -1    1    1    2    0  501  0.22576926758E+02 -0.86094768517E+01 -0.36305052622E+02  0.43610750502E+02  0.00000000000E+00 0. -1.
</event>
<event>
 4    1  0.6729064E+001  0.2222393E+02  0.7546771E-02  0.1502480E+00
          2   -1    0    0  502    0  0.00000000000E+00  0.00000000000E+00  0.43457415553E+02  0.43457415553E+02  0.00000000000E+00 0.  1.
         -2   -1    0    0    0  501 -0.00000000000E+00 -0.00000000000E+00 -0.11459927308E+02  0.11459927308E+02  0.00000000000E+00 0. -1.
          1    1    1    2  502    0  0.10731861193E+02 -0.19460986753E+02  0.13502466368E+02  0.26004219813E+02  0.00000000000E+00 0. -1.
         -1    1    1    2    0  501 -0.10731861193E+02  0.19460986753E+02  0.18495021878E+02  0.28913123047E+02  0.00000000000E+00 0.  1.
</event>
<event>
 4    1  0.6729064E+001  0.3141187E+02  0.7546771E-02  0.1407712E+00
          2   -1    0    0  502    0  0.00000000000E+00  0.00000000000E+00  0.29991094880E+01  0.29991094880E+01  0.00000000000E+00 0.  1.
         -2   -1    0    0    0  501 -0.00000000000E+00 -0.00000000000E+00 -0.43577058216E+03  0.43577058216E+03  0.00000000000E+00 0. -1.
          1    1    1    2  502    0 -0.30677812998E+02  0.67510862802E+01 -0.10779204606E+03  0.11227569003E+03  0.00000000000E+00 0.  1.
         -1    1    1    2    0  501  0.30677812998E+02 -0.67510862802E+01 -0.32497942661E+03  0.32649400162E+03  0.00000000000E+00 0. -1.
</event>
<event>
 4    1  0.6729064E+001  0.2377972E+02  0.7546771E-02  0.1482933E+00
          2   -1    0    0  502    0  0.00000000000E+00  0.00000000000E+00  0.69428163607E+03  0.69428163607E+03  0.00000000000E+00 0. -1.
         -2   -1    0    0    0  501 -0.00000000000E+00 -0.00000000000E+00 -0.81712431824E+00  0.81712431824E+00  0.00000000000E+00 0.  1.
          1    1    1    2  502    0  0.80725032077E+01 -0.22367605433E+02  0.36652172607E+03  0.36729232331E+03  0.00000000000E+00 0.  1.
         -1    1    1    2    0  501 -0.80725032077E+01  0.22367605433E+02  0.32694278568E+03  0.32780643708E+03  0.00000000000E+00 0. -1.
</event>
<event>
 4    1  0.6729064E+001  0.3788017E+02  0.7546771E-02  0.1361377E+00
          2   -1    0    0  502    0  0.00000000000E+00  0.00000000000E+00  0.68693599958E+01  0.68693599958E+01  0.00000000000E+00 0. -1.
         -2   -1    0    0    0  501 -0.00000000000E+00 -0.00000000000E+00 -0.23685270881E+03  0.23685270881E+03  0.00000000000E+00 0.  1.
          1    1    1    2  502    0 -0.33360220948E+02  0.17944439980E+02 -0.73116850781E+02  0.82346712964E+02  0.00000000000E+00 0. -1.
         -1    1    1    2    0  501  0.33360220948E+02 -0.17944439980E+02 -0.15686649804E+03  0.16137535585E+03  0.00000000000E+00 0.  1.
</event>
<event>
 4    1  0.6729064E+001  0.2840380E+02  0.7546771E-02  0.1433994E+00
          2   -1    0    0  502    0  0.00000000000E+00  0.00000000000E+00  0.57137861087E+01  0.57137861087E+01  0.00000000000E+00 0. -1.
         -2   -1    0    0    0  501 -0.00000000000E+00 -0.00000000000E+00 -0.21441161739E+03  0.21441161739E+03  0.00000000000E+00 0.  1.
          1    1    1    2  502    0 -0.63965048829E+01  0.27674188332E+02 -0.40034026042E+02  0.49086650076E+02  0.00000000000E+00 0. -1.
         -1    1    1    2    0  501  0.63965048829E+01 -0.27674188332E+02 -0.16866380524E+03  0.17103875342E+03  0.00000000000E+00 0.  1.
</event>
<event>
 4    1  0.6729064E+001  0.3171578E+02  0.7546771E-02  0.1405250E+00
          2   -1    0    0  502    0  0.00000000000E+00  0.00000000000E+00  0.64533992744E+02  0.64533992744E+02  0.00000000000E+00 0. -1.
         -2   -1    0    0    0  501 -0.00000000000E+00 -0.00000000000E+00 -0.70629392911E+02  0.70629392911E+02  0.00000000000E+00 0.  1.
          1    1    1    2  502    0 -0.22766439847E+02 -0.22081205847E+02  0.56612545684E+02  0.64891222548E+02  0.00000000000E+00 0. -1.
         -1    1    1    2    0  501  0.22766439847E+02  0.22081205847E+02 -0.62707945851E+02  0.70272163107E+02  0.00000000000E+00 0.  1.
</event>
<event>
 4    1  0.6729064E+001  0.4836017E+02  0.7546771E-02  0.1305443E+00
          2   -1    0    0  502    0  0.00000000000E+00  0.00000000000E+00  0.62445957810E+03  0.62445957810E+03  0.00000000000E+00 0. -1.
         -2   -1    0    0    0  501 -0.00000000000E+00 -0.00000000000E+00 -0.43673414720E+01  0.43673414720E+01  0.00000000000E+00 0.  1.
          1    1    1    2  502    0 -0.73368389759E+01  0.47800385601E+02  0.19137411414E+03  0.19738986203E+03  0.00000000000E+00 0. -1.
         -1    1    1    2    0  501  0.73368389759E+01 -0.47800385601E+02  0.42871812249E+03  0.43143705754E+03  0.00000000000E+00 0.  1.
</event>
<event>
 4    1  0.6729064E+001  0.2289930E+02  0.7546771E-02  0.1493767E+00
          2   -1    0    0  502    0  0.00000000000E+00  0.00000000000E+00  0.28564561644E+02  0.28564561644E+02  0.00000000000E+00 0. -1.
         -2   -1    0    0    0  501 -0.00000000000E+00 -0.00000000000E+00 -0.18363520773E+02  0.18363520773E+02  0.00000000000E+00 0.  1.
          1    1    1    2  502    0 -0.12801260258E+02 -0.18986988108E+02  0.46806769043E+01  0.23372777283E+02  0.00000000000E+00 0. -1.
         -1    1    1    2    0  501  0.12801260258E+02  0.18986988108E+02  0.55203639669E+01  0.23555305134E+02  0.00000000000E+00 0.  1.
</event>
<event>
 4    1  0.6729064E+001  0.2543173E+02  0.7546771E-02  0.1464031E+00
          2   -1    0    0  502    0  0.00000000000E+00  0.00000000000E+00  0.15875716157E+04  0.15875716157E+04  0.00000000000E+00 0.  1.
         -2   -1    0    0    0  501 -0.00000000000E+00 -0.00000000000E+00 -0.63046087134E+00  0.63046087134E+00  0.00000000000E+00 0. -1.
          1    1    1    2  502    0 -0.41713975750E+01  0.25087294847E+02  0.12658170702E+04  0.12660725209E+04  0.00000000000E+00 0.  1.
         -1    1    1    2    0  501  0.41713975750E+01 -0.25087294847E+02  0.32112408457E+03  0.32212955563E+03  0.00000000000E+00 0. -1.
</event>
<event>
 4    1  0.6729064E+001  0.2495670E+02  0.7546771E-02  0.1469288E+00
          2   -1    0    0  502    0  0.00000000000E+00  0.00000000000E+00  0.12431259130E+04  0.12431259130E+04  0.00000000000E+00 0. -1.
         -2   -1    0    0    0  501 -0.00000000000E+00 -0.00000000000E+00 -0.89988728253E+00  0.89988728253E+00  0.00000000000E+00 0.  1.
          1    1    1    2  502    0 -0.23487507450E+02  0.84364684135E+01  0.10352241281E+04  0.10355249067E+04  0.00000000000E+00 0. -1.
         -1    1    1    2    0  501  0.23487507450E+02 -0.84364684135E+01  0.20700189762E+03  0.20850089358E+03  0.00000000000E+00 0.  1.
</event>
<event>
 4    1  0.6729064E+001  0.3023672E+02  0.7546771E-02  0.1417550E+00
          2   -1    0    0  502    0  0.00000000000E+00  0.00000000000E+00  0.10035305800E+02  0.10035305800E+02  0.00000000000E+00 0. -1.
         -2   -1    0    0    0  501 -0.00000000000E+00 -0.00000000000E+00 -0.10459555659E+03  0.10459555659E+03  0.00000000000E+00 0.  1.
          1    1    1    2  502    0  0.22114555819E+00  0.30235906747E+02 -0.67864706167E+02  0.74295876772E+02  0.00000000000E+00 0. -1.
         -1    1    1    2    0  501 -0.22114555819E+00 -0.30235906747E+02 -0.26695544624E+02  0.40334985620E+02  0.00000000000E+00 0.  1.
</event>
<event>
 4    1  0.6729064E+001  0.2195370E+02  0.7546771E-02  0.1506072E+00
          2   -1    0    0  502    0  0.00000000000E+00  0.00000000000E+00  0.12376627352E+04  0.12376627352E+04  0.00000000000E+00 0. -1.
         -2   -1    0    0    0  501 -0.00000000000E+00 -0.00000000000E+00 -0.40780382512E+00  0.40780382512E+00  0.00000000000E+00 0.  1.
          1    1    1    2  502    0 -0.12063390747E+02 -0.18342287625E+02  0.48717698439E+03  0.48767138427E+03  0.00000000000E+00 0.  1.
         -1    1    1    2    0  501  0.12063390747E+02  0.18342287625E+02  0.75007794700E+03  0.75039915477E+03  0.00000000000E+00 0. -1.
</event>
<event>
 4    1  0.6729064E+001  0.3175949E+02  0.7546771E-02  0.1404899E+00
          2   -1    0    0  502    0  0.00000000000E+00  0.00000000000E+00  0.20934119394E+03  0.20934119394E+03  0.00000000000E+00 0.  1.
         -2   -1    0    0    0  501 -0.00000000000E+00 -0.00000000000E+00 -0.49873871922E+01  0.49873871922E+01  0.00000000000E+00 0. -1.
          1    1    1    2  502    0 -0.79608570306E+01  0.30745570070E+02  0.12190973744E+03  0.12597876569E+03  0.00000000000E+00 0. -1.
         -1    1    1    2    0  501  0.79608570306E+01 -0.30745570070E+02  0.82444069306E+02  0.88349815434E+02  0.00000000000E+00 0.  1.
</event>
<event>
 4    1  0.6729064E+001  0.2305019E+02  0.7546771E-02  0.1491869E+00
          2   -1    0    0  502    0  0.00000000000E+00  0.00000000000E+00  0.25828900685E+02  0.25828900685E+02  0.00000000000E+00 0. -1.
         -2   -1    0    0    0  501 -0.00000000000E+00 -0.00000000000E+00 -0.40542737613E+02  0.40542737613E+02  0.00000000000E+00 0.  1.
          1    1    1    2  502    0 -0.16943843281E+02  0.15627464221E+02 -0.30649100997E+02  0.38349430961E+02  0.00000000000E+00 0.  1.
         -1    1    1    2    0  501  0.16943843281E+02 -0.15627464221E+02  0.15935264069E+02  0.28022207337E+02  0.00000000000E+00 0. -1.
</event>
<event>
 4    1  0.6729064E+001  0.2022525E+02  0.7546771E-02  0.1530620E+00
          2   -1    0    0  502    0  0.00000000000E+00  0.00000000000E+00  0.34536628206E+03  0.34536628206E+03  0.00000000000E+00 0.  1.
         -2   -1    0    0    0  501 -0.00000000000E+00 -0.00000000000E+00 -0.11871622895E+01  0.11871622895E+01  0.00000000000E+00 0. -1.
          1    1    1    2  502    0 -0.10986745966E+02 -0.16980934016E+02  0.18040889250E+03  0.18153905695E+03  0.00000000000E+00 0.  1.
         -1    1    1    2    0  501  0.10986745966E+02  0.16980934016E+02  0.16377022728E+03  0.16501438740E+03  0.00000000000E+00 0. -1.
</event>
<event>
 4    1  0.6729064E+001  0.3134156E+02  0.7546771E-02  0.1408286E+00
          2   -1    0    0  502    0  0.00000000000E+00  0.00000000000E+00  0.89071538103E+03  0.89071538103E+03  0.00000000000E+00 0.  1.
         -2   -1    0    0    0  501 -0.00000000000E+00 -0.00000000000E+00 -0.15993006482E+01  0.15993006482E+01  0.00000000000E+00 0. -1.
          1    1    1    2  502    0 -0.91221095544E+01 -0.29984667605E+02  0.19597191759E+03  0.19846230286E+03  0.00000000000E+00 0. -1.
         -1    1    1    2    0  501  0.91221095544E+01  0.29984667605E+02  0.69314416279E+03  0.69385237881E+03  0.00000000000E+00 0.  1.
</event>
<event>
 4    1  0.6729064E+001  0.2653217E+02  0.7546771E-02  0.1452365E+00
          2   -1    0    0  502    0  0.00000000000E+00  0.00000000000E+00  0.16028831570E+01  0.16028831570E+01  0.00000000000E+00 0. -1.
         -2   -1    0    0    0  501 -0.00000000000E+00 -0.00000000000E+00 -0.44728645538E+03  0.44728645538E+03  0.00000000000E+00 0.  1.
          1    1    1    2  502    0 -0.95805284709E+01 -0.24742056888E+02 -0.19262809099E+03  0.19444674680E+03  0.00000000000E+00 0. -1.
         -1    1    1    2    0  501  0.95805284709E+01  0.24742056888E+02 -0.25305548124E+03  0.25444259173E+03  0.00000000000E+00 0.  1.
</event>
<event>
 4    1  0.6729064E+001  0.2041845E+02  0.7546771E-02  0.1527732E+00
          2   -1    0    0  502    0  0.00000000000E+00  0.00000000000E+00  0.20469442877E+04  0.20469442877E+04  0.00000000000E+00 0. -1.
         -2   -1    0    0    0  501 -0.00000000000E+00 -0.00000000000E+00 -0.20444673195E+00  0.20444673195E+00  0.00000000000E+00 0.  1.
          1    1    1    2  502    0 -0.19954240945E+02 -0.43291369645E+01  0.96051813286E+03  0.96073513349E+03  0.00000000000E+00 0. -1.
         -1    1    1    2    0  501  0.19954240945E+02  0.43291369645E+01  0.10862217081E+04  0.10864136010E+04  0.00000000000E+00 0.  1.
</event>
<event>
 4    1  0.6729064E+001  0.2200357E+02  0.7546771E-02  0.1505404E+00
          2   -1    0    0  502    0  0.00000000000E+00  0.00000000000E+00  0.14742834951E+04  0.14742834951E+04  0.00000000000E+00 0.  1.
         -2   -1    0    0    0  501 -0.00000000000E+00 -0.00000000000E+00 -0.84957765330E+00  0.84957765330E+00  0.00000000000E+00 0. -1.
          1    1    1    2  502    0 -0.52174313681E+01  0.21376049802E+02  0.13144030086E+04  0.13145871694E+04  0.00000000000E+00 0.  1.
         -1    1    1    2    0  501  0.52174313681E+01 -0.21376049802E+02  0.15903090883E+03  0.16054590328E+03  0.00000000000E+00 0. -1.
</event>
<event>
 4    1  0.6729064E+001  0.2500874E+02  0.7546771E-02  0.1468706E+00
          2   -1    0    0  502    0  0.00000000000E+00  0.00000000000E+00  0.20714451181E+04  0.20714451181E+04  0.00000000000E+00 0. -1.
         -2   -1    0    0    0  501 -0.00000000000E+00 -0.00000000000E+00 -0.80122638127E+00  0.80122638127E+00  0.00000000000E+00 0.  1.
          1    1    1    2  502    0 -0.88392261810E+00 -0.24993116866E+02  0.21740018862E+03  0.21883390785E+03  0.00000000000E+00 0.  1.
         -1    1    1    2    0  501  0.88392261810E+00  0.24993116866E+02  0.18532437031E+04  0.18534124367E+04  0.00000000000E+00 0. -1.
</event>
<event>
 4    1  0.6729064E+001  0.2716724E+02  0.7546771E-02  0.1445935E+00
          2   -1    0    0  502    0  0.00000000000E+00  0.00000000000E+00  0.63520393535E+03  0.63520393535E+03  0.00000000000E+00 0. -1.
         -2   -1    0    0    0  501 -0.00000000000E+00 -0.00000000000E+00 -0.17592868653E+01  0.17592868653E+01  0.00000000000E+00 0.  1.
          1    1    1    2  502    0 -0.93456939220E+01 -0.25509150342E+02  0.13114063895E+03  0.13392507581E+03  0.00000000000E+00 0.  1.
         -1    1    1    2    0  501  0.93456939220E+01  0.25509150342E+02  0.50230400953E+03  0.50303814640E+03  0.00000000000E+00 0. -1.
</event>
<event>
 4    1  0.6729064E+001  0.2142556E+02  0.7546771E-02  0.1513275E+00
          2   -1    0    0  502    0  0.00000000000E+00  0.00000000000E+00  0.18612685856E+02  0.18612685856E+02  0.00000000000E+00 0. -1.
         -2   -1    0    0    0  501 -0.00000000000E+00 -0.00000000000E+00 -0.87759314587E+02  0.87759314587E+02  0.00000000000E+00 0.  1.
          1    1    1    2  502    0 -0.19041328715E+02  0.98225476340E+01  0.10524020066E+02  0.23870685780E+02  0.00000000000E+00 0. -1.
         -1    1    1    2    0  501  0.19041328715E+02 -0.98225476340E+01 -0.79670648797E+02  0.82501314662E+02  0.00000000000E+00 0.  1.
</event>
<event>
 4    1  0.6729064E+001  0.2170269E+02  0.7546771E-02  0.1509464E+00
          2   -1    0    0  502    0  0.00000000000E+00  0.00000000000E+00  0.44022696219E+03  0.44022696219E+03  0.00000000000E+00 0.  1.
         -2   -1    0    0    0  501 -0.00000000000E+00 -0.00000000000E+00 -0.17423768819E+01  0.17423768819E+01  0.00000000000E+00 0. -1.
          1    1    1    2  502    0 -0.46870899920E+00 -0.21697630550E+02  0.35652754411E+03  0.35718748098E+03  0.00000000000E+00 0.  1.
         -1    1    1    2    0  501  0.46870899920E+00  0.21697630550E+02  0.81957041205E+02  0.84781858099E+02  0.00000000000E+00 0. -1.
</event>
<event>
 4    1  0.6729064E+001  0.2304892E+02  0.7546771E-02  0.1491885E+00
          2   -1    0    0  502    0  0.00000000000E+00  0.00000000000E+00  0.77642354817E+03  0.77642354817E+03  0.00000000000E+00 0.  1.
         -2   -1    0    0    0  501 -0.00000000000E+00 -0.00000000000E+00 -0.10422392167E+01  0.10422392167E+01  0.00000000000E+00 0. -1.
          1    1    1    2  502    0 -0.76069331888E+01 -0.21757465179E+02  0.15985885174E+03  0.16151193517E+03  0.00000000000E+00 0. -1.
         -1    1    1    2    0  501  0.76069331888E+01  0.21757465179E+02  0.61552245721E+03  0.61595385221E+03  0.00000000000E+00 0.  1.
</event>
<event>
 4    1  0.6729064E+001  0.2125165E+02  0.7546771E-02  0.1515702E+00
          2   -1    0    0  502    0  0.00000000000E+00  0.00000000000E+00  0.88215295197E+01  0.88215295197E+01  0.00000000000E+00 0.  1.
         -2   -1    0    0    0  501 -0.00000000000E+00 -0.00000000000E+00 -0.62196233299E+02  0.62196233299E+02  0.00000000000E+00 0. -1.
          1    1    1    2  502    0  0.20184328647E+02 -0.66502144669E+01 -0.11754467551E+02  0.24285797965E+02  0.00000000000E+00 0.  1.
         -1    1    1    2    0  501 -0.20184328647E+02  0.66502144669E+01 -0.41620236228E+02  0.46731964853E+02  0.00000000000E+00 0. -1.
</event>
<event>
 4    1  0.6729064E+001  0.2830474E+02  0.7546771E-02  0.1434924E+00
          2   -1    0    0  502    0  0.00000000000E+00  0.00000000000E+00  0.12359295077E+03  0.12359295077E+03  0.00000000000E+00 0.  1.
         -2   -1    0    0    0  501 -0.00000000000E+00 -0.00000000000E+00 -0.71270548392E+01  0.71270548392E+01  0.00000000000E+00 0. -1.
          1    1    1    2  502    0  0.15128068196E+02 -0.23922785024E+02  0.77892674041E+02  0.82875972150E+02  0.00000000000E+00 0.  1.
         -1    1    1    2    0  501 -0.15128068196E+02  0.23922785024E+02  0.38573221893E+02  0.47844033461E+02  0.00000000000E+00 0. -1.
</event>
<event>
 4    1  0.6729064E+001  0.2564678E+02  0.7546771E-02  0.1461696E+00
          2   -1    0    0  502    0  0.00000000000E+00  0.00000000000E+00  0.94326812281E+03  0.94326812281E+03  0.00000000000E+00 0. -1.
         -2   -1    0    0    0  501 -0.00000000000E+00 -0.00000000000E+00 -0.76318228229E+00  0.76318228229E+00  0.00000000000E+00 0.  1.
          1    1    1    2  502    0  0.24718920648E+02 -0.68361176463E+01  0.60991792671E+03  0.61045690664E+03  0.00000000000E+00 0.  1.
         -1    1    1    2    0  501 -0.24718920648E+02  0.68361176463E+01  0.33258701381E+03  0.33357439845E+03  0.00000000000E+00 0. -1.
</event>
<event>
 4    1  0.6729064E+001  0.2418106E+02  0.7546771E-02  0.1478177E+00
          2   -1    0    0  502    0  0.00000000000E+00  0.00000000000E+00  0.51445091585E+03  0.51445091585E+03  0.00000000000E+00 0. -1.
         -2   -1    0    0    0  501 -0.00000000000E+00 -0.00000000000E+00 -0.18766601798E+01  0.18766601798E+01  0.00000000000E+00 0.  1.
          1    1    1    2  502    0  0.75555878820E+01 -0.22970348330E+02  0.41840714884E+03  0.41910531613E+03  0.00000000000E+00 0. -1.
         -1    1    1    2    0  501 -0.75555878820E+01  0.22970348330E+02  0.94167106834E+02  0.97222259901E+02  0.00000000000E+00 0.  1.
</event>
<event>
 4    1  0.6729064E+001  0.3639721E+02  0.7546771E-02  0.1370998E+00
          2   -1    0    0  502    0  0.00000000000E+00  0.00000000000E+00  0.95659888188E+03  0.95659888188E+03  0.00000000000E+00 0.  1.
         -2   -1    0    0    0  501 -0.00000000000E+00 -0.00000000000E+00 -0.15103448544E+01  0.15103448544E+01  0.00000000000E+00 0. -1.
          1    1    1    2  502    0 -0.28833772097E+02  0.22211939902E+02  0.61562736703E+03  0.61670236884E+03  0.00000000000E+00 0.  1.
         -1    1    1    2    0  501  0.28833772097E+02 -0.22211939902E+02  0.33946117000E+03  0.34140685790E+03  0.00000000000E+00 0. -1.
</event>
<event>
 4    1  0.6729064E+001  0.4538122E+02  0.7546771E-02  0.1319544E+00
          2   -1    0    0  502    0  0.00000000000E+00  0.00000000000E+00  0.10425477287E+03  0.10425477287E+03  0.00000000000E+00 0.  1.
         -2   -1    0    0    0  501 -0.00000000000E+00 -0.00000000000E+00 -0.22213503199E+02  0.22213503199E+02  0.00000000000E+00 0. -1.
          1    1    1    2  502    0  0.16425828885E+02 -0.42304218782E+02  0.19979861790E+02  0.49584772445E+02  0.00000000000E+00 0.  1.
         -1    1    1    2    0  501 -0.16425828885E+02  0.42304218782E+02  0.62061407880E+02  0.76883503623E+02  0.00000000000E+00 0. -1.
</event>
<event>
 4    1  0.6729064E+001  0.2082094E+02  0.7546771E-02  0.1521837E+00
          2   -1    0    0  502    0  0.00000000000E+00  0.00000000000E+00  0.71360909333E+02  0.71360909333E+02  0.00000000000E+00 0.  1.
         -2   -1    0    0    0  501 -0.00000000000E+00 -0.00000000000E+00 -0.69225528127E+01  0.69225528127E+01  0.00000000000E+00 0. -1.
          1    1    1    2  502    0  0.82321655994E+01  0.19124408454E+02  0.45915745235E+02  0.50415942019E+02  0.00000000000E+00 0.  1.
         -1    1    1    2    0  501 -0.82321655994E+01 -0.19124408454E+02  0.18522611286E+02  0.27867520127E+02  0.00000000000E+00 0. -1.
</event>
<event>
 4    1  0.6729064E+001  0.4929570E+02  0.7546771E-02  0.1301255E+00
          2   -1    0    0  502    0  0.00000000000E+00  0.00000000000E+00  0.23393451908E+04  0.23393451908E+04  0.00000000000E+00 0.  1.
         -2   -1    0    0    0  501 -0.00000000000E+00 -0.00000000000E+00 -0.26652201441E+01  0.26652201441E+01  0.00000000000E+00 0. -1.
          1    1    1    2  502    0 -0.31641324416E+02  0.37800700723E+02  0.25357139239E+03  0.25831863545E+03  0.00000000000E+00 0. -1.
         -1    1    1    2    0  501  0.31641324416E+02 -0.37800700723E+02  0.20831085782E+04  0.20836917755E+04  0.00000000000E+00 0.  1.
</event>
<event>
 4    1  0.6729064E+001  0.3973465E+02  0.7546771E-02  0.1350048E+00
          2   -1    0    0  502    0  0.00000000000E+00  0.00000000000E+00  0.42039176164E+01  0.42039176164E+01  0.00000000000E+00 0. -1.
         -2   -1    0    0    0  501 -0.00000000000E+00 -0.00000000000E+00 -0.43745793209E+03  0.43745793209E+03  0.00000000000E+00 0.  1.
          1    1    1    2  502    0 -0.43355015055E+01 -0.39497416829E+02 -0.13356282712E+03  0.13934802222E+03  0.00000000000E+00 0. -1.
         -1    1    1    2    0  501  0.43355015055E+01  0.39497416829E+02 -0.29969118735E+03  0.30231382748E+03  0.00000000000E+00 0.  1.
</event>
<event>
 4    1  0.6729064E+001  0.2204858E+02  0.7546771E-02  0.1504804E+00
          2   -1    0    0  502    0  0.00000000000E+00  0.00000000000E+00  0.22267183657E+03  0.22267183657E+03  0.00000000000E+00 0.  1.
         -2   -1    0    0    0  501 -0.00000000000E+00 -0.00000000000E+00 -0.22016015288E+01  0.22016015288E+01  0.00000000000E+00 0. -1.
          1    1    1    2  502    0 -0.90845093780E+01 -0.20090085227E+02  0.99959129098E+02  0.10236194276E+03  0.00000000000E+00 0. -1.
         -1    1    1    2    0  501  0.90845093780E+01  0.20090085227E+02  0.12051110594E+03  0.12251149534E+03  0.00000000000E+00 0.  1.
</event>
<event>
 4    1  0.6729064E+001  0.4321853E+02  0.7546771E-02  0.1330592E+00
          2   -1    0    0  502    0  0.00000000000E+00  0.00000000000E+00  0.90772424286E+02  0.90772424286E+02  0.00000000000E+00 0.  1.
         -2   -1    0    0    0  501 -0.00000000000E+00 -0.00000000000E+00 -0.21121872778E+02  0.21121872778E+02  0.00000000000E+00 0. -1.
          1    1    1    2  502    0  0.42435032524E+02 -0.81920233418E+01  0.25840972554E+02  0.50354712731E+02  0.00000000000E+00 0. -1.
         -1    1    1    2    0  501 -0.42435032524E+02  0.81920233418E+01  0.43809578954E+02  0.61539584333E+02  0.00000000000E+00 0.  1.
</event>
<event>
 4    1  0.6729064E+001  0.5001106E+02  0.7546771E-02  0.1298124E+00
          2   -1    0    0  502    0  0.00000000000E+00  0.00000000000E+00  0.12613626743E+04  0.12613626743E+04  0.00000000000E+00 0. -1.
         -2   -1    0    0    0  501 -0.00000000000E+00 -0.00000000000E+00 -0.28783580937E+01  0.28783580937E+01  0.00000000000E+00 0.  1.
          1    1    1    2  502    0  0.70064689039E+01  0.49517834474E+02  0.98182374305E+03  0.98309662239E+03  0.00000000000E+00 0. -1.
         -1    1    1    2    0  501 -0.70064689039E+01 -0.49517834474E+02  0.27666057318E+03  0.28114441003E+03  0.00000000000E+00 0.  1.
</event>
<event>
 4    1  0.6729064E+001  0.2023044E+02  0.7546771E-02  0.1530542E+00
          2   -1    0    0  502    0  0.00000000000E+00  0.00000000000E+00  0.21568533558E+03  0.21568533558E+03  0.00000000000E+00 0. -1.
         -2   -1    0    0    0  501 -0.00000000000E+00 -0.00000000000E+00 -0.19103022039E+01  0.19103022039E+01  0.00000000000E+00 0.  1.
          1    1    1    2  502    0  0.17060616688E+02 -0.10872261704E+02  0.97993501273E+02  0.10005996706E+03  0.00000000000E+00 0.  1.
         -1    1    1    2    0  501 -0.17060616688E+02  0.10872261704E+02  0.11578153211E+03  0.11753567073E+03  0.00000000000E+00 0. -1.
</event>
<event>
 4    1  0.6729064E+001  0.2128184E+02  0.7546771E-02  0.1515279E+00
          2   -1    0    0  502    0  0.00000000000E+00  0.00000000000E+00  0.29327979041E+02  0.29327979041E+02  0.00000000000E+00 0. -1.
         -2   -1    0    0    0  501 -0.00000000000E+00 -0.00000000000E+00 -0.15702236434E+02  0.15702236434E+02  0.00000000000E+00 0.  1.
          1    1    1    2  502    0 -0.14910634742E+02 -0.15185182759E+02  0.39208367083E+01  0.21640003797E+02  0.00000000000E+00 0.  1.
         -1    1    1    2    0  501  0.14910634742E+02  0.15185182759E+02  0.97049058993E+01  0.23390211678E+02  0.00000000000E+00 0. -1.
</event>
<event>
 4    1  0.6729064E+001  0.2073368E+02  0.7546771E-02  0.1523101E+00
          2   -1    0    0  502    0  0.00000000000E+00  0.00000000000E+00  0.15688392384E+03  0.15688392384E+03  0.00000000000E+00 0. -1.
         -2   -1    0    0    0  501 -0.00000000000E+00 -0.00000000000E+00 -0.68399013243E+01  0.68399013243E+01  0.00000000000E+00 0.  1.
          1    1    1    2  502    0 -0.80097807067E-01 -0.20733526323E+02  0.11644422682E+02  0.23779783620E+02  0.00000000000E+00 0.  1.
         -1    1    1    2    0  501  0.80097807067E-01  0.20733526323E+02  0.13839959983E+03  0.13994404154E+03  0.00000000000E+00 0. -1.
</event>
<event>
 4    1  0.6729064E+001  0.2875425E+02  0.7546771E-02  0.1430740E+00
          2   -1    0    0  502    0  0.00000000000E+00  0.00000000000E+00  0.48071097416E+03  0.48071097416E+03  0.00000000000E+00 0. -1.
         -2   -1    0    0    0  501 -0.00000000000E+00 -0.00000000000E+00 -0.17603660557E+01  0.17603660557E+01  0.00000000000E+00 0.  1.
          1    1    1    2  502    0  0.26662348635E+02 -0.10766893767E+02  0.27602027377E+03  0.27751396068E+03  0.00000000000E+00 0.  1.
         -1    1    1    2    0  501 -0.26662348635E+02  0.10766893767E+02  0.20293033433E+03  0.20495737954E+03  0.00000000000E+00 0. -1.
</event>
<event>
 4    1  0.6729064E+001  0.2464718E+02  0.7546771E-02  0.1472789E+00
          2   -1    0    0  502    0  0.00000000000E+00  0.00000000000E+00  0.10985995143E+02  0.10985995143E+02  0.00000000000E+00 0.  1.
         -2   -1    0    0    0  501 -0.00000000000E+00 -0.00000000000E+00 -0.99422729204E+02  0.99422729204E+02  0.00000000000E+00 0. -1.
          1    1    1    2  502    0  0.24022188267E+02 -0.55152377200E+01 -0.80995733189E+02  0.84662814571E+02  0.00000000000E+00 0. -1.
         -1    1    1    2    0  501 -0.24022188267E+02  0.55152377200E+01 -0.74410008708E+01  0.25745909776E+02  0.00000000000E+00 0.  1.
</event>
<event>
 4    1  0.6729064E+001  0.2424506E+02  0.7546771E-02  0.1477429E+00
          2   -1    0    0  502    0  0.00000000000E+00  0.00000000000E+00  0.28487160460E+03  0.28487160460E+03  0.00000000000E+00 0.  1.
         -2   -1    0    0    0  501 -0.00000000000E+00 -0.00000000000E+00 -0.32652805646E+01  0.32652805646E+01  0.00000000000E+00 0. -1.
          1    1    1    2  502    0 -0.14376288677E+02 -0.19522940146E+02  0.22820636390E+03  0.22949066951E+03  0.00000000000E+00 0.  1.
         -1    1    1    2    0  501  0.14376288677E+02  0.19522940146E+02  0.53399960139E+02  0.58646215658E+02  0.00000000000E+00 0. -1.
</event>
<event>
 4    1  0.6729064E+001  0.3815286E+02  0.7546771E-02  0.1359664E+00
          2   -1    0    0  502    0  0.00000000000E+00  0.00000000000E+00  0.24733559025E+02  0.24733559025E+02  0.00000000000E+00 0.  1.
         -2   -1    0    0    0  501 -0.00000000000E+00 -0.00000000000E+00 -0.11182151187E+03  0.11182151187E+03  0.00000000000E+00 0. -1.
          1    1    1    2  502    0  0.37430281941E+02 -0.73901613546E+01 -0.90536054286E+02  0.98246718096E+02  0.00000000000E+00 0. -1.
         -1    1    1    2    0  501 -0.37430281941E+02  0.73901613546E+01  0.34481014358E+01  0.38308352803E+02  0.00000000000E+00 0.  1.
</event>
<event>
 4    1  0.6729064E+001  0.2037626E+02  0.7546771E-02  0.1528359E+00
          2   -1    0    0  502    0  0.00000000000E+00  0.00000000000E+00  0.16373157050E+03  0.16373157050E+03  0.00000000000E+00 0.  1.
         -2   -1    0    0    0  501 -0.00000000000E+00 -0.00000000000E+00 -0.29719376059E+01  0.29719376059E+01  0.00000000000E+00 0. -1.
          1    1    1    2  502    0 -0.15138707236E+02  0.13638605391E+02  0.48449581490E+02  0.52560003428E+02  0.00000000000E+00 0.  1.
         -1    1    1    2    0  501  0.15138707236E+02 -0.13638605391E+02  0.11231005140E+03  0.11414350468E+03  0.00000000000E+00 0. -1.
</event>
<event>
 4    1  0.6729064E+001  0.3281623E+02  0.7546771E-02  0.1396602E+00
          2   -1    0    0  502    0  0.00000000000E+00  0.00000000000E+00  0.40079319806E+02  0.40079319806E+02  0.00000000000E+00 0.  1.
         -2   -1    0    0    0  501 -0.00000000000E+00 -0.00000000000E+00 -0.35687323113E+02  0.35687323113E+02  0.00000000000E+00 0. -1.
          1    1    1    2  502    0 -0.82506803921E+01  0.31762103381E+02 -0.16635100055E+02  0.36791731299E+02  0.00000000000E+00 0. -1.
         -1    1    1    2    0  501  0.82506803921E+01 -0.31762103381E+02  0.21027096749E+02  0.38974911620E+02  0.00000000000E+00 0.  1.
</event>
<event>
 4    1  0.6729064E+001  0.2164642E+02  0.7546771E-02  0.1510232E+00
          2   -1    0    0  502    0  0.00000000000E+00  0.00000000000E+00  0.16364326594E+04  0.16364326594E+04  0.00000000000E+00 0. -1.
         -2   -1    0    0    0  501 -0.00000000000E+00 -0.00000000000E+00 -0.55702837856E+00  0.55702837856E+00  0.00000000000E+00 0.  1.
          1    1    1    2  502    0  0.21062730756E+02  0.49928895462E+01  0.13885174758E+04  0.13886861950E+04  0.00000000000E+00 0. -1.
         -1    1    1    2    0  501 -0.21062730756E+02 -0.49928895462E+01  0.24735815516E+03  0.24830349272E+03  0.00000000000E+00 0.  1.
</event>
<event>
 4    1  0.6729064E+001  0.2465805E+02  0.7546771E-02  0.1472665E+00
          2   -1    0    0  502    0  0.00000000000E+00  0.00000000000E+00  0.84049446786E+03  0.84049446786E+03  0.00000000000E+00 0.  1.
         -2   -1    0    0    0  501 -0.00000000000E+00 -0.00000000000E+00 -0.91405812336E+00  0.91405812336E+00  0.00000000000E+00 0. -1.
          1    1    1    2  502    0 -0.18715128569E+02 -0.16055014994E+02  0.61192664583E+03  0.61242325186E+03  0.00000000000E+00 0. -1.
         -1    1    1    2    0  501  0.18715128569E+02  0.16055014994E+02  0.22765376390E+03  0.22898527412E+03  0.00000000000E+00 0.  1.
</event>
<event>
 4    1  0.6729064E+001  0.3441923E+02  0.7546771E-02  0.1384693E+00
          2   -1    0    0  502    0  0.00000000000E+00  0.00000000000E+00  0.91030391729E+03  0.91030391729E+03  0.00000000000E+00 0. -1.
         -2   -1    0    0    0  501 -0.00000000000E+00 -0.00000000000E+00 -0.13038808358E+01  0.13038808358E+01  0.00000000000E+00 0.  1.
          1    1    1    2  502    0  0.21085710891E+02 -0.27204347208E+02  0.43468068300E+03  0.43604125938E+03  0.00000000000E+00 0.  1.
         -1    1    1    2    0  501 -0.21085710891E+02  0.27204347208E+02  0.47431935346E+03  0.47556653875E+03  0.00000000000E+00 0. -1.
</event>
<event>
 4    1  0.6729064E+001  0.3130550E+02  0.7546771E-02  0.1408581E+00
          2   -1    0    0  502    0  0.00000000000E+00  0.00000000000E+00  0.80163623541E+03  0.80163623541E+03  0.00000000000E+00 0.  1.
         -2   -1    0    0    0  501 -0.00000000000E+00 -0.00000000000E+00 -0.13540501373E+01  0.13540501373E+01  0.00000000000E+00 0. -1.
          1    1    1    2  502    0  0.12144823561E+02 -0.28853728356E+02  0.52526444901E+03  0.52619651821E+03  0.00000000000E+00 0. -1.
         -1    1    1    2    0  501 -0.12144823561E+02  0.28853728356E+02  0.27501773626E+03  0.27679376734E+03  0.00000000000E+00 0.  1.
</event>
<event>
 4    1  0.6729064E+001  0.2428903E+02  0.7546771E-02  0.1476916E+00
          2   -1    0    0  502    0  0.00000000000E+00  0.00000000000E+00  0.14996603536E+04  0.14996603536E+04  0.00000000000E+00 0.  1.
         -2   -1    0    0    0  501 -0.00000000000E+00 -0.00000000000E+00 -0.71597116697E+00  0.71597116697E+00  0.00000000000E+00 0. -1.
          1    1    1    2  502    0 -0.20008011740E+02 -0.13770852138E+02  0.24592582214E+03  0.24712237231E+03  0.00000000000E+00 0. -1.
         -1    1    1    2    0  501  0.20008011740E+02  0.13770852138E+02  0.12530185603E+04  0.12532539524E+04  0.00000000000E+00 0.  1.
</event>
<event>
 4    1  0.6729064E+001  0.2237311E+02  0.7546771E-02  0.1500524E+00
          2   -1    0    0  502    0  0.00000000000E+00  0.00000000000E+00  0.11146197945E+04  0.11146197945E+04  0.00000000000E+00 0.  1.
         -2   -1    0    0    0  501 -0.00000000000E+00 -0.00000000000E+00 -0.45012017784E+00  0.45012017784E+00  0.00000000000E+00 0. -1.
          1    1    1    2  502    0 -0.11920650664E+02 -0.18932883973E+02  0.53031267463E+03  0.53078440904E+03  0.00000000000E+00 0.  1.
         -1    1    1    2    0  501  0.11920650664E+02  0.18932883973E+02  0.58385699971E+03  0.58428550566E+03  0.00000000000E+00 0. -1.
</event>
<event>
 4    1  0.6729064E+001  0.2289261E+02  0.7546771E-02  0.1493851E+00
          2   -1    0    0  502    0  0.00000000000E+00  0.00000000000E+00  0.11696095270E+03  0.11696095270E+03  0.00000000000E+00 0. -1.
         -2   -1    0    0    0  501 -0.00000000000E+00 -0.00000000000E+00 -0.44858829974E+01  0.44858829974E+01  0.00000000000E+00 0.  1.
          1    1    1    2  502    0  0.19917812225E+02  0.11285051295E+02  0.58293604025E+02  0.62627596927E+02  0.00000000000E+00 0. -1.
         -1    1    1    2    0  501 -0.19917812225E+02 -0.11285051295E+02  0.54181465676E+02  0.58819238769E+02  0.00000000000E+00 0.  1.
</event>
<event>
 4    1  0.6729064E+001  0.2117331E+02  0.7546771E-02  0.1516805E+00
          2   -1    0    0  502    0  0.00000000000E+00  0.00000000000E+00  0.16332626536E+03  0.16332626536E+03  0.00000000000E+00 0.  1.
         -2   -1    0    0    0  501 -0.00000000000E+00 -0.00000000000E+00 -0.33098634420E+01  0.33098634420E+01  0.00000000000E+00 0. -1.
          1    1    1    2  502    0 -0.13617967830E+02 -0.16212959074E+02  0.45584585036E+02  0.50261948656E+02  0.00000000000E+00 0. -1.
         -1    1    1    2    0  501  0.13617967830E+02  0.16212959074E+02  0.11443181688E+03  0.11637418015E+03  0.00000000000E+00 0.  1.
</event>
<event>
 4    1  0.6729064E+001  0.3307957E+02  0.7546771E-02  0.1394591E+00
          2   -1    0    0  502    0  0.00000000000E+00  0.00000000000E+00  0.98253685554E+00  0.98253685554E+00  0.00000000000E+00 0. -1.
         -2   -1    0    0    0  501 -0.00000000000E+00 -0.00000000000E+00 -0.15076376893E+04  0.15076376893E+04  0.00000000000E+00 0.  1.
          1    1    1    2  502    0 -0.25992057212E+02  0.20461454212E+02 -0.11389047899E+04  0.11393850880E+04  0.00000000000E+00 0.  1.
         -1    1    1    2    0  501  0.25992057212E+02 -0.20461454212E+02 -0.36775036249E+03  0.36923513817E+03  0.00000000000E+00 0. -1.
</event>
<event>
 4    1  0.6729064E+001  0.2354701E+02  0.7546771E-02  0.1485741E+00
          2   -1    0    0  502    0  0.00000000000E+00  0.00000000000E+00  0.17954452473E+01  0.17954452473E+01  0.00000000000E+00 0.  1.
         -2   -1    0    0    0  501 -0.00000000000E+00 -0.00000000000E+00 -0.42235020776E+03  0.42235020776E+03  0.00000000000E+00 0. -1.
          1    1    1    2  502    0  0.14669064309E+02  0.18419564517E+02 -0.10032301560E+03  0.10304935353E+03  0.00000000000E+00 0.  1.
         -1    1    1    2    0  501 -0.14669064309E+02 -0.18419564517E+02 -0.32023174692E+03  0.32109629948E+03  0.00000000000E+00 0. -1.
</event>
<event>
 4    1  0.6729064E+001  0.2518408E+02  0.7546771E-02  0.1466755E+00
          2   -1    0    0  502    0  0.00000000000E+00  0.00000000000E+00  0.58222126668E+03  0.58222126668E+03  0.00000000000E+00 0.  1.
         -2   -1    0    0    0  501 -0.00000000000E+00 -0.00000000000E+00 -0.12637847271E+01  0.12637847271E+01  0.00000000000E+00 0. -1.
          1    1    1    2  502    0  0.24650373920E+02 -0.51572241735E+01  0.39886893989E+03  0.39966319459E+03  0.00000000000E+00 0.  1.
         -1    1    1    2    0  501 -0.24650373920E+02  0.51572241735E+01  0.18208854206E+03  0.18382185682E+03  0.00000000000E+00 0. -1.
</event>
<event>
 4    1  0.6729064E+001  0.2568062E+02  0.7546771E-02  0.1461331E+00
          2   -1    0    0  502    0  0.00000000000E+00  0.00000000000E+00  0.18118568906E+02  0.18118568906E+02  0.00000000000E+00 0. -1.
         -2   -1    0    0    0  501 -0.00000000000E+00 -0.00000000000E+00 -0.48766663261E+02  0.48766663261E+02  0.00000000000E+00 0.  1.
          1    1    1    2  502    0  0.18117355927E+02  0.18200431337E+02 -0.32165747804E+02  0.41159805860E+02  0.00000000000E+00 0.  1.
         -1    1    1    2    0  501 -0.18117355927E+02 -0.18200431337E+02  0.15176534489E+01  0.25725426306E+02  0.00000000000E+00 0. -1.
</event>
<event>
 4    1  0.6729064E+001  0.3647962E+02  0.7546771E-02  0.1370449E+00
          2   -1    0    0  502    0  0.00000000000E+00  0.00000000000E+00  0.25419091205E+04  0.25419091205E+04  0.00000000000E+00 0. -1.
         -2   -1    0    0    0  501 -0.00000000000E+00 -0.00000000000E+00 -0.93015068419E+00  0.93015068419E+00  0.00000000000E+00 0.  1.
          1    1    1    2  502    0  0.43201442240E+01  0.36222905744E+02  0.21111248400E+04  0.21114399951E+04  0.00000000000E+00 0. -1.
         -1    1    1    2    0  501 -0.43201442240E+01 -0.36222905744E+02  0.42985412978E+03  0.43139927612E+03  0.00000000000E+00 0.  1.
</event>
<event>
 4    1  0.6729064E+001  0.2254864E+02  0.7546771E-02  0.1498245E+00
          2   -1    0    0  502    0  0.00000000000E+00  0.00000000000E+00  0.32536084378E+03  0.32536084378E+03  0.00000000000E+00 0. -1.
         -2   -1    0    0    0  501 -0.00000000000E+00 -0.00000000000E+00 -0.40062696015E+01  0.40062696015E+01  0.00000000000E+00 0.  1.
          1    1    1    2  502    0  0.11185429344E+02  0.19578747774E+02  0.32062008539E+02  0.39197111954E+02  0.00000000000E+00 0.  1.
         -1    1    1    2    0  501 -0.11185429344E+02 -0.19578747774E+02  0.28929256564E+03  0.29017000143E+03  0.00000000000E+00 0. -1.
</event>
<event>
 4    1  0.6729064E+001  0.4399738E+02  0.7546771E-02  0.1326529E+00
          2   -1    0    0  502    0  0.00000000000E+00  0.00000000000E+00  0.62188575953E+01  0.62188575953E+01  0.00000000000E+00 0. -1.
         -2   -1    0    0    0  501 -0.00000000000E+00 -0.00000000000E+00 -0.32878079198E+03  0.32878079198E+03  0.00000000000E+00 0.  1.
          1    1    1    2  502    0  0.15157272265E+02  0.41304075182E+02 -0.19993214465E+03  0.20471597884E+03  0.00000000000E+00 0. -1.
         -1    1    1    2    0  501 -0.15157272265E+02 -0.41304075182E+02 -0.12262978973E+03  0.13028367073E+03  0.00000000000E+00 0.  1.
</event>
<event>
 4    1  0.6729064E+001  0.2821913E+02  0.7546771E-02  0.1435732E+00
          2   -1    0    0  502    0  0.00000000000E+00  0.00000000000E+00  0.12652976040E+03  0.12652976040E+03  0.00000000000E+00 0.  1.
         -2   -1    0    0    0  501 -0.00000000000E+00 -0.00000000000E+00 -0.91030121793E+01  0.91030121793E+01  0.00000000000E+00 0. -1.
          1    1    1    2  502    0  0.12606535356E+02  0.25246673357E+02  0.96388522769E+02  0.10043438938E+03  0.00000000000E+00 0.  1.
         -1    1    1    2    0  501 -0.12606535356E+02 -0.25246673357E+02  0.21038225447E+02  0.35198383191E+02  0.00000000000E+00 0. -1.
</event>
<event>
 4    1  0.6729064E+001  0.2744970E+02  0.7546771E-02  0.1443142E+00
          2   -1    0    0  502    0  0.00000000000E+00  0.00000000000E+00  0.65279015841E+02  0.65279015841E+02  0.00000000000E+00 0.  1.
         -2   -1    0    0    0  501 -0.00000000000E+00 -0.00000000000E+00 -0.11572736881E+02  0.11572736881E+02  0.00000000000E+00 0. -1.
          1    1    1    2  502    0  0.20955902536E+02 -0.17729531885E+02  0.28815738828E+02  0.39797398861E+02  0.00000000000E+00 0.  1.
         -1    1    1    2    0  501 -0.20955902536E+02  0.17729531885E+02  0.24890540133E+02  0.37054353861E+02  0.00000000000E+00 0. -1.
</event>
<event>
 4    1  0.6729064E+001  0.2683190E+02  0.7546771E-02  0.1449304E+00
          2   -1    0    0  502    0  0.00000000000E+00  0.00000000000E+00  0.13800944746E+01  0.13800944746E+01  0.00000000000E+00 0. -1.
         -2   -1    0    0    0  501 -0.00000000000E+00 -0.00000000000E+00 -0.58837526624E+03  0.58837526624E+03  0.00000000000E+00 0.  1.
          1    1    1    2  502    0  0.11316331334E+02 -0.24328824417E+02 -0.39278665499E+03  0.39370205408E+03  0.00000000000E+00 0. -1.
         -1    1    1    2    0  501 -0.11316331334E+02  0.24328824417E+02 -0.19420851678E+03  0.19605330663E+03  0.00000000000E+00 0.  1.
</event>
<event>
 4    1  0.6729064E+001  0.2017088E+02  0.7546771E-02  0.1531439E+00
          2   -1    0    0  502    0  0.00000000000E+00  0.00000000000E+00  0.13778044784E+04  0.13778044784E+04  0.00000000000E+00 0.  1.
         -2   -1    0    0    0  501 -0.00000000000E+00 -0.00000000000E+00 -0.61399261669E+00  0.61399261669E+00  0.00000000000E+00 0. -1.
          1    1    1    2  502    0 -0.64691364852E+01 -0.19105357180E+02  0.19205307103E+03  0.19310941585E+03  0.00000000000E+00 0. -1.
         -1    1    1    2    0  501  0.64691364852E+01  0.19105357180E+02  0.11851374147E+04  0.11853090552E+04  0.00000000000E+00 0.  1.
</event>
<event>
 4    1  0.6729064E+001  0.2359987E+02  0.7546771E-02  0.1485100E+00
          2   -1    0    0  502    0  0.00000000000E+00  0.00000000000E+00  0.74133712243E+02  0.74133712243E+02  0.00000000000E+00 0. -1.
         -2   -1    0    0    0  501 -0.00000000000E+00 -0.00000000000E+00 -0.87364272958E+01  0.87364272958E+01  0.00000000000E+00 0.  1.
          1    1    1    2  502    0 -0.16471087014E+02 -0.16901398410E+02  0.48205378693E+02  0.53672269475E+02  0.00000000000E+00 0. -1.
         -1    1    1    2    0  501  0.16471087014E+02  0.16901398410E+02  0.17191906254E+02  0.29197870064E+02  0.00000000000E+00 0.  1.
</event>
<event>
 4    1  0.6729064E+001  0.2039504E+02  0.7546771E-02  0.1528080E+00
          2   -1    0    0  502    0  0.00000000000E+00  0.00000000000E+00  0.10453659886E+04  0.10453659886E+04  0.00000000000E+00 0.  1.
         -2   -1    0    0    0  501 -0.00000000000E+00 -0.00000000000E+00 -0.56778305327E+00  0.56778305327E+00  0.00000000000E+00 0. -1.
          1    1    1    2  502    0  0.36437353430E+01  0.20066907990E+02  0.80845446080E+03  0.80871167470E+03  0.00000000000E+00 0.  1.
         -1    1    1    2    0  501 -0.36437353430E+01 -0.20066907990E+02  0.23634374475E+03  0.23722209696E+03  0.00000000000E+00 0. -1.
</event>
<event>
 4    1  0.6729064E+001  0.3849591E+02  0.7546771E-02  0.1357532E+00
          2   -1    0    0  502    0  0.00000000000E+00  0.00000000000E+00  0.70818990188E+03  0.70818990188E+03  0.00000000000E+00 0.  1.
         -2   -1    0    0    0  501 -0.00000000000E+00 -0.00000000000E+00 -0.24530586521E+01  0.24530586521E+01  0.00000000000E+00 0. -1.
          1    1    1    2  502    0  0.26024468521E+02  0.28366571705E+02  0.48908019550E+03  0.49059287906E+03  0.00000000000E+00 0. -1.
         -1    1    1    2    0  501 -0.26024468521E+02 -0.28366571705E+02  0.21665664773E+03  0.22005008148E+03  0.00000000000E+00 0.  1.
</event>
<event>
 4    1  0.6729064E+001  0.2059139E+02  0.7546771E-02  0.1525179E+00
          2   -1    0    0  502    0  0.00000000000E+00  0.00000000000E+00  0.58735538077E+01  0.58735538077E+01  0.00000000000E+00 0.  1.
         -2   -1    0    0    0  501 -0.00000000000E+00 -0.00000000000E+00 -0.88112916180E+02  0.88112916180E+02  0.00000000000E+00 0. -1.
          1    1    1    2  502    0  0.51602916843E+01  0.19934308091E+02 -0.61097229211E+02  0.64473844825E+02  0.00000000000E+00 0. -1.
         -1    1    1    2    0  501 -0.51602916843E+01 -0.19934308091E+02 -0.21142133162E+02  0.29512625163E+02  0.00000000000E+00 0.  1.
</event>
<event>
 4    1  0.6729064E+001  0.2093531E+02  0.7546771E-02  0.1520190E+00
          2   -1    0    0  502    0  0.00000000000E+00  0.00000000000E+00  0.12718581038E+04  0.12718581038E+04  0.00000000000E+00 0.  1.
         -2   -1    0    0    0  501 -0.00000000000E+00 -0.00000000000E+00 -0.44985633740E+00  0.44985633740E+00  0.00000000000E+00 0. -1.
          1    1    1    2  502    0 -0.20931671115E+02 -0.39053662924E+00  0.32799439538E+03  0.32866184867E+03  0.00000000000E+00 0. -1.
         -1    1    1    2    0  501  0.20931671115E+02  0.39053662924E+00  0.94341385204E+03  0.94364611142E+03  0.00000000000E+00 0.  1.
</event>
<event>
 4    1  0.6729064E+001  0.3294315E+02  0.7546771E-02  0.1395630E+00
          2   -1    0    0  502    0  0.00000000000E+00  0.00000000000E+00  0.23607867324E+04  0.23607867324E+04  0.00000000000E+00 0.  1.
         -2   -1    0    0    0  501 -0.00000000000E+00 -0.00000000000E+00 -0.49524058056E+00  0.49524058056E+00  0.00000000000E+00 0. -1.
          1    1    1    2  502    0  0.26623100388E+02 -0.19402628328E+02  0.86386139979E+03  0.86448931139E+03  0.00000000000E+00 0. -1.
         -1    1    1    2    0  501 -0.26623100388E+02  0.19402628328E+02  0.14964300920E+04  0.14967926616E+04  0.00000000000E+00 0.  1.
</event>
<event>
 4    1  0.6729064E+001  0.2892557E+02  0.7546771E-02  0.1429169E+00
          2   -1    0    0  502    0  0.00000000000E+00  0.00000000000E+00  0.22863719465E+04  0.22863719465E+04  0.00000000000E+00 0. -1.
         -2   -1    0    0    0  501 -0.00000000000E+00 -0.00000000000E+00 -0.10075282647E+01  0.10075282647E+01  0.00000000000E+00 0.  1.
          1    1    1    2  502    0 -0.18972401608E+02 -0.21834294556E+02  0.23002894050E+03  0.23184046650E+03  0.00000000000E+00 0.  1.
         -1    1    1    2    0  501  0.18972401608E+02  0.21834294556E+02  0.20553354777E+04  0.20555390082E+04  0.00000000000E+00 0. -1.
</event>
<event>
 4    1  0.6729064E+001  0.2796948E+02  0.7546771E-02  0.1438105E+00
          2   -1    0    0  502    0  0.00000000000E+00  0.00000000000E+00  0.17205208975E+04  0.17205208975E+04  0.00000000000E+00 0.  1.
         -2   -1    0    0    0  501 -0.00000000000E+00 -0.00000000000E+00 -0.55724342230E+00  0.55724342230E+00  0.00000000000E+00 0. -1.
          1    1    1    2  502    0 -0.22945669190E+02  0.15993373769E+02  0.49080209461E+03  0.49159840095E+03  0.00000000000E+00 0.  1.
         -1    1    1    2    0  501  0.22945669190E+02 -0.15993373769E+02  0.12291615595E+04  0.12294797400E+04  0.00000000000E+00 0. -1.
</event>
<event>
 4    1  0.6729064E+001  0.3665811E+02  0.7546771E-02  0.1369266E+00
          2   -1    0    0  502    0  0.00000000000E+00  0.00000000000E+00  0.63321126352E+02  0.63321126352E+02  0.00000000000E+00 0.  1.
         -2   -1    0    0    0  501 -0.00000000000E+00 -0.00000000000E+00 -0.21729325499E+02  0.21729325499E+02  0.00000000000E+00 0. -1.
          1    1    1    2  502    0 -0.35724546016E+02  0.82203293322E+01  0.27292083775E+02  0.45702022266E+02  0.00000000000E+00 0.  1.
         -1    1    1    2    0  501  0.35724546016E+02 -0.82203293322E+01  0.14299717077E+02  0.39348429586E+02  0.00000000000E+00 0. -1.
</event>
<event>
 4    1  0.6729064E+001  0.2760215E+02  0.7546771E-02  0.1441651E+00
          2   -1    0    0  502    0  0.00000000000E+00  0.00000000000E+00  0.26146995484E+03  0.26146995484E+03  0.00000000000E+00 0. -1.
         -2   -1    0    0    0  501 -0.00000000000E+00 -0.00000000000E+00 -0.37278246017E+01  0.37278246017E+01  0.00000000000E+00 0.  1.
          1    1    1    2  502    0  0.52247128056E+01 -0.27103160969E+02  0.19083271250E+03  0.19281857565E+03  0.00000000000E+00 0. -1.
         -1    1    1    2    0  501 -0.52247128056E+01  0.27103160969E+02  0.66909417741E+02  0.72379203787E+02  0.00000000000E+00 0.  1.
</event>
<event>
 4    1  0.6729064E+001  0.3494894E+02  0.7546771E-02  0.1380922E+00
          2   -1    0    0  502    0  0.00000000000E+00  0.00000000000E+00  0.27887597094E+02  0.27887597094E+02  0.00000000000E+00 0.  1.
         -2   -1    0    0    0  501 -0.00000000000E+00 -0.00000000000E+00 -0.44146210594E+02  0.44146210594E+02  0.00000000000E+00 0. -1.
          1    1    1    2  502    0 -0.18829596970E+02 -0.29442739885E+02 -0.11326794772E+02  0.36738602774E+02  0.00000000000E+00 0. -1.
         -1    1    1    2    0  501  0.18829596970E+02  0.29442739885E+02 -0.49318187278E+01  0.35295204914E+02  0.00000000000E+00 0.  1.
</event>
<event>
 4    1  0.6729064E+001  0.7332263E+02  0.7546771E-02  0.1220260E+00
          2   -1    0    0  502    0  0.00000000000E+00  0.00000000000E+00  0.10557446333E+04  0.10557446333E+04  0.00000000000E+00 0. -1.
         -2   -1    0    0    0  501 -0.00000000000E+00 -0.00000000000E+00 -0.88831941374E+01  0.88831941374E+01  0.00000000000E+00 0.  1.
          1    1    1    2  502    0  0.21353261595E+02  0.70144464142E+02  0.87116855052E+03  0.87424873523E+03  0.00000000000E+00 0. -1.
         -1    1    1    2    0  501 -0.21353261595E+02 -0.70144464142E+02  0.17569288861E+03  0.19037909218E+03  0.00000000000E+00 0.  1.
</event>
<event>
 4    1  0.6729064E+001  0.2600516E+02  0.7546771E-02  0.1457866E+00
          2   -1    0    0  502    0  0.00000000000E+00  0.00000000000E+00  0.14778408167E+04  0.14778408167E+04  0.00000000000E+00 0. -1.
         -2   -1    0    0    0  501 -0.00000000000E+00 -0.00000000000E+00 -0.72608102365E+00  0.72608102365E+00  0.00000000000E+00 0.  1.
          1    1    1    2  502    0 -0.25894844125E+02 -0.23928325270E+01  0.28901512517E+03  0.29018272032E+03  0.00000000000E+00 0.  1.
         -1    1    1    2    0  501  0.25894844125E+02  0.23928325270E+01  0.11880996105E+04  0.11883841774E+04  0.00000000000E+00 0. -1.
</event>
<event>
 4    1  0.6729064E+001  0.2280426E+02  0.7546771E-02  0.1494971E+00
          2   -1    0    0  502    0  0.00000000000E+00  0.00000000000E+00  0.25360216057E+03  0.25360216057E+03  0.00000000000E+00 0.  1.
         -2   -1    0    0    0  501 -0.00000000000E+00 -0.00000000000E+00 -0.20514192914E+01  0.20514192914E+01  0.00000000000E+00 0. -1.
          1    1    1    2  502    0 -0.88969302228E+01 -0.20997111565E+02  0.12834541722E+03  0.13035559130E+03  0.00000000000E+00 0. -1.
         -1    1    1    2    0  501  0.88969302228E+01  0.20997111565E+02  0.12320532407E+03  0.12529798857E+03  0.00000000000E+00 0.  1.
</event>
<event>
 4    1  0.6729064E+001  0.2102973E+02  0.7546771E-02  0.1518841E+00
          2   -1    0    0  502    0  0.00000000000E+00  0.00000000000E+00  0.55040969569E+00  0.55040969569E+00  0.00000000000E+00 0. -1.
         -2   -1    0    0    0  501 -0.00000000000E+00 -0.00000000000E+00 -0.81000427963E+03  0.81000427963E+03  0.00000000000E+00 0.  1.
          1    1    1    2  502    0 -0.70816237092E+01  0.19801515232E+02 -0.36838578572E+03  0.36898555056E+03  0.00000000000E+00 0.  1.
         -1    1    1    2    0  501  0.70816237092E+01 -0.19801515232E+02 -0.44106808422E+03  0.44156913877E+03  0.00000000000E+00 0. -1.
</event>
<event>
 4    1  0.6729064E+001  0.2225616E+02  0.7546771E-02  0.1502056E+00
          2   -1    0    0  502    0  0.00000000000E+00  0.00000000000E+00  0.10045463206E+04  0.10045463206E+04  0.00000000000E+00 0. -1.
         -2   -1    0    0    0  501 -0.00000000000E+00 -0.00000000000E+00 -0.51591228806E+00  0.51591228806E+00  0.00000000000E+00 0.  1.
          1    1    1    2  502    0 -0.14548760543E+02  0.16842512326E+02  0.39633148046E+03  0.39695589057E+03  0.00000000000E+00 0.  1.
         -1    1    1    2    0  501  0.14548760543E+02 -0.16842512326E+02  0.60769892789E+03  0.60810634235E+03  0.00000000000E+00 0. -1.
</event>
<event>
 4    1  0.6729064E+001  0.3485533E+02  0.7546771E-02  0.1381583E+00
          2   -1    0    0  502    0  0.00000000000E+00  0.00000000000E+00  0.14119255998E+04  0.14119255998E+04  0.00000000000E+00 0. -1.
         -2   -1    0    0    0  501 -0.00000000000E+00 -0.00000000000E+00 -0.15356364683E+01  0.15356364683E+01  0.00000000000E+00 0.  1.
          1    1    1    2  502    0  0.22003937701E+02 -0.27031848598E+02  0.23657485049E+03  0.23912873938E+03  0.00000000000E+00 0. -1.
         -1    1    1    2    0  501 -0.22003937701E+02  0.27031848598E+02  0.11738151128E+04  0.11743324969E+04  0.00000000000E+00 0.  1.
</event>
<event>
 4    1  0.6729064E+001  0.2161566E+02  0.7546771E-02  0.1510654E+00
          2   -1    0    0  502    0  0.00000000000E+00  0.00000000000E+00  0.70725465719E+03  0.70725465719E+03  0.00000000000E+00 0.  1.
         -2   -1    0    0    0  501 -0.00000000000E+00 -0.00000000000E+00 -0.69395384682E+00  0.69395384682E+00  0.00000000000E+00 0. -1.
          1    1    1    2  502    0  0.19318299975E+01  0.21529157326E+02  0.43084376942E+03  0.43138566298E+03  0.00000000000E+00 0.  1.
         -1    1    1    2    0  501 -0.19318299975E+01 -0.21529157326E+02  0.27571693393E+03  0.27656294806E+03  0.00000000000E+00 0. -1.
</event>
<event>
 4    1  0.6729064E+001  0.3400360E+02  0.7546771E-02  0.1387707E+00
          2   -1    0    0  502    0  0.00000000000E+00  0.00000000000E+00  0.16247786241E+03  0.16247786241E+03  0.00000000000E+00 0.  1.
         -2   -1    0    0    0  501 -0.00000000000E+00 -0.00000000000E+00 -0.95854059499E+01  0.95854059499E+01  0.00000000000E+00 0. -1.
          1    1    1    2  502    0 -0.21380425790E+02  0.26440913364E+02  0.12010997475E+03  0.12483048723E+03  0.00000000000E+00 0.  1.
         -1    1    1    2    0  501  0.21380425790E+02 -0.26440913364E+02  0.32782481705E+02  0.47232781129E+02  0.00000000000E+00 0. -1.
</event>
<event>
 4    1  0.6729064E+001  0.2591320E+02  0.7546771E-02  0.1458842E+00
          2   -1    0    0  502    0  0.00000000000E+00  0.00000000000E+00  0.40389689145E+02  0.40389689145E+02  0.00000000000E+00 0.  1.
         -2   -1    0    0    0  501 -0.00000000000E+00 -0.00000000000E+00 -0.18942584473E+02  0.18942584473E+02  0.00000000000E+00 0. -1.
          1    1    1    2  502    0 -0.16977133811E+02  0.19577299879E+02  0.21099409680E+02  0.33416744783E+02  0.00000000000E+00 0.  1.
         -1    1    1    2    0  501  0.16977133811E+02 -0.19577299879E+02  0.34769499191E+00  0.25915528835E+02  0.00000000000E+00 0. -1.
</event>
<event>
 4    1  0.6729064E+001  0.1071864E+03  0.7546771E-02  0.1151906E+00
          2   -1    0    0  502    0  0.00000000000E+00  0.00000000000E+00  0.53902235064E+03  0.53902235064E+03  0.00000000000E+00 0.  1.
         -2   -1    0    0    0  501 -0.00000000000E+00 -0.00000000000E+00 -0.26100998241E+02  0.26100998241E+02  0.00000000000E+00 0. -1.
          1    1    1    2  502    0  0.29765724663E+02  0.10297049569E+03  0.13545671546E+03  0.17273518203E+03  0.00000000000E+00 0. -1.
         -1    1    1    2    0  501 -0.29765724663E+02 -0.10297049569E+03  0.37746463693E+03  0.39238816685E+03  0.00000000000E+00 0.  1.
</event>
<event>
 4    1  0.6729064E+001  0.2673752E+02  0.7546771E-02  0.1450263E+00
          2   -1    0    0  502    0  0.00000000000E+00  0.00000000000E+00  0.58703211416E+03  0.58703211416E+03  0.00000000000E+00 0.  1.
         -2   -1    0    0    0  501 -0.00000000000E+00 -0.00000000000E+00 -0.31227793813E+01  0.31227793813E+01  0.00000000000E+00 0. -1.
          1    1    1    2  502    0 -0.85532914886E+01 -0.25332507993E+02  0.52242187323E+03  0.52310563789E+03  0.00000000000E+00 0.  1.
         -1    1    1    2    0  501  0.85532914886E+01  0.25332507993E+02  0.61487461541E+02  0.67049255651E+02  0.00000000000E+00 0. -1.
</event>
<event>
 4    1  0.6729064E+001  0.2709571E+02  0.7546771E-02  0.1446649E+00
          2   -1    0    0  502    0  0.00000000000E+00  0.00000000000E+00  0.11382192694E+02  0.11382192694E+02  0.00000000000E+00 0. -1.
         -2   -1    0    0    0  501 -0.00000000000E+00 -0.00000000000E+00 -0.65010904696E+02  0.65010904696E+02  0.00000000000E+00 0.  1.
          1    1    1    2  502    0 -0.26947166633E+02  0.28333144766E+01 -0.30192877817E+02  0.40568304517E+02  0.00000000000E+00 0.  1.
         -1    1    1    2    0  501  0.26947166633E+02 -0.28333144766E+01 -0.23435834185E+02  0.35824792873E+02  0.00000000000E+00 0. -1.
</event>
<event>
 4    1  0.6729064E+001  0.2581665E+02  0.7546771E-02  0.1459871E+00
          2   -1    0    0  502    0  0.00000000000E+00  0.00000000000E+00  0.37782129845E+03  0.37782129845E+03  0.00000000000E+00 0. -1.
         -2   -1    0    0    0  501 -0.00000000000E+00 -0.00000000000E+00 -0.10292405276E+02  0.10292405276E+02  0.00000000000E+00 0.  1.
          1    1    1    2  502    0  0.16517809201E+02 -0.19840896678E+02  0.71187971827E+01  0.26780150768E+02  0.00000000000E+00 0.  1.
         -1    1    1    2    0  501 -0.16517809201E+02  0.19840896678E+02  0.36041009599E+03  0.36133355296E+03  0.00000000000E+00 0. -1.
</event>
<event>
 4    1  0.6729064E+001  0.2989247E+02  0.7546771E-02  0.1420533E+00
          2   -1    0    0  502    0  0.00000000000E+00  0.00000000000E+00  0.91060585376E+01  0.91060585376E+01  0.00000000000E+00 0.  1.
         -2   -1    0    0    0  501 -0.00000000000E+00 -0.00000000000E+00 -0.12268532065E+03  0.12268532065E+03  0.00000000000E+00 0. -1.
          1    1    1    2  502    0 -0.20288626518E+01 -0.29823540255E+02 -0.27308055672E+02  0.40488143223E+02  0.00000000000E+00 0.  1.
         -1    1    1    2    0  501  0.20288626518E+01  0.29823540255E+02 -0.86271206439E+02  0.91303235964E+02  0.00000000000E+00 0. -1.
</event>
<event>
 4    1  0.6729064E+001  0.2265217E+02  0.7546771E-02  0.1496913E+00
          2   -1    0    0  502    0  0.00000000000E+00  0.00000000000E+00  0.93611508644E+03  0.93611508644E+03  0.00000000000E+00 0.  1.
         -2   -1    0    0    0  501 -0.00000000000E+00 -0.00000000000E+00 -0.60761052487E+00  0.60761052487E+00  0.00000000000E+00 0. -1.
          1    1    1    2  502    0  0.22060934219E+02  0.51415807533E+01  0.61428319953E+03  0.61470071571E+03  0.00000000000E+00 0.  1.
         -1    1    1    2    0  501 -0.22060934219E+02 -0.51415807533E+01  0.32122427639E+03  0.32202198126E+03  0.00000000000E+00 0. -1.
</event>
<event>
 4    1  0.6729064E+001  0.2713332E+02  0.7546771E-02  0.1446273E+00
          2   -1    0    0  502    0  0.00000000000E+00  0.00000000000E+00  0.19210559383E+02  0.19210559383E+02  0.00000000000E+00 0. -1.
         -2   -1    0    0    0  501 -0.00000000000E+00 -0.00000000000E+00 -0.86111546964E+02  0.86111546964E+02  0.00000000000E+00 0.  1.
          1    1    1    2  502    0  0.22210415516E+02  0.15585713026E+02 -0.72680485565E+02  0.77580087587E+02  0.00000000000E+00 0.  1.
         -1    1    1    2    0  501 -0.22210415516E+02 -0.15585713026E+02  0.57794979852E+01  0.27742018760E+02  0.00000000000E+00 0. -1.
</event>
<event>
 4    1  0.6729064E+001  0.2807769E+02  0.7546771E-02  0.1437073E+00
          2   -1    0    0  502    0  0.00000000000E+00  0.00000000000E+00  0.15064753478E+04  0.15064753478E+04  0.00000000000E+00 0.  1.
         -2   -1    0    0    0  501 -0.00000000000E+00 -0.00000000000E+00 -0.91249367801E+00  0.91249367801E+00  0.00000000000E+00 0. -1.
          1    1    1    2  502    0 -0.25809809277E+02 -0.11054879081E+02  0.12449980552E+04  0.12453146245E+04  0.00000000000E+00 0.  1.
         -1    1    1    2    0  501  0.25809809277E+02  0.11054879081E+02  0.26056479894E+03  0.26207321697E+03  0.00000000000E+00 0. -1.
</event>
<event>
 4    1  0.6729064E+001  0.3684908E+02  0.7546771E-02  0.1368010E+00
          2   -1    0    0  502    0  0.00000000000E+00  0.00000000000E+00  0.55041496552E+03  0.55041496552E+03  0.00000000000E+00 0. -1.
         -2   -1    0    0    0  501 -0.00000000000E+00 -0.00000000000E+00 -0.24895035872E+01  0.24895035872E+01  0.00000000000E+00 0.  1.
          1    1    1    2  502    0  0.29374417029E+00 -0.36847908923E+02  0.30026681488E+03  0.30251944532E+03  0.00000000000E+00 0. -1.
         -1    1    1    2    0  501 -0.29374417029E+00  0.36847908923E+02  0.24765864705E+03  0.25038502379E+03  0.00000000000E+00 0.  1.
</event>
<event>
 4    1  0.6729064E+001  0.3131495E+02  0.7546771E-02  0.1408504E+00
          2   -1    0    0  502    0  0.00000000000E+00  0.00000000000E+00  0.14347045135E+04  0.14347045135E+04  0.00000000000E+00 0.  1.
         -2   -1    0    0    0  501 -0.00000000000E+00 -0.00000000000E+00 -0.73451788703E+00  0.73451788703E+00  0.00000000000E+00 0. -1.
          1    1    1    2  502    0  0.30733440894E+02 -0.60068089374E+01  0.90613143452E+03  0.90667237896E+03  0.00000000000E+00 0. -1.
         -1    1    1    2    0  501 -0.30733440894E+02  0.60068089374E+01  0.52783856113E+03  0.52876665246E+03  0.00000000000E+00 0.  1.
</event>
<event>
 4    1  0.6729064E+001  0.2928858E+02  0.7546771E-02  0.1425881E+00
          2   -1    0    0  502    0  0.00000000000E+00  0.00000000000E+00  0.25836230134E+03  0.25836230134E+03  0.00000000000E+00 0. -1.
         -2   -1    0    0    0  501 -0.00000000000E+00 -0.00000000000E+00 -0.42487550773E+01  0.42487550773E+01  0.00000000000E+00 0.  1.
          1    1    1    2  502    0 -0.21537454004E+02  0.19848395526E+02  0.65673453724E+02  0.71908436598E+02  0.00000000000E+00 0.  1.
         -1    1    1    2    0  501  0.21537454004E+02 -0.19848395526E+02  0.18844009254E+03  0.19070261982E+03  0.00000000000E+00 0. -1.
</event>
<event>
 4    1  0.6729064E+001  0.2019855E+02  0.7546771E-02  0.1531022E+00
          2   -1    0    0  502    0  0.00000000000E+00  0.00000000000E+00  0.31627173019E+03  0.31627173019E+03  0.00000000000E+00 0. -1.
         -2   -1    0    0    0  501 -0.00000000000E+00 -0.00000000000E+00 -0.12904636403E+01  0.12904636403E+01  0.00000000000E+00 0.  1.
          1    1    1    2  502    0  0.60360685405E+01 -0.19275566659E+02  0.16059065947E+03  0.16185592823E+03  0.00000000000E+00 0. -1.
         -1    1    1    2    0  501 -0.60360685405E+01  0.19275566659E+02  0.15439060707E+03  0.15570626560E+03  0.00000000000E+00 0.  1.
</event>
<event>
 4    1  0.6729064E+001  0.4671936E+02  0.7546771E-02  0.1313059E+00
          2   -1    0    0  502    0  0.00000000000E+00  0.00000000000E+00  0.18132274781E+04  0.18132274781E+04  0.00000000000E+00 0.  1.
         -2   -1    0    0    0  501 -0.00000000000E+00 -0.00000000000E+00 -0.12127235237E+01  0.12127235237E+01  0.00000000000E+00 0. -1.
          1    1    1    2  502    0 -0.24305729800E+02  0.39899001577E+02  0.82803107269E+03  0.82934803079E+03  0.00000000000E+00 0. -1.
         -1    1    1    2    0  501  0.24305729800E+02 -0.39899001577E+02  0.98398368191E+03  0.98509217086E+03  0.00000000000E+00 0.  1.
</event>
<event>
 4    1  0.6729064E+001  0.3328631E+02  0.7546771E-02  0.1393028E+00
          2   -1    0    0  502    0  0.00000000000E+00  0.00000000000E+00  0.20090679461E+03  0.20090679461E+03  0.00000000000E+00 0.  1.
         -2   -1    0    0    0  501 -0.00000000000E+00 -0.00000000000E+00 -0.29532184109E+02  0.29532184109E+02  0.00000000000E+00 0. -1.
          1    1    1    2  502    0  0.19504707250E+02 -0.26973039012E+02 -0.18218597576E+02  0.37945958099E+02  0.00000000000E+00 0. -1.
         -1    1    1    2    0  501 -0.19504707250E+02  0.26973039012E+02  0.18959320808E+03  0.19249302062E+03  0.00000000000E+00 0.  1.
</event>
<event>
 4    1  0.6729064E+001  0.5265983E+02  0.7546771E-02  0.1287035E+00
          2   -1    0    0  502    0  0.00000000000E+00  0.00000000000E+00  0.71995371716E+02  0.71995371716E+02  0.00000000000E+00 0. -1.
         -2   -1    0    0    0  501 -0.00000000000E+00 -0.00000000000E+00 -0.40057844871E+02  0.40057844871E+02  0.00000000000E+00 0.  1.
          1    1    1    2  502    0 -0.26586212415E+02  0.45455815816E+02  0.26956448842E+02  0.59158330066E+02  0.00000000000E+00 0.  1.
         -1    1    1    2    0  501  0.26586212415E+02 -0.45455815816E+02  0.49810780035E+01  0.52894886522E+02  0.00000000000E+00 0. -1.
</event>
<event>
 4    1  0.6729064E+001  0.4517295E+02  0.7546771E-02  0.1320577E+00
          2   -1    0    0  502    0  0.00000000000E+00  0.00000000000E+00  0.34773236583E+03  0.34773236583E+03  0.00000000000E+00 0.  1.
         -2   -1    0    0    0  501 -0.00000000000E+00 -0.00000000000E+00 -0.82965697876E+01  0.82965697876E+01  0.00000000000E+00 0. -1.
          1    1    1    2  502    0  0.17158428105E+02 -0.41787358607E+02  0.73411483250E+02  0.86196524683E+02  0.00000000000E+00 0. -1.
         -1    1    1    2    0  501 -0.17158428105E+02  0.41787358607E+02  0.26602431279E+03  0.26983241094E+03  0.00000000000E+00 0.  1.
</event>
<event>
 4    1  0.6729064E+001  0.2803589E+02  0.7546771E-02  0.1437471E+00
          2   -1    0    0  502    0  0.00000000000E+00  0.00000000000E+00  0.20603493648E+03  0.20603493648E+03  0.00000000000E+00 0.  1.
         -2   -1    0    0    0  501 -0.00000000000E+00 -0.00000000000E+00 -0.40208287841E+01  0.40208287841E+01  0.00000000000E+00 0. -1.
          1    1    1    2  502    0  0.21920695557E+02  0.17478387684E+02  0.12477343826E+03  0.12788440806E+03  0.00000000000E+00 0. -1.
         -1    1    1    2    0  501 -0.21920695557E+02 -0.17478387684E+02  0.77240669430E+02  0.82171357198E+02  0.00000000000E+00 0.  1.
</event>
<event>
 4    1  0.6729064E+001  0.2591062E+02  0.7546771E-02  0.1458869E+00
          2   -1    0    0  502    0  0.00000000000E+00  0.00000000000E+00  0.21819438545E+03  0.21819438545E+03  0.00000000000E+00 0.  1.
         -2   -1    0    0    0  501 -0.00000000000E+00 -0.00000000000E+00 -0.31154662096E+01  0.31154662096E+01  0.00000000000E+00 0. -1.
          1    1    1    2  502    0 -0.25858865614E+02 -0.16368991422E+01  0.11985242427E+03  0.12262122155E+03  0.00000000000E+00 0.  1.
         -1    1    1    2    0  501  0.25858865614E+02  0.16368991422E+01  0.95226494966E+02  0.98688630111E+02  0.00000000000E+00 0. -1.
</event>
<event>
 4    1  0.6729064E+001  0.2825723E+02  0.7546771E-02  0.1435372E+00
          2   -1    0    0  502    0  0.00000000000E+00  0.00000000000E+00  0.50925922284E+01  0.50925922284E+01  0.00000000000E+00 0. -1.
         -2   -1    0    0    0  501 -0.00000000000E+00 -0.00000000000E+00 -0.25856721750E+03  0.25856721750E+03  0.00000000000E+00 0.  1.
          1    1    1    2  502    0 -0.26628113360E+02 -0.94559271412E+01 -0.44028639878E+02  0.52316270019E+02  0.00000000000E+00 0. -1.
         -1    1    1    2    0  501  0.26628113360E+02  0.94559271412E+01 -0.20944598539E+03  0.21134353971E+03  0.00000000000E+00 0.  1.
</event>
<event>
 4    1  0.6729064E+001  0.2182176E+02  0.7546771E-02  0.1507848E+00
          2   -1    0    0  502    0  0.00000000000E+00  0.00000000000E+00  0.63908374523E+03  0.63908374523E+03  0.00000000000E+00 0. -1.
         -2   -1    0    0    0  501 -0.00000000000E+00 -0.00000000000E+00 -0.83008334384E+00  0.83008334384E+00  0.00000000000E+00 0.  1.
          1    1    1    2  502    0  0.17951768304E+02 -0.12406580824E+02  0.21675845061E+03  0.21785411436E+03  0.00000000000E+00 0.  1.
         -1    1    1    2    0  501 -0.17951768304E+02  0.12406580824E+02  0.42149521127E+03  0.42205971421E+03  0.00000000000E+00 0. -1.
</event>
<event>
 4    1  0.6729064E+001  0.2496942E+02  0.7546771E-02  0.1469146E+00
          2   -1    0    0  502    0  0.00000000000E+00  0.00000000000E+00  0.74944766876E+03  0.74944766876E+03  0.00000000000E+00 0. -1.
         -2   -1    0    0    0  501 -0.00000000000E+00 -0.00000000000E+00 -0.93811525441E+00  0.93811525441E+00  0.00000000000E+00 0.  1.
          1    1    1    2  502    0 -0.10179940243E+02 -0.22800019967E+02  0.24801331790E+03  0.24926708156E+03  0.00000000000E+00 0. -1.
         -1    1    1    2    0  501  0.10179940243E+02  0.22800019967E+02  0.50049623561E+03  0.50111870246E+03  0.00000000000E+00 0.  1.
</event>
<event>
 4    1  0.6729064E+001  0.2408740E+02  0.7546771E-02  0.1479277E+00
          2   -1    0    0  502    0  0.00000000000E+00  0.00000000000E+00  0.24435066192E+03  0.24435066192E+03  0.00000000000E+00 0.  1.
         -2   -1    0    0    0  501 -0.00000000000E+00 -0.00000000000E+00 -0.30586933610E+01  0.30586933610E+01  0.00000000000E+00 0. -1.
          1    1    1    2  502    0  0.99579529598E+01  0.21932674977E+02  0.62137690288E+02  0.66643046247E+02  0.00000000000E+00 0. -1.
         -1    1    1    2    0  501 -0.99579529598E+01 -0.21932674977E+02  0.17915427827E+03  0.18076630903E+03  0.00000000000E+00 0.  1.
</event>
<event>
 4    1  0.6729064E+001  0.3102665E+02  0.7546771E-02  0.1410880E+00
          2   -1    0    0  502    0  0.00000000000E+00  0.00000000000E+00  0.13367365521E+04  0.13367365521E+04  0.00000000000E+00 0. -1.
         -2   -1    0    0    0  501 -0.00000000000E+00 -0.00000000000E+00 -0.82977258535E+00  0.82977258535E+00  0.00000000000E+00 0.  1.
          1    1    1    2  502    0  0.22729455857E+02 -0.21119294690E+02  0.42487131797E+03  0.42600268732E+03  0.00000000000E+00 0.  1.
         -1    1    1    2    0  501 -0.22729455857E+02  0.21119294690E+02  0.91103546158E+03  0.91156363740E+03  0.00000000000E+00 0. -1.
</event>
<event>
 4    1  0.6729064E+001  0.2801565E+02  0.7546771E-02  0.1437664E+00
          2   -1    0    0  502    0  0.00000000000E+00  0.00000000000E+00  0.23077655384E+03  0.23077655384E+03  0.00000000000E+00 0.  1.
         -2   -1    0    0    0  501 -0.00000000000E+00 -0.00000000000E+00 -0.69875665065E+01  0.69875665065E+01  0.00000000000E+00 0. -1.
          1    1    1    2  502    0 -0.90968704055E+01  0.26497614320E+02  0.26723574943E+02  0.38717258084E+02  0.00000000000E+00 0. -1.
         -1    1    1    2    0  501  0.90968704055E+01 -0.26497614320E+02  0.19706541239E+03  0.19904686226E+03  0.00000000000E+00 0.  1.
</event>
<event>
 4    1  0.6729064E+001  0.2118098E+02  0.7546771E-02  0.1516696E+00
          2   -1    0    0  502    0  0.00000000000E+00  0.00000000000E+00  0.10686926656E+03  0.10686926656E+03  0.00000000000E+00 0. -1.
         -2   -1    0    0    0  501 -0.00000000000E+00 -0.00000000000E+00 -0.42796364540E+01  0.42796364540E+01  0.00000000000E+00 0.  1.
          1    1    1    2  502    0 -0.20788523509E+02  0.40584908927E+01  0.58971814832E+02  0.62660266538E+02  0.00000000000E+00 0.  1.
         -1    1    1    2    0  501  0.20788523509E+02 -0.40584908927E+01  0.43617815271E+02  0.48488636473E+02  0.00000000000E+00 0. -1.
</event>
<event>
 4    1  0.6729064E+001  0.2027465E+02  0.7546771E-02  0.1529878E+00
          2   -1    0    0  502    0  0.00000000000E+00  0.00000000000E+00  0.22899559722E+02  0.22899559722E+02  0.00000000000E+00 0.  1.
         -2   -1    0    0    0  501 -0.00000000000E+00 -0.00000000000E+00 -0.19450322340E+02  0.19450322340E+02  0.00000000000E+00 0. -1.
          1    1    1    2  502    0  0.19671864376E+02  0.49070479305E+01  0.76043960699E+01  0.21653826614E+02  0.00000000000E+00 0.  1.
         -1    1    1    2    0  501 -0.19671864376E+02 -0.49070479305E+01 -0.41551586879E+01  0.20696055449E+02  0.00000000000E+00 0. -1.
</event>
<event>
 4    1  0.6729064E+001  0.2185602E+02  0.7546771E-02  0.1507385E+00
          2   -1    0    0  502    0  0.00000000000E+00  0.00000000000E+00  0.29838254378E+03  0.29838254378E+03  0.00000000000E+00 0. -1.
         -2   -1    0    0    0  501 -0.00000000000E+00 -0.00000000000E+00 -0.16202389943E+01  0.16202389943E+01  0.00000000000E+00 0.  1.
          1    1    1    2  502    0 -0.87189621013E+01 -0.20041594222E+02  0.16476166522E+03  0.16620497022E+03  0.00000000000E+00 0. -1.
         -1    1    1    2    0  501  0.87189621013E+01  0.20041594222E+02  0.13200063957E+03  0.13379781256E+03  0.00000000000E+00 0.  1.
</event>
<event>
 4    1  0.6729064E+001  0.2560013E+02  0.7546771E-02  0.1462200E+00
          2   -1    0    0  502    0  0.00000000000E+00  0.00000000000E+00  0.70537137042E+01  0.70537137042E+01  0.00000000000E+00 0.  1.
         -2   -1    0    0    0  501 -0.00000000000E+00 -0.00000000000E+00 -0.93162222934E+02  0.93162222934E+02  0.00000000000E+00 0. -1.
          1    1    1    2  502    0 -0.21786792796E+02 -0.13442555329E+02 -0.40451494734E+02  0.47871599726E+02  0.00000000000E+00 0. -1.
         -1    1    1    2    0  501  0.21786792796E+02  0.13442555329E+02 -0.45657014496E+02  0.52344336913E+02  0.00000000000E+00 0.  1.
</event>
<event>
 4    1  0.6729064E+001  0.2017569E+02  0.7546771E-02  0.1531367E+00
          2   -1    0    0  502    0  0.00000000000E+00  0.00000000000E+00  0.43139635763E+03  0.43139635763E+03  0.00000000000E+00 0.  1.
         -2   -1    0    0    0  501 -0.00000000000E+00 -0.00000000000E+00 -0.11553023174E+01  0.11553023174E+01  0.00000000000E+00 0. -1.
          1    1    1    2  502    0 -0.13427286547E+02  0.15058772083E+02  0.30770529185E+03  0.30836602483E+03  0.00000000000E+00 0.  1.
         -1    1    1    2    0  501  0.13427286547E+02 -0.15058772083E+02  0.12253576347E+03  0.12418563512E+03  0.00000000000E+00 0. -1.
</event>
<event>
 4    1  0.6729064E+001  0.2222600E+02  0.7546771E-02  0.1502453E+00
          2   -1    0    0  502    0  0.00000000000E+00  0.00000000000E+00  0.73572681151E+03  0.73572681151E+03  0.00000000000E+00 0. -1.
         -2   -1    0    0    0  501 -0.00000000000E+00 -0.00000000000E+00 -0.90328154899E+00  0.90328154899E+00  0.00000000000E+00 0.  1.
          1    1    1    2  502    0 -0.13551670433E+02 -0.17616680641E+02  0.55400893665E+03  0.55445459426E+03  0.00000000000E+00 0. -1.
         -1    1    1    2    0  501  0.13551670433E+02  0.17616680641E+02  0.18081459331E+03  0.18217549880E+03  0.00000000000E+00 0.  1.
</event>
<event>
 4    1  0.6729064E+001  0.3472078E+02  0.7546771E-02  0.1382537E+00
          2   -1    0    0  502    0  0.00000000000E+00  0.00000000000E+00  0.23264564272E+02  0.23264564272E+02  0.00000000000E+00 0.  1.
         -2   -1    0    0    0  501 -0.00000000000E+00 -0.00000000000E+00 -0.65678358222E+02  0.65678358222E+02  0.00000000000E+00 0. -1.
          1    1    1    2  502    0  0.34718466697E+01 -0.34546758146E+02 -0.77769488508E+00  0.34729483541E+02  0.00000000000E+00 0.  1.
         -1    1    1    2    0  501 -0.34718466697E+01  0.34546758146E+02 -0.41636099065E+02  0.54213438952E+02  0.00000000000E+00 0. -1.
</event>
<event>
 4    1  0.6729064E+001  0.3335974E+02  0.7546771E-02  0.1392476E+00
          2   -1    0    0  502    0  0.00000000000E+00  0.00000000000E+00  0.24365283904E+04  0.24365283904E+04  0.00000000000E+00 0.  1.
         -2   -1    0    0    0  501 -0.00000000000E+00 -0.00000000000E+00 -0.48700620076E+00  0.48700620076E+00  0.00000000000E+00 0. -1.
          1    1    1    2  502    0  0.32368897937E+02 -0.80701015315E+01  0.91427906966E+03  0.91488747358E+03  0.00000000000E+00 0.  1.
         -1    1    1    2    0  501 -0.32368897937E+02  0.80701015315E+01  0.15217623145E+04  0.15221279230E+04  0.00000000000E+00 0. -1.
</event>
<event>
 4    1  0.6729064E+001  0.2070200E+02  0.7546771E-02  0.1523562E+00
          2   -1    0    0  502    0  0.00000000000E+00  0.00000000000E+00  0.35805308841E+02  0.35805308841E+02  0.00000000000E+00 0. -1.
         -2   -1    0    0    0  501 -0.00000000000E+00 -0.00000000000E+00 -0.12107503476E+02  0.12107503476E+02  0.00000000000E+00 0.  1.
          1    1    1    2  502    0  0.30402838222E+01 -0.20477532818E+02  0.92915299649E+01  0.22691522759E+02  0.00000000000E+00 0.  1.
         -1    1    1    2    0  501 -0.30402838222E+01  0.20477532818E+02  0.14406275400E+02  0.25221289557E+02  0.00000000000E+00 0. -1.
</event>
<event>
 4    1  0.6729064E+001  0.2953041E+02  0.7546771E-02  0.1423722E+00
          2   -1    0    0  502    0  0.00000000000E+00  0.00000000000E+00  0.27310028750E+03  0.27310028750E+03  0.00000000000E+00 0. -1.
         -2   -1    0    0    0  501 -0.00000000000E+00 -0.00000000000E+00 -0.34209752090E+01  0.34209752090E+01  0.00000000000E+00 0.  1.
          1    1    1    2  502    0 -0.29368679390E+02 -0.30863839798E+01  0.17052108334E+03  0.17305919496E+03  0.00000000000E+00 0. -1.
         -1    1    1    2    0  501  0.29368679390E+02  0.30863839798E+01  0.99158228954E+02  0.10346206776E+03  0.00000000000E+00 0.  1.
</event>
<event>
 4    1  0.6729064E+001  0.2011896E+02  0.7546771E-02  0.1532225E+00
          2   -1    0    0  502    0  0.00000000000E+00  0.00000000000E+00  0.41157098197E+02  0.41157098197E+02  0.00000000000E+00 0.  1.
         -2   -1    0    0    0  501 -0.00000000000E+00 -0.00000000000E+00 -0.98395902759E+01  0.98395902759E+01  0.00000000000E+00 0. -1.
          1    1    1    2  502    0 -0.14349167421E+02  0.14102272228E+02  0.16220133130E+02  0.25843092045E+02  0.00000000000E+00 0.  1.
         -1    1    1    2    0  501  0.14349167421E+02 -0.14102272228E+02  0.15097374791E+02  0.25153596428E+02  0.00000000000E+00 0. -1.
</event>
<event>
 4    1  0.6729064E+001  0.5603736E+02  0.7546771E-02  0.1273925E+00
          2   -1    0    0  502    0  0.00000000000E+00  0.00000000000E+00  0.21535029107E+04  0.21535029107E+04  0.00000000000E+00 0.  1.
         -2   -1    0    0    0  501 -0.00000000000E+00 -0.00000000000E+00 -0.14743447056E+01  0.14743447056E+01  0.00000000000E+00 0. -1.
          1    1    1    2  502    0 -0.32351833550E+02 -0.45755266472E+02  0.11888522550E+04  0.11901722017E+04  0.00000000000E+00 0.  1.
         -1    1    1    2    0  501  0.32351833550E+02  0.45755266472E+02  0.96317631102E+03  0.96480505371E+03  0.00000000000E+00 0. -1.
</event>
<event>
 4    1  0.6729064E+001  0.4697009E+02  0.7546771E-02  0.1311872E+00
          2   -1    0    0  502    0  0.00000000000E+00  0.00000000000E+00  0.28526479553E+04  0.28526479553E+04  0.00000000000E+00 0.  1.
         -2   -1    0    0    0  501 -0.00000000000E+00 -0.00000000000E+00 -0.80903237814E+00  0.80903237814E+00  0.00000000000E+00 0. -1.
          1    1    1    2  502    0 -0.30444639812E+02 -0.35767488265E+02  0.11264278750E+04  0.11274067353E+04  0.00000000000E+00 0.  1.
         -1    1    1    2    0  501  0.30444639812E+02  0.35767488265E+02  0.17254110479E+04  0.17260502523E+04  0.00000000000E+00 0. -1.
</event>
<event>
 4    1  0.6729064E+001  0.7279897E+02  0.7546771E-02  0.1221630E+00
          2   -1    0    0  502    0  0.00000000000E+00  0.00000000000E+00  0.36443716727E+03  0.36443716727E+03  0.00000000000E+00 0.  1.
         -2   -1    0    0    0  501 -0.00000000000E+00 -0.00000000000E+00 -0.14659696871E+02  0.14659696871E+02  0.00000000000E+00 0. -1.
          1    1    1    2  502    0  0.53848206632E+02 -0.48990406707E+02  0.19186402481E+03  0.20521085089E+03  0.00000000000E+00 0.  1.
         -1    1    1    2    0  501 -0.53848206632E+02  0.48990406707E+02  0.15791344560E+03  0.17388601326E+03  0.00000000000E+00 0. -1.
</event>
<event>
 4    1  0.6729064E+001  0.2236681E+02  0.7546771E-02  0.1500606E+00
          2   -1    0    0  502    0  0.00000000000E+00  0.00000000000E+00  0.76623598159E+03  0.76623598159E+03  0.00000000000E+00 0. -1.
         -2   -1    0    0    0  501 -0.00000000000E+00 -0.00000000000E+00 -0.10969926362E+01  0.10969926362E+01  0.00000000000E+00 0.  1.
          1    1    1    2  502    0  0.20877003004E+02 -0.80265175339E+01  0.13845723918E+03  0.14025220611E+03  0.00000000000E+00 0.  1.
         -1    1    1    2    0  501 -0.20877003004E+02  0.80265175339E+01  0.62668174978E+03  0.62708076812E+03  0.00000000000E+00 0. -1.
</event>
<event>
 4    1  0.6729064E+001  0.2057843E+02  0.7546771E-02  0.1525370E+00
          2   -1    0    0  502    0  0.00000000000E+00  0.00000000000E+00  0.93389479362E+03  0.93389479362E+03  0.00000000000E+00 0. -1.
         -2   -1    0    0    0  501 -0.00000000000E+00 -0.00000000000E+00 -0.46979619917E+00  0.46979619917E+00  0.00000000000E+00 0.  1.
          1    1    1    2  502    0  0.10528463559E+02 -0.17681150861E+02  0.37955956159E+03  0.38011699835E+03  0.00000000000E+00 0.  1.
         -1    1    1    2    0  501 -0.10528463559E+02  0.17681150861E+02  0.55386543583E+03  0.55424759147E+03  0.00000000000E+00 0. -1.
</event>
<event>
 4    1  0.6729064E+001  0.2990356E+02  0.7546771E-02  0.1420436E+00
          2   -1    0    0  502    0  0.00000000000E+00  0.00000000000E+00  0.25522529108E+02  0.25522529108E+02  0.00000000000E+00 0.  1.
         -2   -1    0    0    0  501 -0.00000000000E+00 -0.00000000000E+00 -0.48007346514E+02  0.48007346514E+02  0.00000000000E+00 0. -1.
          1    1    1    2  502    0 -0.21462109866E+02 -0.20823086393E+02 -0.30352474385E+02  0.42608635136E+02  0.00000000000E+00 0. -1.
         -1    1    1    2    0  501  0.21462109866E+02  0.20823086393E+02  0.78676569796E+01  0.30921240486E+02  0.00000000000E+00 0.  1.
</event>
<event>
 4    1  0.6729064E+001  0.2042883E+02  0.7546771E-02  0.1527578E+00
          2   -1    0    0  502    0  0.00000000000E+00  0.00000000000E+00  0.52129891464E+03  0.52129891464E+03  0.00000000000E+00 0.  1.
         -2   -1    0    0    0  501 -0.00000000000E+00 -0.00000000000E+00 -0.81675441568E+00  0.81675441568E+00  0.00000000000E+00 0. -1.
          1    1    1    2  502    0  0.20245111639E+02  0.27335835453E+01  0.29698793186E+03  0.29768971882E+03  0.00000000000E+00 0. -1.
         -1    1    1    2    0  501 -0.20245111639E+02 -0.27335835453E+01  0.22349422837E+03  0.22442595024E+03  0.00000000000E+00 0.  1.
</event>
<event>
 4    1  0.6729064E+001  0.2364691E+02  0.7546771E-02  0.1484531E+00
          2   -1    0    0  502    0  0.00000000000E+00  0.00000000000E+00  0.38028280820E+02  0.38028280820E+02  0.00000000000E+00 0.  1.
         -2   -1    0    0    0  501 -0.00000000000E+00 -0.00000000000E+00 -0.19699385688E+02  0.19699385688E+02  0.00000000000E+00 0. -1.
          1    1    1    2  502    0  0.21202668554E+02  0.10470115042E+02 -0.53701269388E+01  0.24249014952E+02  0.00000000000E+00 0. -1.
         -1    1    1    2    0  501 -0.21202668554E+02 -0.10470115042E+02  0.23699022071E+02  0.33478651555E+02  0.00000000000E+00 0.  1.
</event>
<event>
 4    1  0.6729064E+001  0.2594506E+02  0.7546771E-02  0.1458503E+00
          2   -1    0    0  502    0  0.00000000000E+00  0.00000000000E+00  0.38522364230E+03  0.38522364230E+03  0.00000000000E+00 0. -1.
         -2   -1    0    0    0  501 -0.00000000000E+00 -0.00000000000E+00 -0.20420119950E+01  0.20420119950E+01  0.00000000000E+00 0.  1.
          1    1    1    2  502    0 -0.24990264910E+02 -0.69737135001E+01  0.26513750627E+03  0.26640390998E+03  0.00000000000E+00 0. -1.
         -1    1    1    2    0  501  0.24990264910E+02  0.69737135001E+01  0.11804412404E+03  0.12086174432E+03  0.00000000000E+00 0.  1.
</event>
<event>
 4    1  0.6729064E+001  0.2087435E+02  0.7546771E-02  0.1521066E+00
          2   -1    0    0  502    0  0.00000000000E+00  0.00000000000E+00  0.13543852397E+04  0.13543852397E+04  0.00000000000E+00 0.  1.
         -2   -1    0    0    0  501 -0.00000000000E+00 -0.00000000000E+00 -0.85418369015E+00  0.85418369015E+00  0.00000000000E+00 0. -1.
          1    1    1    2  502    0 -0.95290352444E+01 -0.18572449631E+02  0.12117654426E+04  0.12119452241E+04  0.00000000000E+00 0.  1.
         -1    1    1    2    0  501  0.95290352444E+01  0.18572449631E+02  0.14176561347E+03  0.14329419933E+03  0.00000000000E+00 0. -1.
</event>
<event>
 4    1  0.6729064E+001  0.3395428E+02  0.7546771E-02  0.1388068E+00
          2   -1    0    0  502    0  0.00000000000E+00  0.00000000000E+00  0.60534155281E+03  0.60534155281E+03  0.00000000000E+00 0.  1.
         -2   -1    0    0    0  501 -0.00000000000E+00 -0.00000000000E+00 -0.25538943391E+01  0.25538943391E+01  0.00000000000E+00 0. -1.
          1    1    1    2  502    0  0.21783511963E+01 -0.33884332335E+02  0.45465795794E+03  0.45592406376E+03  0.00000000000E+00 0.  1.
         -1    1    1    2    0  501 -0.21783511963E+01  0.33884332335E+02  0.14812970053E+03  0.15197138340E+03  0.00000000000E+00 0. -1.
</event>
<event>
 4    1  0.6729064E+001  0.2037157E+02  0.7546771E-02  0.1528429E+00
          2   -1    0    0  502    0  0.00000000000E+00  0.00000000000E+00  0.87294454554E+02  0.87294454554E+02  0.00000000000E+00 0. -1.
         -2   -1    0    0    0  501 -0.00000000000E+00 -0.00000000000E+00 -0.49757934847E+01  0.49757934847E+01  0.00000000000E+00 0.  1.
          1    1    1    2  502    0 -0.36440406420E+01 -0.20043001922E+02  0.31419757890E+02  0.37445989693E+02  0.00000000000E+00 0. -1.
         -1    1    1    2    0  501  0.36440406420E+01  0.20043001922E+02  0.50898903179E+02  0.54824258345E+02  0.00000000000E+00 0.  1.
</event>
<event>
 4    1  0.6729064E+001  0.2084048E+02  0.7546771E-02  0.1521555E+00
          2   -1    0    0  502    0  0.00000000000E+00  0.00000000000E+00  0.99454540566E+00  0.99454540566E+00  0.00000000000E+00 0.  1.
         -2   -1    0    0    0  501 -0.00000000000E+00 -0.00000000000E+00 -0.43746386769E+03  0.43746386769E+03  0.00000000000E+00 0. -1.
          1    1    1    2  502    0 -0.17443550600E+02  0.11403874498E+02 -0.22734817799E+03  0.22830137943E+03  0.00000000000E+00 0. -1.
         -1    1    1    2    0  501  0.17443550600E+02 -0.11403874498E+02 -0.20912114429E+03  0.21015703367E+03  0.00000000000E+00 0.  1.
</event>
<event>
 4    1  0.6729064E+001  0.2109614E+02  0.7546771E-02  0.1517897E+00
          2   -1    0    0  502    0  0.00000000000E+00  0.00000000000E+00  0.13016433845E+04  0.13016433845E+04  0.00000000000E+00 0.  1.
         -2   -1    0    0    0  501 -0.00000000000E+00 -0.00000000000E+00 -0.42274916801E+00  0.42274916801E+00  0.00000000000E+00 0. -1.
          1    1    1    2  502    0  0.95595126766E+01  0.18805925228E+02  0.93529756274E+03  0.93553544988E+03  0.00000000000E+00 0.  1.
         -1    1    1    2    0  501 -0.95595126766E+01 -0.18805925228E+02  0.36592307263E+03  0.36653068383E+03  0.00000000000E+00 0. -1.
</event>
<event>
 4    1  0.6729064E+001  0.2521588E+02  0.7546771E-02  0.1466403E+00
          2   -1    0    0  502    0  0.00000000000E+00  0.00000000000E+00  0.21785401973E+04  0.21785401973E+04  0.00000000000E+00 0. -1.
         -2   -1    0    0    0  501 -0.00000000000E+00 -0.00000000000E+00 -0.34655754909E+00  0.34655754909E+00  0.00000000000E+00 0.  1.
          1    1    1    2  502    0 -0.24578476361E+02  0.56337439142E+01  0.15218889532E+04  0.15220978374E+04  0.00000000000E+00 0. -1.
         -1    1    1    2    0  501  0.24578476361E+02 -0.56337439142E+01  0.65630468657E+03  0.65678891753E+03  0.00000000000E+00 0.  1.
</event>
<event>
 4    1  0.6729064E+001  0.3030035E+02  0.7546771E-02  0.1417004E+00
          2   -1    0    0  502    0  0.00000000000E+00  0.00000000000E+00  0.15908979762E+01  0.15908979762E+01  0.00000000000E+00 0. -1.
         -2   -1    0    0    0  501 -0.00000000000E+00 -0.00000000000E+00 -0.82065931504E+03  0.82065931504E+03  0.00000000000E+00 0.  1.
          1    1    1    2  502    0 -0.29705831371E+02  0.59728592988E+01 -0.18556282068E+03  0.18802040284E+03  0.00000000000E+00 0. -1.
         -1    1    1    2    0  501  0.29705831371E+02 -0.59728592988E+01 -0.63350559639E+03  0.63422981018E+03  0.00000000000E+00 0.  1.
</event>
<event>
 4    1  0.6729064E+001  0.5740636E+02  0.7546771E-02  0.1268909E+00
          2   -1    0    0  502    0  0.00000000000E+00  0.00000000000E+00  0.67589945331E+03  0.67589945331E+03  0.00000000000E+00 0.  1.
         -2   -1    0    0    0  501 -0.00000000000E+00 -0.00000000000E+00 -0.51052525346E+01  0.51052525346E+01  0.00000000000E+00 0. -1.
          1    1    1    2  502    0  0.56751408425E+02 -0.86468615546E+01  0.26319631863E+03  0.26938409885E+03  0.00000000000E+00 0.  1.
         -1    1    1    2    0  501 -0.56751408425E+02  0.86468615546E+01  0.40759788214E+03  0.41162060699E+03  0.00000000000E+00 0. -1.
</event>
<event>
 4    1  0.6729064E+001  0.4387744E+02  0.7546771E-02  0.1327149E+00
          2   -1    0    0  502    0  0.00000000000E+00  0.00000000000E+00  0.22586862765E+04  0.22586862765E+04  0.00000000000E+00 0. -1.
         -2   -1    0    0    0  501 -0.00000000000E+00 -0.00000000000E+00 -0.11722428603E+01  0.11722428603E+01  0.00000000000E+00 0.  1.
          1    1    1    2  502    0  0.38443917079E+02  0.21149352120E+02  0.17190031180E+04  0.17195630113E+04  0.00000000000E+00 0. -1.
         -1    1    1    2    0  501 -0.38443917079E+02 -0.21149352120E+02  0.53851091562E+03  0.54029550812E+03  0.00000000000E+00 0.  1.
</event>
<event>
 4    1  0.6729064E+001  0.2104801E+02  0.7546771E-02  0.1518580E+00
          2   -1    0    0  502    0  0.00000000000E+00  0.00000000000E+00  0.10612520968E+02  0.10612520968E+02  0.00000000000E+00 0.  1.
         -2   -1    0    0    0  501 -0.00000000000E+00 -0.00000000000E+00 -0.47877517017E+02  0.47877517017E+02  0.00000000000E+00 0. -1.
          1    1    1    2  502    0 -0.11940199730E+02  0.17333503052E+02 -0.29099174076E+02  0.35913515973E+02  0.00000000000E+00 0. -1.
         -1    1    1    2    0  501  0.11940199730E+02 -0.17333503052E+02 -0.81658219729E+01  0.22576522012E+02  0.00000000000E+00 0.  1.
</event>
<event>
 4    1  0.6729064E+001  0.2061821E+02  0.7546771E-02  0.1524786E+00
          2   -1    0    0  502    0  0.00000000000E+00  0.00000000000E+00  0.50713533384E+03  0.50713533384E+03  0.00000000000E+00 0.  1.
         -2   -1    0    0    0  501 -0.00000000000E+00 -0.00000000000E+00 -0.10960309356E+01  0.10960309356E+01  0.00000000000E+00 0. -1.
          1    1    1    2  502    0 -0.35752680371E+01  0.20305866895E+02  0.12978357740E+03  0.13141114007E+03  0.00000000000E+00 0. -1.
         -1    1    1    2    0  501  0.35752680371E+01 -0.20305866895E+02  0.37625572551E+03  0.37682022471E+03  0.00000000000E+00 0.  1.
</event>
<event>
 4    1  0.6729064E+001  0.2444606E+02  0.7546771E-02  0.1475097E+00
          2   -1    0    0  502    0  0.00000000000E+00  0.00000000000E+00  0.52609733676E+03  0.52609733676E+03  0.00000000000E+00 0. -1.
         -2   -1    0    0    0  501 -0.00000000000E+00 -0.00000000000E+00 -0.11421631104E+01  0.11421631104E+01  0.00000000000E+00 0.  1.
          1    1    1    2  502    0 -0.21523690595E+02 -0.11590545017E+02  0.28195136436E+03  0.28300915508E+03  0.00000000000E+00 0. -1.
         -1    1    1    2    0  501  0.21523690595E+02  0.11590545017E+02  0.24300380929E+03  0.24423034480E+03  0.00000000000E+00 0.  1.
</event>
<event>
 4    1  0.6729064E+001  0.2245347E+02  0.7546771E-02  0.1499477E+00
          2   -1    0    0  502    0  0.00000000000E+00  0.00000000000E+00  0.12994092587E+02  0.12994092587E+02  0.00000000000E+00 0. -1.
         -2   -1    0    0    0  501 -0.00000000000E+00 -0.00000000000E+00 -0.78132225899E+02  0.78132225899E+02  0.00000000000E+00 0.  1.
          1    1    1    2  502    0  0.18134177929E+01 -0.22380121031E+02 -0.24110664012E+00  0.22454764168E+02  0.00000000000E+00 0.  1.
         -1    1    1    2    0  501 -0.18134177929E+01  0.22380121031E+02 -0.64897026672E+02  0.68671554317E+02  0.00000000000E+00 0. -1.
</event>
<event>
 4    1  0.6729064E+001  0.2804811E+02  0.7546771E-02  0.1437355E+00
          2   -1    0    0  502    0  0.00000000000E+00  0.00000000000E+00  0.12831377762E+04  0.12831377762E+04  0.00000000000E+00 0.  1.
         -2   -1    0    0    0  501 -0.00000000000E+00 -0.00000000000E+00 -0.73407267062E+00  0.73407267062E+00  0.00000000000E+00 0. -1.
          1    1    1    2  502    0 -0.27640449297E+02  0.47646543806E+01  0.90179281696E+03  0.90222889617E+03  0.00000000000E+00 0.  1.
         -1    1    1    2    0  501  0.27640449297E+02 -0.47646543806E+01  0.38061088657E+03  0.38164295269E+03  0.00000000000E+00 0. -1.
</event>
<event>
 4    1  0.6729064E+001  0.2244484E+02  0.7546771E-02  0.1499589E+00
          2   -1    0    0  502    0  0.00000000000E+00  0.00000000000E+00  0.39796776185E+02  0.39796776185E+02  0.00000000000E+00 0.  1.
         -2   -1    0    0    0  501 -0.00000000000E+00 -0.00000000000E+00 -0.28458497335E+02  0.28458497335E+02  0.00000000000E+00 0. -1.
          1    1    1    2  502    0  0.19621107326E+02  0.10898767250E+02 -0.19759758312E+02  0.29903495261E+02  0.00000000000E+00 0. -1.
         -1    1    1    2    0  501 -0.19621107326E+02 -0.10898767250E+02  0.31098037162E+02  0.38351778259E+02  0.00000000000E+00 0.  1.
</event>
<event>
 4    1  0.6729064E+001  0.2152128E+02  0.7546771E-02  0.1511951E+00
          2   -1    0    0  502    0  0.00000000000E+00  0.00000000000E+00  0.14242304995E+02  0.14242304995E+02  0.00000000000E+00 0. -1.
         -2   -1    0    0    0  501 -0.00000000000E+00 -0.00000000000E+00 -0.45152959754E+02  0.45152959754E+02  0.00000000000E+00 0.  1.
          1    1    1    2  502    0 -0.12296488590E+01  0.21486126544E+02  0.25278994982E+00  0.21522768710E+02  0.00000000000E+00 0. -1.
         -1    1    1    2    0  501  0.12296488590E+01 -0.21486126544E+02 -0.31163444709E+02  0.37872496040E+02  0.00000000000E+00 0.  1.
</event>
<event>
 4    1  0.6729064E+001  0.2081350E+02  0.7546771E-02  0.1521944E+00
          2   -1    0    0  502    0  0.00000000000E+00  0.00000000000E+00  0.84377261884E+01  0.84377261884E+01  0.00000000000E+00 0.  1.
         -2   -1    0    0    0  501 -0.00000000000E+00 -0.00000000000E+00 -0.51343108999E+02  0.51343108999E+02  0.00000000000E+00 0. -1.
          1    1    1    2  502    0  0.11842782490E+02  0.17115795724E+02 -0.21264707598E+02  0.29755499485E+02  0.00000000000E+00 0. -1.
         -1    1    1    2    0  501 -0.11842782490E+02 -0.17115795724E+02 -0.21640675212E+02  0.30025335702E+02  0.00000000000E+00 0.  1.
</event>
<event>
 4    1  0.6729064E+001  0.2244099E+02  0.7546771E-02  0.1499639E+00
          2   -1    0    0  502    0  0.00000000000E+00  0.00000000000E+00  0.12186734937E+02  0.12186734937E+02  0.00000000000E+00 0. -1.
         -2   -1    0    0    0  501 -0.00000000000E+00 -0.00000000000E+00 -0.12630152165E+03  0.12630152165E+03  0.00000000000E+00 0.  1.
          1    1    1    2  502    0 -0.17998904816E+02 -0.13402896695E+02 -0.11385526181E+03  0.11604576191E+03  0.00000000000E+00 0.  1.
         -1    1    1    2    0  501  0.17998904816E+02  0.13402896695E+02 -0.25952490480E+00  0.22442494683E+02  0.00000000000E+00 0. -1.
</event>
<event>
 4    1  0.6729064E+001  0.3009981E+02  0.7546771E-02  0.1418731E+00
          2   -1    0    0  502    0  0.00000000000E+00  0.00000000000E+00  0.32308981292E+02  0.32308981292E+02  0.00000000000E+00 0.  1.
         -2   -1    0    0    0  501 -0.00000000000E+00 -0.00000000000E+00 -0.29534346417E+02  0.29534346417E+02  0.00000000000E+00 0. -1.
          1    1    1    2  502    0  0.29799407334E+02  0.42418868515E+01  0.83388378349E+01  0.31233547636E+02  0.00000000000E+00 0.  1.
         -1    1    1    2    0  501 -0.29799407334E+02 -0.42418868515E+01 -0.55642029607E+01  0.30609780073E+02  0.00000000000E+00 0. -1.
</event>
<event>
 4    1  0.6729064E+001  0.2028277E+02  0.7546771E-02  0.1529756E+00
          2   -1    0    0  502    0  0.00000000000E+00  0.00000000000E+00  0.12721563747E+02  0.12721563747E+02  0.00000000000E+00 0.  1.
         -2   -1    0    0    0  501 -0.00000000000E+00 -0.00000000000E+00 -0.35762189546E+02  0.35762189546E+02  0.00000000000E+00 0. -1.
          1    1    1    2  502    0  0.14621976565E+02  0.14056626258E+02 -0.40191596089E+01  0.20677151264E+02  0.00000000000E+00 0.  1.
         -1    1    1    2    0  501 -0.14621976565E+02 -0.14056626258E+02 -0.19021466190E+02  0.27806602030E+02  0.00000000000E+00 0. -1.
</event>
<event>
 4    1  0.6729064E+001  0.2670433E+02  0.7546771E-02  0.1450601E+00
          2   -1    0    0  502    0  0.00000000000E+00  0.00000000000E+00  0.75512537465E+01  0.75512537465E+01  0.00000000000E+00 0. -1.
         -2   -1    0    0    0  501 -0.00000000000E+00 -0.00000000000E+00 -0.96193951648E+02  0.96193951648E+02  0.00000000000E+00 0.  1.
          1    1    1    2  502    0 -0.50964962364E+01  0.26213489864E+02 -0.51330824826E+02  0.57861687688E+02  0.00000000000E+00 0. -1.
         -1    1    1    2    0  501  0.50964962364E+01 -0.26213489864E+02 -0.37311873075E+02  0.45883517707E+02  0.00000000000E+00 0.  1.
</event>
<event>
 4    1  0.6729064E+001  0.3151779E+02  0.7546771E-02  0.1406850E+00
          2   -1    0    0  502    0  0.00000000000E+00  0.00000000000E+00  0.26099594908E+01  0.26099594908E+01  0.00000000000E+00 0.  1.
         -2   -1    0    0    0  501 -0.00000000000E+00 -0.00000000000E+00 -0.38262850988E+03  0.38262850988E+03  0.00000000000E+00 0. -1.
          1    1    1    2  502    0  0.27238572509E+02 -0.15856590326E+02 -0.17601183587E+03  0.17881145840E+03  0.00000000000E+00 0.  1.
         -1    1    1    2    0  501 -0.27238572509E+02  0.15856590326E+02 -0.20400671452E+03  0.20642701097E+03  0.00000000000E+00 0. -1.
</event>
<event>
 4    1  0.6729064E+001  0.2785451E+02  0.7546771E-02  0.1439208E+00
          2   -1    0    0  502    0  0.00000000000E+00  0.00000000000E+00  0.71751828401E+03  0.71751828401E+03  0.00000000000E+00 0.  1.
         -2   -1    0    0    0  501 -0.00000000000E+00 -0.00000000000E+00 -0.10858476456E+01  0.10858476456E+01  0.00000000000E+00 0. -1.
          1    1    1    2  502    0  0.27586370167E+02 -0.38556302795E+01  0.33503937551E+03  0.33619526595E+03  0.00000000000E+00 0. -1.
         -1    1    1    2    0  501 -0.27586370167E+02  0.38556302795E+01  0.38139306086E+03  0.38240886571E+03  0.00000000000E+00 0.  1.
</event>
<event>
 4    1  0.6729064E+001  0.5387100E+02  0.7546771E-02  0.1282208E+00
          2   -1    0    0  502    0  0.00000000000E+00  0.00000000000E+00  0.57416955035E+03  0.57416955035E+03  0.00000000000E+00 0.  1.
         -2   -1    0    0    0  501 -0.00000000000E+00 -0.00000000000E+00 -0.50904395096E+01  0.50904395096E+01  0.00000000000E+00 0. -1.
          1    1    1    2  502    0 -0.94861282895E+01 -0.53029217993E+02  0.26017075338E+03  0.26568949077E+03  0.00000000000E+00 0. -1.
         -1    1    1    2    0  501  0.94861282895E+01  0.53029217993E+02  0.30890835746E+03  0.31357049909E+03  0.00000000000E+00 0.  1.
</event>
<event>
 4    1  0.6729064E+001  0.4154119E+02  0.7546771E-02  0.1339684E+00
          2   -1    0    0  502    0  0.00000000000E+00  0.00000000000E+00  0.59625749992E+03  0.59625749992E+03  0.00000000000E+00 0. -1.
         -2   -1    0    0    0  501 -0.00000000000E+00 -0.00000000000E+00 -0.29219597265E+01  0.29219597265E+01  0.00000000000E+00 0.  1.
          1    1    1    2  502    0 -0.41636128759E+01  0.41332011404E+02  0.32588428449E+03  0.32852128960E+03  0.00000000000E+00 0.  1.
         -1    1    1    2    0  501  0.41636128759E+01 -0.41332011404E+02  0.26745125570E+03  0.27065817005E+03  0.00000000000E+00 0. -1.
</event>
<event>
 4    1  0.6729064E+001  0.2164662E+02  0.7546771E-02  0.1510230E+00
          2   -1    0    0  502    0  0.00000000000E+00  0.00000000000E+00  0.86201784369E+03  0.86201784369E+03  0.00000000000E+00 0. -1.
         -2   -1    0    0    0  501 -0.00000000000E+00 -0.00000000000E+00 -0.89424937856E+00  0.89424937856E+00  0.00000000000E+00 0.  1.
          1    1    1    2  502    0 -0.21627721222E+02 -0.90445935380E+00  0.70074332062E+03  0.70107758327E+03  0.00000000000E+00 0.  1.
         -1    1    1    2    0  501  0.21627721222E+02  0.90445935380E+00  0.16038027369E+03  0.16183450980E+03  0.00000000000E+00 0. -1.
</event>
<event>
 4    1  0.6729064E+001  0.2445682E+02  0.7546771E-02  0.1474972E+00
          2   -1    0    0  502    0  0.00000000000E+00  0.00000000000E+00  0.38976057381E+01  0.38976057381E+01  0.00000000000E+00 0.  1.
         -2   -1    0    0    0  501 -0.00000000000E+00 -0.00000000000E+00 -0.27484659626E+03  0.27484659626E+03  0.00000000000E+00 0. -1.
          1    1    1    2  502    0 -0.19282545144E+02 -0.15043926623E+02 -0.22809594636E+03  0.22940335006E+03  0.00000000000E+00 0. -1.
         -1    1    1    2    0  501  0.19282545144E+02  0.15043926623E+02 -0.42853044161E+02  0.49340851932E+02  0.00000000000E+00 0.  1.
</event>
<event>
 4    1  0.6729064E+001  0.2355761E+02  0.7546771E-02  0.1485612E+00
          2   -1    0    0  502    0  0.00000000000E+00  0.00000000000E+00  0.46978536147E+01  0.46978536147E+01  0.00000000000E+00 0.  1.
         -2   -1    0    0    0  501 -0.00000000000E+00 -0.00000000000E+00 -0.15539567379E+03  0.15539567379E+03  0.00000000000E+00 0. -1.
          1    1    1    2  502    0  0.17319280106E+02 -0.15968834777E+02 -0.36149979789E+02  0.43148374086E+02  0.00000000000E+00 0.  1.
         -1    1    1    2    0  501 -0.17319280106E+02  0.15968834777E+02 -0.11454784038E+03  0.11694515332E+03  0.00000000000E+00 0. -1.
</event>
<event>
 4    1  0.6729064E+001  0.2008027E+02  0.7546771E-02  0.1532812E+00
          2   -1    0    0  502    0  0.00000000000E+00  0.00000000000E+00  0.10988236008E+04  0.10988236008E+04  0.00000000000E+00 0. -1.
         -2   -1    0    0    0  501 -0.00000000000E+00 -0.00000000000E+00 -0.37213992214E+00  0.37213992214E+00  0.00000000000E+00 0.  1.
          1    1    1    2  502    0  0.19287556282E+02  0.55863714756E+01  0.61410679068E+03  0.61443499878E+03  0.00000000000E+00 0. -1.
         -1    1    1    2    0  501 -0.19287556282E+02 -0.55863714756E+01  0.48434467016E+03  0.48476074189E+03  0.00000000000E+00 0.  1.
</event>
<event>
 4    1  0.6729064E+001  0.3906138E+02  0.7546771E-02  0.1354076E+00
          2   -1    0    0  502    0  0.00000000000E+00  0.00000000000E+00  0.60315958006E+03  0.60315958006E+03  0.00000000000E+00 0.  1.
         -2   -1    0    0    0  501 -0.00000000000E+00 -0.00000000000E+00 -0.31277291908E+01  0.31277291908E+01  0.00000000000E+00 0. -1.
          1    1    1    2  502    0  0.34839194085E+02  0.17664133393E+02  0.16745724045E+03  0.17195266335E+03  0.00000000000E+00 0. -1.
         -1    1    1    2    0  501 -0.34839194085E+02 -0.17664133393E+02  0.43257461042E+03  0.43433464590E+03  0.00000000000E+00 0.  1.
</event>
<event>
 4    1  0.6729064E+001  0.2312177E+02  0.7546771E-02  0.1490975E+00
          2   -1    0    0  502    0  0.00000000000E+00  0.00000000000E+00  0.77271577341E+01  0.77271577341E+01  0.00000000000E+00 0.  1.
         -2   -1    0    0    0  501 -0.00000000000E+00 -0.00000000000E+00 -0.76279653843E+02  0.76279653843E+02  0.00000000000E+00 0. -1.
          1    1    1    2  502    0  0.42780772228E+01  0.22722551343E+02 -0.21467852090E+02  0.31551306750E+02  0.00000000000E+00 0.  1.
         -1    1    1    2    0  501 -0.42780772228E+01 -0.22722551343E+02 -0.47084644019E+02  0.52455504827E+02  0.00000000000E+00 0. -1.
</event>
<event>
 4    1  0.6729064E+001  0.3180207E+02  0.7546771E-02  0.1404557E+00
          2   -1    0    0  502    0  0.00000000000E+00  0.00000000000E+00  0.15369646459E+03  0.15369646459E+03  0.00000000000E+00 0.  1.
         -2   -1    0    0    0  501 -0.00000000000E+00 -0.00000000000E+00 -0.89769170839E+01  0.89769170839E+01  0.00000000000E+00 0. -1.
          1    1    1    2  502    0 -0.59712187081E+01  0.31236456389E+02  0.11438601590E+03  0.11872460694E+03  0.00000000000E+00 0.  1.
         -1    1    1    2    0  501  0.59712187081E+01 -0.31236456389E+02  0.30333531610E+02  0.43948774733E+02  0.00000000000E+00 0. -1.
</event>
<event>
 4    1  0.6729064E+001  0.2527592E+02  0.7546771E-02  0.1465740E+00
          2   -1    0    0  502    0  0.00000000000E+00  0.00000000000E+00  0.14937932546E+04  0.14937932546E+04  0.00000000000E+00 0.  1.
         -2   -1    0    0    0  501 -0.00000000000E+00 -0.00000000000E+00 -0.43384386503E+00  0.43384386503E+00  0.00000000000E+00 0. -1.
          1    1    1    2  502    0 -0.25174146031E+02  0.22659604061E+01  0.65765957270E+03  0.65814510996E+03  0.00000000000E+00 0. -1.
         -1    1    1    2    0  501  0.25174146031E+02 -0.22659604061E+01  0.83569983800E+03  0.83608198847E+03  0.00000000000E+00 0.  1.
</event>
<event>
 4    1  0.6729064E+001  0.2127736E+02  0.7546771E-02  0.1515341E+00
          2   -1    0    0  502    0  0.00000000000E+00  0.00000000000E+00  0.33040213986E+03  0.33040213986E+03  0.00000000000E+00 0. -1.
         -2   -1    0    0    0  501 -0.00000000000E+00 -0.00000000000E+00 -0.18016006661E+01  0.18016006661E+01  0.00000000000E+00 0.  1.
          1    1    1    2  502    0  0.50348397245E+01  0.20673088085E+02  0.24557802300E+03  0.24649805590E+03  0.00000000000E+00 0. -1.
         -1    1    1    2    0  501 -0.50348397245E+01 -0.20673088085E+02  0.83022516197E+02  0.85705684629E+02  0.00000000000E+00 0.  1.
</event>
<event>
 4    1  0.6729064E+001  0.2325209E+02  0.7546771E-02  0.1489357E+00
          2   -1    0    0  502    0  0.00000000000E+00  0.00000000000E+00  0.74049348845E+03  0.74049348845E+03  0.00000000000E+00 0. -1.
         -2   -1    0    0    0  501 -0.00000000000E+00 -0.00000000000E+00 -0.73844989788E+00  0.73844989788E+00  0.00000000000E+00 0.  1.
          1    1    1    2  502    0 -0.22294949160E+02  0.66026538260E+01  0.33054907222E+03  0.33136588379E+03  0.00000000000E+00 0. -1.
         -1    1    1    2    0  501  0.22294949160E+02 -0.66026538260E+01  0.40920596634E+03  0.40986605456E+03  0.00000000000E+00 0.  1.
</event>
<event>
 4    1  0.6729064E+001  0.2185786E+02  0.7546771E-02  0.1507361E+00
          2   -1    0    0  502    0  0.00000000000E+00  0.00000000000E+00  0.73133173586E+02  0.73133173586E+02  0.00000000000E+00 0.  1.
         -2   -1    0    0    0  501 -0.00000000000E+00 -0.00000000000E+00 -0.79125130137E+01  0.79125130137E+01  0.00000000000E+00 0. -1.
          1    1    1    2  502    0 -0.32626583712E+01 -0.21612986226E+02  0.49531616723E+02  0.54140069897E+02  0.00000000000E+00 0. -1.
         -1    1    1    2    0  501  0.32626583712E+01  0.21612986226E+02  0.15689043850E+02  0.26905616703E+02  0.00000000000E+00 0.  1.
</event>
<event>
 4    1  0.6729064E+001  0.2049631E+02  0.7546771E-02  0.1526579E+00
          2   -1    0    0  502    0  0.00000000000E+00  0.00000000000E+00  0.15966572807E+02  0.15966572807E+02  0.00000000000E+00 0.  1.
         -2   -1    0    0    0  501 -0.00000000000E+00 -0.00000000000E+00 -0.97318352938E+02  0.97318352938E+02  0.00000000000E+00 0. -1.
          1    1    1    2  502    0  0.19559765553E+02  0.61248851815E+01 -0.89059247675E+02  0.91387352754E+02  0.00000000000E+00 0. -1.
         -1    1    1    2    0  501 -0.19559765553E+02 -0.61248851815E+01  0.77074675438E+01  0.21897572992E+02  0.00000000000E+00 0.  1.
</event>
<event>
 4    1  0.6729064E+001  0.2386436E+02  0.7546771E-02  0.1481921E+00
          2   -1    0    0  502    0  0.00000000000E+00  0.00000000000E+00  0.46044058901E+02  0.46044058901E+02  0.00000000000E+00 0.  1.
         -2   -1    0    0    0  501 -0.00000000000E+00 -0.00000000000E+00 -0.17484810630E+02  0.17484810630E+02  0.00000000000E+00 0. -1.
          1    1    1    2  502    0  0.20245671664E+02 -0.12634089699E+02 -0.29025658024E+01  0.24040223208E+02  0.00000000000E+00 0.  1.
         -1    1    1    2    0  501 -0.20245671664E+02  0.12634089699E+02  0.31461814073E+02  0.39488646323E+02  0.00000000000E+00 0. -1.
</event>
<event>
 4    1  0.6729064E+001  0.2089866E+02  0.7546771E-02  0.1520717E+00
          2   -1    0    0  502    0  0.00000000000E+00  0.00000000000E+00  0.13241648240E+03  0.13241648240E+03  0.00000000000E+00 0. -1.
         -2   -1    0    0    0  501 -0.00000000000E+00 -0.00000000000E+00 -0.33259341265E+01  0.33259341265E+01  0.00000000000E+00 0.  1.
          1    1    1    2  502    0  0.50603002574E+01  0.20276769460E+02  0.58362683562E+02  0.61991586937E+02  0.00000000000E+00 0. -1.
         -1    1    1    2    0  501 -0.50603002574E+01 -0.20276769460E+02  0.70727864712E+02  0.73750829590E+02  0.00000000000E+00 0.  1.
</event>
<event>
 4    1  0.6729064E+001  0.1123131E+03  0.7546771E-02  0.1144028E+00
          2   -1    0    0  502    0  0.00000000000E+00  0.00000000000E+00  0.19870720106E+02  0.19870720106E+02  0.00000000000E+00 0.  1.
         -2   -1    0    0    0  501 -0.00000000000E+00 -0.00000000000E+00 -0.70021073110E+03  0.70021073110E+03  0.00000000000E+00 0. -1.
          1    1    1    2  502    0 -0.48666492957E+01  0.11220764871E+03 -0.23014019731E+03  0.25608348467E+03  0.00000000000E+00 0. -1.
         -1    1    1    2    0  501  0.48666492957E+01 -0.11220764871E+03 -0.45019981369E+03  0.46399796654E+03  0.00000000000E+00 0.  1.
</event>
<event>
 4    1  0.6729064E+001  0.7212327E+02  0.7546771E-02  0.1223418E+00
          2   -1    0    0  502    0  0.00000000000E+00  0.00000000000E+00  0.63993179213E+03  0.63993179213E+03  0.00000000000E+00 0. -1.
         -2   -1    0    0    0  501 -0.00000000000E+00 -0.00000000000E+00 -0.82898904126E+01  0.82898904126E+01  0.00000000000E+00 0.  1.
          1    1    1    2  502    0  0.34014454778E+02 -0.63598610872E+02  0.27061579837E+03  0.28006191595E+03  0.00000000000E+00 0. -1.
         -1    1    1    2    0  501 -0.34014454778E+02  0.63598610872E+02  0.36102610335E+03  0.36815976660E+03  0.00000000000E+00 0.  1.
</event>
<event>
 4    1  0.6729064E+001  0.2374885E+02  0.7546771E-02  0.1483303E+00
          2   -1    0    0  502    0  0.00000000000E+00  0.00000000000E+00  0.64168000930E+01  0.64168000930E+01  0.00000000000E+00 0. -1.
         -2   -1    0    0    0  501 -0.00000000000E+00 -0.00000000000E+00 -0.87898519557E+02  0.87898519557E+02  0.00000000000E+00 0.  1.
          1    1    1    2  502    0 -0.19299632184E+02 -0.13839504762E+02 -0.40463337747E+02  0.46917900594E+02  0.00000000000E+00 0. -1.
         -1    1    1    2    0  501  0.19299632184E+02  0.13839504762E+02 -0.41018381717E+02  0.47397419056E+02  0.00000000000E+00 0.  1.
</event>
<event>
 4    1  0.6729064E+001  0.2922405E+02  0.7546771E-02  0.1426461E+00
          2   -1    0    0  502    0  0.00000000000E+00  0.00000000000E+00  0.10994480989E+04  0.10994480989E+04  0.00000000000E+00 0. -1.
         -2   -1    0    0    0  501 -0.00000000000E+00 -0.00000000000E+00 -0.11008837345E+01  0.11008837345E+01  0.00000000000E+00 0.  1.
          1    1    1    2  502    0  0.10593824406E+02  0.27236296020E+02  0.25060706520E+03  0.25230526365E+03  0.00000000000E+00 0.  1.
         -1    1    1    2    0  501 -0.10593824406E+02 -0.27236296020E+02  0.84774014999E+03  0.84824371901E+03  0.00000000000E+00 0. -1.
</event>
<event>
 4    1  0.6729064E+001  0.2952512E+02  0.7546771E-02  0.1423769E+00
          2   -1    0    0  502    0  0.00000000000E+00  0.00000000000E+00  0.19049752256E+03  0.19049752256E+03  0.00000000000E+00 0. -1.
         -2   -1    0    0    0  501 -0.00000000000E+00 -0.00000000000E+00 -0.47331469182E+01  0.47331469182E+01  0.00000000000E+00 0.  1.
          1    1    1    2  502    0  0.25956053261E+02  0.14071824262E+02  0.75100298679E+02  0.80695649205E+02  0.00000000000E+00 0.  1.
         -1    1    1    2    0  501 -0.25956053261E+02 -0.14071824262E+02  0.11066407696E+03  0.11453502027E+03  0.00000000000E+00 0. -1.
</event>
<event>
 4    1  0.6729064E+001  0.2313020E+02  0.7546771E-02  0.1490870E+00
          2   -1    0    0  502    0  0.00000000000E+00  0.00000000000E+00  0.13738253600E+03  0.13738253600E+03  0.00000000000E+00 0.  1.
         -2   -1    0    0    0  501 -0.00000000000E+00 -0.00000000000E+00 -0.39282315605E+01  0.39282315605E+01  0.00000000000E+00 0. -1.
          1    1    1    2  502    0  0.14612772605E+02  0.17929666821E+02  0.73295799986E+02  0.76858834047E+02  0.00000000000E+00 0.  1.
         -1    1    1    2    0  501 -0.14612772605E+02 -0.17929666821E+02  0.60158504457E+02  0.64451933516E+02  0.00000000000E+00 0. -1.
</event>
<event>
 4    1  0.6729064E+001  0.4094656E+02  0.7546771E-02  0.1343027E+00
          2   -1    0    0  502    0  0.00000000000E+00  0.00000000000E+00  0.79693234229E+03  0.79693234229E+03  0.00000000000E+00 0. -1.
         -2   -1    0    0    0  501 -0.00000000000E+00 -0.00000000000E+00 -0.21039376140E+01  0.21039376140E+01  0.00000000000E+00 0.  1.
          1    1    1    2  502    0 -0.31468438578E+01  0.40825456021E+02  0.40009414235E+03  0.40218396690E+03  0.00000000000E+00 0.  1.
         -1    1    1    2    0  501  0.31468438578E+01 -0.40825456021E+02  0.39473426232E+03  0.39685231300E+03  0.00000000000E+00 0. -1.
</event>
<event>
 4    1  0.6729064E+001  0.2407092E+02  0.7546771E-02  0.1479471E+00
          2   -1    0    0  502    0  0.00000000000E+00  0.00000000000E+00  0.18194743848E+03  0.18194743848E+03  0.00000000000E+00 0.  1.
         -2   -1    0    0    0  501 -0.00000000000E+00 -0.00000000000E+00 -0.48328286881E+01  0.48328286881E+01  0.00000000000E+00 0. -1.
          1    1    1    2  502    0  0.13604102944E+02  0.19857931100E+02  0.14309842693E+03  0.14510881721E+03  0.00000000000E+00 0.  1.
         -1    1    1    2    0  501 -0.13604102944E+02 -0.19857931100E+02  0.34016182863E+02  0.41671449952E+02  0.00000000000E+00 0. -1.
</event>
<event>
 4    1  0.6729064E+001  0.2001757E+02  0.7546771E-02  0.1533767E+00
          2   -1    0    0  502    0  0.00000000000E+00  0.00000000000E+00  0.46889401863E+01  0.46889401863E+01  0.00000000000E+00 0. -1.
         -2   -1    0    0    0  501 -0.00000000000E+00 -0.00000000000E+00 -0.13123236730E+03  0.13123236730E+03  0.00000000000E+00 0.  1.
          1    1    1    2  502    0  0.14198204862E+02  0.14110782580E+02 -0.10340941841E+03  0.10532906067E+03  0.00000000000E+00 0.  1.
         -1    1    1    2    0  501 -0.14198204862E+02 -0.14110782580E+02 -0.23134008699E+02  0.30592246809E+02  0.00000000000E+00 0. -1.
</event>
<event>
 4    1  0.6729064E+001  0.1013331E+03  0.7546771E-02  0.1161518E+00
          2   -1    0    0  502    0  0.00000000000E+00  0.00000000000E+00  0.51567629843E+03  0.51567629843E+03  0.00000000000E+00 0. -1.
         -2   -1    0    0    0  501 -0.00000000000E+00 -0.00000000000E+00 -0.95659406968E+02  0.95659406968E+02  0.00000000000E+00 0.  1.
          1    1    1    2  502    0  0.91178352722E+02 -0.44214217007E+02 -0.61991276720E+02  0.11879102399E+03  0.00000000000E+00 0.  1.
         -1    1    1    2    0  501 -0.91178352722E+02  0.44214217007E+02  0.48200816819E+03  0.49254468141E+03  0.00000000000E+00 0. -1.
</event>
<event>
 4    1  0.6729064E+001  0.3372689E+02  0.7546771E-02  0.1389741E+00
          2   -1    0    0  502    0  0.00000000000E+00  0.00000000000E+00  0.10314475130E+04  0.10314475130E+04  0.00000000000E+00 0. -1.
         -2   -1    0    0    0  501 -0.00000000000E+00 -0.00000000000E+00 -0.11753664032E+01  0.11753664032E+01  0.00000000000E+00 0.  1.
          1    1    1    2  502    0  0.33447513819E+02 -0.43320577456E+01  0.64340674519E+03  0.64429010753E+03  0.00000000000E+00 0.  1.
         -1    1    1    2    0  501 -0.33447513819E+02  0.43320577456E+01  0.38686540140E+03  0.38833277187E+03  0.00000000000E+00 0. -1.
</event>
<event>
 4    1  0.6729064E+001  0.4213511E+02  0.7546771E-02  0.1336409E+00
          2   -1    0    0  502    0  0.00000000000E+00  0.00000000000E+00  0.38791393281E+03  0.38791393281E+03  0.00000000000E+00 0. -1.
         -2   -1    0    0    0  501 -0.00000000000E+00 -0.00000000000E+00 -0.53164044680E+01  0.53164044680E+01  0.00000000000E+00 0.  1.
          1    1    1    2  502    0 -0.16685110124E+02 -0.38690760847E+02  0.11795967950E+03  0.12525914682E+03  0.00000000000E+00 0.  1.
         -1    1    1    2    0  501  0.16685110124E+02  0.38690760847E+02  0.26463784884E+03  0.26797119046E+03  0.00000000000E+00 0. -1.
</event>
<event>
 4    1  0.6729064E+001  0.2767903E+02  0.7546771E-02  0.1440904E+00
          2   -1    0    0  502    0  0.00000000000E+00  0.00000000000E+00  0.12302051764E+03  0.12302051764E+03  0.00000000000E+00 0.  1.
         -2   -1    0    0    0  501 -0.00000000000E+00 -0.00000000000E+00 -0.97387559445E+01  0.97387559445E+01  0.00000000000E+00 0. -1.
          1    1    1    2  502    0 -0.26404396381E+02 -0.83027891568E+01  0.16783823304E+02  0.32370127907E+02  0.00000000000E+00 0. -1.
         -1    1    1    2    0  501  0.26404396381E+02  0.83027891568E+01  0.96497938394E+02  0.10038914568E+03  0.00000000000E+00 0.  1.
</event>
<event>
 4    1  0.6729064E+001  0.2449577E+02  0.7546771E-02  0.1474524E+00
          2   -1    0    0  502    0  0.00000000000E+00  0.00000000000E+00  0.11836324959E+03  0.11836324959E+03  0.00000000000E+00 0.  1.
         -2   -1    0    0    0  501 -0.00000000000E+00 -0.00000000000E+00 -0.66120489545E+01  0.66120489545E+01  0.00000000000E+00 0. -1.
          1    1    1    2  502    0  0.18437537697E+02  0.16127609019E+02  0.25693771924E+02  0.35499471611E+02  0.00000000000E+00 0.  1.
         -1    1    1    2    0  501 -0.18437537697E+02 -0.16127609019E+02  0.86057428713E+02  0.89475826935E+02  0.00000000000E+00 0. -1.
</event>
<event>
 4    1  0.6729064E+001  0.2258836E+02  0.7546771E-02  0.1497733E+00
          2   -1    0    0  502    0  0.00000000000E+00  0.00000000000E+00  0.70690040897E+03  0.70690040897E+03  0.00000000000E+00 0. -1.
         -2   -1    0    0    0  501 -0.00000000000E+00 -0.00000000000E+00 -0.87350599731E+00  0.87350599731E+00  0.00000000000E+00 0.  1.
          1    1    1    2  502    0 -0.40837020143E+01 -0.22216154977E+02  0.20552899537E+03  0.20676654009E+03  0.00000000000E+00 0.  1.
         -1    1    1    2    0  501  0.40837020143E+01  0.22216154977E+02  0.50049790761E+03  0.50100737488E+03  0.00000000000E+00 0. -1.
</event>
<event>
 4    1  0.6729064E+001  0.2605489E+02  0.7546771E-02  0.1457340E+00
          2   -1    0    0  502    0  0.00000000000E+00  0.00000000000E+00  0.11989497726E+02  0.11989497726E+02  0.00000000000E+00 0.  1.
         -2   -1    0    0    0  501 -0.00000000000E+00 -0.00000000000E+00 -0.57600801614E+02  0.57600801614E+02  0.00000000000E+00 0. -1.
          1    1    1    2  502    0  0.17101267504E+02  0.19657156241E+02 -0.27343786669E+02  0.37769561966E+02  0.00000000000E+00 0. -1.
         -1    1    1    2    0  501 -0.17101267504E+02 -0.19657156241E+02 -0.18267517218E+02  0.31820737374E+02  0.00000000000E+00 0.  1.
</event>
<event>
 4    1  0.6729064E+001  0.2898891E+02  0.7546771E-02  0.1428591E+00
          2   -1    0    0  502    0  0.00000000000E+00  0.00000000000E+00  0.13726884329E+04  0.13726884329E+04  0.00000000000E+00 0.  1.
         -2   -1    0    0    0  501 -0.00000000000E+00 -0.00000000000E+00 -0.72144272132E+00  0.72144272132E+00  0.00000000000E+00 0. -1.
          1    1    1    2  502    0 -0.28080693545E+02 -0.71994281211E+01  0.95320380904E+03  0.95364451379E+03  0.00000000000E+00 0. -1.
         -1    1    1    2    0  501  0.28080693545E+02  0.71994281211E+01  0.41876318116E+03  0.41976536185E+03  0.00000000000E+00 0.  1.
</event>
<event>
 4    1  0.6729064E+001  0.2317920E+02  0.7546771E-02  0.1490260E+00
          2   -1    0    0  502    0  0.00000000000E+00  0.00000000000E+00  0.31628348198E+02  0.31628348198E+02  0.00000000000E+00 0. -1.
         -2   -1    0    0    0  501 -0.00000000000E+00 -0.00000000000E+00 -0.18599413234E+02  0.18599413234E+02  0.00000000000E+00 0.  1.
          1    1    1    2  502    0  0.22716183899E+02 -0.46098062652E+01 -0.87959142350E+00  0.23195883380E+02  0.00000000000E+00 0.  1.
         -1    1    1    2    0  501 -0.22716183899E+02  0.46098062652E+01  0.13908526388E+02  0.27031878052E+02  0.00000000000E+00 0. -1.
</event>
<event>
 4    1  0.6729064E+001  0.2969648E+02  0.7546771E-02  0.1422253E+00
          2   -1    0    0  502    0  0.00000000000E+00  0.00000000000E+00  0.94792096925E+03  0.94792096925E+03  0.00000000000E+00 0. -1.
         -2   -1    0    0    0  501 -0.00000000000E+00 -0.00000000000E+00 -0.97878057714E+00  0.97878057714E+00  0.00000000000E+00 0.  1.
          1    1    1    2  502    0  0.20345266914E+02 -0.21632178792E+02  0.36791362643E+03  0.36911016995E+03  0.00000000000E+00 0.  1.
         -1    1    1    2    0  501 -0.20345266914E+02  0.21632178792E+02  0.57902856224E+03  0.57978957988E+03  0.00000000000E+00 0. -1.
</event>
<event>
 4    1  0.6729064E+001  0.2496806E+02  0.7546771E-02  0.1469161E+00
          2   -1    0    0  502    0  0.00000000000E+00  0.00000000000E+00  0.22649186941E+02  0.22649186941E+02  0.00000000000E+00 0.  1.
         -2   -1    0    0    0  501 -0.00000000000E+00 -0.00000000000E+00 -0.28963066391E+02  0.28963066391E+02  0.00000000000E+00 0. -1.
          1    1    1    2  502    0 -0.22580749406E+02  0.10654282301E+02  0.25946686406E+01  0.25102515420E+02  0.00000000000E+00 0.  1.
         -1    1    1    2    0  501  0.22580749406E+02 -0.10654282301E+02 -0.89085480905E+01  0.26509737912E+02  0.00000000000E+00 0. -1.
</event>
<event>
 4    1  0.6729064E+001  0.2383289E+02  0.7546771E-02  0.1482296E+00
          2   -1    0    0  502    0  0.00000000000E+00  0.00000000000E+00  0.98366826091E+00  0.98366826091E+00  0.00000000000E+00 0.  1.
         -2   -1    0    0    0  501 -0.00000000000E+00 -0.00000000000E+00 -0.58602130900E+03  0.58602130900E+03  0.00000000000E+00 0. -1.
          1    1    1    2  502    0  0.80760214146E+01  0.22422859925E+02 -0.32804099437E+03  0.32890561071E+03  0.00000000000E+00 0. -1.
         -1    1    1    2    0  501 -0.80760214146E+01 -0.22422859925E+02 -0.25699664637E+03  0.25809936655E+03  0.00000000000E+00 0.  1.
</event>
<event>
 4    1  0.6729064E+001  0.2934852E+02  0.7546771E-02  0.1425344E+00
          2   -1    0    0  502    0  0.00000000000E+00  0.00000000000E+00  0.30072187368E+02  0.30072187368E+02  0.00000000000E+00 0.  1.
         -2   -1    0    0    0  501 -0.00000000000E+00 -0.00000000000E+00 -0.29487745154E+02  0.29487745154E+02  0.00000000000E+00 0. -1.
          1    1    1    2  502    0  0.27927130061E+02 -0.90227963860E+01 -0.47503970339E+01  0.29730484692E+02  0.00000000000E+00 0. -1.
         -1    1    1    2    0  501 -0.27927130061E+02  0.90227963860E+01  0.53348392487E+01  0.29829447830E+02  0.00000000000E+00 0.  1.
</event>
<event>
 4    1  0.6729064E+001  0.2165498E+02  0.7546771E-02  0.1510115E+00
          2   -1    0    0  502    0  0.00000000000E+00  0.00000000000E+00  0.35087810928E+03  0.35087810928E+03  0.00000000000E+00 0. -1.
         -2   -1    0    0    0  501 -0.00000000000E+00 -0.00000000000E+00 -0.21905019264E+01  0.21905019264E+01  0.00000000000E+00 0.  1.
          1    1    1    2  502    0  0.16852167907E+02 -0.13599363496E+02  0.64115223424E+02  0.67673481700E+02  0.00000000000E+00 0.  1.
         -1    1    1    2    0  501 -0.16852167907E+02  0.13599363496E+02  0.28457238392E+03  0.28539512950E+03  0.00000000000E+00 0. -1.
</event>
<event>
 4    1  0.6729064E+001  0.5887033E+02  0.7546771E-02  0.1263720E+00
          2   -1    0    0  502    0  0.00000000000E+00  0.00000000000E+00  0.14748357638E+02  0.14748357638E+02  0.00000000000E+00 0.  1.
         -2   -1    0    0    0  501 -0.00000000000E+00 -0.00000000000E+00 -0.25283015820E+03  0.25283015820E+03  0.00000000000E+00 0. -1.
          1    1    1    2  502    0 -0.13375327306E+02  0.57330765674E+02 -0.83501789263E+02  0.10216782705E+03  0.00000000000E+00 0.  1.
         -1    1    1    2    0  501  0.13375327306E+02 -0.57330765674E+02 -0.15458001130E+03  0.16541068879E+03  0.00000000000E+00 0. -1.
</event>
<event>
 4    1  0.6729064E+001  0.4226337E+02  0.7546771E-02  0.1335710E+00
          2   -1    0    0  502    0  0.00000000000E+00  0.00000000000E+00  0.49581721974E+02  0.49581721974E+02  0.00000000000E+00 0.  1.
         -2   -1    0    0    0  501 -0.00000000000E+00 -0.00000000000E+00 -0.13620588819E+03  0.13620588819E+03  0.00000000000E+00 0. -1.
          1    1    1    2  502    0 -0.29279058320E+02  0.30478333057E+02  0.36355343855E+02  0.55748570106E+02  0.00000000000E+00 0.  1.
         -1    1    1    2    0  501  0.29279058320E+02 -0.30478333057E+02 -0.12297951007E+03  0.13003904006E+03  0.00000000000E+00 0. -1.
</event>
<event>
 4    1  0.6729064E+001  0.3213850E+02  0.7546771E-02  0.1401880E+00
          2   -1    0    0  502    0  0.00000000000E+00  0.00000000000E+00  0.30570450293E+02  0.30570450293E+02  0.00000000000E+00 0. -1.
         -2   -1    0    0    0  501 -0.00000000000E+00 -0.00000000000E+00 -0.34017195732E+02  0.34017195732E+02  0.00000000000E+00 0.  1.
          1    1    1    2  502    0  0.21888102349E+02  0.23532833801E+02  0.93327927211E+00  0.32152049722E+02  0.00000000000E+00 0. -1.
         -1    1    1    2    0  501 -0.21888102349E+02 -0.23532833801E+02 -0.43800247112E+01  0.32435596304E+02  0.00000000000E+00 0.  1.
</event>
<event>
 4    1  0.6729064E+001  0.3484468E+02  0.7546771E-02  0.1381658E+00
          2   -1    0    0  502    0  0.00000000000E+00  0.00000000000E+00  0.69675216681E+02  0.69675216681E+02  0.00000000000E+00 0. -1.
         -2   -1    0    0    0  501 -0.00000000000E+00 -0.00000000000E+00 -0.19280369224E+02  0.19280369224E+02  0.00000000000E+00 0.  1.
          1    1    1    2  502    0 -0.34425934241E+02  0.53857871277E+01  0.11403169062E+02  0.36663113834E+02  0.00000000000E+00 0.  1.
         -1    1    1    2    0  501  0.34425934241E+02 -0.53857871277E+01  0.38991678395E+02  0.52292472072E+02  0.00000000000E+00 0. -1.
</event>
<event>
 4    1  0.6729064E+001  0.2504514E+02  0.7546771E-02  0.1468299E+00
          2   -1    0    0  502    0  0.00000000000E+00  0.00000000000E+00  0.20617257482E+04  0.20617257482E+04  0.00000000000E+00 0. -1.
         -2   -1    0    0    0  501 -0.00000000000E+00 -0.00000000000E+00 -0.37674653206E+00  0.37674653206E+00  0.00000000000E+00 0.  1.
          1    1    1    2  502    0 -0.17759099110E+02 -0.17659945142E+02  0.57835590210E+03  0.57889792603E+03  0.00000000000E+00 0.  1.
         -1    1    1    2    0  501  0.17759099110E+02  0.17659945142E+02  0.14829930996E+04  0.14832045687E+04  0.00000000000E+00 0. -1.
</event>
<event>
 4    1  0.6729064E+001  0.4992516E+02  0.7546771E-02  0.1298497E+00
          2   -1    0    0  502    0  0.00000000000E+00  0.00000000000E+00  0.84779547741E+03  0.84779547741E+03  0.00000000000E+00 0. -1.
         -2   -1    0    0    0  501 -0.00000000000E+00 -0.00000000000E+00 -0.29701176305E+01  0.29701176305E+01  0.00000000000E+00 0.  1.
          1    1    1    2  502    0 -0.17856043316E+02  0.46622773127E+02  0.37957935547E+03  0.38284854493E+03  0.00000000000E+00 0. -1.
         -1    1    1    2    0  501  0.17856043316E+02 -0.46622773127E+02  0.46524600431E+03  0.46791705011E+03  0.00000000000E+00 0.  1.
</event>
<event>
 4    1  0.6729064E+001  0.2427242E+02  0.7546771E-02  0.1477110E+00
          2   -1    0    0  502    0  0.00000000000E+00  0.00000000000E+00  0.22345055039E+03  0.22345055039E+03  0.00000000000E+00 0. -1.
         -2   -1    0    0    0  501 -0.00000000000E+00 -0.00000000000E+00 -0.30490015794E+01  0.30490015794E+01  0.00000000000E+00 0.  1.
          1    1    1    2  502    0 -0.20845868703E+02 -0.12433822756E+02  0.15185102142E+03  0.15377868154E+03  0.00000000000E+00 0. -1.
         -1    1    1    2    0  501  0.20845868703E+02  0.12433822756E+02  0.68550527393E+02  0.72720870430E+02  0.00000000000E+00 0.  1.
</event>
<event>
 4    1  0.6729064E+001  0.2390108E+02  0.7546771E-02  0.1481483E+00
          2   -1    0    0  502    0  0.00000000000E+00  0.00000000000E+00  0.20259115082E+04  0.20259115082E+04  0.00000000000E+00 0.  1.
         -2   -1    0    0    0  501 -0.00000000000E+00 -0.00000000000E+00 -0.28509174545E+00  0.28509174545E+00  0.00000000000E+00 0. -1.
          1    1    1    2  502    0 -0.23650812095E+02  0.34497325493E+01  0.90692878712E+03  0.90724367536E+03  0.00000000000E+00 0.  1.
         -1    1    1    2    0  501  0.23650812095E+02 -0.34497325493E+01  0.11186976293E+04  0.11189529245E+04  0.00000000000E+00 0. -1.
</event>
<event>
 4    1  0.6729064E+001  0.2122308E+02  0.7546771E-02  0.1516104E+00
          2   -1    0    0  502    0  0.00000000000E+00  0.00000000000E+00  0.42623093036E+02  0.42623093036E+02  0.00000000000E+00 0. -1.
         -2   -1    0    0    0  501 -0.00000000000E+00 -0.00000000000E+00 -0.25521920808E+02  0.25521920808E+02  0.00000000000E+00 0.  1.
          1    1    1    2  502    0 -0.68919314651E+01 -0.20072880304E+02 -0.17530898478E+02  0.27527289087E+02  0.00000000000E+00 0.  1.
         -1    1    1    2    0  501  0.68919314651E+01  0.20072880304E+02  0.34632070706E+02  0.40617724757E+02  0.00000000000E+00 0. -1.
</event>
<event>
 4    1  0.6729064E+001  0.3998595E+02  0.7546771E-02  0.1348568E+00
          2   -1    0    0  502    0  0.00000000000E+00  0.00000000000E+00  0.14293237889E+04  0.14293237889E+04  0.00000000000E+00 0.  1.
         -2   -1    0    0    0  501 -0.00000000000E+00 -0.00000000000E+00 -0.11924542916E+01  0.11924542916E+01  0.00000000000E+00 0. -1.
          1    1    1    2  502    0  0.25221810745E+02 -0.31027988934E+02  0.89204080666E+03  0.89293654679E+03  0.00000000000E+00 0.  1.
         -1    1    1    2    0  501 -0.25221810745E+02  0.31027988934E+02  0.53609052793E+03  0.53757969639E+03  0.00000000000E+00 0. -1.
</event>
<event>
 4    1  0.6729064E+001  0.4372194E+02  0.7546771E-02  0.1327955E+00
          2   -1    0    0  502    0  0.00000000000E+00  0.00000000000E+00  0.59951800119E+01  0.59951800119E+01  0.00000000000E+00 0.  1.
         -2   -1    0    0    0  501 -0.00000000000E+00 -0.00000000000E+00 -0.43574358732E+03  0.43574358732E+03  0.00000000000E+00 0. -1.
          1    1    1    2  502    0 -0.25897808688E+02  0.35226570817E+02 -0.10048065620E+03  0.10958088362E+03  0.00000000000E+00 0.  1.
         -1    1    1    2    0  501  0.25897808688E+02 -0.35226570817E+02 -0.32926775111E+03  0.33215788371E+03  0.00000000000E+00 0. -1.
</event>
<event>
 4    1  0.6729064E+001  0.2516891E+02  0.7546771E-02  0.1466923E+00
          2   -1    0    0  502    0  0.00000000000E+00  0.00000000000E+00  0.76784714583E+03  0.76784714583E+03  0.00000000000E+00 0.  1.
         -2   -1    0    0    0  501 -0.00000000000E+00 -0.00000000000E+00 -0.26948602598E+01  0.26948602598E+01  0.00000000000E+00 0. -1.
          1    1    1    2  502    0 -0.17584016349E+02 -0.18007681561E+02  0.61651752817E+02  0.66591387217E+02  0.00000000000E+00 0. -1.
         -1    1    1    2    0  501  0.17584016349E+02  0.18007681561E+02  0.70350053275E+03  0.70395061887E+03  0.00000000000E+00 0.  1.
</event>
<event>
 4    1  0.6729064E+001  0.2485689E+02  0.7546771E-02  0.1470411E+00
          2   -1    0    0  502    0  0.00000000000E+00  0.00000000000E+00  0.45357881428E+01  0.45357881428E+01  0.00000000000E+00 0. -1.
         -2   -1    0    0    0  501 -0.00000000000E+00 -0.00000000000E+00 -0.16982421779E+03  0.16982421779E+03  0.00000000000E+00 0.  1.
          1    1    1    2  502    0  0.23185195198E+02 -0.89616664686E+01 -0.12142480528E+03  0.12394292267E+03  0.00000000000E+00 0.  1.
         -1    1    1    2    0  501 -0.23185195198E+02  0.89616664686E+01 -0.43863624368E+02  0.50417083265E+02  0.00000000000E+00 0. -1.
</event>
<event>
 4    1  0.6729064E+001  0.2532124E+02  0.7546771E-02  0.1465242E+00
          2   -1    0    0  502    0  0.00000000000E+00  0.00000000000E+00  0.49910432805E+03  0.49910432805E+03  0.00000000000E+00 0.  1.
         -2   -1    0    0    0  501 -0.00000000000E+00 -0.00000000000E+00 -0.13218598046E+01  0.13218598046E+01  0.00000000000E+00 0. -1.
          1    1    1    2  502    0 -0.83866682916E+01  0.23892026119E+02  0.20690042427E+03  0.20844411884E+03  0.00000000000E+00 0. -1.
         -1    1    1    2    0  501  0.83866682916E+01 -0.23892026119E+02  0.29088204398E+03  0.29198206902E+03  0.00000000000E+00 0.  1.
</event>
<event>
 4    1  0.6729064E+001  0.2457994E+02  0.7546771E-02  0.1473558E+00
          2   -1    0    0  502    0  0.00000000000E+00  0.00000000000E+00  0.79853876176E+03  0.79853876176E+03  0.00000000000E+00 0. -1.
         -2   -1    0    0    0  501 -0.00000000000E+00 -0.00000000000E+00 -0.12158213594E+01  0.12158213594E+01  0.00000000000E+00 0.  1.
          1    1    1    2  502    0  0.88075751467E+01  0.22947773140E+02  0.64441702593E+03  0.64488563093E+03  0.00000000000E+00 0. -1.
         -1    1    1    2    0  501 -0.88075751467E+01 -0.22947773140E+02  0.15290591447E+03  0.15486895219E+03  0.00000000000E+00 0.  1.
</event>
<event>
 4    1  0.6729064E+001  0.2427106E+02  0.7546771E-02  0.1477126E+00
          2   -1    0    0  502    0  0.00000000000E+00  0.00000000000E+00  0.17128967868E+02  0.17128967868E+02  0.00000000000E+00 0. -1.
         -2   -1    0    0    0  501 -0.00000000000E+00 -0.00000000000E+00 -0.45603323698E+02  0.45603323698E+02  0.00000000000E+00 0.  1.
          1    1    1    2  502    0  0.22782969085E+02  0.83678333587E+01 -0.29789974134E+02  0.38425601809E+02  0.00000000000E+00 0.  1.
         -1    1    1    2    0  501 -0.22782969085E+02 -0.83678333587E+01  0.13156183037E+01  0.24306689757E+02  0.00000000000E+00 0. -1.
</event>
<event>
 4    1  0.6729064E+001  0.3048208E+02  0.7546771E-02  0.1415453E+00
          2   -1    0    0  502    0  0.00000000000E+00  0.00000000000E+00  0.71418133056E+01  0.71418133056E+01  0.00000000000E+00 0.  1.
         -2   -1    0    0    0  501 -0.00000000000E+00 -0.00000000000E+00 -0.15280997266E+03  0.15280997266E+03  0.00000000000E+00 0. -1.
          1    1    1    2  502    0  0.14412647684E+02 -0.26859495731E+02 -0.42003466312E+02  0.51898440308E+02  0.00000000000E+00 0.  1.
         -1    1    1    2    0  501 -0.14412647684E+02  0.26859495731E+02 -0.10366469304E+03  0.10805334565E+03  0.00000000000E+00 0. -1.
</event>
<event>
 4    1  0.6729064E+001  0.2160857E+02  0.7546771E-02  0.1510751E+00
          2   -1    0    0  502    0  0.00000000000E+00  0.00000000000E+00  0.39176597286E+03  0.39176597286E+03  0.00000000000E+00 0.  1.
         -2   -1    0    0    0  501 -0.00000000000E+00 -0.00000000000E+00 -0.14314596487E+01  0.14314596487E+01  0.00000000000E+00 0. -1.
          1    1    1    2  502    0  0.16871771302E+02  0.13500882344E+02  0.27560011828E+03  0.27644593628E+03  0.00000000000E+00 0.  1.
         -1    1    1    2    0  501 -0.16871771302E+02 -0.13500882344E+02  0.11473439493E+03  0.11675149623E+03  0.00000000000E+00 0. -1.
</event>
<event>
 4    1  0.6729064E+001  0.2196546E+02  0.7546771E-02  0.1505914E+00
          2   -1    0    0  502    0  0.00000000000E+00  0.00000000000E+00  0.26034587942E+02  0.26034587942E+02  0.00000000000E+00 0.  1.
         -2   -1    0    0    0  501 -0.00000000000E+00 -0.00000000000E+00 -0.35622225220E+02  0.35622225220E+02  0.00000000000E+00 0. -1.
          1    1    1    2  502    0  0.19335764760E+02  0.10421599895E+02  0.16559248770E+02  0.27508003618E+02  0.00000000000E+00 0.  1.
         -1    1    1    2    0  501 -0.19335764760E+02 -0.10421599895E+02 -0.26146886048E+02  0.34148809544E+02  0.00000000000E+00 0. -1.
</event>
<event>
 4    1  0.6729064E+001  0.2041792E+02  0.7546771E-02  0.1527740E+00
          2   -1    0    0  502    0  0.00000000000E+00  0.00000000000E+00  0.18432778810E+01  0.18432778810E+01  0.00000000000E+00 0. -1.
         -2   -1    0    0    0  501 -0.00000000000E+00 -0.00000000000E+00 -0.22819271432E+03  0.22819271432E+03  0.00000000000E+00 0.  1.
          1    1    1    2  502    0 -0.18805282851E+02  0.79531501376E+01 -0.12400777221E+03  0.12567743962E+03  0.00000000000E+00 0.  1.
         -1    1    1    2    0  501  0.18805282851E+02 -0.79531501376E+01 -0.10234166422E+03  0.10435855258E+03  0.00000000000E+00 0. -1.
</event>
<event>
 4    1  0.6729064E+001  0.2870553E+02  0.7546771E-02  0.1431189E+00
          2   -1    0    0  502    0  0.00000000000E+00  0.00000000000E+00  0.19363656343E+04  0.19363656343E+04  0.00000000000E+00 0. -1.
         -2   -1    0    0    0  501 -0.00000000000E+00 -0.00000000000E+00 -0.44262850216E+00  0.44262850216E+00  0.00000000000E+00 0.  1.
          1    1    1    2  502    0  0.28704098736E+02  0.28713724911E+00  0.77770260723E+03  0.77823219737E+03  0.00000000000E+00 0.  1.
         -1    1    1    2    0  501 -0.28704098736E+02 -0.28713724911E+00  0.11582203986E+04  0.11585760655E+04  0.00000000000E+00 0. -1.
</event>
<event>
 4    1  0.6729064E+001  0.2262177E+02  0.7546771E-02  0.1497303E+00
          2   -1    0    0  502    0  0.00000000000E+00  0.00000000000E+00  0.11036401514E+04  0.11036401514E+04  0.00000000000E+00 0. -1.
         -2   -1    0    0    0  501 -0.00000000000E+00 -0.00000000000E+00 -0.50482627543E+00  0.50482627543E+00  0.00000000000E+00 0.  1.
          1    1    1    2  502    0 -0.15472715233E+02  0.16502708076E+02  0.70916544531E+03  0.70952616098E+03  0.00000000000E+00 0.  1.
         -1    1    1    2    0  501  0.15472715233E+02 -0.16502708076E+02  0.39396987979E+03  0.39461881668E+03  0.00000000000E+00 0. -1.
</event>
<event>
 4    1  0.6729064E+001  0.2069780E+02  0.7546771E-02  0.1523624E+00
          2   -1    0    0  502    0  0.00000000000E+00  0.00000000000E+00  0.39895780005E+02  0.39895780005E+02  0.00000000000E+00 0. -1.
         -2   -1    0    0    0  501 -0.00000000000E+00 -0.00000000000E+00 -0.11246256875E+02  0.11246256875E+02  0.00000000000E+00 0.  1.
          1    1    1    2  502    0  0.18341213461E+02 -0.95916002902E+01  0.19761104461E+02  0.28616431588E+02  0.00000000000E+00 0. -1.
         -1    1    1    2    0  501 -0.18341213461E+02  0.95916002902E+01  0.88884186688E+01  0.22525605292E+02  0.00000000000E+00 0.  1.
</event>
<event>
 4    1  0.6729064E+001  0.4761480E+02  0.7546771E-02  0.1308859E+00
          2   -1    0    0  502    0  0.00000000000E+00  0.00000000000E+00  0.50318415677E+03  0.50318415677E+03  0.00000000000E+00 0.  1.
         -2   -1    0    0    0  501 -0.00000000000E+00 -0.00000000000E+00 -0.45148532514E+01  0.45148532514E+01  0.00000000000E+00 0. -1.
          1    1    1    2  502    0  0.42335165342E+02 -0.21792273414E+02  0.23787074787E+03  0.24258949297E+03  0.00000000000E+00 0. -1.
         -1    1    1    2    0  501 -0.42335165342E+02  0.21792273414E+02  0.26079855565E+03  0.26510951705E+03  0.00000000000E+00 0.  1.
</event>
<event>
 4    1  0.6729064E+001  0.2391036E+02  0.7546771E-02  0.1481373E+00
          2   -1    0    0  502    0  0.00000000000E+00  0.00000000000E+00  0.20740396824E+03  0.20740396824E+03  0.00000000000E+00 0. -1.
         -2   -1    0    0    0  501 -0.00000000000E+00 -0.00000000000E+00 -0.27599375637E+01  0.27599375637E+01  0.00000000000E+00 0.  1.
          1    1    1    2  502    0 -0.10973061625E+02 -0.21243757096E+02  0.10604028122E+03  0.10870255995E+03  0.00000000000E+00 0.  1.
         -1    1    1    2    0  501  0.10973061625E+02  0.21243757096E+02  0.98603749457E+02  0.10146134586E+03  0.00000000000E+00 0. -1.
</event>
<event>
 4    1  0.6729064E+001  0.2576217E+02  0.7546771E-02  0.1460455E+00
          2   -1    0    0  502    0  0.00000000000E+00  0.00000000000E+00  0.46929792976E+01  0.46929792976E+01  0.00000000000E+00 0.  1.
         -2   -1    0    0    0  501 -0.00000000000E+00 -0.00000000000E+00 -0.14941733505E+03  0.14941733505E+03  0.00000000000E+00 0. -1.
          1    1    1    2  502    0 -0.23230565478E+02  0.11136896371E+02 -0.54537377562E+02  0.60315961275E+02  0.00000000000E+00 0. -1.
         -1    1    1    2    0  501  0.23230565478E+02 -0.11136896371E+02 -0.90186978194E+02  0.93794353076E+02  0.00000000000E+00 0.  1.
</event>
<event>
 4    1  0.6729064E+001  0.2273818E+02  0.7546771E-02  0.1495812E+00
          2   -1    0    0  502    0  0.00000000000E+00  0.00000000000E+00  0.10588195532E+02  0.10588195532E+02  0.00000000000E+00 0. -1.
         -2   -1    0    0    0  501 -0.00000000000E+00 -0.00000000000E+00 -0.48831652548E+02  0.48831652548E+02  0.00000000000E+00 0.  1.
          1    1    1    2  502    0 -0.20871951855E+02 -0.90214452088E+01 -0.18965825082E+02  0.29609582383E+02  0.00000000000E+00 0. -1.
         -1    1    1    2    0  501  0.20871951855E+02  0.90214452088E+01 -0.19277631935E+02  0.29810265696E+02  0.00000000000E+00 0.  1.
</event>
<event>
 4    1  0.6729064E+001  0.2207978E+02  0.7546771E-02  0.1504388E+00
          2   -1    0    0  502    0  0.00000000000E+00  0.00000000000E+00  0.35643074768E+02  0.35643074768E+02  0.00000000000E+00 0.  1.
         -2   -1    0    0    0  501 -0.00000000000E+00 -0.00000000000E+00 -0.19410307662E+02  0.19410307662E+02  0.00000000000E+00 0. -1.
          1    1    1    2  502    0 -0.55207024909E+00  0.22072872395E+02 -0.68429636771E+01  0.23115852336E+02  0.00000000000E+00 0. -1.
         -1    1    1    2    0  501  0.55207024909E+00 -0.22072872395E+02  0.23075730783E+02  0.31937530094E+02  0.00000000000E+00 0.  1.
</event>
<event>
 4    1  0.6729064E+001  0.2054845E+02  0.7546771E-02  0.1525810E+00
          2   -1    0    0  502    0  0.00000000000E+00  0.00000000000E+00  0.50767735657E+03  0.50767735657E+03  0.00000000000E+00 0.  1.
         -2   -1    0    0    0  501 -0.00000000000E+00 -0.00000000000E+00 -0.86973700793E+00  0.86973700793E+00  0.00000000000E+00 0. -1.
          1    1    1    2  502    0  0.20192747804E+02 -0.38068170131E+01  0.30657412001E+03  0.30726198915E+03  0.00000000000E+00 0.  1.
         -1    1    1    2    0  501 -0.20192747804E+02  0.38068170131E+01  0.20023349955E+03  0.20128510442E+03  0.00000000000E+00 0. -1.
</event>
<event>
 4    1  0.6729064E+001  0.2332663E+02  0.7546771E-02  0.1488437E+00
          2   -1    0    0  502    0  0.00000000000E+00  0.00000000000E+00  0.63322193538E+02  0.63322193538E+02  0.00000000000E+00 0. -1.
         -2   -1    0    0    0  501 -0.00000000000E+00 -0.00000000000E+00 -0.86071051749E+01  0.86071051749E+01  0.00000000000E+00 0.  1.
          1    1    1    2  502    0  0.23305700188E+02 -0.98802733407E+00  0.25905095666E+02  0.34859802648E+02  0.00000000000E+00 0. -1.
         -1    1    1    2    0  501 -0.23305700188E+02  0.98802733407E+00  0.28809992698E+02  0.37069496065E+02  0.00000000000E+00 0.  1.
</event>
<event>
 4    1  0.6729064E+001  0.2416305E+02  0.7546771E-02  0.1478388E+00
          2   -1    0    0  502    0  0.00000000000E+00  0.00000000000E+00  0.72444911563E+03  0.72444911563E+03  0.00000000000E+00 0.  1.
         -2   -1    0    0    0  501 -0.00000000000E+00 -0.00000000000E+00 -0.11578540447E+01  0.11578540447E+01  0.00000000000E+00 0. -1.
          1    1    1    2  502    0 -0.22248261668E+02  0.94269688277E+01  0.56166453552E+03  0.56218404758E+03  0.00000000000E+00 0.  1.
         -1    1    1    2    0  501  0.22248261668E+02 -0.94269688277E+01  0.16162672606E+03  0.16342292209E+03  0.00000000000E+00 0. -1.
</event>
<event>
 4    1  0.6729064E+001  0.3474992E+02  0.7546771E-02  0.1382330E+00
          2   -1    0    0  502    0  0.00000000000E+00  0.00000000000E+00  0.12626740354E+03  0.12626740354E+03  0.00000000000E+00 0. -1.
         -2   -1    0    0    0  501 -0.00000000000E+00 -0.00000000000E+00 -0.14346682349E+02  0.14346682349E+02  0.00000000000E+00 0.  1.
          1    1    1    2  502    0 -0.19116574108E+02  0.29019191819E+02  0.15364470480E+02  0.37995050370E+02  0.00000000000E+00 0.  1.
         -1    1    1    2    0  501  0.19116574108E+02 -0.29019191819E+02  0.96556250707E+02  0.10261903552E+03  0.00000000000E+00 0. -1.
</event>
<event>
 4    1  0.6729064E+001  0.2390517E+02  0.7546771E-02  0.1481434E+00
          2   -1    0    0  502    0  0.00000000000E+00  0.00000000000E+00  0.29291044633E+03  0.29291044633E+03  0.00000000000E+00 0.  1.
         -2   -1    0    0    0  501 -0.00000000000E+00 -0.00000000000E+00 -0.21098611443E+01  0.21098611443E+01  0.00000000000E+00 0. -1.
          1    1    1    2  502    0 -0.22052529202E+02  0.92272961194E+01  0.10491882192E+03  0.10760769597E+03  0.00000000000E+00 0. -1.
         -1    1    1    2    0  501  0.22052529202E+02 -0.92272961194E+01  0.18588176326E+03  0.18741261151E+03  0.00000000000E+00 0.  1.
</event>
<event>
 4    1  0.6729064E+001  0.3009824E+02  0.7546771E-02  0.1418745E+00
          2   -1    0    0  502    0  0.00000000000E+00  0.00000000000E+00  0.67319079403E+03  0.67319079403E+03  0.00000000000E+00 0. -1.
         -2   -1    0    0    0  501 -0.00000000000E+00 -0.00000000000E+00 -0.19568950206E+01  0.19568950206E+01  0.00000000000E+00 0.  1.
          1    1    1    2  502    0  0.57102417303E+01 -0.29551602465E+02  0.52427683412E+03  0.52514007928E+03  0.00000000000E+00 0. -1.
         -1    1    1    2    0  501 -0.57102417303E+01  0.29551602465E+02  0.14695706489E+03  0.15000760978E+03  0.00000000000E+00 0.  1.
</event>
<event>
 4    1  0.6729064E+001  0.3311661E+02  0.7546771E-02  0.1394310E+00
          2   -1    0    0  502    0  0.00000000000E+00  0.00000000000E+00  0.10455670125E+04  0.10455670125E+04  0.00000000000E+00 0.  1.
         -2   -1    0    0    0  501 -0.00000000000E+00 -0.00000000000E+00 -0.11206708076E+01  0.11206708076E+01  0.00000000000E+00 0. -1.
          1    1    1    2  502    0  0.30190253976E+02 -0.13610962708E+02  0.65465123715E+03  0.65548833098E+03  0.00000000000E+00 0. -1.
         -1    1    1    2    0  501 -0.30190253976E+02  0.13610962708E+02  0.38979510450E+03  0.39119935229E+03  0.00000000000E+00 0.  1.
</event>
<event>
 4    1  0.6729064E+001  0.2058604E+02  0.7546771E-02  0.1525258E+00
          2   -1    0    0  502    0  0.00000000000E+00  0.00000000000E+00  0.26003676087E+03  0.26003676087E+03  0.00000000000E+00 0. -1.
         -2   -1    0    0    0  501 -0.00000000000E+00 -0.00000000000E+00 -0.53650493112E+01  0.53650493112E+01  0.00000000000E+00 0.  1.
          1    1    1    2  502    0  0.20388415592E+02 -0.28456237153E+01  0.16609264309E+02  0.26450949426E+02  0.00000000000E+00 0.  1.
         -1    1    1    2    0  501 -0.20388415592E+02  0.28456237153E+01  0.23806244725E+03  0.23895086075E+03  0.00000000000E+00 0. -1.
</event>
<event>
 4    1  0.6729064E+001  0.4632532E+02  0.7546771E-02  0.1314942E+00
          2   -1    0    0  502    0  0.00000000000E+00  0.00000000000E+00  0.12244335679E+04  0.12244335679E+04  0.00000000000E+00 0.  1.
         -2   -1    0    0    0  501 -0.00000000000E+00 -0.00000000000E+00 -0.25495546637E+01  0.25495546637E+01  0.00000000000E+00 0. -1.
          1    1    1    2  502    0  0.19963515510E+01 -0.46282288062E+02  0.95392490540E+03  0.95504908814E+03  0.00000000000E+00 0.  1.
         -1    1    1    2    0  501 -0.19963515510E+01  0.46282288062E+02  0.26795910788E+03  0.27193403447E+03  0.00000000000E+00 0. -1.
</event>
<event>
 4    1  0.6729064E+001  0.2632466E+02  0.7546771E-02  0.1454513E+00
          2   -1    0    0  502    0  0.00000000000E+00  0.00000000000E+00  0.68944180515E+03  0.68944180515E+03  0.00000000000E+00 0. -1.
         -2   -1    0    0    0  501 -0.00000000000E+00 -0.00000000000E+00 -0.11195034532E+01  0.11195034532E+01  0.00000000000E+00 0.  1.
          1    1    1    2  502    0  0.26065307790E+02 -0.36861258443E+01  0.45451740203E+03  0.45527909742E+03  0.00000000000E+00 0. -1.
         -1    1    1    2    0  501 -0.26065307790E+02  0.36861258443E+01  0.23380489966E+03  0.23528221118E+03  0.00000000000E+00 0.  1.
</event>
<event>
 4    1  0.6729064E+001  0.2350498E+02  0.7546771E-02  0.1486253E+00
          2   -1    0    0  502    0  0.00000000000E+00  0.00000000000E+00  0.18422665132E+02  0.18422665132E+02  0.00000000000E+00 0. -1.
         -2   -1    0    0    0  501 -0.00000000000E+00 -0.00000000000E+00 -0.38664474230E+02  0.38664474230E+02  0.00000000000E+00 0.  1.
          1    1    1    2  502    0 -0.22317186748E+02 -0.73774751341E+01  0.33995033917E+01  0.23749538669E+02  0.00000000000E+00 0. -1.
         -1    1    1    2    0  501  0.22317186748E+02  0.73774751341E+01 -0.23641312490E+02  0.33337600693E+02  0.00000000000E+00 0.  1.
</event>
<event>
 4    1  0.6729064E+001  0.2272829E+02  0.7546771E-02  0.1495938E+00
          2   -1    0    0  502    0  0.00000000000E+00  0.00000000000E+00  0.49237346697E+01  0.49237346697E+01  0.00000000000E+00 0. -1.
         -2   -1    0    0    0  501 -0.00000000000E+00 -0.00000000000E+00 -0.11368894333E+03  0.11368894333E+03  0.00000000000E+00 0.  1.
          1    1    1    2  502    0 -0.22685288749E+02 -0.13974494664E+01 -0.70857836084E+02  0.74413763009E+02  0.00000000000E+00 0. -1.
         -1    1    1    2    0  501  0.22685288749E+02  0.13974494664E+01 -0.37907372571E+02  0.44198914986E+02  0.00000000000E+00 0.  1.
</event>
<event>
 4    1  0.6729064E+001  0.4412811E+02  0.7546771E-02  0.1325857E+00
          2   -1    0    0  502    0  0.00000000000E+00  0.00000000000E+00  0.40339520019E+03  0.40339520019E+03  0.00000000000E+00 0. -1.
         -2   -1    0    0    0  501 -0.00000000000E+00 -0.00000000000E+00 -0.49250628216E+01  0.49250628216E+01  0.00000000000E+00 0.  1.
          1    1    1    2  502    0  0.25481764551E+02  0.36027349882E+02  0.17046382549E+03  0.17608295222E+03  0.00000000000E+00 0. -1.
         -1    1    1    2    0  501 -0.25481764551E+02 -0.36027349882E+02  0.22800631188E+03  0.23223731078E+03  0.00000000000E+00 0.  1.
</event>
<event>
 4    1  0.6729064E+001  0.2993993E+02  0.7546771E-02  0.1420119E+00
          2   -1    0    0  502    0  0.00000000000E+00  0.00000000000E+00  0.81894380581E+02  0.81894380581E+02  0.00000000000E+00 0. -1.
         -2   -1    0    0    0  501 -0.00000000000E+00 -0.00000000000E+00 -0.39719669513E+02  0.39719669513E+02  0.00000000000E+00 0.  1.
          1    1    1    2  502    0 -0.48698004521E+01 -0.29541228554E+02 -0.30667382199E+02  0.42858925230E+02  0.00000000000E+00 0.  1.
         -1    1    1    2    0  501  0.48698004521E+01  0.29541228554E+02  0.72842093267E+02  0.78755124864E+02  0.00000000000E+00 0. -1.
</event>
<event>
 4    1  0.6729064E+001  0.2199924E+02  0.7546771E-02  0.1505462E+00
          2   -1    0    0  502    0  0.00000000000E+00  0.00000000000E+00  0.65553388234E+03  0.65553388234E+03  0.00000000000E+00 0.  1.
         -2   -1    0    0    0  501 -0.00000000000E+00 -0.00000000000E+00 -0.75891735650E+00  0.75891735650E+00  0.00000000000E+00 0. -1.
          1    1    1    2  502    0 -0.15443557182E+02 -0.15667259809E+02  0.38150209449E+03  0.38213585881E+03  0.00000000000E+00 0.  1.
         -1    1    1    2    0  501  0.15443557182E+02  0.15667259809E+02  0.27327287049E+03  0.27415694089E+03  0.00000000000E+00 0. -1.
</event>
<event>
 4    1  0.6729064E+001  0.2489191E+02  0.7546771E-02  0.1470016E+00
          2   -1    0    0  502    0  0.00000000000E+00  0.00000000000E+00  0.11195141429E+01  0.11195141429E+01  0.00000000000E+00 0.  1.
         -2   -1    0    0    0  501 -0.00000000000E+00 -0.00000000000E+00 -0.57438487789E+03  0.57438487789E+03  0.00000000000E+00 0. -1.
          1    1    1    2  502    0 -0.13186560211E+02  0.21112121062E+02 -0.34155411509E+03  0.34245995468E+03  0.00000000000E+00 0.  1.
         -1    1    1    2    0  501  0.13186560211E+02 -0.21112121062E+02 -0.23171124865E+03  0.23304443735E+03  0.00000000000E+00 0. -1.
</event>
<event>
 4    1  0.6729064E+001  0.2910083E+02  0.7546771E-02  0.1427574E+00
          2   -1    0    0  502    0  0.00000000000E+00  0.00000000000E+00  0.61866045157E+01  0.61866045157E+01  0.00000000000E+00 0.  1.
         -2   -1    0    0    0  501 -0.00000000000E+00 -0.00000000000E+00 -0.21741854231E+03  0.21741854231E+03  0.00000000000E+00 0. -1.
          1    1    1    2  502    0 -0.22261993615E+02 -0.18741976522E+02 -0.17365997418E+03  0.17608135811E+03  0.00000000000E+00 0. -1.
         -1    1    1    2    0  501  0.22261993615E+02  0.18741976522E+02 -0.37571963621E+02  0.47523788717E+02  0.00000000000E+00 0.  1.
</event>
<event>
 4    1  0.6729064E+001  0.4415535E+02  0.7546771E-02  0.1325717E+00
          2   -1    0    0  502    0  0.00000000000E+00  0.00000000000E+00  0.61084507213E+02  0.61084507213E+02  0.00000000000E+00 0. -1.
         -2   -1    0    0    0  501 -0.00000000000E+00 -0.00000000000E+00 -0.34511974694E+02  0.34511974694E+02  0.00000000000E+00 0.  1.
          1    1    1    2  502    0  0.99529858117E+01  0.43018988059E+02  0.18208374575E+00  0.44155729126E+02  0.00000000000E+00 0.  1.
         -1    1    1    2    0  501 -0.99529858117E+01 -0.43018988059E+02  0.26390448773E+02  0.51440752780E+02  0.00000000000E+00 0. -1.
</event>
<event>
 4    1  0.6729064E+001  0.2386257E+02  0.7546771E-02  0.1481942E+00
          2   -1    0    0  502    0  0.00000000000E+00  0.00000000000E+00  0.24129161194E+02  0.24129161194E+02  0.00000000000E+00 0.  1.
         -2   -1    0    0    0  501 -0.00000000000E+00 -0.00000000000E+00 -0.27681848815E+02  0.27681848815E+02  0.00000000000E+00 0. -1.
          1    1    1    2  502    0 -0.20265496808E+02  0.12598888353E+02  0.81726685706E+01  0.25223299946E+02  0.00000000000E+00 0.  1.
         -1    1    1    2    0  501  0.20265496808E+02 -0.12598888353E+02 -0.11725356191E+02  0.26587710063E+02  0.00000000000E+00 0. -1.
</event>
<event>
 4    1  0.6729064E+001  0.2046340E+02  0.7546771E-02  0.1527066E+00
          2   -1    0    0  502    0  0.00000000000E+00  0.00000000000E+00  0.58444020737E+02  0.58444020737E+02  0.00000000000E+00 0.  1.
         -2   -1    0    0    0  501 -0.00000000000E+00 -0.00000000000E+00 -0.75131560879E+01  0.75131560879E+01  0.00000000000E+00 0. -1.
          1    1    1    2  502    0  0.15447064958E+02 -0.13421587005E+02  0.32564710662E+02  0.38460514740E+02  0.00000000000E+00 0.  1.
         -1    1    1    2    0  501 -0.15447064958E+02  0.13421587005E+02  0.18366153987E+02  0.27496662085E+02  0.00000000000E+00 0. -1.
</event>
<event>
 4    1  0.6729064E+001  0.3613613E+02  0.7546771E-02  0.1372747E+00
          2   -1    0    0  502    0  0.00000000000E+00  0.00000000000E+00  0.24242468285E+04  0.24242468285E+04  0.00000000000E+00 0.  1.
         -2   -1    0    0    0  501 -0.00000000000E+00 -0.00000000000E+00 -0.70189167055E+00  0.70189167055E+00  0.00000000000E+00 0. -1.
          1    1    1    2  502    0 -0.25398596709E+02  0.25704691449E+02  0.62704512134E+03  0.62808550698E+03  0.00000000000E+00 0. -1.
         -1    1    1    2    0  501  0.25398596709E+02 -0.25704691449E+02  0.17964998155E+04  0.17968632132E+04  0.00000000000E+00 0.  1.
</event>
<event>
 4    1  0.6729064E+001  0.2357960E+02  0.7546771E-02  0.1485346E+00
          2   -1    0    0  502    0  0.00000000000E+00  0.00000000000E+00  0.24942301175E+04  0.24942301175E+04  0.00000000000E+00 0.  1.
         -2   -1    0    0    0  501 -0.00000000000E+00 -0.00000000000E+00 -0.22597894958E+00  0.22597894958E+00  0.00000000000E+00 0. -1.
          1    1    1    2  502    0 -0.13960308986E+02 -0.19002820567E+02  0.11017363329E+04  0.11019886318E+04  0.00000000000E+00 0.  1.
         -1    1    1    2    0  501  0.13960308986E+02  0.19002820567E+02  0.13922678057E+04  0.13924674647E+04  0.00000000000E+00 0. -1.
</event>
<event>
 4    1  0.6729064E+001  0.3169384E+02  0.7546771E-02  0.1405427E+00
          2   -1    0    0  502    0  0.00000000000E+00  0.00000000000E+00  0.67935913207E+02  0.67935913207E+02  0.00000000000E+00 0. -1.
         -2   -1    0    0    0  501 -0.00000000000E+00 -0.00000000000E+00 -0.17797182405E+02  0.17797182405E+02  0.00000000000E+00 0.  1.
          1    1    1    2  502    0 -0.25072527590E+02 -0.19387303511E+02  0.74369127058E+01  0.32554674746E+02  0.00000000000E+00 0.  1.
         -1    1    1    2    0  501  0.25072527590E+02  0.19387303511E+02  0.42701818095E+02  0.53178420867E+02  0.00000000000E+00 0. -1.
</event>
<event>
 4    1  0.6729064E+001  0.2577954E+02  0.7546771E-02  0.1460269E+00
          2   -1    0    0  502    0  0.00000000000E+00  0.00000000000E+00  0.10763028894E+03  0.10763028894E+03  0.00000000000E+00 0. -1.
         -2   -1    0    0    0  501 -0.00000000000E+00 -0.00000000000E+00 -0.88430821974E+01  0.88430821974E+01  0.00000000000E+00 0.  1.
          1    1    1    2  502    0 -0.16706004304E+02  0.19634008174E+02  0.17403271033E+02  0.31103998126E+02  0.00000000000E+00 0.  1.
         -1    1    1    2    0  501  0.16706004304E+02 -0.19634008174E+02  0.81383935712E+02  0.85369373013E+02  0.00000000000E+00 0. -1.
</event>
<event>
 4    1  0.6729064E+001  0.2028114E+02  0.7546771E-02  0.1529780E+00
          2   -1    0    0  502    0  0.00000000000E+00  0.00000000000E+00  0.37449305056E+02  0.37449305056E+02  0.00000000000E+00 0.  1.
         -2   -1    0    0    0  501 -0.00000000000E+00 -0.00000000000E+00 -0.32446006260E+02  0.32446006260E+02  0.00000000000E+00 0. -1.
          1    1    1    2  502    0 -0.20278343222E+02  0.33707799302E+00  0.30925148293E+02  0.36982287954E+02  0.00000000000E+00 0.  1.
         -1    1    1    2    0  501  0.20278343222E+02 -0.33707799302E+00 -0.25921849498E+02  0.32913023361E+02  0.00000000000E+00 0. -1.
</event>
<event>
 4    1  0.6729064E+001  0.8263580E+02  0.7546771E-02  0.1197857E+00
          2   -1    0    0  502    0  0.00000000000E+00  0.00000000000E+00  0.19213662659E+03  0.19213662659E+03  0.00000000000E+00 0.  1.
         -2   -1    0    0    0  501 -0.00000000000E+00 -0.00000000000E+00 -0.64298394080E+02  0.64298394080E+02  0.00000000000E+00 0. -1.
          1    1    1    2  502    0  0.50778484503E+02  0.65193713832E+02 -0.21828908633E+02  0.85470322707E+02  0.00000000000E+00 0. -1.
         -1    1    1    2    0  501 -0.50778484503E+02 -0.65193713832E+02  0.14966714115E+03  0.17096469797E+03  0.00000000000E+00 0.  1.
</event>
<event>
 4    1  0.6729064E+001  0.2040678E+02  0.7546771E-02  0.1527905E+00
          2   -1    0    0  502    0  0.00000000000E+00  0.00000000000E+00  0.20665570072E+02  0.20665570072E+02  0.00000000000E+00 0.  1.
         -2   -1    0    0    0  501 -0.00000000000E+00 -0.00000000000E+00 -0.21822302241E+02  0.21822302241E+02  0.00000000000E+00 0. -1.
          1    1    1    2  502    0  0.18919315976E+02 -0.76482800943E+01  0.53003434679E+01  0.21083888310E+02  0.00000000000E+00 0.  1.
         -1    1    1    2    0  501 -0.18919315976E+02  0.76482800943E+01 -0.64570756375E+01  0.21403984003E+02  0.00000000000E+00 0. -1.
</event>
<event>
 4    1  0.6729064E+001  0.3312179E+02  0.7546771E-02  0.1394271E+00
          2   -1    0    0  502    0  0.00000000000E+00  0.00000000000E+00  0.45472741059E+03  0.45472741059E+03  0.00000000000E+00 0. -1.
         -2   -1    0    0    0  501 -0.00000000000E+00 -0.00000000000E+00 -0.27628180755E+01  0.27628180755E+01  0.00000000000E+00 0.  1.
          1    1    1    2  502    0 -0.30857849091E+02 -0.12035213179E+02  0.14453528484E+03  0.14828183224E+03  0.00000000000E+00 0.  1.
         -1    1    1    2    0  501  0.30857849091E+02  0.12035213179E+02  0.30742930767E+03  0.30920839643E+03  0.00000000000E+00 0. -1.
</event>
<event>
 4    1  0.6729064E+001  0.2903031E+02  0.7546771E-02  0.1428214E+00
          2   -1    0    0  502    0  0.00000000000E+00  0.00000000000E+00  0.69803425555E+03  0.69803425555E+03  0.00000000000E+00 0.  1.
         -2   -1    0    0    0  501 -0.00000000000E+00 -0.00000000000E+00 -0.17337493494E+01  0.17337493494E+01  0.00000000000E+00 0. -1.
          1    1    1    2  502    0 -0.27655693395E+01 -0.28898281354E+02  0.54094538328E+03  0.54172379192E+03  0.00000000000E+00 0. -1.
         -1    1    1    2    0  501  0.27655693395E+01  0.28898281354E+02  0.15535512292E+03  0.15804421298E+03  0.00000000000E+00 0.  1.
</event>
<event>
 4    1  0.6729064E+001  0.2989231E+02  0.7546771E-02  0.1420535E+00
          2   -1    0    0  502    0  0.00000000000E+00  0.00000000000E+00  0.35606471434E+03  0.35606471434E+03  0.00000000000E+00 0.  1.
         -2   -1    0    0    0  501 -0.00000000000E+00 -0.00000000000E+00 -0.25894749769E+01  0.25894749769E+01  0.00000000000E+00 0. -1.
          1    1    1    2  502    0 -0.25684106797E+01  0.29781759907E+02  0.20824953083E+03  0.21038397526E+03  0.00000000000E+00 0.  1.
         -1    1    1    2    0  501  0.25684106797E+01 -0.29781759907E+02  0.14522570853E+03  0.14827021405E+03  0.00000000000E+00 0. -1.
</event>
<event>
 4    1  0.6729064E+001  0.2190891E+02  0.7546771E-02  0.1506673E+00
          2   -1    0    0  502    0  0.00000000000E+00  0.00000000000E+00  0.47302568853E+03  0.47302568853E+03  0.00000000000E+00 0. -1.
         -2   -1    0    0    0  501 -0.00000000000E+00 -0.00000000000E+00 -0.10299813704E+01  0.10299813704E+01  0.00000000000E+00 0.  1.
          1    1    1    2  502    0  0.20747825097E+02  0.70376334089E+01  0.26482642203E+03  0.26573113167E+03  0.00000000000E+00 0. -1.
         -1    1    1    2    0  501 -0.20747825097E+02 -0.70376334089E+01  0.20716928513E+03  0.20832453824E+03  0.00000000000E+00 0.  1.
</event>
<event>
 4    1  0.6729064E+001  0.2125167E+02  0.7546771E-02  0.1515702E+00
          2   -1    0    0  502    0  0.00000000000E+00  0.00000000000E+00  0.14294450001E+04  0.14294450001E+04  0.00000000000E+00 0.  1.
         -2   -1    0    0    0  501 -0.00000000000E+00 -0.00000000000E+00 -0.36036350424E+00  0.36036350424E+00  0.00000000000E+00 0. -1.
          1    1    1    2  502    0 -0.19182403491E+02 -0.91470681966E+01  0.46356586545E+03  0.46405273954E+03  0.00000000000E+00 0. -1.
         -1    1    1    2    0  501  0.19182403491E+02  0.91470681966E+01  0.96551877118E+03  0.96575262411E+03  0.00000000000E+00 0.  1.
</event>
<event>
 4    1  0.6729064E+001  0.2133211E+02  0.7546771E-02  0.1514576E+00
          2   -1    0    0  502    0  0.00000000000E+00  0.00000000000E+00  0.26239383560E+02  0.26239383560E+02  0.00000000000E+00 0.  1.
         -2   -1    0    0    0  501 -0.00000000000E+00 -0.00000000000E+00 -0.17359842691E+02  0.17359842691E+02  0.00000000000E+00 0. -1.
          1    1    1    2  502    0 -0.26627796128E+01 -0.21165269283E+02  0.37526494115E+01  0.21659672128E+02  0.00000000000E+00 0. -1.
         -1    1    1    2    0  501  0.26627796128E+01  0.21165269283E+02  0.51268914566E+01  0.21939554123E+02  0.00000000000E+00 0.  1.
</event>
<event>
 4    1  0.6729064E+001  0.2475790E+02  0.7546771E-02  0.1471530E+00
          2   -1    0    0  502    0  0.00000000000E+00  0.00000000000E+00  0.18373582551E+02  0.18373582551E+02  0.00000000000E+00 0. -1.
         -2   -1    0    0    0  501 -0.00000000000E+00 -0.00000000000E+00 -0.41412312870E+02  0.41412312870E+02  0.00000000000E+00 0.  1.
          1    1    1    2  502    0  0.42742995175E+01 -0.24386138492E+02 -0.24700374089E+02  0.34972301426E+02  0.00000000000E+00 0.  1.
         -1    1    1    2    0  501 -0.42742995175E+01  0.24386138492E+02  0.16616437696E+01  0.24813593995E+02  0.00000000000E+00 0. -1.
</event>
<event>
 4    1  0.6729064E+001  0.5610124E+02  0.7546771E-02  0.1273687E+00
          2   -1    0    0  502    0  0.00000000000E+00  0.00000000000E+00  0.29551634953E+04  0.29551634953E+04  0.00000000000E+00 0. -1.
         -2   -1    0    0    0  501 -0.00000000000E+00 -0.00000000000E+00 -0.42477974158E+01  0.42477974158E+01  0.00000000000E+00 0.  1.
          1    1    1    2  502    0  0.17041820633E+02 -0.53450216138E+02  0.19461567380E+03  0.20254039040E+03  0.00000000000E+00 0.  1.
         -1    1    1    2    0  501 -0.17041820633E+02  0.53450216138E+02  0.27563000241E+04  0.27568709023E+04  0.00000000000E+00 0. -1.
</event>
<event>
 4    1  0.6729064E+001  0.3448898E+02  0.7546771E-02  0.1384192E+00
          2   -1    0    0  502    0  0.00000000000E+00  0.00000000000E+00  0.49986731143E+03  0.49986731143E+03  0.00000000000E+00 0. -1.
         -2   -1    0    0    0  501 -0.00000000000E+00 -0.00000000000E+00 -0.30753025780E+01  0.30753025780E+01  0.00000000000E+00 0.  1.
          1    1    1    2  502    0 -0.31502284290E+02  0.14039094184E+02  0.12879008307E+03  0.13332807499E+03  0.00000000000E+00 0.  1.
         -1    1    1    2    0  501  0.31502284290E+02 -0.14039094184E+02  0.36800192578E+03  0.36961453903E+03  0.00000000000E+00 0. -1.
</event>
<event>
 4    1  0.6729064E+001  0.3345521E+02  0.7546771E-02  0.1391761E+00
          2   -1    0    0  502    0  0.00000000000E+00  0.00000000000E+00  0.83060426425E+03  0.83060426425E+03  0.00000000000E+00 0.  1.
         -2   -1    0    0    0  501 -0.00000000000E+00 -0.00000000000E+00 -0.14625860410E+01  0.14625860410E+01  0.00000000000E+00 0. -1.
          1    1    1    2  502    0  0.20118643115E+01  0.33394664537E+02  0.53126567590E+03  0.53231801549E+03  0.00000000000E+00 0.  1.
         -1    1    1    2    0  501 -0.20118643115E+01 -0.33394664537E+02  0.29787600231E+03  0.29974883481E+03  0.00000000000E+00 0. -1.
</event>
<event>
 4    1  0.6729064E+001  0.2917719E+02  0.7546771E-02  0.1426884E+00
          2   -1    0    0  502    0  0.00000000000E+00  0.00000000000E+00  0.20264216084E+02  0.20264216084E+02  0.00000000000E+00 0.  1.
         -2   -1    0    0    0  501 -0.00000000000E+00 -0.00000000000E+00 -0.55805763014E+02  0.55805763014E+02  0.00000000000E+00 0. -1.
          1    1    1    2  502    0 -0.18913643519E+02 -0.22216711093E+02  0.11400342519E+01  0.29199449328E+02  0.00000000000E+00 0.  1.
         -1    1    1    2    0  501  0.18913643519E+02  0.22216711093E+02 -0.36681581182E+02  0.46870529770E+02  0.00000000000E+00 0. -1.
</event>
<event>
 4    1  0.6729064E+001  0.2385992E+02  0.7546771E-02  0.1481973E+00
          2   -1    0    0  502    0  0.00000000000E+00  0.00000000000E+00  0.27962648056E+04  0.27962648056E+04  0.00000000000E+00 0. -1.
         -2   -1    0    0    0  501 -0.00000000000E+00 -0.00000000000E+00 -0.21447124025E+00  0.21447124025E+00  0.00000000000E+00 0.  1.
          1    1    1    2  502    0 -0.69788519343E+01  0.22816467637E+02  0.17129505028E+04  0.17131166687E+04  0.00000000000E+00 0.  1.
         -1    1    1    2    0  501  0.69788519343E+01 -0.22816467637E+02  0.10830998316E+04  0.10833626082E+04  0.00000000000E+00 0. -1.
</event>
<event>
 4    1  0.6729064E+001  0.2046952E+02  0.7546771E-02  0.1526975E+00
          2   -1    0    0  502    0  0.00000000000E+00  0.00000000000E+00  0.60471321646E+02  0.60471321646E+02  0.00000000000E+00 0.  1.
         -2   -1    0    0    0  501 -0.00000000000E+00 -0.00000000000E+00 -0.70031242596E+01  0.70031242596E+01  0.00000000000E+00 0. -1.
          1    1    1    2  502    0  0.18708233755E+02 -0.83068282550E+01  0.30206706760E+02  0.36488992027E+02  0.00000000000E+00 0.  1.
         -1    1    1    2    0  501 -0.18708233755E+02  0.83068282550E+01  0.23261490626E+02  0.30985453878E+02  0.00000000000E+00 0. -1.
</event>
<event>
 4    1  0.6729064E+001  0.4604799E+02  0.7546771E-02  0.1316281E+00
          2   -1    0    0  502    0  0.00000000000E+00  0.00000000000E+00  0.52036275081E+03  0.52036275081E+03  0.00000000000E+00 0. -1.
         -2   -1    0    0    0  501 -0.00000000000E+00 -0.00000000000E+00 -0.59857261348E+01  0.59857261348E+01  0.00000000000E+00 0.  1.
          1    1    1    2  502    0 -0.38552447994E+02 -0.25181865846E+02  0.40588386976E+03  0.40848761713E+03  0.00000000000E+00 0. -1.
         -1    1    1    2    0  501  0.38552447994E+02  0.25181865846E+02  0.10849315491E+03  0.11786085982E+03  0.00000000000E+00 0.  1.
</event>
<event>
 4    1  0.6729064E+001  0.3050237E+02  0.7546771E-02  0.1415280E+00
          2   -1    0    0  502    0  0.00000000000E+00  0.00000000000E+00  0.14663620919E+03  0.14663620919E+03  0.00000000000E+00 0. -1.
         -2   -1    0    0    0  501 -0.00000000000E+00 -0.00000000000E+00 -0.95705786238E+01  0.95705786238E+01  0.00000000000E+00 0.  1.
          1    1    1    2  502    0 -0.97223801252E+01  0.28911414062E+02  0.23189817484E+02  0.38316604408E+02  0.00000000000E+00 0.  1.
         -1    1    1    2    0  501  0.97223801252E+01 -0.28911414062E+02  0.11387581308E+03  0.11789018340E+03  0.00000000000E+00 0. -1.
</event>
<event>
 4    1  0.6729064E+001  0.2871264E+02  0.7546771E-02  0.1431123E+00
          2   -1    0    0  502    0  0.00000000000E+00  0.00000000000E+00  0.17033375239E+02  0.17033375239E+02  0.00000000000E+00 0. -1.
         -2   -1    0    0    0  501 -0.00000000000E+00 -0.00000000000E+00 -0.10863768745E+03  0.10863768745E+03  0.00000000000E+00 0.  1.
          1    1    1    2  502    0 -0.43733427148E+01 -0.28377627524E+02  0.98741598783E+00  0.28729616439E+02  0.00000000000E+00 0. -1.
         -1    1    1    2    0  501  0.43733427148E+01  0.28377627524E+02 -0.92591728197E+02  0.96941446249E+02  0.00000000000E+00 0.  1.
</event>
<event>
 4    1  0.6729064E+001  0.2111302E+02  0.7546771E-02  0.1517657E+00
          2   -1    0    0  502    0  0.00000000000E+00  0.00000000000E+00  0.20762001677E+01  0.20762001677E+01  0.00000000000E+00 0. -1.
         -2   -1    0    0    0  501 -0.00000000000E+00 -0.00000000000E+00 -0.30510340579E+03  0.30510340579E+03  0.00000000000E+00 0.  1.
          1    1    1    2  502    0 -0.18294473661E+01  0.21033610279E+02 -0.67908675662E+02  0.71115032652E+02  0.00000000000E+00 0. -1.
         -1    1    1    2    0  501  0.18294473661E+01 -0.21033610279E+02 -0.23511852996E+03  0.23606457331E+03  0.00000000000E+00 0.  1.
</event>
<event>
 4    1  0.6729064E+001  0.2422980E+02  0.7546771E-02  0.1477607E+00
          2   -1    0    0  502    0  0.00000000000E+00  0.00000000000E+00  0.74621762707E+03  0.74621762707E+03  0.00000000000E+00 0. -1.
         -2   -1    0    0    0  501 -0.00000000000E+00 -0.00000000000E+00 -0.17159798633E+01  0.17159798633E+01  0.00000000000E+00 0.  1.
          1    1    1    2  502    0 -0.21780614197E+02 -0.10615457292E+02  0.97056371336E+02  0.10003510536E+03  0.00000000000E+00 0.  1.
         -1    1    1    2    0  501  0.21780614197E+02  0.10615457292E+02  0.64744527587E+03  0.64789850157E+03  0.00000000000E+00 0. -1.
</event>
<event>
 4    1  0.6729064E+001  0.2275673E+02  0.7546771E-02  0.1495576E+00
          2   -1    0    0  502    0  0.00000000000E+00  0.00000000000E+00  0.26854758510E+04  0.26854758510E+04  0.00000000000E+00 0. -1.
         -2   -1    0    0    0  501 -0.00000000000E+00 -0.00000000000E+00 -0.20203120291E+00  0.20203120291E+00  0.00000000000E+00 0.  1.
          1    1    1    2  502    0  0.22394801863E+02 -0.40425009230E+01  0.10562289834E+04  0.10564741049E+04  0.00000000000E+00 0.  1.
         -1    1    1    2    0  501 -0.22394801863E+02  0.40425009230E+01  0.16290448364E+04  0.16292037773E+04  0.00000000000E+00 0. -1.
</event>
<event>
 4    1  0.6729064E+001  0.2883355E+02  0.7546771E-02  0.1430011E+00
          2   -1    0    0  502    0  0.00000000000E+00  0.00000000000E+00  0.45156490829E+01  0.45156490829E+01  0.00000000000E+00 0.  1.
         -2   -1    0    0    0  501 -0.00000000000E+00 -0.00000000000E+00 -0.28908418570E+03  0.28908418570E+03  0.00000000000E+00 0. -1.
          1    1    1    2  502    0  0.28605403960E+02 -0.36199882764E+01 -0.23074614304E+03  0.23254065447E+03  0.00000000000E+00 0. -1.
         -1    1    1    2    0  501 -0.28605403960E+02  0.36199882764E+01 -0.53822393577E+02  0.61059180319E+02  0.00000000000E+00 0.  1.
</event>
<event>
 4    1  0.6729064E+001  0.2421266E+02  0.7546771E-02  0.1477807E+00
          2   -1    0    0  502    0  0.00000000000E+00  0.00000000000E+00  0.18707743984E+04  0.18707743984E+04  0.00000000000E+00 0.  1.
         -2   -1    0    0    0  501 -0.00000000000E+00 -0.00000000000E+00 -0.32324839294E+00  0.32324839294E+00  0.00000000000E+00 0. -1.
          1    1    1    2  502    0 -0.13959275125E+02 -0.19783623920E+02  0.10987342367E+04  0.10990009900E+04  0.00000000000E+00 0.  1.
         -1    1    1    2    0  501  0.13959275125E+02  0.19783623920E+02  0.77171691326E+03  0.77209665674E+03  0.00000000000E+00 0. -1.
</event>
<event>
 4    1  0.6729064E+001  0.2273568E+02  0.7546771E-02  0.1495844E+00
          2   -1    0    0  502    0  0.00000000000E+00  0.00000000000E+00  0.20967671483E+01  0.20967671483E+01  0.00000000000E+00 0. -1.
         -2   -1    0    0    0  501 -0.00000000000E+00 -0.00000000000E+00 -0.25161061382E+03  0.25161061382E+03  0.00000000000E+00 0.  1.
          1    1    1    2  502    0 -0.78389373280E+01  0.21341563943E+02 -0.14278680232E+03  0.14458555325E+03  0.00000000000E+00 0. -1.
         -1    1    1    2    0  501  0.78389373280E+01 -0.21341563943E+02 -0.10672704435E+03  0.10912182772E+03  0.00000000000E+00 0.  1.
</event>
<event>
 4    1  0.6729064E+001  0.3227053E+02  0.7546771E-02  0.1400840E+00
          2   -1    0    0  502    0  0.00000000000E+00  0.00000000000E+00  0.28019252818E+03  0.28019252818E+03  0.00000000000E+00 0. -1.
         -2   -1    0    0    0  501 -0.00000000000E+00 -0.00000000000E+00 -0.46249935506E+01  0.46249935506E+01  0.00000000000E+00 0.  1.
          1    1    1    2  502    0 -0.30237643638E+00 -0.32269110821E+02  0.74673763985E+02  0.81348374123E+02  0.00000000000E+00 0.  1.
         -1    1    1    2    0  501  0.30237643638E+00  0.32269110821E+02  0.20089377065E+03  0.20346914761E+03  0.00000000000E+00 0. -1.
</event>
<event>
 4    1  0.6729064E+001  0.2088396E+02  0.7546771E-02  0.1520928E+00
          2   -1    0    0  502    0  0.00000000000E+00  0.00000000000E+00  0.13864212213E+03  0.13864212213E+03  0.00000000000E+00 0. -1.
         -2   -1    0    0    0  501 -0.00000000000E+00 -0.00000000000E+00 -0.32047292575E+01  0.32047292575E+01  0.00000000000E+00 0.  1.
          1    1    1    2  502    0  0.31269792844E+01  0.20648530324E+02  0.58100912155E+02  0.61740228354E+02  0.00000000000E+00 0. -1.
         -1    1    1    2    0  501 -0.31269792844E+01 -0.20648530324E+02  0.77336480715E+02  0.80106623030E+02  0.00000000000E+00 0.  1.
</event>
<event>
 4    1  0.6729064E+001  0.3769528E+02  0.7546771E-02  0.1362548E+00
          2   -1    0    0  502    0  0.00000000000E+00  0.00000000000E+00  0.17867731786E+04  0.17867731786E+04  0.00000000000E+00 0.  1.
         -2   -1    0    0    0  501 -0.00000000000E+00 -0.00000000000E+00 -0.26975075572E+01  0.26975075572E+01  0.00000000000E+00 0. -1.
          1    1    1    2  502    0  0.59813298187E+01  0.37217705725E+02  0.16433972865E+04  0.16438295457E+04  0.00000000000E+00 0.  1.
         -1    1    1    2    0  501 -0.59813298187E+01 -0.37217705725E+02  0.14067838449E+03  0.14564114044E+03  0.00000000000E+00 0. -1.
</event>
<event>
 4    1  0.6729064E+001  0.2037005E+02  0.7546771E-02  0.1528452E+00
          2   -1    0    0  502    0  0.00000000000E+00  0.00000000000E+00  0.50646803333E+03  0.50646803333E+03  0.00000000000E+00 0.  1.
         -2   -1    0    0    0  501 -0.00000000000E+00 -0.00000000000E+00 -0.95002378629E+00  0.95002378629E+00  0.00000000000E+00 0. -1.
          1    1    1    2  502    0  0.19639462140E+02 -0.54065346795E+01  0.15863956297E+03  0.15994202084E+03  0.00000000000E+00 0. -1.
         -1    1    1    2    0  501 -0.19639462140E+02  0.54065346795E+01  0.34687844657E+03  0.34747603627E+03  0.00000000000E+00 0.  1.
</event>
<event>
 4    1  0.6729064E+001  0.2980637E+02  0.7546771E-02  0.1421287E+00
          2   -1    0    0  502    0  0.00000000000E+00  0.00000000000E+00  0.30854387228E+03  0.30854387228E+03  0.00000000000E+00 0.  1.
         -2   -1    0    0    0  501 -0.00000000000E+00 -0.00000000000E+00 -0.10514719795E+02  0.10514719795E+02  0.00000000000E+00 0. -1.
          1    1    1    2  502    0 -0.24269163346E+02  0.17303966039E+02  0.28495711274E+03  0.28651173734E+03  0.00000000000E+00 0.  1.
         -1    1    1    2    0  501  0.24269163346E+02 -0.17303966039E+02  0.13072039740E+02  0.32546854735E+02  0.00000000000E+00 0. -1.
</event>
<event>
 4    1  0.6729064E+001  0.2046767E+02  0.7546771E-02  0.1527003E+00
          2   -1    0    0  502    0  0.00000000000E+00  0.00000000000E+00  0.11932394442E+02  0.11932394442E+02  0.00000000000E+00 0.  1.
         -2   -1    0    0    0  501 -0.00000000000E+00 -0.00000000000E+00 -0.58207816533E+02  0.58207816533E+02  0.00000000000E+00 0. -1.
          1    1    1    2  502    0  0.17239904406E+01 -0.20394935178E+02 -0.45230386063E+02  0.49645879460E+02  0.00000000000E+00 0. -1.
         -1    1    1    2    0  501 -0.17239904406E+01  0.20394935178E+02 -0.10450360270E+01  0.20494331515E+02  0.00000000000E+00 0.  1.
</event>
<event>
 4    1  0.6729064E+001  0.2250102E+02  0.7546771E-02  0.1498861E+00
          2   -1    0    0  502    0  0.00000000000E+00  0.00000000000E+00  0.43864450234E+03  0.43864450234E+03  0.00000000000E+00 0.  1.
         -2   -1    0    0    0  501 -0.00000000000E+00 -0.00000000000E+00 -0.13156643557E+01  0.13156643557E+01  0.00000000000E+00 0. -1.
          1    1    1    2  502    0  0.12241468507E+00 -0.22500691467E+02  0.29572112722E+03  0.29657592820E+03  0.00000000000E+00 0.  1.
         -1    1    1    2    0  501 -0.12241468507E+00  0.22500691467E+02  0.14160771076E+03  0.14338423849E+03  0.00000000000E+00 0. -1.
</event>
<event>
 4    1  0.6729064E+001  0.2230243E+02  0.7546771E-02  0.1501448E+00
          2   -1    0    0  502    0  0.00000000000E+00  0.00000000000E+00  0.45523186709E+03  0.45523186709E+03  0.00000000000E+00 0.  1.
         -2   -1    0    0    0  501 -0.00000000000E+00 -0.00000000000E+00 -0.11126878502E+01  0.11126878502E+01  0.00000000000E+00 0. -1.
          1    1    1    2  502    0 -0.21936504687E+02  0.40234448767E+01  0.19642178848E+03  0.19768388234E+03  0.00000000000E+00 0.  1.
         -1    1    1    2    0  501  0.21936504687E+02 -0.40234448767E+01  0.25769739076E+03  0.25866067260E+03  0.00000000000E+00 0. -1.
</event>
<event>
 4    1  0.6729064E+001  0.2307235E+02  0.7546771E-02  0.1491592E+00
          2   -1    0    0  502    0  0.00000000000E+00  0.00000000000E+00  0.21330727803E+03  0.21330727803E+03  0.00000000000E+00 0. -1.
         -2   -1    0    0    0  501 -0.00000000000E+00 -0.00000000000E+00 -0.24993420841E+01  0.24993420841E+01  0.00000000000E+00 0.  1.
          1    1    1    2  502    0 -0.10703512336E+02 -0.20439380849E+02  0.10956917165E+03  0.11197203598E+03  0.00000000000E+00 0. -1.
         -1    1    1    2    0  501  0.10703512336E+02  0.20439380849E+02  0.10123876430E+03  0.10383458413E+03  0.00000000000E+00 0.  1.
</event>
<event>
 4    1  0.6729064E+001  0.2030635E+02  0.7546771E-02  0.1529403E+00
          2   -1    0    0  502    0  0.00000000000E+00  0.00000000000E+00  0.22705494354E+03  0.22705494354E+03  0.00000000000E+00 0.  1.
         -2   -1    0    0    0  501 -0.00000000000E+00 -0.00000000000E+00 -0.71577584895E+01  0.71577584895E+01  0.00000000000E+00 0. -1.
          1    1    1    2  502    0 -0.92935100848E+01  0.18054875891E+02  0.21111379874E+03  0.21208815122E+03  0.00000000000E+00 0.  1.
         -1    1    1    2    0  501  0.92935100848E+01 -0.18054875891E+02  0.87833863127E+01  0.22124550803E+02  0.00000000000E+00 0. -1.
</event>
<event>
 4    1  0.6729064E+001  0.2082927E+02  0.7546771E-02  0.1521716E+00
          2   -1    0    0  502    0  0.00000000000E+00  0.00000000000E+00  0.28578818121E+03  0.28578818121E+03  0.00000000000E+00 0. -1.
         -2   -1    0    0    0  501 -0.00000000000E+00 -0.00000000000E+00 -0.46911281544E+01  0.46911281544E+01  0.00000000000E+00 0.  1.
          1    1    1    2  502    0 -0.13391256897E+02  0.15954079928E+02  0.21099473772E+02  0.29648713650E+02  0.00000000000E+00 0.  1.
         -1    1    1    2    0  501  0.13391256897E+02 -0.15954079928E+02  0.25999757928E+03  0.26083059571E+03  0.00000000000E+00 0. -1.
</event>
<event>
 4    1  0.6729064E+001  0.2328304E+02  0.7546771E-02  0.1488974E+00
          2   -1    0    0  502    0  0.00000000000E+00  0.00000000000E+00  0.25303990897E+02  0.25303990897E+02  0.00000000000E+00 0. -1.
         -2   -1    0    0    0  501 -0.00000000000E+00 -0.00000000000E+00 -0.38207176320E+02  0.38207176320E+02  0.00000000000E+00 0.  1.
          1    1    1    2  502    0 -0.22383239528E+01 -0.23175201328E+02  0.14595454449E+02  0.27479580442E+02  0.00000000000E+00 0. -1.
         -1    1    1    2    0  501  0.22383239528E+01  0.23175201328E+02 -0.27498639871E+02  0.36031586774E+02  0.00000000000E+00 0.  1.
</event>
<event>
 4    1  0.6729064E+001  0.2503174E+02  0.7546771E-02  0.1468449E+00
          2   -1    0    0  502    0  0.00000000000E+00  0.00000000000E+00  0.13569143292E+03  0.13569143292E+03  0.00000000000E+00 0.  1.
         -2   -1    0    0    0  501 -0.00000000000E+00 -0.00000000000E+00 -0.47766786264E+01  0.47766786264E+01  0.00000000000E+00 0. -1.
          1    1    1    2  502    0  0.13705219194E+02  0.20946477364E+02  0.78268805582E+02  0.82174167926E+02  0.00000000000E+00 0. -1.
         -1    1    1    2    0  501 -0.13705219194E+02 -0.20946477364E+02  0.52645948714E+02  0.58293943623E+02  0.00000000000E+00 0.  1.
</event>
<event>
 4    1  0.6729064E+001  0.2935637E+02  0.7546771E-02  0.1425273E+00
          2   -1    0    0  502    0  0.00000000000E+00  0.00000000000E+00  0.87797417417E+01  0.87797417417E+01  0.00000000000E+00 0.  1.
         -2   -1    0    0    0  501 -0.00000000000E+00 -0.00000000000E+00 -0.11289213471E+03  0.11289213471E+03  0.00000000000E+00 0. -1.
          1    1    1    2  502    0 -0.29351619399E+02 -0.52829725338E+00 -0.74034768162E+02  0.79642598878E+02  0.00000000000E+00 0. -1.
         -1    1    1    2    0  501  0.29351619399E+02  0.52829725338E+00 -0.30077624806E+02  0.42029277573E+02  0.00000000000E+00 0.  1.
</event>
<event>
 4    1  0.6729064E+001  0.2019384E+02  0.7546771E-02  0.1531093E+00
          2   -1    0    0  502    0  0.00000000000E+00  0.00000000000E+00  0.40338784473E+03  0.40338784473E+03  0.00000000000E+00 0.  1.
         -2   -1    0    0    0  501 -0.00000000000E+00 -0.00000000000E+00 -0.10173942815E+01  0.10173942815E+01  0.00000000000E+00 0. -1.
          1    1    1    2  502    0 -0.17286958997E+02  0.10438027427E+02  0.18505054799E+03  0.18614912484E+03  0.00000000000E+00 0.  1.
         -1    1    1    2    0  501  0.17286958997E+02 -0.10438027427E+02  0.21731990246E+03  0.21825611417E+03  0.00000000000E+00 0. -1.
</event>
<event>
 4    1  0.6729064E+001  0.2238760E+02  0.7546771E-02  0.1500335E+00
          2   -1    0    0  502    0  0.00000000000E+00  0.00000000000E+00  0.63259232420E+01  0.63259232420E+01  0.00000000000E+00 0. -1.
         -2   -1    0    0    0  501 -0.00000000000E+00 -0.00000000000E+00 -0.87952271793E+02  0.87952271793E+02  0.00000000000E+00 0.  1.
          1    1    1    2  502    0 -0.15311808920E+02  0.16332572657E+02 -0.55657707446E+02  0.59991539572E+02  0.00000000000E+00 0.  1.
         -1    1    1    2    0  501  0.15311808920E+02 -0.16332572657E+02 -0.25968641105E+02  0.34286655463E+02  0.00000000000E+00 0. -1.
</event>
<event>
 4    1  0.6729064E+001  0.2642259E+02  0.7546771E-02  0.1453496E+00
          2   -1    0    0  502    0  0.00000000000E+00  0.00000000000E+00  0.77088598582E+03  0.77088598582E+03  0.00000000000E+00 0.  1.
         -2   -1    0    0    0  501 -0.00000000000E+00 -0.00000000000E+00 -0.50870629910E+01  0.50870629910E+01  0.00000000000E+00 0. -1.
          1    1    1    2  502    0 -0.21026544896E+02  0.16001181982E+02  0.31140977224E+02  0.40840101341E+02  0.00000000000E+00 0. -1.
         -1    1    1    2    0  501  0.21026544896E+02 -0.16001181982E+02  0.73465794560E+03  0.73513294747E+03  0.00000000000E+00 0.  1.
</event>
<event>
 4    1  0.6729064E+001  0.2195877E+02  0.7546771E-02  0.1506004E+00
          2   -1    0    0  502    0  0.00000000000E+00  0.00000000000E+00  0.23548347211E+04  0.23548347211E+04  0.00000000000E+00 0. -1.
         -2   -1    0    0    0  501 -0.00000000000E+00 -0.00000000000E+00 -0.20653175150E+00  0.20653175150E+00  0.00000000000E+00 0.  1.
          1    1    1    2  502    0  0.91887606246E+01 -0.19943772200E+02  0.12862275778E+04  0.12864150066E+04  0.00000000000E+00 0. -1.
         -1    1    1    2    0  501 -0.91887606246E+01  0.19943772200E+02  0.10684006115E+04  0.10686262462E+04  0.00000000000E+00 0.  1.
</event>
<event>
 4    1  0.6729064E+001  0.2670875E+02  0.7546771E-02  0.1450556E+00
          2   -1    0    0  502    0  0.00000000000E+00  0.00000000000E+00  0.40710475059E+02  0.40710475059E+02  0.00000000000E+00 0. -1.
         -2   -1    0    0    0  501 -0.00000000000E+00 -0.00000000000E+00 -0.67449305348E+02  0.67449305348E+02  0.00000000000E+00 0.  1.
          1    1    1    2  502    0 -0.18748384603E+02 -0.19022498284E+02  0.33158445882E+02  0.42577457645E+02  0.00000000000E+00 0. -1.
         -1    1    1    2    0  501  0.18748384603E+02  0.19022498284E+02 -0.59897276171E+02  0.65582322762E+02  0.00000000000E+00 0.  1.
</event>
<event>
 4    1  0.6729064E+001  0.2684133E+02  0.7546771E-02  0.1449209E+00
          2   -1    0    0  502    0  0.00000000000E+00  0.00000000000E+00  0.35372353619E+02  0.35372353619E+02  0.00000000000E+00 0.  1.
         -2   -1    0    0    0  501 -0.00000000000E+00 -0.00000000000E+00 -0.20747094029E+02  0.20747094029E+02  0.00000000000E+00 0. -1.
          1    1    1    2  502    0 -0.23706365883E+02 -0.12588296795E+02  0.35186662507E+01  0.27070980990E+02  0.00000000000E+00 0. -1.
         -1    1    1    2    0  501  0.23706365883E+02  0.12588296795E+02  0.11106593339E+02  0.29048466658E+02  0.00000000000E+00 0.  1.
</event>
<event>
 4    1  0.6729064E+001  0.2203970E+02  0.7546771E-02  0.1504922E+00
          2   -1    0    0  502    0  0.00000000000E+00  0.00000000000E+00  0.81634039417E+01  0.81634039417E+01  0.00000000000E+00 0.  1.
         -2   -1    0    0    0  501 -0.00000000000E+00 -0.00000000000E+00 -0.59595030675E+02  0.59595030675E+02  0.00000000000E+00 0. -1.
          1    1    1    2  502    0  0.33855796394E+01  0.21778110417E+02 -0.24385535706E+02  0.32869478159E+02  0.00000000000E+00 0. -1.
         -1    1    1    2    0  501 -0.33855796394E+01 -0.21778110417E+02 -0.27046091027E+02  0.34888956457E+02  0.00000000000E+00 0.  1.
</event>
<event>
 4    1  0.6729064E+001  0.2887168E+02  0.7546771E-02  0.1429662E+00
          2   -1    0    0  502    0  0.00000000000E+00  0.00000000000E+00  0.79142052545E+02  0.79142052545E+02  0.00000000000E+00 0.  1.
         -2   -1    0    0    0  501 -0.00000000000E+00 -0.00000000000E+00 -0.30142159141E+02  0.30142159141E+02  0.00000000000E+00 0. -1.
          1    1    1    2  502    0 -0.19210343209E+02  0.21553108785E+02  0.68573072788E+02  0.74403226383E+02  0.00000000000E+00 0.  1.
         -1    1    1    2    0  501  0.19210343209E+02 -0.21553108785E+02 -0.19573179385E+02  0.34880985303E+02  0.00000000000E+00 0. -1.
</event>
<event>
 4    1  0.6729064E+001  0.2167061E+02  0.7546771E-02  0.1509902E+00
          2   -1    0    0  502    0  0.00000000000E+00  0.00000000000E+00  0.36340087718E+00  0.36340087718E+00  0.00000000000E+00 0. -1.
         -2   -1    0    0    0  501 -0.00000000000E+00 -0.00000000000E+00 -0.13544401818E+04  0.13544401818E+04  0.00000000000E+00 0.  1.
          1    1    1    2  502    0  0.59833206793E+01  0.20828228295E+02 -0.53191846832E+03  0.53235972064E+03  0.00000000000E+00 0. -1.
         -1    1    1    2    0  501 -0.59833206793E+01 -0.20828228295E+02 -0.82215831256E+03  0.82244386199E+03  0.00000000000E+00 0.  1.
</event>
<event>
 4    1  0.6729064E+001  0.4841320E+02  0.7546771E-02  0.1305203E+00
          2   -1    0    0  502    0  0.00000000000E+00  0.00000000000E+00  0.14061562806E+02  0.14061562806E+02  0.00000000000E+00 0. -1.
         -2   -1    0    0    0  501 -0.00000000000E+00 -0.00000000000E+00 -0.20475926544E+03  0.20475926544E+03  0.00000000000E+00 0.  1.
          1    1    1    2  502    0  0.30086494106E+01  0.48319625463E+02 -0.48168834633E+02  0.68294031995E+02  0.00000000000E+00 0. -1.
         -1    1    1    2    0  501 -0.30086494106E+01 -0.48319625463E+02 -0.14252886800E+03  0.15052679625E+03  0.00000000000E+00 0.  1.
</event>
<event>
 4    1  0.6729064E+001  0.2465570E+02  0.7546771E-02  0.1472692E+00
          2   -1    0    0  502    0  0.00000000000E+00  0.00000000000E+00  0.16699450212E+04  0.16699450212E+04  0.00000000000E+00 0.  1.
         -2   -1    0    0    0  501 -0.00000000000E+00 -0.00000000000E+00 -0.47446220666E+00  0.47446220666E+00  0.00000000000E+00 0. -1.
          1    1    1    2  502    0 -0.19646050902E+02 -0.14897516084E+02  0.43178579663E+03  0.43248916457E+03  0.00000000000E+00 0. -1.
         -1    1    1    2    0  501  0.19646050902E+02  0.14897516084E+02  0.12376847623E+04  0.12379303188E+04  0.00000000000E+00 0.  1.
</event>
<event>
 4    1  0.6729064E+001  0.2252707E+02  0.7546771E-02  0.1498524E+00
          2   -1    0    0  502    0  0.00000000000E+00  0.00000000000E+00  0.10451805676E+03  0.10451805676E+03  0.00000000000E+00 0. -1.
         -2   -1    0    0    0  501 -0.00000000000E+00 -0.00000000000E+00 -0.57028416421E+01  0.57028416421E+01  0.00000000000E+00 0.  1.
          1    1    1    2  502    0  0.18595702899E+02  0.12714898304E+02  0.28162290430E+02  0.36063602253E+02  0.00000000000E+00 0.  1.
         -1    1    1    2    0  501 -0.18595702899E+02 -0.12714898304E+02  0.70652924688E+02  0.74157296150E+02  0.00000000000E+00 0. -1.
</event>
<event>
 4    1  0.6729064E+001  0.2166312E+02  0.7546771E-02  0.1510004E+00
          2   -1    0    0  502    0  0.00000000000E+00  0.00000000000E+00  0.11695410759E+03  0.11695410759E+03  0.00000000000E+00 0.  1.
         -2   -1    0    0    0  501 -0.00000000000E+00 -0.00000000000E+00 -0.51196489314E+01  0.51196489314E+01  0.00000000000E+00 0. -1.
          1    1    1    2  502    0 -0.13658341536E+02  0.16814882250E+02  0.84299999599E+02  0.87038959615E+02  0.00000000000E+00 0.  1.
         -1    1    1    2    0  501  0.13658341536E+02 -0.16814882250E+02  0.27534459065E+02  0.35034796911E+02  0.00000000000E+00 0. -1.
</event>
<event>
 4    1  0.6729064E+001  0.2238121E+02  0.7546771E-02  0.1500418E+00
          2   -1    0    0  502    0  0.00000000000E+00  0.00000000000E+00  0.32701837562E+03  0.32701837562E+03  0.00000000000E+00 0. -1.
         -2   -1    0    0    0  501 -0.00000000000E+00 -0.00000000000E+00 -0.53461519990E+01  0.53461519990E+01  0.00000000000E+00 0.  1.
          1    1    1    2  502    0  0.37219235119E+01 -0.22069563654E+02  0.30120661769E+03  0.30203699259E+03  0.00000000000E+00 0. -1.
         -1    1    1    2    0  501 -0.37219235119E+01  0.22069563654E+02  0.20465605925E+02  0.30327535020E+02  0.00000000000E+00 0.  1.
</event>
<event>
 4    1  0.6729064E+001  0.2311166E+02  0.7546771E-02  0.1491101E+00
          2   -1    0    0  502    0  0.00000000000E+00  0.00000000000E+00  0.78937315601E+03  0.78937315601E+03  0.00000000000E+00 0.  1.
         -2   -1    0    0    0  501 -0.00000000000E+00 -0.00000000000E+00 -0.13769964570E+01  0.13769964570E+01  0.00000000000E+00 0. -1.
          1    1    1    2  502    0 -0.21377989574E+02 -0.87823966584E+01  0.11203538472E+03  0.11439438954E+03  0.00000000000E+00 0. -1.
         -1    1    1    2    0  501  0.21377989574E+02  0.87823966584E+01  0.67596077483E+03  0.67635576293E+03  0.00000000000E+00 0.  1.
</event>
<event>
 4    1  0.6729064E+001  0.2154832E+02  0.7546771E-02  0.1511578E+00
          2   -1    0    0  502    0  0.00000000000E+00  0.00000000000E+00  0.14008544413E+03  0.14008544413E+03  0.00000000000E+00 0. -1.
         -2   -1    0    0    0  501 -0.00000000000E+00 -0.00000000000E+00 -0.35404570357E+01  0.35404570357E+01  0.00000000000E+00 0.  1.
          1    1    1    2  502    0 -0.18959862056E+02 -0.10239807541E+02  0.86409708522E+02  0.89055981015E+02  0.00000000000E+00 0. -1.
         -1    1    1    2    0  501  0.18959862056E+02  0.10239807541E+02  0.50135278568E+02  0.54569920146E+02  0.00000000000E+00 0.  1.
</event>
<event>
 4    1  0.6729064E+001  0.3651978E+02  0.7546771E-02  0.1370182E+00
          2   -1    0    0  502    0  0.00000000000E+00  0.00000000000E+00  0.23329665526E+02  0.23329665526E+02  0.00000000000E+00 0. -1.
         -2   -1    0    0    0  501 -0.00000000000E+00 -0.00000000000E+00 -0.57921502278E+02  0.57921502278E+02  0.00000000000E+00 0.  1.
          1    1    1    2  502    0  0.16627659849E+02  0.32514847096E+02 -0.21931658848E+02  0.42599202029E+02  0.00000000000E+00 0. -1.
         -1    1    1    2    0  501 -0.16627659849E+02 -0.32514847096E+02 -0.12660177904E+02  0.38651965775E+02  0.00000000000E+00 0.  1.
</event>
<event>
 4    1  0.6729064E+001  0.2281689E+02  0.7546771E-02  0.1494810E+00
          2   -1    0    0  502    0  0.00000000000E+00  0.00000000000E+00  0.10212762150E+04  0.10212762150E+04  0.00000000000E+00 0.  1.
         -2   -1    0    0    0  501 -0.00000000000E+00 -0.00000000000E+00 -0.56180436379E+00  0.56180436379E+00  0.00000000000E+00 0. -1.
          1    1    1    2  502    0  0.17454460724E+02 -0.14695309521E+02  0.66585625472E+03  0.66624707300E+03  0.00000000000E+00 0.  1.
         -1    1    1    2    0  501 -0.17454460724E+02  0.14695309521E+02  0.35485815591E+03  0.35559094636E+03  0.00000000000E+00 0. -1.
</event>
<event>
 4    1  0.6729064E+001  0.2087575E+02  0.7546771E-02  0.1521046E+00
          2   -1    0    0  502    0  0.00000000000E+00  0.00000000000E+00  0.37900351354E+03  0.37900351354E+03  0.00000000000E+00 0. -1.
         -2   -1    0    0    0  501 -0.00000000000E+00 -0.00000000000E+00 -0.12054302184E+01  0.12054302184E+01  0.00000000000E+00 0.  1.
          1    1    1    2  502    0 -0.16333836256E+02  0.13000104559E+02  0.14807799379E+03  0.14954226550E+03  0.00000000000E+00 0.  1.
         -1    1    1    2    0  501  0.16333836256E+02 -0.13000104559E+02  0.22972008953E+03  0.23066667826E+03  0.00000000000E+00 0. -1.
</event>
<event>
 4    1  0.6729064E+001  0.5486860E+02  0.7546771E-02  0.1278340E+00
          2   -1    0    0  502    0  0.00000000000E+00  0.00000000000E+00  0.15411265386E+04  0.15411265386E+04  0.00000000000E+00 0.  1.
         -2   -1    0    0    0  501 -0.00000000000E+00 -0.00000000000E+00 -0.20325575961E+01  0.20325575961E+01  0.00000000000E+00 0. -1.
          1    1    1    2  502    0  0.34195677375E+02 -0.42909431733E+02  0.92173457128E+03  0.92336622397E+03  0.00000000000E+00 0.  1.
         -1    1    1    2    0  501 -0.34195677375E+02  0.42909431733E+02  0.61735940969E+03  0.61979287219E+03  0.00000000000E+00 0. -1.
</event>
<event>
 4    1  0.6729064E+001  0.2986709E+02  0.7546771E-02  0.1420755E+00
          2   -1    0    0  502    0  0.00000000000E+00  0.00000000000E+00  0.67639048849E+03  0.67639048849E+03  0.00000000000E+00 0. -1.
         -2   -1    0    0    0  501 -0.00000000000E+00 -0.00000000000E+00 -0.17365018271E+01  0.17365018271E+01  0.00000000000E+00 0.  1.
          1    1    1    2  502    0 -0.29714993188E+02 -0.30103352269E+01  0.17103862516E+03  0.17362676704E+03  0.00000000000E+00 0.  1.
         -1    1    1    2    0  501  0.29714993188E+02  0.30103352269E+01  0.50361536150E+03  0.50450022327E+03  0.00000000000E+00 0. -1.
</event>
<event>
 4    1  0.6729064E+001  0.2750110E+02  0.7546771E-02  0.1442638E+00
          2   -1    0    0  502    0  0.00000000000E+00  0.00000000000E+00  0.25726097293E+02  0.25726097293E+02  0.00000000000E+00 0.  1.
         -2   -1    0    0    0  501 -0.00000000000E+00 -0.00000000000E+00 -0.29538717008E+02  0.29538717008E+02  0.00000000000E+00 0. -1.
          1    1    1    2  502    0 -0.25787104574E+02 -0.95569662004E+01 -0.38096712501E+01  0.27763716615E+02  0.00000000000E+00 0. -1.
         -1    1    1    2    0  501  0.25787104574E+02  0.95569662004E+01 -0.29484649145E-02  0.27501097686E+02  0.00000000000E+00 0.  1.
</event>
<event>
 4    1  0.6729064E+001  0.2578718E+02  0.7546771E-02  0.1460187E+00
          2   -1    0    0  502    0  0.00000000000E+00  0.00000000000E+00  0.63318440964E+03  0.63318440964E+03  0.00000000000E+00 0.  1.
         -2   -1    0    0    0  501 -0.00000000000E+00 -0.00000000000E+00 -0.10576144761E+01  0.10576144761E+01  0.00000000000E+00 0. -1.
          1    1    1    2  502    0  0.22756059534E+01 -0.25686578106E+02  0.28953492713E+03  0.29068101538E+03  0.00000000000E+00 0. -1.
         -1    1    1    2    0  501 -0.22756059534E+01  0.25686578106E+02  0.34259186804E+03  0.34356100874E+03  0.00000000000E+00 0.  1.
</event>
<event>
 4    1  0.6729064E+001  0.2522818E+02  0.7546771E-02  0.1466267E+00
          2   -1    0    0  502    0  0.00000000000E+00  0.00000000000E+00  0.22368204147E+02  0.22368204147E+02  0.00000000000E+00 0. -1.
         -2   -1    0    0    0  501 -0.00000000000E+00 -0.00000000000E+00 -0.28535613165E+02  0.28535613165E+02  0.00000000000E+00 0.  1.
          1    1    1    2  502    0 -0.18299850738E+02  0.17365955993E+02 -0.17210925618E+01  0.25286817202E+02  0.00000000000E+00 0. -1.
         -1    1    1    2    0  501  0.18299850738E+02 -0.17365955993E+02 -0.44463164561E+01  0.25617000110E+02  0.00000000000E+00 0.  1.
</event>
<event>
 4    1  0.6729064E+001  0.2873121E+02  0.7546771E-02  0.1430952E+00
          2   -1    0    0  502    0  0.00000000000E+00  0.00000000000E+00  0.51279871550E+03  0.51279871550E+03  0.00000000000E+00 0. -1.
         -2   -1    0    0    0  501 -0.00000000000E+00 -0.00000000000E+00 -0.20976113236E+01  0.20976113236E+01  0.00000000000E+00 0.  1.
          1    1    1    2  502    0  0.20922510709E+02  0.19690890637E+02  0.37950755878E+03  0.38059357562E+03  0.00000000000E+00 0.  1.
         -1    1    1    2    0  501 -0.20922510709E+02 -0.19690890637E+02  0.13119354539E+03  0.13430275120E+03  0.00000000000E+00 0. -1.
</event>
<event>
 4    1  0.6729064E+001  0.3292333E+02  0.7546771E-02  0.1395782E+00
          2   -1    0    0  502    0  0.00000000000E+00  0.00000000000E+00  0.13394567269E+03  0.13394567269E+03  0.00000000000E+00 0.  1.
         -2   -1    0    0    0  501 -0.00000000000E+00 -0.00000000000E+00 -0.82409256313E+01  0.82409256313E+01  0.00000000000E+00 0. -1.
          1    1    1    2  502    0  0.56781324178E+01 -0.32429993577E+02  0.53309022873E+02  0.62656185575E+02  0.00000000000E+00 0. -1.
         -1    1    1    2    0  501 -0.56781324178E+01  0.32429993577E+02  0.72395724183E+02  0.79530412743E+02  0.00000000000E+00 0.  1.
</event>
<event>
 4    1  0.6729064E+001  0.4365359E+02  0.7546771E-02  0.1328311E+00
          2   -1    0    0  502    0  0.00000000000E+00  0.00000000000E+00  0.12534444577E+03  0.12534444577E+03  0.00000000000E+00 0. -1.
         -2   -1    0    0    0  501 -0.00000000000E+00 -0.00000000000E+00 -0.16215222972E+02  0.16215222972E+02  0.00000000000E+00 0.  1.
          1    1    1    2  502    0  0.25172863994E+02 -0.35664591319E+02  0.36882091351E+02  0.57148270473E+02  0.00000000000E+00 0.  1.
         -1    1    1    2    0  501 -0.25172863994E+02  0.35664591319E+02  0.72247131450E+02  0.84411398273E+02  0.00000000000E+00 0. -1.
</event>
<event>
 4    1  0.6729064E+001  0.2105932E+02  0.7546771E-02  0.1518419E+00
          2   -1    0    0  502    0  0.00000000000E+00  0.00000000000E+00  0.57476083303E+03  0.57476083303E+03  0.00000000000E+00 0. -1.
         -2   -1    0    0    0  501 -0.00000000000E+00 -0.00000000000E+00 -0.84664944827E+00  0.84664944827E+00  0.00000000000E+00 0.  1.
          1    1    1    2  502    0  0.93584279240E+01  0.18865708461E+02  0.20127901955E+03  0.20237771330E+03  0.00000000000E+00 0.  1.
         -1    1    1    2    0  501 -0.93584279240E+01 -0.18865708461E+02  0.37263516403E+03  0.37322976918E+03  0.00000000000E+00 0. -1.
</event>
<event>
 4    1  0.6729064E+001  0.3383862E+02  0.7546771E-02  0.1388917E+00
          2   -1    0    0  502    0  0.00000000000E+00  0.00000000000E+00  0.27469416533E+02  0.27469416533E+02  0.00000000000E+00 0. -1.
         -2   -1    0    0    0  501 -0.00000000000E+00 -0.00000000000E+00 -0.43333826643E+02  0.43333826643E+02  0.00000000000E+00 0.  1.
          1    1    1    2  502    0 -0.19782001194E+02 -0.27454043030E+02 -0.14838543278E+02  0.36949078696E+02  0.00000000000E+00 0. -1.
         -1    1    1    2    0  501  0.19782001194E+02  0.27454043030E+02 -0.10258668319E+01  0.33854164480E+02  0.00000000000E+00 0.  1.
</event>
<event>
 4    1  0.6729064E+001  0.2457516E+02  0.7546771E-02  0.1473613E+00
          2   -1    0    0  502    0  0.00000000000E+00  0.00000000000E+00  0.37905683063E+03  0.37905683063E+03  0.00000000000E+00 0.  1.
         -2   -1    0    0    0  501 -0.00000000000E+00 -0.00000000000E+00 -0.15975992508E+01  0.15975992508E+01  0.00000000000E+00 0. -1.
          1    1    1    2  502    0 -0.21223529211E+01 -0.24483340545E+02  0.19864194574E+03  0.20015634128E+03  0.00000000000E+00 0.  1.
         -1    1    1    2    0  501  0.21223529211E+01  0.24483340545E+02  0.17881728564E+03  0.18049808861E+03  0.00000000000E+00 0. -1.
</event>
<event>
 4    1  0.6729064E+001  0.2047377E+02  0.7546771E-02  0.1526912E+00
          2   -1    0    0  502    0  0.00000000000E+00  0.00000000000E+00  0.35441595712E+03  0.35441595712E+03  0.00000000000E+00 0.  1.
         -2   -1    0    0    0  501 -0.00000000000E+00 -0.00000000000E+00 -0.65843207288E+01  0.65843207288E+01  0.00000000000E+00 0. -1.
          1    1    1    2  502    0 -0.12856622782E+01  0.20433365371E+02  0.33740282166E+03  0.33802343027E+03  0.00000000000E+00 0.  1.
         -1    1    1    2    0  501  0.12856622782E+01 -0.20433365371E+02  0.10428814730E+02  0.22976847576E+02  0.00000000000E+00 0. -1.
</event>
<event>
 4    1  0.6729064E+001  0.2675397E+02  0.7546771E-02  0.1450095E+00
          2   -1    0    0  502    0  0.00000000000E+00  0.00000000000E+00  0.10702401590E+04  0.10702401590E+04  0.00000000000E+00 0.  1.
         -2   -1    0    0    0  501 -0.00000000000E+00 -0.00000000000E+00 -0.89481815268E+00  0.89481815268E+00  0.00000000000E+00 0. -1.
          1    1    1    2  502    0  0.25754385219E+02 -0.72447548757E+01  0.26550674683E+03  0.26685128338E+03  0.00000000000E+00 0. -1.
         -1    1    1    2    0  501 -0.25754385219E+02  0.72447548757E+01  0.80383859406E+03  0.80428369381E+03  0.00000000000E+00 0.  1.
</event>
<event>
 4    1  0.6729064E+001  0.3263404E+02  0.7546771E-02  0.1398006E+00
          2   -1    0    0  502    0  0.00000000000E+00  0.00000000000E+00  0.51164116388E+01  0.51164116388E+01  0.00000000000E+00 0.  1.
         -2   -1    0    0    0  501 -0.00000000000E+00 -0.00000000000E+00 -0.23275041362E+03  0.23275041362E+03  0.00000000000E+00 0. -1.
          1    1    1    2  502    0 -0.26634110354E+02  0.18857489041E+02 -0.15248310968E+03  0.15593613906E+03  0.00000000000E+00 0.  1.
         -1    1    1    2    0  501  0.26634110354E+02 -0.18857489041E+02 -0.75150892294E+02  0.81930686192E+02  0.00000000000E+00 0. -1.
</event>
<event>
 4    1  0.6729064E+001  0.3063410E+02  0.7546771E-02  0.1414165E+00
          2   -1    0    0  502    0  0.00000000000E+00  0.00000000000E+00  0.14241454445E+03  0.14241454445E+03  0.00000000000E+00 0.  1.
         -2   -1    0    0    0  501 -0.00000000000E+00 -0.00000000000E+00 -0.64167606909E+02  0.64167606909E+02  0.00000000000E+00 0. -1.
          1    1    1    2  502    0 -0.24902925623E+01 -0.30532715249E+02  0.13696728155E+03  0.14035128953E+03  0.00000000000E+00 0.  1.
         -1    1    1    2    0  501  0.24902925623E+01  0.30532715249E+02 -0.58720344011E+02  0.66230861827E+02  0.00000000000E+00 0. -1.
</event>
<event>
 4    1  0.6729064E+001  0.2840492E+02  0.7546771E-02  0.1433984E+00
          2   -1    0    0  502    0  0.00000000000E+00  0.00000000000E+00  0.79447367564E+01  0.79447367564E+01  0.00000000000E+00 0. -1.
         -2   -1    0    0    0  501 -0.00000000000E+00 -0.00000000000E+00 -0.10444363095E+03  0.10444363095E+03  0.00000000000E+00 0.  1.
          1    1    1    2  502    0  0.24619703733E+02 -0.14167206993E+02 -0.38906486780E+02  0.48172131772E+02  0.00000000000E+00 0. -1.
         -1    1    1    2    0  501 -0.24619703733E+02  0.14167206993E+02 -0.57592407413E+02  0.64216235934E+02  0.00000000000E+00 0.  1.
</event>
<event>
 4    1  0.6729064E+001  0.5090249E+02  0.7546771E-02  0.1294306E+00
          2   -1    0    0  502    0  0.00000000000E+00  0.00000000000E+00  0.12336890778E+04  0.12336890778E+04  0.00000000000E+00 0. -1.
         -2   -1    0    0    0  501 -0.00000000000E+00 -0.00000000000E+00 -0.24833629911E+01  0.24833629911E+01  0.00000000000E+00 0.  1.
          1    1    1    2  502    0  0.40843282004E+02  0.30379093665E+02  0.37283625593E+03  0.37629501293E+03  0.00000000000E+00 0.  1.
         -1    1    1    2    0  501 -0.40843282004E+02 -0.30379093665E+02  0.85836945891E+03  0.85987742790E+03  0.00000000000E+00 0. -1.
</event>
<event>
 4    1  0.6729064E+001  0.4358854E+02  0.7546771E-02  0.1328650E+00
          2   -1    0    0  502    0  0.00000000000E+00  0.00000000000E+00  0.18030360549E+03  0.18030360549E+03  0.00000000000E+00 0.  1.
         -2   -1    0    0    0  501 -0.00000000000E+00 -0.00000000000E+00 -0.10785595158E+02  0.10785595158E+02  0.00000000000E+00 0. -1.
          1    1    1    2  502    0 -0.13020006722E+02  0.41598565357E+02  0.99247895007E+02  0.10839790532E+03  0.00000000000E+00 0. -1.
         -1    1    1    2    0  501  0.13020006722E+02 -0.41598565357E+02  0.70270115323E+02  0.82691295324E+02  0.00000000000E+00 0.  1.
</event>
<event>
 4    1  0.6729064E+001  0.2875310E+02  0.7546771E-02  0.1430750E+00
          2   -1    0    0  502    0  0.00000000000E+00  0.00000000000E+00  0.35029644329E+01  0.35029644329E+01  0.00000000000E+00 0. -1.
         -2   -1    0    0    0  501 -0.00000000000E+00 -0.00000000000E+00 -0.35504695976E+03  0.35504695976E+03  0.00000000000E+00 0.  1.
          1    1    1    2  502    0  0.28752564793E+02 -0.17529869097E+00 -0.27957609334E+03  0.28105076530E+03  0.00000000000E+00 0.  1.
         -1    1    1    2    0  501 -0.28752564793E+02  0.17529869097E+00 -0.71967901990E+02  0.77499158890E+02  0.00000000000E+00 0. -1.
</event>
<event>
 4    1  0.6729064E+001  0.3101238E+02  0.7546771E-02  0.1410998E+00
          2   -1    0    0  502    0  0.00000000000E+00  0.00000000000E+00  0.18194316593E+03  0.18194316593E+03  0.00000000000E+00 0. -1.
         -2   -1    0    0    0  501 -0.00000000000E+00 -0.00000000000E+00 -0.53410946374E+01  0.53410946374E+01  0.00000000000E+00 0.  1.
          1    1    1    2  502    0 -0.20864205766E+02 -0.22944550063E+02  0.97804160527E+02  0.10260322254E+03  0.00000000000E+00 0.  1.
         -1    1    1    2    0  501  0.20864205766E+02  0.22944550063E+02  0.78797910764E+02  0.84681038023E+02  0.00000000000E+00 0. -1.
</event>
<event>
 4    1  0.6729064E+001  0.3292508E+02  0.7546771E-02  0.1395768E+00
          2   -1    0    0  502    0  0.00000000000E+00  0.00000000000E+00  0.12499941976E+04  0.12499941976E+04  0.00000000000E+00 0. -1.
         -2   -1    0    0    0  501 -0.00000000000E+00 -0.00000000000E+00 -0.93623249767E+00  0.93623249767E+00  0.00000000000E+00 0.  1.
          1    1    1    2  502    0  0.18432018588E+02  0.27282254946E+02  0.79430350291E+03  0.79498560709E+03  0.00000000000E+00 0. -1.
         -1    1    1    2    0  501 -0.18432018588E+02 -0.27282254946E+02  0.45475446217E+03  0.45594482299E+03  0.00000000000E+00 0.  1.
</event>
<event>
 4    1  0.6729064E+001  0.2203188E+02  0.7546771E-02  0.1505026E+00
          2   -1    0    0  502    0  0.00000000000E+00  0.00000000000E+00  0.62939867959E+01  0.62939867959E+01  0.00000000000E+00 0.  1.
         -2   -1    0    0    0  501 -0.00000000000E+00 -0.00000000000E+00 -0.13740333032E+03  0.13740333032E+03  0.00000000000E+00 0. -1.
          1    1    1    2  502    0  0.56455552494E+01 -0.21296280113E+02 -0.11314426865E+03  0.11526937741E+03  0.00000000000E+00 0. -1.
         -1    1    1    2    0  501 -0.56455552494E+01  0.21296280113E+02 -0.17965074882E+02  0.28427939711E+02  0.00000000000E+00 0.  1.
</event>
<event>
 4    1  0.6729064E+001  0.2732437E+02  0.7546771E-02  0.1444377E+00
          2   -1    0    0  502    0  0.00000000000E+00  0.00000000000E+00  0.46255858396E+03  0.46255858396E+03  0.00000000000E+00 0.  1.
         -2   -1    0    0    0  501 -0.00000000000E+00 -0.00000000000E+00 -0.20162433345E+01  0.20162433345E+01  0.00000000000E+00 0. -1.
          1    1    1    2  502    0  0.26368637405E+02  0.71635332481E+01  0.12653306861E+03  0.12944975357E+03  0.00000000000E+00 0. -1.
         -1    1    1    2    0  501 -0.26368637405E+02 -0.71635332481E+01  0.33400927201E+03  0.33512507372E+03  0.00000000000E+00 0.  1.
</event>
<event>
 4    1  0.6729064E+001  0.2440169E+02  0.7546771E-02  0.1475609E+00
          2   -1    0    0  502    0  0.00000000000E+00  0.00000000000E+00  0.41035413859E+02  0.41035413859E+02  0.00000000000E+00 0.  1.
         -2   -1    0    0    0  501 -0.00000000000E+00 -0.00000000000E+00 -0.73456735527E+02  0.73456735527E+02  0.00000000000E+00 0. -1.
          1    1    1    2  502    0 -0.21964228535E+02  0.10630867332E+02 -0.67491850381E+02  0.71767628798E+02  0.00000000000E+00 0. -1.
         -1    1    1    2    0  501  0.21964228535E+02 -0.10630867332E+02  0.35070528713E+02  0.42724520589E+02  0.00000000000E+00 0.  1.
</event>
<event>
 4    1  0.6729064E+001  0.3479483E+02  0.7546771E-02  0.1382011E+00
          2   -1    0    0  502    0  0.00000000000E+00  0.00000000000E+00  0.50071887379E+02  0.50071887379E+02  0.00000000000E+00 0.  1.
         -2   -1    0    0    0  501 -0.00000000000E+00 -0.00000000000E+00 -0.35464595392E+02  0.35464595392E+02  0.00000000000E+00 0. -1.
          1    1    1    2  502    0  0.18878908629E+02 -0.29227844318E+02  0.31429863275E+02  0.46888339488E+02  0.00000000000E+00 0.  1.
         -1    1    1    2    0  501 -0.18878908629E+02  0.29227844318E+02 -0.16822571288E+02  0.38648143283E+02  0.00000000000E+00 0. -1.
</event>
<event>
 4    1  0.6729064E+001  0.2403240E+02  0.7546771E-02  0.1479926E+00
          2   -1    0    0  502    0  0.00000000000E+00  0.00000000000E+00  0.20295836392E+01  0.20295836392E+01  0.00000000000E+00 0. -1.
         -2   -1    0    0    0  501 -0.00000000000E+00 -0.00000000000E+00 -0.29390548592E+03  0.29390548592E+03  0.00000000000E+00 0.  1.
          1    1    1    2  502    0  0.92184948674E+01 -0.22194039598E+02 -0.11956488863E+03  0.12195621606E+03  0.00000000000E+00 0. -1.
         -1    1    1    2    0  501 -0.92184948674E+01  0.22194039598E+02 -0.17231101365E+03  0.17397885350E+03  0.00000000000E+00 0.  1.
</event>
<event>
 4    1  0.6729064E+001  0.2008300E+02  0.7546771E-02  0.1532771E+00
          2   -1    0    0  502    0  0.00000000000E+00  0.00000000000E+00  0.19349021843E+01  0.19349021843E+01  0.00000000000E+00 0.  1.
         -2   -1    0    0    0  501 -0.00000000000E+00 -0.00000000000E+00 -0.21221656006E+03  0.21221656006E+03  0.00000000000E+00 0. -1.
          1    1    1    2  502    0  0.20047111457E+02  0.12001218855E+01 -0.90872443082E+02  0.93065180825E+02  0.00000000000E+00 0.  1.
         -1    1    1    2    0  501 -0.20047111457E+02 -0.12001218855E+01 -0.11940921479E+03  0.12108628142E+03  0.00000000000E+00 0. -1.
</event>
<event>
 4    1  0.6729064E+001  0.2276837E+02  0.7546771E-02  0.1495427E+00
          2   -1    0    0  502    0  0.00000000000E+00  0.00000000000E+00  0.10923363477E+02  0.10923363477E+02  0.00000000000E+00 0. -1.
         -2   -1    0    0    0  501 -0.00000000000E+00 -0.00000000000E+00 -0.47642525912E+02  0.47642525912E+02  0.00000000000E+00 0.  1.
          1    1    1    2  502    0  0.22636553301E+02 -0.24464911130E+01 -0.16536213401E+02  0.28139744451E+02  0.00000000000E+00 0.  1.
         -1    1    1    2    0  501 -0.22636553301E+02  0.24464911130E+01 -0.20182949035E+02  0.30426144939E+02  0.00000000000E+00 0. -1.
</event>
<event>
 4    1  0.6729064E+001  0.2438770E+02  0.7546771E-02  0.1475771E+00
          2   -1    0    0  502    0  0.00000000000E+00  0.00000000000E+00  0.16534170711E+01  0.16534170711E+01  0.00000000000E+00 0. -1.
         -2   -1    0    0    0  501 -0.00000000000E+00 -0.00000000000E+00 -0.36857680646E+03  0.36857680646E+03  0.00000000000E+00 0.  1.
          1    1    1    2  502    0  0.13031233479E+02  0.20614240441E+02 -0.21216445670E+03  0.21356150553E+03  0.00000000000E+00 0.  1.
         -1    1    1    2    0  501 -0.13031233479E+02 -0.20614240441E+02 -0.15475893268E+03  0.15666871800E+03  0.00000000000E+00 0. -1.
</event>
<event>
 4    1  0.6729064E+001  0.1239635E+03  0.7546771E-02  0.1127754E+00
          2   -1    0    0  502    0  0.00000000000E+00  0.00000000000E+00  0.76891188370E+03  0.76891188370E+03  0.00000000000E+00 0. -1.
         -2   -1    0    0    0  501 -0.00000000000E+00 -0.00000000000E+00 -0.19994277905E+02  0.19994277905E+02  0.00000000000E+00 0.  1.
          1    1    1    2  502    0 -0.32899751290E+02 -0.11951805724E+03  0.36611540305E+03  0.38653259628E+03  0.00000000000E+00 0.  1.
         -1    1    1    2    0  501  0.32899751290E+02  0.11951805724E+03  0.38280220275E+03  0.40237356532E+03  0.00000000000E+00 0. -1.
</event>
<event>
 4    1  0.6729064E+001  0.2243695E+02  0.7546771E-02  0.1499692E+00
          2   -1    0    0  502    0  0.00000000000E+00  0.00000000000E+00  0.40294045151E+02  0.40294045151E+02  0.00000000000E+00 0. -1.
         -2   -1    0    0    0  501 -0.00000000000E+00 -0.00000000000E+00 -0.14678711250E+02  0.14678711250E+02  0.00000000000E+00 0.  1.
          1    1    1    2  502    0 -0.21579895525E+02  0.61420680152E+01  0.23412706300E+02  0.32427946384E+02  0.00000000000E+00 0. -1.
         -1    1    1    2    0  501  0.21579895525E+02 -0.61420680152E+01  0.22026276009E+01  0.22544810017E+02  0.00000000000E+00 0.  1.
</event>
<event>
 4    1  0.6729064E+001  0.2950145E+02  0.7546771E-02  0.1423979E+00
          2   -1    0    0  502    0  0.00000000000E+00  0.00000000000E+00  0.37524938587E+03  0.37524938587E+03  0.00000000000E+00 0.  1.
         -2   -1    0    0    0  501 -0.00000000000E+00 -0.00000000000E+00 -0.29548992501E+01  0.29548992501E+01  0.00000000000E+00 0. -1.
          1    1    1    2  502    0 -0.27371119874E+02 -0.11007144087E+02  0.98447358486E+02  0.10277265111E+03  0.00000000000E+00 0. -1.
         -1    1    1    2    0  501  0.27371119874E+02  0.11007144087E+02  0.27384712813E+03  0.27543163401E+03  0.00000000000E+00 0.  1.
</event>
<event>
 4    1  0.6729064E+001  0.2118812E+02  0.7546771E-02  0.1516596E+00
          2   -1    0    0  502    0  0.00000000000E+00  0.00000000000E+00  0.30314154590E+02  0.30314154590E+02  0.00000000000E+00 0.  1.
         -2   -1    0    0    0  501 -0.00000000000E+00 -0.00000000000E+00 -0.16304642628E+02  0.16304642628E+02  0.00000000000E+00 0. -1.
          1    1    1    2  502    0 -0.11454821799E+02  0.17824794423E+02  0.14063422254E+02  0.25430613130E+02  0.00000000000E+00 0.  1.
         -1    1    1    2    0  501  0.11454821799E+02 -0.17824794423E+02 -0.53910291548E-01  0.21188184089E+02  0.00000000000E+00 0. -1.
</event>
<event>
 4    1  0.6729064E+001  0.2470214E+02  0.7546771E-02  0.1472163E+00
          2   -1    0    0  502    0  0.00000000000E+00  0.00000000000E+00  0.82444659886E+01  0.82444659886E+01  0.00000000000E+00 0. -1.
         -2   -1    0    0    0  501 -0.00000000000E+00 -0.00000000000E+00 -0.96513634445E+02  0.96513634445E+02  0.00000000000E+00 0.  1.
          1    1    1    2  502    0 -0.17891383512E+02  0.17032154013E+02 -0.18843773135E+02  0.31069014472E+02  0.00000000000E+00 0.  1.
         -1    1    1    2    0  501  0.17891383512E+02 -0.17032154013E+02 -0.69425395322E+02  0.73689085962E+02  0.00000000000E+00 0. -1.
</event>
<event>
 4    1  0.6729064E+001  0.2131273E+02  0.7546771E-02  0.1514846E+00
          2   -1    0    0  502    0  0.00000000000E+00  0.00000000000E+00  0.30931290388E+01  0.30931290388E+01  0.00000000000E+00 0.  1.
         -2   -1    0    0    0  501 -0.00000000000E+00 -0.00000000000E+00 -0.14699660708E+03  0.14699660708E+03  0.00000000000E+00 0. -1.
          1    1    1    2  502    0 -0.14617376119E+02  0.15510152832E+02 -0.74304604287E+02  0.77300755130E+02  0.00000000000E+00 0. -1.
         -1    1    1    2    0  501  0.14617376119E+02 -0.15510152832E+02 -0.69598873750E+02  0.72788980984E+02  0.00000000000E+00 0.  1.
</event>
<event>
 4    1  0.6729064E+001  0.2328908E+02  0.7546771E-02  0.1488900E+00
          2   -1    0    0  502    0  0.00000000000E+00  0.00000000000E+00  0.37986848858E+01  0.37986848858E+01  0.00000000000E+00 0.  1.
         -2   -1    0    0    0  501 -0.00000000000E+00 -0.00000000000E+00 -0.14290431260E+03  0.14290431260E+03  0.00000000000E+00 0. -1.
          1    1    1    2  502    0  0.97119486049E+01  0.21167407893E+02 -0.67400573823E+02  0.71310717667E+02  0.00000000000E+00 0. -1.
         -1    1    1    2    0  501 -0.97119486049E+01 -0.21167407893E+02 -0.71705053892E+02  0.75392279818E+02  0.00000000000E+00 0.  1.
</event>
<event>
 4    1  0.6729064E+001  0.2184236E+02  0.7546771E-02  0.1507570E+00
          2   -1    0    0  502    0  0.00000000000E+00  0.00000000000E+00  0.41039700581E+02  0.41039700581E+02  0.00000000000E+00 0. -1.
         -2   -1    0    0    0  501 -0.00000000000E+00 -0.00000000000E+00 -0.16160976511E+02  0.16160976511E+02  0.00000000000E+00 0.  1.
          1    1    1    2  502    0  0.21098676724E+02 -0.56510744357E+01 -0.27126431518E+01  0.22010162077E+02  0.00000000000E+00 0.  1.
         -1    1    1    2    0  501 -0.21098676724E+02  0.56510744357E+01  0.27591367222E+02  0.35190515014E+02  0.00000000000E+00 0. -1.
</event>
<event>
 4    1  0.6729064E+001  0.2068045E+02  0.7546771E-02  0.1523877E+00
          2   -1    0    0  502    0  0.00000000000E+00  0.00000000000E+00  0.15440181735E+04  0.15440181735E+04  0.00000000000E+00 0. -1.
         -2   -1    0    0    0  501 -0.00000000000E+00 -0.00000000000E+00 -0.74719916007E+00  0.74719916007E+00  0.00000000000E+00 0.  1.
          1    1    1    2  502    0 -0.20419566808E+02  0.32744745540E+01  0.13843510321E+04  0.13845054933E+04  0.00000000000E+00 0. -1.
         -1    1    1    2    0  501  0.20419566808E+02 -0.32744745540E+01  0.15891994231E+03  0.16025987943E+03  0.00000000000E+00 0.  1.
</event>
<event>
 4    1  0.6729064E+001  0.2889200E+02  0.7546771E-02  0.1429476E+00
          2   -1    0    0  502    0  0.00000000000E+00  0.00000000000E+00  0.12452734738E+04  0.12452734738E+04  0.00000000000E+00 0.  1.
         -2   -1    0    0    0  501 -0.00000000000E+00 -0.00000000000E+00 -0.81603746319E+00  0.81603746319E+00  0.00000000000E+00 0. -1.
          1    1    1    2  502    0  0.40410482472E+01 -0.28607994602E+02  0.35895882620E+03  0.36011968334E+03  0.00000000000E+00 0.  1.
         -1    1    1    2    0  501 -0.40410482472E+01  0.28607994602E+02  0.88549861012E+03  0.88596982790E+03  0.00000000000E+00 0. -1.
</event>
<event>
 4    1  0.6729064E+001  0.2188395E+02  0.7546771E-02  0.1507009E+00
          2   -1    0    0  502    0  0.00000000000E+00  0.00000000000E+00  0.15605036133E+02  0.15605036133E+02  0.00000000000E+00 0.  1.
         -2   -1    0    0    0  501 -0.00000000000E+00 -0.00000000000E+00 -0.32596694555E+02  0.32596694555E+02  0.00000000000E+00 0. -1.
          1    1    1    2  502    0  0.21006676972E+02 -0.61340513843E+01 -0.14325852559E+02  0.26156014898E+02  0.00000000000E+00 0. -1.
         -1    1    1    2    0  501 -0.21006676972E+02  0.61340513843E+01 -0.26658058632E+01  0.22045715790E+02  0.00000000000E+00 0.  1.
</event>
<event>
 4    1  0.6729064E+001  0.2280397E+02  0.7546771E-02  0.1494975E+00
          2   -1    0    0  502    0  0.00000000000E+00  0.00000000000E+00  0.23013926239E+01  0.23013926239E+01  0.00000000000E+00 0.  1.
         -2   -1    0    0    0  501 -0.00000000000E+00 -0.00000000000E+00 -0.24969100038E+03  0.24969100038E+03  0.00000000000E+00 0. -1.
          1    1    1    2  502    0  0.11667142064E+02  0.19593331317E+02 -0.84851037427E+02  0.87861933672E+02  0.00000000000E+00 0. -1.
         -1    1    1    2    0  501 -0.11667142064E+02 -0.19593331317E+02 -0.16253857033E+03  0.16413045933E+03  0.00000000000E+00 0.  1.
</event>
<event>
 4    1  0.6729064E+001  0.2006983E+02  0.7546771E-02  0.1532971E+00
          2   -1    0    0  502    0  0.00000000000E+00  0.00000000000E+00  0.24710198278E+01  0.24710198278E+01  0.00000000000E+00 0.  1.
         -2   -1    0    0    0  501 -0.00000000000E+00 -0.00000000000E+00 -0.26899056913E+03  0.26899056913E+03  0.00000000000E+00 0. -1.
          1    1    1    2  502    0 -0.70239648691E+01 -0.18800580617E+02 -0.48062539952E+02  0.52084600994E+02  0.00000000000E+00 0.  1.
         -1    1    1    2    0  501  0.70239648691E+01  0.18800580617E+02 -0.21845700935E+03  0.21937698797E+03  0.00000000000E+00 0. -1.
</event>
<event>
 4    1  0.6729064E+001  0.2525557E+02  0.7546771E-02  0.1465965E+00
          2   -1    0    0  502    0  0.00000000000E+00  0.00000000000E+00  0.14269785901E+04  0.14269785901E+04  0.00000000000E+00 0.  1.
         -2   -1    0    0    0  501 -0.00000000000E+00 -0.00000000000E+00 -0.53756299526E+00  0.53756299526E+00  0.00000000000E+00 0. -1.
          1    1    1    2  502    0 -0.20854356021E+02  0.14245688621E+02  0.42024050502E+03  0.42099872431E+03  0.00000000000E+00 0. -1.
         -1    1    1    2    0  501  0.20854356021E+02 -0.14245688621E+02  0.10062005221E+04  0.10065174288E+04  0.00000000000E+00 0.  1.
</event>
<event>
 4    1  0.6729064E+001  0.2243685E+02  0.7546771E-02  0.1499693E+00
          2   -1    0    0  502    0  0.00000000000E+00  0.00000000000E+00  0.59317278401E+01  0.59317278401E+01  0.00000000000E+00 0.  1.
         -2   -1    0    0    0  501 -0.00000000000E+00 -0.00000000000E+00 -0.10482995894E+03  0.10482995894E+03  0.00000000000E+00 0. -1.
          1    1    1    2  502    0 -0.10756097589E+02 -0.19690575805E+02 -0.25282205395E+02  0.33802401106E+02  0.00000000000E+00 0.  1.
         -1    1    1    2    0  501  0.10756097589E+02  0.19690575805E+02 -0.73616025702E+02  0.76959285672E+02  0.00000000000E+00 0. -1.
</event>
<event>
 4    1  0.6729064E+001  0.2666113E+02  0.7546771E-02  0.1451042E+00
          2   -1    0    0  502    0  0.00000000000E+00  0.00000000000E+00  0.11695103267E+04  0.11695103267E+04  0.00000000000E+00 0. -1.
         -2   -1    0    0    0  501 -0.00000000000E+00 -0.00000000000E+00 -0.73314501605E+00  0.73314501605E+00  0.00000000000E+00 0.  1.
          1    1    1    2  502    0  0.25358820857E+02 -0.82308104212E+01  0.34243999647E+03  0.34347629790E+03  0.00000000000E+00 0.  1.
         -1    1    1    2    0  501 -0.25358820857E+02  0.82308104212E+01  0.82633718519E+03  0.82676717379E+03  0.00000000000E+00 0. -1.
</event>
<event>
 4    1  0.6729064E+001  0.2424493E+02  0.7546771E-02  0.1477430E+00
          2   -1    0    0  502    0  0.00000000000E+00  0.00000000000E+00  0.55098754845E+01  0.55098754845E+01  0.00000000000E+00 0.  1.
         -2   -1    0    0    0  501 -0.00000000000E+00 -0.00000000000E+00 -0.12973821142E+03  0.12973821142E+03  0.00000000000E+00 0. -1.
          1    1    1    2  502    0  0.22124683170E+02  0.99153972639E+01 -0.33607900995E+02  0.41440411648E+02  0.00000000000E+00 0. -1.
         -1    1    1    2    0  501 -0.22124683170E+02 -0.99153972639E+01 -0.90620434945E+02  0.93807675261E+02  0.00000000000E+00 0.  1.
</event>
<event>
 4    1  0.6729064E+001  0.2229108E+02  0.7546771E-02  0.1501597E+00
          2   -1    0    0  502    0  0.00000000000E+00  0.00000000000E+00  0.48445734034E+03  0.48445734034E+03  0.00000000000E+00 0. -1.
         -2   -1    0    0    0  501 -0.00000000000E+00 -0.00000000000E+00 -0.11706863565E+01  0.11706863565E+01  0.00000000000E+00 0.  1.
          1    1    1    2  502    0  0.19276996355E+02 -0.11193281252E+02  0.32710389099E+03  0.32786254381E+03  0.00000000000E+00 0. -1.
         -1    1    1    2    0  501 -0.19276996355E+02  0.11193281252E+02  0.15618276299E+03  0.15776548288E+03  0.00000000000E+00 0.  1.
</event>
<event>
 4    1  0.6729064E+001  0.3732406E+02  0.7546771E-02  0.1364923E+00
          2   -1    0    0  502    0  0.00000000000E+00  0.00000000000E+00  0.36232854048E+03  0.36232854048E+03  0.00000000000E+00 0.  1.
         -2   -1    0    0    0  501 -0.00000000000E+00 -0.00000000000E+00 -0.13777278122E+02  0.13777278122E+02  0.00000000000E+00 0. -1.
          1    1    1    2  502    0  0.13852418391E+02 -0.34658279394E+02  0.14604336232E+02  0.40079576627E+02  0.00000000000E+00 0. -1.
         -1    1    1    2    0  501 -0.13852418391E+02  0.34658279394E+02  0.33394692613E+03  0.33602624198E+03  0.00000000000E+00 0.  1.
</event>
<event>
 4    1  0.6729064E+001  0.2850937E+02  0.7546771E-02  0.1433008E+00
          2   -1    0    0  502    0  0.00000000000E+00  0.00000000000E+00  0.15327109427E+03  0.15327109427E+03  0.00000000000E+00 0.  1.
         -2   -1    0    0    0  501 -0.00000000000E+00 -0.00000000000E+00 -0.53523691605E+01  0.53523691605E+01  0.00000000000E+00 0. -1.
          1    1    1    2  502    0 -0.28438288656E+02  0.20119738163E+01  0.66336021998E+02  0.72202853924E+02  0.00000000000E+00 0.  1.
         -1    1    1    2    0  501  0.28438288656E+02 -0.20119738163E+01  0.81582703108E+02  0.86420609502E+02  0.00000000000E+00 0. -1.
</event>
<event>
 4    1  0.6729064E+001  0.2735043E+02  0.7546771E-02  0.1444119E+00
          2   -1    0    0  502    0  0.00000000000E+00  0.00000000000E+00  0.31832392642E+01  0.31832392642E+01  0.00000000000E+00 0.  1.
         -2   -1    0    0    0  501 -0.00000000000E+00 -0.00000000000E+00 -0.27859223700E+03  0.27859223700E+03  0.00000000000E+00 0. -1.
          1    1    1    2  502    0  0.10455143281E+02  0.25273231442E+02 -0.81970948745E+02  0.86413440428E+02  0.00000000000E+00 0. -1.
         -1    1    1    2    0  501 -0.10455143281E+02 -0.25273231442E+02 -0.19343804899E+03  0.19536203583E+03  0.00000000000E+00 0.  1.
</event>
<event>
 4    1  0.6729064E+001  0.5398910E+02  0.7546771E-02  0.1281746E+00
          2   -1    0    0  502    0  0.00000000000E+00  0.00000000000E+00  0.14395167030E+03  0.14395167030E+03  0.00000000000E+00 0.  1.
         -2   -1    0    0    0  501 -0.00000000000E+00 -0.00000000000E+00 -0.27511049414E+02  0.27511049414E+02  0.00000000000E+00 0. -1.
          1    1    1    2  502    0  0.37132210131E+02 -0.39192113502E+02  0.10226839943E+03  0.11564449105E+03  0.00000000000E+00 0. -1.
         -1    1    1    2    0  501 -0.37132210131E+02  0.39192113502E+02  0.14172221465E+02  0.55818228664E+02  0.00000000000E+00 0.  1.
</event>
<event>
 4    1  0.6729064E+001  0.3943948E+02  0.7546771E-02  0.1351802E+00
          2   -1    0    0  502    0  0.00000000000E+00  0.00000000000E+00  0.16920883748E+04  0.16920883748E+04  0.00000000000E+00 0. -1.
         -2   -1    0    0    0  501 -0.00000000000E+00 -0.00000000000E+00 -0.19857628596E+01  0.19857628596E+01  0.00000000000E+00 0.  1.
          1    1    1    2  502    0  0.32500639723E+02 -0.22342357918E+02  0.22429758676E+03  0.22773862203E+03  0.00000000000E+00 0.  1.
         -1    1    1    2    0  501 -0.32500639723E+02  0.22342357918E+02  0.14658050252E+04  0.14663355157E+04  0.00000000000E+00 0. -1.
</event>
<event>
 4    1  0.6729064E+001  0.4002919E+02  0.7546771E-02  0.1348315E+00
          2   -1    0    0  502    0  0.00000000000E+00  0.00000000000E+00  0.13289026767E+04  0.13289026767E+04  0.00000000000E+00 0.  1.
         -2   -1    0    0    0  501 -0.00000000000E+00 -0.00000000000E+00 -0.12279212367E+01  0.12279212367E+01  0.00000000000E+00 0. -1.
          1    1    1    2  502    0  0.30879299855E+02  0.25471652737E+02  0.75318574851E+03  0.75424870435E+03  0.00000000000E+00 0.  1.
         -1    1    1    2    0  501 -0.30879299855E+02 -0.25471652737E+02  0.57448900696E+03  0.57588189360E+03  0.00000000000E+00 0. -1.
</event>
<event>
 4    1  0.6729064E+001  0.2128565E+02  0.7546771E-02  0.1515225E+00
          2   -1    0    0  502    0  0.00000000000E+00  0.00000000000E+00  0.55574245197E+02  0.55574245197E+02  0.00000000000E+00 0.  1.
         -2   -1    0    0    0  501 -0.00000000000E+00 -0.00000000000E+00 -0.18877195724E+02  0.18877195724E+02  0.00000000000E+00 0. -1.
          1    1    1    2  502    0 -0.10136070786E+02  0.18717343304E+02  0.46406949016E+02  0.51055693006E+02  0.00000000000E+00 0.  1.
         -1    1    1    2    0  501  0.10136070786E+02 -0.18717343304E+02 -0.97098995441E+01  0.23395747915E+02  0.00000000000E+00 0. -1.
</event>
<event>
 4    1  0.6729064E+001  0.1013905E+03  0.7546771E-02  0.1161420E+00
          2   -1    0    0  502    0  0.00000000000E+00  0.00000000000E+00  0.12931265925E+02  0.12931265925E+02  0.00000000000E+00 0. -1.
         -2   -1    0    0    0  501 -0.00000000000E+00 -0.00000000000E+00 -0.82856412501E+03  0.82856412501E+03  0.00000000000E+00 0.  1.
          1    1    1    2  502    0 -0.37390433879E+02  0.94244290878E+02 -0.49253120000E+03  0.50285884091E+03  0.00000000000E+00 0.  1.
         -1    1    1    2    0  501  0.37390433879E+02 -0.94244290878E+02 -0.32310165908E+03  0.33863655002E+03  0.00000000000E+00 0. -1.
</event>
<event>
 4    1  0.6729064E+001  0.2606485E+02  0.7546771E-02  0.1457235E+00
          2   -1    0    0  502    0  0.00000000000E+00  0.00000000000E+00  0.72244074819E+01  0.72244074819E+01  0.00000000000E+00 0. -1.
         -2   -1    0    0    0  501 -0.00000000000E+00 -0.00000000000E+00 -0.12241732029E+03  0.12241732029E+03  0.00000000000E+00 0.  1.
          1    1    1    2  502    0 -0.22561157000E+02 -0.13052616701E+02 -0.26387004766E+02  0.37089764470E+02  0.00000000000E+00 0. -1.
         -1    1    1    2    0  501  0.22561157000E+02  0.13052616701E+02 -0.88805908047E+02  0.92551963307E+02  0.00000000000E+00 0.  1.
</event>
<event>
 4    1  0.6729064E+001  0.2286482E+02  0.7546771E-02  0.1494203E+00
          2   -1    0    0  502    0  0.00000000000E+00  0.00000000000E+00  0.42553956659E+01  0.42553956659E+01  0.00000000000E+00 0.  1.
         -2   -1    0    0    0  501 -0.00000000000E+00 -0.00000000000E+00 -0.12910720384E+03  0.12910720384E+03  0.00000000000E+00 0. -1.
          1    1    1    2  502    0  0.22161685200E+02 -0.56267104195E+01 -0.77098825755E+02  0.80417840644E+02  0.00000000000E+00 0. -1.
         -1    1    1    2    0  501 -0.22161685200E+02  0.56267104195E+01 -0.47752982419E+02  0.52944758862E+02  0.00000000000E+00 0.  1.
</event>
<event>
 4    1  0.6729064E+001  0.3165611E+02  0.7546771E-02  0.1405731E+00
          2   -1    0    0  502    0  0.00000000000E+00  0.00000000000E+00  0.26521775922E+02  0.26521775922E+02  0.00000000000E+00 0. -1.
         -2   -1    0    0    0  501 -0.00000000000E+00 -0.00000000000E+00 -0.87269262533E+02  0.87269262533E+02  0.00000000000E+00 0.  1.
          1    1    1    2  502    0  0.26913171574E+02 -0.16667038990E+02  0.12469630390E+02  0.34023531194E+02  0.00000000000E+00 0. -1.
         -1    1    1    2    0  501 -0.26913171574E+02  0.16667038990E+02 -0.73217117001E+02  0.79767507262E+02  0.00000000000E+00 0.  1.
</event>
<event>
 4    1  0.6729064E+001  0.4454041E+02  0.7546771E-02  0.1323754E+00
          2   -1    0    0  502    0  0.00000000000E+00  0.00000000000E+00  0.23052023923E+04  0.23052023923E+04  0.00000000000E+00 0.  1.
         -2   -1    0    0    0  501 -0.00000000000E+00 -0.00000000000E+00 -0.19396570538E+01  0.19396570538E+01  0.00000000000E+00 0. -1.
          1    1    1    2  502    0  0.27877021649E+02  0.34737877134E+02  0.20120401416E+04  0.20125330755E+04  0.00000000000E+00 0.  1.
         -1    1    1    2    0  501 -0.27877021649E+02 -0.34737877134E+02  0.29122259363E+03  0.29460897387E+03  0.00000000000E+00 0. -1.
</event>
<event>
 4    1  0.6729064E+001  0.4079400E+02  0.7546771E-02  0.1343895E+00
          2   -1    0    0  502    0  0.00000000000E+00  0.00000000000E+00  0.51452016235E+03  0.51452016235E+03  0.00000000000E+00 0. -1.
         -2   -1    0    0    0  501 -0.00000000000E+00 -0.00000000000E+00 -0.34310008066E+01  0.34310008066E+01  0.00000000000E+00 0.  1.
          1    1    1    2  502    0 -0.26318611743E+02  0.31168592112E+02  0.19354765562E+03  0.19780001378E+03  0.00000000000E+00 0.  1.
         -1    1    1    2    0  501  0.26318611743E+02 -0.31168592112E+02  0.31754150593E+03  0.32015114938E+03  0.00000000000E+00 0. -1.
</event>
<event>
 4    1  0.6729064E+001  0.2884227E+02  0.7546771E-02  0.1429931E+00
          2   -1    0    0  502    0  0.00000000000E+00  0.00000000000E+00  0.13631686014E+04  0.13631686014E+04  0.00000000000E+00 0.  1.
         -2   -1    0    0    0  501 -0.00000000000E+00 -0.00000000000E+00 -0.61135371734E+00  0.61135371734E+00  0.00000000000E+00 0. -1.
          1    1    1    2  502    0  0.64065283848E+01 -0.28121754096E+02  0.65233448686E+03  0.65297179067E+03  0.00000000000E+00 0. -1.
         -1    1    1    2    0  501 -0.64065283848E+01  0.28121754096E+02  0.71022276083E+03  0.71080816446E+03  0.00000000000E+00 0.  1.
</event>
<event>
 4    1  0.6729064E+001  0.2949937E+02  0.7546771E-02  0.1423997E+00
          2   -1    0    0  502    0  0.00000000000E+00  0.00000000000E+00  0.14504001903E+02  0.14504001903E+02  0.00000000000E+00 0.  1.
         -2   -1    0    0    0  501 -0.00000000000E+00 -0.00000000000E+00 -0.97939300808E+02  0.97939300808E+02  0.00000000000E+00 0. -1.
          1    1    1    2  502    0 -0.28138113322E+02  0.88577469874E+01 -0.67247105639E+01  0.30256153675E+02  0.00000000000E+00 0.  1.
         -1    1    1    2    0  501  0.28138113322E+02 -0.88577469874E+01 -0.76710588341E+02  0.82187149036E+02  0.00000000000E+00 0. -1.
</event>
<event>
 4    1  0.6729064E+001  0.2523680E+02  0.7546771E-02  0.1466172E+00
          2   -1    0    0  502    0  0.00000000000E+00  0.00000000000E+00  0.22491673706E+04  0.22491673706E+04  0.00000000000E+00 0. -1.
         -2   -1    0    0    0  501 -0.00000000000E+00 -0.00000000000E+00 -0.35099693892E+00  0.35099693892E+00  0.00000000000E+00 0.  1.
          1    1    1    2  502    0  0.25190252724E+02  0.15320685686E+01  0.16188440096E+04  0.16190407109E+04  0.00000000000E+00 0. -1.
         -1    1    1    2    0  501 -0.25190252724E+02 -0.15320685686E+01  0.62997236405E+03  0.63047765665E+03  0.00000000000E+00 0.  1.
</event>
<event>
 4    1  0.6729064E+001  0.2203931E+02  0.7546771E-02  0.1504927E+00
          2   -1    0    0  502    0  0.00000000000E+00  0.00000000000E+00  0.21644547378E+03  0.21644547378E+03  0.00000000000E+00 0.  1.
         -2   -1    0    0    0  501 -0.00000000000E+00 -0.00000000000E+00 -0.32566990287E+01  0.32566990287E+01  0.00000000000E+00 0. -1.
          1    1    1    2  502    0  0.15675593973E+02 -0.15492158685E+02  0.45341239485E+02  0.50413879291E+02  0.00000000000E+00 0. -1.
         -1    1    1    2    0  501 -0.15675593973E+02  0.15492158685E+02  0.16784753526E+03  0.16928829351E+03  0.00000000000E+00 0.  1.
</event>
<event>
 4    1  0.6729064E+001  0.5409415E+02  0.7546771E-02  0.1281335E+00
          2   -1    0    0  502    0  0.00000000000E+00  0.00000000000E+00  0.77031354713E+02  0.77031354713E+02  0.00000000000E+00 0. -1.
         -2   -1    0    0    0  501 -0.00000000000E+00 -0.00000000000E+00 -0.39786934037E+02  0.39786934037E+02  0.00000000000E+00 0.  1.
          1    1    1    2  502    0  0.42439144480E+02  0.33542455400E+02  0.61982829149E+01  0.54448103819E+02  0.00000000000E+00 0.  1.
         -1    1    1    2    0  501 -0.42439144480E+02 -0.33542455400E+02  0.31046137761E+02  0.62370184931E+02  0.00000000000E+00 0. -1.
</event>
<event>
 4    1  0.6729064E+001  0.2051537E+02  0.7546771E-02  0.1526298E+00
          2   -1    0    0  502    0  0.00000000000E+00  0.00000000000E+00  0.43294099738E+01  0.43294099738E+01  0.00000000000E+00 0. -1.
         -2   -1    0    0    0  501 -0.00000000000E+00 -0.00000000000E+00 -0.10583323808E+03  0.10583323808E+03  0.00000000000E+00 0.  1.
          1    1    1    2  502    0  0.19454762587E+01 -0.20422918125E+02 -0.35033063816E+02  0.40597980528E+02  0.00000000000E+00 0. -1.
         -1    1    1    2    0  501 -0.19454762587E+01  0.20422918125E+02 -0.66470764290E+02  0.69564667525E+02  0.00000000000E+00 0.  1.
</event>
<event>
 4    1  0.6729064E+001  0.2057894E+02  0.7546771E-02  0.1525362E+00
          2   -1    0    0  502    0  0.00000000000E+00  0.00000000000E+00  0.10672849100E+02  0.10672849100E+02  0.00000000000E+00 0.  1.
         -2   -1    0    0    0  501 -0.00000000000E+00 -0.00000000000E+00 -0.43198346207E+02  0.43198346207E+02  0.00000000000E+00 0. -1.
          1    1    1    2  502    0  0.12145986952E+02 -0.16612274193E+02 -0.23950459258E+02  0.31577161867E+02  0.00000000000E+00 0.  1.
         -1    1    1    2    0  501 -0.12145986952E+02  0.16612274193E+02 -0.85750378494E+01  0.22294033440E+02  0.00000000000E+00 0. -1.
</event>
<event>
 4    1  0.6729064E+001  0.8052104E+02  0.7546771E-02  0.1202643E+00
          2   -1    0    0  502    0  0.00000000000E+00  0.00000000000E+00  0.98396859398E+03  0.98396859398E+03  0.00000000000E+00 0. -1.
         -2   -1    0    0    0  501 -0.00000000000E+00 -0.00000000000E+00 -0.65938681789E+01  0.65938681789E+01  0.00000000000E+00 0.  1.
          1    1    1    2  502    0  0.12905841399E+02 -0.79480039348E+02  0.50176252193E+03  0.50818231553E+03  0.00000000000E+00 0. -1.
         -1    1    1    2    0  501 -0.12905841399E+02  0.79480039348E+02  0.47561220386E+03  0.48238014663E+03  0.00000000000E+00 0.  1.
</event>
<event>
 4    1  0.6729064E+001  0.2269979E+02  0.7546771E-02  0.1496303E+00
          2   -1    0    0  502    0  0.00000000000E+00  0.00000000000E+00  0.56819829166E+02  0.56819829166E+02  0.00000000000E+00 0.  1.
         -2   -1    0    0    0  501 -0.00000000000E+00 -0.00000000000E+00 -0.10261337727E+02  0.10261337727E+02  0.00000000000E+00 0. -1.
          1    1    1    2  502    0 -0.69165998682E+01 -0.21620389483E+02  0.11844478010E+02  0.25604145260E+02  0.00000000000E+00 0. -1.
         -1    1    1    2    0  501  0.69165998682E+01  0.21620389483E+02  0.34714013429E+02  0.41477021633E+02  0.00000000000E+00 0.  1.
</event>
<event>
 4    1  0.6729064E+001  0.2188186E+02  0.7546771E-02  0.1507037E+00
          2   -1    0    0  502    0  0.00000000000E+00  0.00000000000E+00  0.13956796785E+01  0.13956796785E+01  0.00000000000E+00 0. -1.
         -2   -1    0    0    0  501 -0.00000000000E+00 -0.00000000000E+00 -0.34905596359E+03  0.34905596359E+03  0.00000000000E+00 0.  1.
          1    1    1    2  502    0 -0.17246708939E+02  0.13467254221E+02 -0.15088368814E+03  0.15246213711E+03  0.00000000000E+00 0.  1.
         -1    1    1    2    0  501  0.17246708939E+02 -0.13467254221E+02 -0.19677659577E+03  0.19798950616E+03  0.00000000000E+00 0. -1.
</event>
<event>
 4    1  0.6729064E+001  0.2895397E+02  0.7546771E-02  0.1428909E+00
          2   -1    0    0  502    0  0.00000000000E+00  0.00000000000E+00  0.23885184998E+02  0.23885184998E+02  0.00000000000E+00 0.  1.
         -2   -1    0    0    0  501 -0.00000000000E+00 -0.00000000000E+00 -0.55483869590E+02  0.55483869590E+02  0.00000000000E+00 0. -1.
          1    1    1    2  502    0 -0.27155970069E+02 -0.10044182206E+02 -0.39853932594E+02  0.49261224607E+02  0.00000000000E+00 0. -1.
         -1    1    1    2    0  501  0.27155970069E+02  0.10044182206E+02  0.82552480020E+01  0.30107829981E+02  0.00000000000E+00 0.  1.
</event>
<event>
 4    1  0.6729064E+001  0.2531655E+02  0.7546771E-02  0.1465293E+00
          2   -1    0    0  502    0  0.00000000000E+00  0.00000000000E+00  0.38036595270E+03  0.38036595270E+03  0.00000000000E+00 0. -1.
         -2   -1    0    0    0  501 -0.00000000000E+00 -0.00000000000E+00 -0.83320051394E+01  0.83320051394E+01  0.00000000000E+00 0.  1.
          1    1    1    2  502    0 -0.11180777057E+02  0.22713823180E+02  0.35960492166E+03  0.36049497530E+03  0.00000000000E+00 0. -1.
         -1    1    1    2    0  501  0.11180777057E+02 -0.22713823180E+02  0.12429025904E+02  0.28202982537E+02  0.00000000000E+00 0.  1.
</event>
<event>
 4    1  0.6729064E+001  0.2397069E+02  0.7546771E-02  0.1480656E+00
          2   -1    0    0  502    0  0.00000000000E+00  0.00000000000E+00  0.52534084065E+00  0.52534084065E+00  0.00000000000E+00 0. -1.
         -2   -1    0    0    0  501 -0.00000000000E+00 -0.00000000000E+00 -0.18623371451E+04  0.18623371451E+04  0.00000000000E+00 0.  1.
          1    1    1    2  502    0 -0.23658748940E+02 -0.38545515444E+01 -0.15292718947E+04  0.15294597483E+04  0.00000000000E+00 0.  1.
         -1    1    1    2    0  501  0.23658748940E+02  0.38545515444E+01 -0.33253990963E+03  0.33340273764E+03  0.00000000000E+00 0. -1.
</event>
<event>
 4    1  0.6729064E+001  0.2288076E+02  0.7546771E-02  0.1494001E+00
          2   -1    0    0  502    0  0.00000000000E+00  0.00000000000E+00  0.29237766518E+01  0.29237766518E+01  0.00000000000E+00 0. -1.
         -2   -1    0    0    0  501 -0.00000000000E+00 -0.00000000000E+00 -0.22540353279E+03  0.22540353279E+03  0.00000000000E+00 0.  1.
          1    1    1    2  502    0 -0.28477818864E+01 -0.22702843358E+02 -0.16300605134E+03  0.16460407568E+03  0.00000000000E+00 0.  1.
         -1    1    1    2    0  501  0.28477818864E+01  0.22702843358E+02 -0.59473704800E+02  0.63723233760E+02  0.00000000000E+00 0. -1.
</event>
<event>
 4    1  0.6729064E+001  0.3122675E+02  0.7546771E-02  0.1409227E+00
          2   -1    0    0  502    0  0.00000000000E+00  0.00000000000E+00  0.17629756455E+01  0.17629756455E+01  0.00000000000E+00 0.  1.
         -2   -1    0    0    0  501 -0.00000000000E+00 -0.00000000000E+00 -0.99479589501E+03  0.99479589501E+03  0.00000000000E+00 0. -1.
          1    1    1    2  502    0 -0.99634746934E+01 -0.29594577814E+02 -0.16449556737E+03  0.16743327492E+03  0.00000000000E+00 0.  1.
         -1    1    1    2    0  501  0.99634746934E+01  0.29594577814E+02 -0.82853735199E+03  0.82912559573E+03  0.00000000000E+00 0. -1.
</event>
<event>
 4    1  0.6729064E+001  0.2099052E+02  0.7546771E-02  0.1519400E+00
          2   -1    0    0  502    0  0.00000000000E+00  0.00000000000E+00  0.49578868402E+01  0.49578868402E+01  0.00000000000E+00 0.  1.
         -2   -1    0    0    0  501 -0.00000000000E+00 -0.00000000000E+00 -0.92023121602E+02  0.92023121602E+02  0.00000000000E+00 0. -1.
          1    1    1    2  502    0 -0.18671736975E+02  0.95900018005E+01 -0.34555124596E+02  0.40430910601E+02  0.00000000000E+00 0.  1.
         -1    1    1    2    0  501  0.18671736975E+02 -0.95900018005E+01 -0.52510110166E+02  0.56550097841E+02  0.00000000000E+00 0. -1.
</event>
<event>
 4    1  0.6729064E+001  0.2686294E+02  0.7546771E-02  0.1448990E+00
          2   -1    0    0  502    0  0.00000000000E+00  0.00000000000E+00  0.12616612139E+03  0.12616612139E+03  0.00000000000E+00 0. -1.
         -2   -1    0    0    0  501 -0.00000000000E+00 -0.00000000000E+00 -0.59063969546E+01  0.59063969546E+01  0.00000000000E+00 0.  1.
          1    1    1    2  502    0  0.55285484468E-01  0.26862882403E+02  0.48385574414E+02  0.55342400733E+02  0.00000000000E+00 0.  1.
         -1    1    1    2    0  501 -0.55285484468E-01 -0.26862882403E+02  0.71874150026E+02  0.76730117616E+02  0.00000000000E+00 0. -1.
</event>
<event>
 4    1  0.6729064E+001  0.2611303E+02  0.7546771E-02  0.1456727E+00
          2   -1    0    0  502    0  0.00000000000E+00  0.00000000000E+00  0.16389341602E+02  0.16389341602E+02  0.00000000000E+00 0. -1.
         -2   -1    0    0    0  501 -0.00000000000E+00 -0.00000000000E+00 -0.47006365399E+02  0.47006365399E+02  0.00000000000E+00 0.  1.
          1    1    1    2  502    0  0.25601200386E+02 -0.51448031770E+01 -0.26052712194E+02  0.36886776405E+02  0.00000000000E+00 0.  1.
         -1    1    1    2    0  501 -0.25601200386E+02  0.51448031770E+01 -0.45643116031E+01  0.26508930596E+02  0.00000000000E+00 0. -1.
</event>
<event>
 4    1  0.6729064E+001  0.2464886E+02  0.7546771E-02  0.1472770E+00
          2   -1    0    0  502    0  0.00000000000E+00  0.00000000000E+00  0.94707447195E+03  0.94707447195E+03  0.00000000000E+00 0. -1.
         -2   -1    0    0    0  501 -0.00000000000E+00 -0.00000000000E+00 -0.66051736261E+00  0.66051736261E+00  0.00000000000E+00 0.  1.
          1    1    1    2  502    0  0.23898294162E+02 -0.60363857816E+01  0.55357274324E+03  0.55412123987E+03  0.00000000000E+00 0.  1.
         -1    1    1    2    0  501 -0.23898294162E+02  0.60363857816E+01  0.39284121134E+03  0.39361374944E+03  0.00000000000E+00 0. -1.
</event>
<event>
 4    1  0.6729064E+001  0.2264785E+02  0.7546771E-02  0.1496968E+00
          2   -1    0    0  502    0  0.00000000000E+00  0.00000000000E+00  0.17325844999E+03  0.17325844999E+03  0.00000000000E+00 0. -1.
         -2   -1    0    0    0  501 -0.00000000000E+00 -0.00000000000E+00 -0.34766407569E+01  0.34766407569E+01  0.00000000000E+00 0.  1.
          1    1    1    2  502    0  0.85348426309E+01  0.20978125481E+02  0.11894053392E+03  0.12107756149E+03  0.00000000000E+00 0. -1.
         -1    1    1    2    0  501 -0.85348426309E+01 -0.20978125481E+02  0.50841275316E+02  0.55657529259E+02  0.00000000000E+00 0.  1.
</event>
<event>
 4    1  0.6729064E+001  0.2168180E+02  0.7546771E-02  0.1509749E+00
          2   -1    0    0  502    0  0.00000000000E+00  0.00000000000E+00  0.69044582540E+03  0.69044582540E+03  0.00000000000E+00 0.  1.
         -2   -1    0    0    0  501 -0.00000000000E+00 -0.00000000000E+00 -0.70774998442E+00  0.70774998442E+00  0.00000000000E+00 0. -1.
          1    1    1    2  502    0 -0.43668808899E+01 -0.21237486529E+02  0.41222228189E+03  0.41279209073E+03  0.00000000000E+00 0.  1.
         -1    1    1    2    0  501  0.43668808899E+01  0.21237486529E+02  0.27751579352E+03  0.27836148465E+03  0.00000000000E+00 0. -1.
</event>
<event>
 4    1  0.6729064E+001  0.2522175E+02  0.7546771E-02  0.1466338E+00
          2   -1    0    0  502    0  0.00000000000E+00  0.00000000000E+00  0.17512448387E+03  0.17512448387E+03  0.00000000000E+00 0. -1.
         -2   -1    0    0    0  501 -0.00000000000E+00 -0.00000000000E+00 -0.96997139461E+01  0.96997139461E+01  0.00000000000E+00 0.  1.
          1    1    1    2  502    0  0.23777779101E+01 -0.25109417715E+02  0.96246270806E+01  0.26995742854E+02  0.00000000000E+00 0.  1.
         -1    1    1    2    0  501 -0.23777779101E+01  0.25109417715E+02  0.15580014284E+03  0.15782845496E+03  0.00000000000E+00 0. -1.
</event>
<event>
 4    1  0.6729064E+001  0.2738646E+02  0.7546771E-02  0.1443764E+00
          2   -1    0    0  502    0  0.00000000000E+00  0.00000000000E+00  0.11801344349E+04  0.11801344349E+04  0.00000000000E+00 0. -1.
         -2   -1    0    0    0  501 -0.00000000000E+00 -0.00000000000E+00 -0.18781306302E+01  0.18781306302E+01  0.00000000000E+00 0.  1.
          1    1    1    2  502    0  0.27305849026E+02 -0.20997429159E+01  0.10698500194E+04  0.10702004870E+04  0.00000000000E+00 0. -1.
         -1    1    1    2    0  501 -0.27305849026E+02  0.20997429159E+01  0.10840628484E+03  0.11181207853E+03  0.00000000000E+00 0.  1.
</event>
<event>
 4    1  0.6729064E+001  0.5238784E+02  0.7546771E-02  0.1288139E+00
          2   -1    0    0  502    0  0.00000000000E+00  0.00000000000E+00  0.69648032280E+03  0.69648032280E+03  0.00000000000E+00 0.  1.
         -2   -1    0    0    0  501 -0.00000000000E+00 -0.00000000000E+00 -0.72985685038E+01  0.72985685038E+01  0.00000000000E+00 0. -1.
          1    1    1    2  502    0  0.48727145787E+02 -0.19239317259E+02  0.58327947620E+03  0.58562738445E+03  0.00000000000E+00 0.  1.
         -1    1    1    2    0  501 -0.48727145787E+02  0.19239317259E+02  0.10590227810E+03  0.11815150685E+03  0.00000000000E+00 0. -1.
</event>
<event>
 4    1  0.6729064E+001  0.2013496E+02  0.7546771E-02  0.1531983E+00
          2   -1    0    0  502    0  0.00000000000E+00  0.00000000000E+00  0.22177050017E+02  0.22177050017E+02  0.00000000000E+00 0. -1.
         -2   -1    0    0    0  501 -0.00000000000E+00 -0.00000000000E+00 -0.18588882389E+02  0.18588882389E+02  0.00000000000E+00 0.  1.
          1    1    1    2  502    0  0.15436874867E+02  0.12927471664E+02  0.44176828720E+01  0.20613892191E+02  0.00000000000E+00 0. -1.
         -1    1    1    2    0  501 -0.15436874867E+02 -0.12927471664E+02 -0.82951524415E+00  0.20152040215E+02  0.00000000000E+00 0.  1.
</event>
<event>
 4    1  0.6729064E+001  0.2447735E+02  0.7546771E-02  0.1474736E+00
          2   -1    0    0  502    0  0.00000000000E+00  0.00000000000E+00  0.43749312085E+03  0.43749312085E+03  0.00000000000E+00 0.  1.
         -2   -1    0    0    0  501 -0.00000000000E+00 -0.00000000000E+00 -0.17621773804E+01  0.17621773804E+01  0.00000000000E+00 0. -1.
          1    1    1    2  502    0 -0.24317849607E+02  0.27898117047E+01  0.11418721399E+03  0.11678125148E+03  0.00000000000E+00 0. -1.
         -1    1    1    2    0  501  0.24317849607E+02 -0.27898117047E+01  0.32154372948E+03  0.32247404675E+03  0.00000000000E+00 0.  1.
</event>
<event>
 4    1  0.6729064E+001  0.2659309E+02  0.7546771E-02  0.1451739E+00
          2   -1    0    0  502    0  0.00000000000E+00  0.00000000000E+00  0.28143383014E+02  0.28143383014E+02  0.00000000000E+00 0. -1.
         -2   -1    0    0    0  501 -0.00000000000E+00 -0.00000000000E+00 -0.26017986227E+02  0.26017986227E+02  0.00000000000E+00 0.  1.
          1    1    1    2  502    0  0.18903553502E+02 -0.18704233549E+02 -0.39453037548E+01  0.26884160939E+02  0.00000000000E+00 0.  1.
         -1    1    1    2    0  501 -0.18903553502E+02  0.18704233549E+02  0.60707005418E+01  0.27277208302E+02  0.00000000000E+00 0. -1.
</event>
<event>
 4    1  0.6729064E+001  0.2266888E+02  0.7546771E-02  0.1496698E+00
          2   -1    0    0  502    0  0.00000000000E+00  0.00000000000E+00  0.36484618107E+03  0.36484618107E+03  0.00000000000E+00 0. -1.
         -2   -1    0    0    0  501 -0.00000000000E+00 -0.00000000000E+00 -0.14403381071E+01  0.14403381071E+01  0.00000000000E+00 0.  1.
          1    1    1    2  502    0  0.19946621438E+02  0.10770810684E+02  0.20894107455E+03  0.21016719702E+03  0.00000000000E+00 0.  1.
         -1    1    1    2    0  501 -0.19946621438E+02 -0.10770810684E+02  0.15446476841E+03  0.15611932215E+03  0.00000000000E+00 0. -1.
</event>
<event>
 4    1  0.6729064E+001  0.3096772E+02  0.7546771E-02  0.1411369E+00
          2   -1    0    0  502    0  0.00000000000E+00  0.00000000000E+00  0.28181872193E+03  0.28181872193E+03  0.00000000000E+00 0.  1.
         -2   -1    0    0    0  501 -0.00000000000E+00 -0.00000000000E+00 -0.57741080384E+01  0.57741080384E+01  0.00000000000E+00 0. -1.
          1    1    1    2  502    0 -0.47512400491E+01 -0.30601069405E+02  0.23017134893E+03  0.23224523591E+03  0.00000000000E+00 0.  1.
         -1    1    1    2    0  501  0.47512400491E+01  0.30601069405E+02  0.45873264961E+02  0.55347594067E+02  0.00000000000E+00 0. -1.
</event>
<event>
 4    1  0.6729064E+001  0.2159168E+02  0.7546771E-02  0.1510982E+00
          2   -1    0    0  502    0  0.00000000000E+00  0.00000000000E+00  0.14458463730E+02  0.14458463730E+02  0.00000000000E+00 0.  1.
         -2   -1    0    0    0  501 -0.00000000000E+00 -0.00000000000E+00 -0.35698032720E+02  0.35698032720E+02  0.00000000000E+00 0. -1.
          1    1    1    2  502    0 -0.21526050456E+02 -0.16821796003E+01 -0.28191462302E+01  0.21774943442E+02  0.00000000000E+00 0.  1.
         -1    1    1    2    0  501  0.21526050456E+02  0.16821796003E+01 -0.18420422760E+02  0.28381553007E+02  0.00000000000E+00 0. -1.
</event>
<event>
 4    1  0.6729064E+001  0.2203625E+02  0.7546771E-02  0.1504968E+00
          2   -1    0    0  502    0  0.00000000000E+00  0.00000000000E+00  0.73634186980E+02  0.73634186980E+02  0.00000000000E+00 0.  1.
         -2   -1    0    0    0  501 -0.00000000000E+00 -0.00000000000E+00 -0.69605503591E+01  0.69605503591E+01  0.00000000000E+00 0. -1.
          1    1    1    2  502    0  0.19068858095E+02  0.11044223707E+02  0.42575282121E+02  0.47940075866E+02  0.00000000000E+00 0. -1.
         -1    1    1    2    0  501 -0.19068858095E+02 -0.11044223707E+02  0.24098354500E+02  0.32654661473E+02  0.00000000000E+00 0.  1.
</event>
<event>
 4    1  0.6729064E+001  0.3077556E+02  0.7546771E-02  0.1412974E+00
          2   -1    0    0  502    0  0.00000000000E+00  0.00000000000E+00  0.12709116455E+04  0.12709116455E+04  0.00000000000E+00 0. -1.
         -2   -1    0    0    0  501 -0.00000000000E+00 -0.00000000000E+00 -0.74614001680E+00  0.74614001680E+00  0.00000000000E+00 0.  1.
          1    1    1    2  502    0  0.24086378269E+02  0.19156753296E+02  0.65715962880E+03  0.65787986179E+03  0.00000000000E+00 0. -1.
         -1    1    1    2    0  501 -0.24086378269E+02 -0.19156753296E+02  0.61300587670E+03  0.61377792375E+03  0.00000000000E+00 0.  1.
</event>
<event>
 4    1  0.6729064E+001  0.3065593E+02  0.7546771E-02  0.1413980E+00
          2   -1    0    0  502    0  0.00000000000E+00  0.00000000000E+00  0.52273847845E+03  0.52273847845E+03  0.00000000000E+00 0. -1.
         -2   -1    0    0    0  501 -0.00000000000E+00 -0.00000000000E+00 -0.20469509061E+01  0.20469509061E+01  0.00000000000E+00 0.  1.
          1    1    1    2  502    0  0.49008154956E+01 -0.30261663531E+02  0.35188716674E+03  0.35321999432E+03  0.00000000000E+00 0. -1.
         -1    1    1    2    0  501 -0.49008154956E+01  0.30261663531E+02  0.16880436080E+03  0.17156543503E+03  0.00000000000E+00 0.  1.
</event>
<event>
 4    1  0.6729064E+001  0.4709386E+02  0.7546771E-02  0.1311289E+00
          2   -1    0    0  502    0  0.00000000000E+00  0.00000000000E+00  0.15876748996E+04  0.15876748996E+04  0.00000000000E+00 0.  1.
         -2   -1    0    0    0  501 -0.00000000000E+00 -0.00000000000E+00 -0.18799845731E+01  0.18799845731E+01  0.00000000000E+00 0. -1.
          1    1    1    2  502    0 -0.37567843427E+01 -0.46943777622E+02  0.11957791507E+04  0.11967061498E+04  0.00000000000E+00 0.  1.
         -1    1    1    2    0  501  0.37567843427E+01  0.46943777622E+02  0.39001576428E+03  0.39284873434E+03  0.00000000000E+00 0. -1.
</event>
<event>
 4    1  0.6729064E+001  0.2086765E+02  0.7546771E-02  0.1521163E+00
          2   -1    0    0  502    0  0.00000000000E+00  0.00000000000E+00  0.13214014526E+03  0.13214014526E+03  0.00000000000E+00 0. -1.
         -2   -1    0    0    0  501 -0.00000000000E+00 -0.00000000000E+00 -0.43384158289E+01  0.43384158289E+01  0.00000000000E+00 0.  1.
          1    1    1    2  502    0  0.11204387712E+02 -0.17604563776E+02  0.30442287369E+02  0.36907883034E+02  0.00000000000E+00 0. -1.
         -1    1    1    2    0  501 -0.11204387712E+02  0.17604563776E+02  0.97359442060E+02  0.99570678053E+02  0.00000000000E+00 0.  1.
</event>
<event>
 4    1  0.6729064E+001  0.2930703E+02  0.7546771E-02  0.1425715E+00
          2   -1    0    0  502    0  0.00000000000E+00  0.00000000000E+00  0.26677292312E+01  0.26677292312E+01  0.00000000000E+00 0. -1.
         -2   -1    0    0    0  501 -0.00000000000E+00 -0.00000000000E+00 -0.32283348375E+03  0.32283348375E+03  0.00000000000E+00 0.  1.
          1    1    1    2  502    0  0.24771064070E+02  0.15661935630E+02 -0.15161674569E+03  0.15442324766E+03  0.00000000000E+00 0.  1.
         -1    1    1    2    0  501 -0.24771064070E+02 -0.15661935630E+02 -0.16854900883E+03  0.17107796532E+03  0.00000000000E+00 0. -1.
</event>
<event>
 4    1  0.6729064E+001  0.3849670E+02  0.7546771E-02  0.1357528E+00
          2   -1    0    0  502    0  0.00000000000E+00  0.00000000000E+00  0.23081993774E+02  0.23081993774E+02  0.00000000000E+00 0. -1.
         -2   -1    0    0    0  501 -0.00000000000E+00 -0.00000000000E+00 -0.67771639159E+02  0.67771639159E+02  0.00000000000E+00 0.  1.
          1    1    1    2  502    0 -0.37928504699E+02  0.65897045179E+01 -0.32764997157E+02  0.50552356157E+02  0.00000000000E+00 0.  1.
         -1    1    1    2    0  501  0.37928504699E+02 -0.65897045179E+01 -0.11924648228E+02  0.40301276776E+02  0.00000000000E+00 0. -1.
</event>
<event>
 4    1  0.6729064E+001  0.2344028E+02  0.7546771E-02  0.1487042E+00
          2   -1    0    0  502    0  0.00000000000E+00  0.00000000000E+00  0.35630942970E+02  0.35630942970E+02  0.00000000000E+00 0.  1.
         -2   -1    0    0    0  501 -0.00000000000E+00 -0.00000000000E+00 -0.19258207805E+02  0.19258207805E+02  0.00000000000E+00 0. -1.
          1    1    1    2  502    0  0.16176349631E+02 -0.16963859084E+02 -0.40650058669E+01  0.23790146597E+02  0.00000000000E+00 0. -1.
         -1    1    1    2    0  501 -0.16176349631E+02  0.16963859084E+02  0.20437741032E+02  0.31099004179E+02  0.00000000000E+00 0.  1.
</event>
<event>
 4    1  0.6729064E+001  0.3021285E+02  0.7546771E-02  0.1417756E+00
          2   -1    0    0  502    0  0.00000000000E+00  0.00000000000E+00  0.80733832589E+03  0.80733832589E+03  0.00000000000E+00 0.  1.
         -2   -1    0    0    0  501 -0.00000000000E+00 -0.00000000000E+00 -0.19688839059E+01  0.19688839059E+01  0.00000000000E+00 0. -1.
          1    1    1    2  502    0  0.76865614183E+00  0.30203071816E+02  0.66671649596E+03  0.66740070600E+03  0.00000000000E+00 0.  1.
         -1    1    1    2    0  501 -0.76865614183E+00 -0.30203071816E+02  0.13865294602E+03  0.14190650380E+03  0.00000000000E+00 0. -1.
</event>
<event>
 4    1  0.6729064E+001  0.2608566E+02  0.7546771E-02  0.1457016E+00
          2   -1    0    0  502    0  0.00000000000E+00  0.00000000000E+00  0.81374156080E+02  0.81374156080E+02  0.00000000000E+00 0. -1.
         -2   -1    0    0    0  501 -0.00000000000E+00 -0.00000000000E+00 -0.85301302982E+01  0.85301302982E+01  0.00000000000E+00 0.  1.
          1    1    1    2  502    0  0.23997085689E+02  0.10227477175E+02  0.42730502407E+02  0.50063532106E+02  0.00000000000E+00 0. -1.
         -1    1    1    2    0  501 -0.23997085689E+02 -0.10227477175E+02  0.30113523375E+02  0.39840754273E+02  0.00000000000E+00 0.  1.
</event>
<event>
 4    1  0.6729064E+001  0.2340131E+02  0.7546771E-02  0.1487519E+00
          2   -1    0    0  502    0  0.00000000000E+00  0.00000000000E+00  0.18225556995E+02  0.18225556995E+02  0.00000000000E+00 0. -1.
         -2   -1    0    0    0  501 -0.00000000000E+00 -0.00000000000E+00 -0.47634933212E+02  0.47634933212E+02  0.00000000000E+00 0.  1.
          1    1    1    2  502    0  0.22161432694E+02 -0.75161366050E+01  0.53050256283E+01  0.23995097529E+02  0.00000000000E+00 0. -1.
         -1    1    1    2    0  501 -0.22161432694E+02  0.75161366050E+01 -0.34714401845E+02  0.41865392677E+02  0.00000000000E+00 0.  1.
</event>
<event>
 4    1  0.6729064E+001  0.4677327E+02  0.7546771E-02  0.1312803E+00
          2   -1    0    0  502    0  0.00000000000E+00  0.00000000000E+00  0.86007011445E+03  0.86007011445E+03  0.00000000000E+00 0.  1.
         -2   -1    0    0    0  501 -0.00000000000E+00 -0.00000000000E+00 -0.25762216614E+01  0.25762216614E+01  0.00000000000E+00 0. -1.
          1    1    1    2  502    0 -0.21809649834E+02 -0.41377267064E+02  0.47722696617E+03  0.47951362472E+03  0.00000000000E+00 0.  1.
         -1    1    1    2    0  501  0.21809649834E+02  0.41377267064E+02  0.38026692663E+03  0.38313271139E+03  0.00000000000E+00 0. -1.
</event>
<event>
 4    1  0.6729064E+001  0.4461197E+02  0.7546771E-02  0.1323391E+00
          2   -1    0    0  502    0  0.00000000000E+00  0.00000000000E+00  0.15937660973E+03  0.15937660973E+03  0.00000000000E+00 0.  1.
         -2   -1    0    0    0  501 -0.00000000000E+00 -0.00000000000E+00 -0.15450121197E+02  0.15450121197E+02  0.00000000000E+00 0. -1.
          1    1    1    2  502    0 -0.43243097129E+02 -0.10966437551E+02  0.33685699095E+02  0.55901292699E+02  0.00000000000E+00 0. -1.
         -1    1    1    2    0  501  0.43243097129E+02  0.10966437551E+02  0.11024078944E+03  0.11892543823E+03  0.00000000000E+00 0.  1.
</event>
<event>
 4    1  0.6729064E+001  0.3206454E+02  0.7546771E-02  0.1402465E+00
          2   -1    0    0  502    0  0.00000000000E+00  0.00000000000E+00  0.16056981605E+02  0.16056981605E+02  0.00000000000E+00 0. -1.
         -2   -1    0    0    0  501 -0.00000000000E+00 -0.00000000000E+00 -0.64208507167E+02  0.64208507167E+02  0.00000000000E+00 0.  1.
          1    1    1    2  502    0 -0.28950539859E+02  0.13784079003E+02 -0.26189596491E+02  0.41400840045E+02  0.00000000000E+00 0. -1.
         -1    1    1    2    0  501  0.28950539859E+02 -0.13784079003E+02 -0.21961929071E+02  0.38864648727E+02  0.00000000000E+00 0.  1.
</event>
<event>
 4    1  0.6729064E+001  0.2235469E+02  0.7546771E-02  0.1500764E+00
          2   -1    0    0  502    0  0.00000000000E+00  0.00000000000E+00  0.16899772324E+03  0.16899772324E+03  0.00000000000E+00 0. -1.
         -2   -1    0    0    0  501 -0.00000000000E+00 -0.00000000000E+00 -0.30039888011E+01  0.30039888011E+01  0.00000000000E+00 0.  1.
          1    1    1    2  502    0 -0.98707790216E+01  0.20057413908E+02  0.93748895602E+02  0.96377318690E+02  0.00000000000E+00 0. -1.
         -1    1    1    2    0  501  0.98707790216E+01 -0.20057413908E+02  0.72244838832E+02  0.75624393346E+02  0.00000000000E+00 0.  1.
</event>
<event>
 4    1  0.6729064E+001  0.2698314E+02  0.7546771E-02  0.1447778E+00
          2   -1    0    0  502    0  0.00000000000E+00  0.00000000000E+00  0.76406410046E+02  0.76406410046E+02  0.00000000000E+00 0.  1.
         -2   -1    0    0    0  501 -0.00000000000E+00 -0.00000000000E+00 -0.22761991285E+02  0.22761991285E+02  0.00000000000E+00 0. -1.
          1    1    1    2  502    0  0.42835369141E+01  0.26640962665E+02 -0.10984112981E+02  0.29133148099E+02  0.00000000000E+00 0. -1.
         -1    1    1    2    0  501 -0.42835369141E+01 -0.26640962665E+02  0.64628531741E+02  0.70035253232E+02  0.00000000000E+00 0.  1.
</event>
<event>
 4    1  0.6729064E+001  0.3526294E+02  0.7546771E-02  0.1378724E+00
          2   -1    0    0  502    0  0.00000000000E+00  0.00000000000E+00  0.23942414359E+04  0.23942414359E+04  0.00000000000E+00 0.  1.
         -2   -1    0    0    0  501 -0.00000000000E+00 -0.00000000000E+00 -0.54803962326E+00  0.54803962326E+00  0.00000000000E+00 0. -1.
          1    1    1    2  502    0  0.29991900411E+02  0.18546174406E+02  0.92293314429E+03  0.92360655233E+03  0.00000000000E+00 0. -1.
         -1    1    1    2    0  501 -0.29991900411E+02 -0.18546174406E+02  0.14707602520E+04  0.14711829232E+04  0.00000000000E+00 0.  1.
</event>
<event>
 4    1  0.6729064E+001  0.2254477E+02  0.7546771E-02  0.1498295E+00
          2   -1    0    0  502    0  0.00000000000E+00  0.00000000000E+00  0.21407367899E+03  0.21407367899E+03  0.00000000000E+00 0. -1.
         -2   -1    0    0    0  501 -0.00000000000E+00 -0.00000000000E+00 -0.26249981988E+01  0.26249981988E+01  0.00000000000E+00 0.  1.
          1    1    1    2  502    0  0.12365327518E+02 -0.18851136658E+02  0.72237699389E+02  0.75673984241E+02  0.00000000000E+00 0. -1.
         -1    1    1    2    0  501 -0.12365327518E+02  0.18851136658E+02  0.13921098140E+03  0.14102469295E+03  0.00000000000E+00 0.  1.
</event>
<event>
 4    1  0.6729064E+001  0.2030761E+02  0.7546771E-02  0.1529384E+00
          2   -1    0    0  502    0  0.00000000000E+00  0.00000000000E+00  0.75139158806E+02  0.75139158806E+02  0.00000000000E+00 0.  1.
         -2   -1    0    0    0  501 -0.00000000000E+00 -0.00000000000E+00 -0.12172578256E+02  0.12172578256E+02  0.00000000000E+00 0. -1.
          1    1    1    2  502    0  0.13611705371E+02  0.15070514585E+02  0.63833203497E+02  0.66985646236E+02  0.00000000000E+00 0.  1.
         -1    1    1    2    0  501 -0.13611705371E+02 -0.15070514585E+02 -0.86662294690E+00  0.20326090827E+02  0.00000000000E+00 0. -1.
</event>
<event>
 4    1  0.6729064E+001  0.3616180E+02  0.7546771E-02  0.1372574E+00
          2   -1    0    0  502    0  0.00000000000E+00  0.00000000000E+00  0.28980407702E+04  0.28980407702E+04  0.00000000000E+00 0.  1.
         -2   -1    0    0    0  501 -0.00000000000E+00 -0.00000000000E+00 -0.10783304921E+01  0.10783304921E+01  0.00000000000E+00 0. -1.
          1    1    1    2  502    0  0.18313211688E+02 -0.31181755515E+02  0.25539069424E+04  0.25541629443E+04  0.00000000000E+00 0.  1.
         -1    1    1    2    0  501 -0.18313211688E+02  0.31181755515E+02  0.34305549733E+03  0.34495615641E+03  0.00000000000E+00 0. -1.
</event>
<event>
 4    1  0.6729064E+001  0.3926237E+02  0.7546771E-02  0.1352863E+00
          2   -1    0    0  502    0  0.00000000000E+00  0.00000000000E+00  0.24737207600E+04  0.24737207600E+04  0.00000000000E+00 0. -1.
         -2   -1    0    0    0  501 -0.00000000000E+00 -0.00000000000E+00 -0.62683502275E+00  0.62683502275E+00  0.00000000000E+00 0.  1.
          1    1    1    2  502    0 -0.39059898566E+02 -0.39822426844E+01  0.11418703685E+04  0.11425451731E+04  0.00000000000E+00 0.  1.
         -1    1    1    2    0  501  0.39059898566E+02  0.39822426844E+01  0.13312235565E+04  0.13318024220E+04  0.00000000000E+00 0. -1.
</event>
<event>
 4    1  0.6729064E+001  0.2009511E+02  0.7546771E-02  0.1532587E+00
          2   -1    0    0  502    0  0.00000000000E+00  0.00000000000E+00  0.47600333757E+02  0.47600333757E+02  0.00000000000E+00 0. -1.
         -2   -1    0    0    0  501 -0.00000000000E+00 -0.00000000000E+00 -0.13288375249E+02  0.13288375249E+02  0.00000000000E+00 0.  1.
          1    1    1    2  502    0  0.14315992452E+02 -0.14101980868E+02  0.35462913230E+02  0.40760663869E+02  0.00000000000E+00 0. -1.
         -1    1    1    2    0  501 -0.14315992452E+02  0.14101980868E+02 -0.11509547219E+01  0.20128045137E+02  0.00000000000E+00 0.  1.
</event>
<event>
 4    1  0.6729064E+001  0.2344786E+02  0.7546771E-02  0.1486950E+00
          2   -1    0    0  502    0  0.00000000000E+00  0.00000000000E+00  0.12176645481E+04  0.12176645481E+04  0.00000000000E+00 0. -1.
         -2   -1    0    0    0  501 -0.00000000000E+00 -0.00000000000E+00 -0.32491903434E+01  0.32491903434E+01  0.00000000000E+00 0.  1.
          1    1    1    2  502    0  0.93306782919E+01 -0.21511403783E+02  0.11736628430E+04  0.11738970445E+04  0.00000000000E+00 0. -1.
         -1    1    1    2    0  501 -0.93306782919E+01  0.21511403783E+02  0.40752514744E+02  0.47016693929E+02  0.00000000000E+00 0.  1.
</event>
<event>
 4    1  0.6729064E+001  0.3519426E+02  0.7546771E-02  0.1379203E+00
          2   -1    0    0  502    0  0.00000000000E+00  0.00000000000E+00  0.30168901875E+02  0.30168901875E+02  0.00000000000E+00 0.  1.
         -2   -1    0    0    0  501 -0.00000000000E+00 -0.00000000000E+00 -0.49926980411E+02  0.49926980411E+02  0.00000000000E+00 0. -1.
          1    1    1    2  502    0  0.11633079367E+02 -0.33216074558E+02 -0.26759361733E+02  0.44211984630E+02  0.00000000000E+00 0. -1.
         -1    1    1    2    0  501 -0.11633079367E+02  0.33216074558E+02  0.70012831976E+01  0.35883897656E+02  0.00000000000E+00 0.  1.
</event>
<event>
 4    1  0.6729064E+001  0.2150759E+02  0.7546771E-02  0.1512140E+00
          2   -1    0    0  502    0  0.00000000000E+00  0.00000000000E+00  0.19128297681E+03  0.19128297681E+03  0.00000000000E+00 0.  1.
         -2   -1    0    0    0  501 -0.00000000000E+00 -0.00000000000E+00 -0.27116989579E+01  0.27116989579E+01  0.00000000000E+00 0. -1.
          1    1    1    2  502    0  0.20802909143E+02  0.54603293099E+01  0.62378966919E+02  0.65982662411E+02  0.00000000000E+00 0. -1.
         -1    1    1    2    0  501 -0.20802909143E+02 -0.54603293099E+01  0.12619231094E+03  0.12801201336E+03  0.00000000000E+00 0.  1.
</event>
<event>
 4    1  0.6729064E+001  0.2112825E+02  0.7546771E-02  0.1517441E+00
          2   -1    0    0  502    0  0.00000000000E+00  0.00000000000E+00  0.21859772331E+01  0.21859772331E+01  0.00000000000E+00 0. -1.
         -2   -1    0    0    0  501 -0.00000000000E+00 -0.00000000000E+00 -0.21213231847E+03  0.21213231847E+03  0.00000000000E+00 0.  1.
          1    1    1    2  502    0  0.18727167887E+02  0.97824500568E+01 -0.12567899831E+03  0.12744259006E+03  0.00000000000E+00 0.  1.
         -1    1    1    2    0  501 -0.18727167887E+02 -0.97824500568E+01 -0.84267342924E+02  0.86875705636E+02  0.00000000000E+00 0. -1.
</event>
<event>
 4    1  0.6729064E+001  0.2674652E+02  0.7546771E-02  0.1450171E+00
          2   -1    0    0  502    0  0.00000000000E+00  0.00000000000E+00  0.13557867261E+03  0.13557867261E+03  0.00000000000E+00 0. -1.
         -2   -1    0    0    0  501 -0.00000000000E+00 -0.00000000000E+00 -0.65940812088E+01  0.65940812088E+01  0.00000000000E+00 0.  1.
          1    1    1    2  502    0  0.10810734960E+02 -0.24464351469E+02  0.32716000743E+02  0.42257699745E+02  0.00000000000E+00 0. -1.
         -1    1    1    2    0  501 -0.10810734960E+02  0.24464351469E+02  0.96268590656E+02  0.99915054071E+02  0.00000000000E+00 0.  1.
</event>
<event>
 4    1  0.6729064E+001  0.2107442E+02  0.7546771E-02  0.1518205E+00
          2   -1    0    0  502    0  0.00000000000E+00  0.00000000000E+00  0.17158067144E+03  0.17158067144E+03  0.00000000000E+00 0.  1.
         -2   -1    0    0    0  501 -0.00000000000E+00 -0.00000000000E+00 -0.34776756112E+01  0.34776756112E+01  0.00000000000E+00 0. -1.
          1    1    1    2  502    0 -0.20666042129E+02 -0.41286834569E+01  0.39791689755E+02  0.45027879118E+02  0.00000000000E+00 0. -1.
         -1    1    1    2    0  501  0.20666042129E+02  0.41286834569E+01  0.12831130608E+03  0.13003046794E+03  0.00000000000E+00 0.  1.
</event>
<event>
 4    1  0.6729064E+001  0.2546336E+02  0.7546771E-02  0.1463686E+00
          2   -1    0    0  502    0  0.00000000000E+00  0.00000000000E+00  0.12488262972E+03  0.12488262972E+03  0.00000000000E+00 0.  1.
         -2   -1    0    0    0  501 -0.00000000000E+00 -0.00000000000E+00 -0.87003061899E+01  0.87003061899E+01  0.00000000000E+00 0. -1.
          1    1    1    2  502    0  0.25374699925E+02 -0.21229922128E+01  0.15677429557E+02  0.29902579985E+02  0.00000000000E+00 0. -1.
         -1    1    1    2    0  501 -0.25374699925E+02  0.21229922128E+01  0.10050489398E+03  0.10368035593E+03  0.00000000000E+00 0.  1.
</event>
<event>
 4    1  0.6729064E+001  0.2650768E+02  0.7546771E-02  0.1452617E+00
          2   -1    0    0  502    0  0.00000000000E+00  0.00000000000E+00  0.17846291063E+03  0.17846291063E+03  0.00000000000E+00 0. -1.
         -2   -1    0    0    0  501 -0.00000000000E+00 -0.00000000000E+00 -0.53036141324E+01  0.53036141324E+01  0.00000000000E+00 0.  1.
          1    1    1    2  502    0 -0.97667071754E+01  0.24642815775E+02  0.13321661013E+03  0.13582828186E+03  0.00000000000E+00 0.  1.
         -1    1    1    2    0  501  0.97667071754E+01 -0.24642815775E+02  0.39942686368E+02  0.47938242903E+02  0.00000000000E+00 0. -1.
</event>
<event>
 4    1  0.6729064E+001  0.4448447E+02  0.7546771E-02  0.1324037E+00
          2   -1    0    0  502    0  0.00000000000E+00  0.00000000000E+00  0.44818885857E+03  0.44818885857E+03  0.00000000000E+00 0. -1.
         -2   -1    0    0    0  501 -0.00000000000E+00 -0.00000000000E+00 -0.44329855598E+01  0.44329855598E+01  0.00000000000E+00 0.  1.
          1    1    1    2  502    0  0.23434005726E+02  0.37811578274E+02  0.20756531444E+03  0.21227865610E+03  0.00000000000E+00 0.  1.
         -1    1    1    2    0  501 -0.23434005726E+02 -0.37811578274E+02  0.23619055857E+03  0.24034318803E+03  0.00000000000E+00 0. -1.
</event>
<event>
 4    1  0.6729064E+001  0.2303626E+02  0.7546771E-02  0.1492043E+00
          2   -1    0    0  502    0  0.00000000000E+00  0.00000000000E+00  0.12187934696E+03  0.12187934696E+03  0.00000000000E+00 0.  1.
         -2   -1    0    0    0  501 -0.00000000000E+00 -0.00000000000E+00 -0.73143989722E+01  0.73143989722E+01  0.00000000000E+00 0. -1.
          1    1    1    2  502    0  0.18426201392E+02  0.13825492645E+02  0.98377891961E+02  0.10103899629E+03  0.00000000000E+00 0.  1.
         -1    1    1    2    0  501 -0.18426201392E+02 -0.13825492645E+02  0.16187056029E+02  0.28154749644E+02  0.00000000000E+00 0. -1.
</event>
<event>
 4    1  0.6729064E+001  0.2103873E+02  0.7546771E-02  0.1518713E+00
          2   -1    0    0  502    0  0.00000000000E+00  0.00000000000E+00  0.54061039783E+02  0.54061039783E+02  0.00000000000E+00 0. -1.
         -2   -1    0    0    0  501 -0.00000000000E+00 -0.00000000000E+00 -0.82592005840E+01  0.82592005840E+01  0.00000000000E+00 0.  1.
          1    1    1    2  502    0 -0.19186893795E+02 -0.86308204295E+01  0.25803021099E+02  0.33293000054E+02  0.00000000000E+00 0. -1.
         -1    1    1    2    0  501  0.19186893795E+02  0.86308204295E+01  0.19998818100E+02  0.29027240313E+02  0.00000000000E+00 0.  1.
</event>
<event>
 4    1  0.6729064E+001  0.2984886E+02  0.7546771E-02  0.1420915E+00
          2   -1    0    0  502    0  0.00000000000E+00  0.00000000000E+00  0.26903051355E+03  0.26903051355E+03  0.00000000000E+00 0. -1.
         -2   -1    0    0    0  501 -0.00000000000E+00 -0.00000000000E+00 -0.33242097599E+01  0.33242097599E+01  0.00000000000E+00 0.  1.
          1    1    1    2  502    0  0.23058194574E+01 -0.29759661050E+02  0.12450662804E+03  0.12803458383E+03  0.00000000000E+00 0. -1.
         -1    1    1    2    0  501 -0.23058194574E+01  0.29759661050E+02  0.14119967575E+03  0.14432013948E+03  0.00000000000E+00 0.  1.
</event>
<event>
 4    1  0.6729064E+001  0.2764315E+02  0.7546771E-02  0.1441252E+00
          2   -1    0    0  502    0  0.00000000000E+00  0.00000000000E+00  0.82940989228E+01  0.82940989228E+01  0.00000000000E+00 0. -1.
         -2   -1    0    0    0  501 -0.00000000000E+00 -0.00000000000E+00 -0.15085632243E+03  0.15085632243E+03  0.00000000000E+00 0.  1.
          1    1    1    2  502    0 -0.51801703097E+01  0.27153450041E+02 -0.12092989069E+03  0.12404911316E+03  0.00000000000E+00 0.  1.
         -1    1    1    2    0  501  0.51801703097E+01 -0.27153450041E+02 -0.21632332813E+02  0.35101308188E+02  0.00000000000E+00 0. -1.
</event>
<event>
 4    1  0.6729064E+001  0.2119138E+02  0.7546771E-02  0.1516550E+00
          2   -1    0    0  502    0  0.00000000000E+00  0.00000000000E+00  0.59922708016E+02  0.59922708016E+02  0.00000000000E+00 0.  1.
         -2   -1    0    0    0  501 -0.00000000000E+00 -0.00000000000E+00 -0.76370532917E+01  0.76370532917E+01  0.00000000000E+00 0. -1.
          1    1    1    2  502    0  0.10140990981E+02  0.18607391366E+02  0.30762282732E+02  0.37354956170E+02  0.00000000000E+00 0. -1.
         -1    1    1    2    0  501 -0.10140990981E+02 -0.18607391366E+02  0.21523371992E+02  0.30204805138E+02  0.00000000000E+00 0.  1.
</event>
<event>
 4    1  0.6729064E+001  0.2074878E+02  0.7546771E-02  0.1522882E+00
          2   -1    0    0  502    0  0.00000000000E+00  0.00000000000E+00  0.71673350268E+03  0.71673350268E+03  0.00000000000E+00 0. -1.
         -2   -1    0    0    0  501 -0.00000000000E+00 -0.00000000000E+00 -0.65123351571E+00  0.65123351571E+00  0.00000000000E+00 0.  1.
          1    1    1    2  502    0 -0.26318757285E+01 -0.20581179915E+02  0.45800056642E+03  0.45847031592E+03  0.00000000000E+00 0. -1.
         -1    1    1    2    0  501  0.26318757285E+01  0.20581179915E+02  0.25808170275E+03  0.25891442028E+03  0.00000000000E+00 0.  1.
</event>
<event>
 4    1  0.6729064E+001  0.2357585E+02  0.7546771E-02  0.1485391E+00
          2   -1    0    0  502    0  0.00000000000E+00  0.00000000000E+00  0.97309548119E+03  0.97309548119E+03  0.00000000000E+00 0. -1.
         -2   -1    0    0    0  501 -0.00000000000E+00 -0.00000000000E+00 -0.84495993519E+00  0.84495993519E+00  0.00000000000E+00 0.  1.
          1    1    1    2  502    0 -0.16641655136E+02 -0.16699577515E+02  0.76331599951E+03  0.76367999560E+03  0.00000000000E+00 0. -1.
         -1    1    1    2    0  501  0.16641655136E+02  0.16699577515E+02  0.20893452175E+03  0.21026044553E+03  0.00000000000E+00 0.  1.
</event>
<event>
 4    1  0.6729064E+001  0.4581818E+02  0.7546771E-02  0.1317398E+00
          2   -1    0    0  502    0  0.00000000000E+00  0.00000000000E+00  0.20652488925E+03  0.20652488925E+03  0.00000000000E+00 0. -1.
         -2   -1    0    0    0  501 -0.00000000000E+00 -0.00000000000E+00 -0.11115618963E+02  0.11115618963E+02  0.00000000000E+00 0.  1.
          1    1    1    2  502    0  0.37409698870E+02 -0.26454117703E+02  0.12952959095E+03  0.13739439888E+03  0.00000000000E+00 0. -1.
         -1    1    1    2    0  501 -0.37409698870E+02  0.26454117703E+02  0.65879679338E+02  0.80246109330E+02  0.00000000000E+00 0.  1.
</event>
<event>
 4    1  0.6729064E+001  0.2079915E+02  0.7546771E-02  0.1522152E+00
          2   -1    0    0  502    0  0.00000000000E+00  0.00000000000E+00  0.16723754437E+02  0.16723754437E+02  0.00000000000E+00 0. -1.
         -2   -1    0    0    0  501 -0.00000000000E+00 -0.00000000000E+00 -0.33079359791E+02  0.33079359791E+02  0.00000000000E+00 0.  1.
          1    1    1    2  502    0  0.14473650580E+02  0.14937138345E+02 -0.19804765710E+02  0.28719913090E+02  0.00000000000E+00 0.  1.
         -1    1    1    2    0  501 -0.14473650580E+02 -0.14937138345E+02  0.34491603560E+01  0.21083201138E+02  0.00000000000E+00 0. -1.
</event>
<event>
 4    1  0.6729064E+001  0.2818411E+02  0.7546771E-02  0.1436063E+00
          2   -1    0    0  502    0  0.00000000000E+00  0.00000000000E+00  0.54331216531E+02  0.54331216531E+02  0.00000000000E+00 0. -1.
         -2   -1    0    0    0  501 -0.00000000000E+00 -0.00000000000E+00 -0.16049872048E+02  0.16049872048E+02  0.00000000000E+00 0.  1.
          1    1    1    2  502    0  0.27783619624E+02 -0.47343723456E+01  0.86385052974E+01  0.29478255964E+02  0.00000000000E+00 0.  1.
         -1    1    1    2    0  501 -0.27783619624E+02  0.47343723456E+01  0.29642839186E+02  0.40902832615E+02  0.00000000000E+00 0. -1.
</event>
<event>
 4    1  0.6729064E+001  0.2628119E+02  0.7546771E-02  0.1454965E+00
          2   -1    0    0  502    0  0.00000000000E+00  0.00000000000E+00  0.11899754063E+03  0.11899754063E+03  0.00000000000E+00 0. -1.
         -2   -1    0    0    0  501 -0.00000000000E+00 -0.00000000000E+00 -0.87400157069E+01  0.87400157069E+01  0.00000000000E+00 0.  1.
          1    1    1    2  502    0  0.12111530080E+02  0.23324057457E+02  0.92144583878E+02  0.95819231657E+02  0.00000000000E+00 0. -1.
         -1    1    1    2    0  501 -0.12111530080E+02 -0.23324057457E+02  0.18112941047E+02  0.31918324683E+02  0.00000000000E+00 0.  1.
</event>
<event>
 4    1  0.6729064E+001  0.2009930E+02  0.7546771E-02  0.1532523E+00
          2   -1    0    0  502    0  0.00000000000E+00  0.00000000000E+00  0.11027945308E+02  0.11027945308E+02  0.00000000000E+00 0.  1.
         -2   -1    0    0    0  501 -0.00000000000E+00 -0.00000000000E+00 -0.52586198429E+02  0.52586198429E+02  0.00000000000E+00 0. -1.
          1    1    1    2  502    0  0.10784614667E+02  0.16960959108E+02 -0.32597981585E+01  0.20361933391E+02  0.00000000000E+00 0.  1.
         -1    1    1    2    0  501 -0.10784614667E+02 -0.16960959108E+02 -0.38298454962E+02  0.43252210346E+02  0.00000000000E+00 0. -1.
</event>
<event>
 4    1  0.6729064E+001  0.2660713E+02  0.7546771E-02  0.1451595E+00
          2   -1    0    0  502    0  0.00000000000E+00  0.00000000000E+00  0.15917497515E+03  0.15917497515E+03  0.00000000000E+00 0. -1.
         -2   -1    0    0    0  501 -0.00000000000E+00 -0.00000000000E+00 -0.52354734894E+01  0.52354734894E+01  0.00000000000E+00 0.  1.
          1    1    1    2  502    0 -0.46705983378E+01 -0.26193986128E+02  0.45079188041E+02  0.52345702714E+02  0.00000000000E+00 0. -1.
         -1    1    1    2    0  501  0.46705983378E+01  0.26193986128E+02  0.10886031362E+03  0.11206474593E+03  0.00000000000E+00 0.  1.
</event>
<event>
 4    1  0.6729064E+001  0.2213485E+02  0.7546771E-02  0.1503657E+00
          2   -1    0    0  502    0  0.00000000000E+00  0.00000000000E+00  0.11371755278E+04  0.11371755278E+04  0.00000000000E+00 0. -1.
         -2   -1    0    0    0  501 -0.00000000000E+00 -0.00000000000E+00 -0.44131183185E+00  0.44131183185E+00  0.00000000000E+00 0.  1.
          1    1    1    2  502    0  0.37263773848E+01  0.21818928044E+02  0.65594761262E+03  0.65632097484E+03  0.00000000000E+00 0. -1.
         -1    1    1    2    0  501 -0.37263773848E+01 -0.21818928044E+02  0.48078660338E+03  0.48129586483E+03  0.00000000000E+00 0.  1.
</event>
<event>
 4    1  0.6729064E+001  0.2684237E+02  0.7546771E-02  0.1449198E+00
          2   -1    0    0  502    0  0.00000000000E+00  0.00000000000E+00  0.17582516912E+04  0.17582516912E+04  0.00000000000E+00 0. -1.
         -2   -1    0    0    0  501 -0.00000000000E+00 -0.00000000000E+00 -0.84618565376E+00  0.84618565376E+00  0.00000000000E+00 0.  1.
          1    1    1    2  502    0  0.13555273517E+02  0.23168246144E+02  0.24706563922E+03  0.24851950256E+03  0.00000000000E+00 0.  1.
         -1    1    1    2    0  501 -0.13555273517E+02 -0.23168246144E+02  0.15103398663E+04  0.15105783743E+04  0.00000000000E+00 0. -1.
</event>
<event>
 4    1  0.6729064E+001  0.2994568E+02  0.7546771E-02  0.1420069E+00
          2   -1    0    0  502    0  0.00000000000E+00  0.00000000000E+00  0.21349907413E+01  0.21349907413E+01  0.00000000000E+00 0.  1.
         -2   -1    0    0    0  501 -0.00000000000E+00 -0.00000000000E+00 -0.42045324053E+03  0.42045324053E+03  0.00000000000E+00 0. -1.
          1    1    1    2  502    0  0.12783059627E+02 -0.27080196483E+02 -0.21592389360E+03  0.21799053072E+03  0.00000000000E+00 0. -1.
         -1    1    1    2    0  501 -0.12783059627E+02  0.27080196483E+02 -0.20239435619E+03  0.20459770056E+03  0.00000000000E+00 0.  1.
</event>
<event>
 4    1  0.6729064E+001  0.2509752E+02  0.7546771E-02  0.1467715E+00
          2   -1    0    0  502    0  0.00000000000E+00  0.00000000000E+00  0.15375946109E+04  0.15375946109E+04  0.00000000000E+00 0. -1.
         -2   -1    0    0    0  501 -0.00000000000E+00 -0.00000000000E+00 -0.48170515300E+00  0.48170515300E+00  0.00000000000E+00 0.  1.
          1    1    1    2  502    0 -0.51442063292E+01 -0.24564658470E+02  0.10659768900E+04  0.10662722988E+04  0.00000000000E+00 0.  1.
         -1    1    1    2    0  501  0.51442063292E+01  0.24564658470E+02  0.47113601581E+03  0.47180401725E+03  0.00000000000E+00 0. -1.
</event>
<event>
 4    1  0.6729064E+001  0.2104048E+02  0.7546771E-02  0.1518688E+00
          2   -1    0    0  502    0  0.00000000000E+00  0.00000000000E+00  0.23084763991E+03  0.23084763991E+03  0.00000000000E+00 0.  1.
         -2   -1    0    0    0  501 -0.00000000000E+00 -0.00000000000E+00 -0.41708856293E+01  0.41708856293E+01  0.00000000000E+00 0. -1.
          1    1    1    2  502    0  0.19890218807E+02 -0.68615645474E+01  0.19970664555E+03  0.20081196714E+03  0.00000000000E+00 0.  1.
         -1    1    1    2    0  501 -0.19890218807E+02  0.68615645474E+01  0.26970108736E+02  0.34206558399E+02  0.00000000000E+00 0. -1.
</event>
<event>
 4    1  0.6729064E+001  0.2340239E+02  0.7546771E-02  0.1487506E+00
          2   -1    0    0  502    0  0.00000000000E+00  0.00000000000E+00  0.60431090816E+03  0.60431090816E+03  0.00000000000E+00 0. -1.
         -2   -1    0    0    0  501 -0.00000000000E+00 -0.00000000000E+00 -0.11114408650E+01  0.11114408650E+01  0.00000000000E+00 0.  1.
          1    1    1    2  502    0 -0.11908564212E+02 -0.20145915967E+02  0.17154148858E+03  0.17313045410E+03  0.00000000000E+00 0. -1.
         -1    1    1    2    0  501  0.11908564212E+02  0.20145915967E+02  0.43165797872E+03  0.43229189493E+03  0.00000000000E+00 0.  1.
</event>
<event>
 4    1  0.6729064E+001  0.4060671E+02  0.7546771E-02  0.1344967E+00
          2   -1    0    0  502    0  0.00000000000E+00  0.00000000000E+00  0.19354183602E+03  0.19354183602E+03  0.00000000000E+00 0.  1.
         -2   -1    0    0    0  501 -0.00000000000E+00 -0.00000000000E+00 -0.23406722235E+02  0.23406722235E+02  0.00000000000E+00 0. -1.
          1    1    1    2  502    0 -0.36005930061E+02  0.18774402436E+02 -0.14414616364E+01  0.40632290090E+02  0.00000000000E+00 0. -1.
         -1    1    1    2    0  501  0.36005930061E+02 -0.18774402436E+02  0.17157657542E+03  0.17631626816E+03  0.00000000000E+00 0.  1.
</event>
<event>
 4    1  0.6729064E+001  0.3393711E+02  0.7546771E-02  0.1388194E+00
          2   -1    0    0  502    0  0.00000000000E+00  0.00000000000E+00  0.11586275918E+04  0.11586275918E+04  0.00000000000E+00 0. -1.
         -2   -1    0    0    0  501 -0.00000000000E+00 -0.00000000000E+00 -0.10199737576E+01  0.10199737576E+01  0.00000000000E+00 0.  1.
          1    1    1    2  502    0  0.33898875381E+02 -0.16104231562E+01  0.48635574981E+03  0.48753834986E+03  0.00000000000E+00 0. -1.
         -1    1    1    2    0  501 -0.33898875381E+02  0.16104231562E+01  0.67125186828E+03  0.67210921574E+03  0.00000000000E+00 0.  1.
</event>
<event>
 4    1  0.6729064E+001  0.2190409E+02  0.7546771E-02  0.1506738E+00
          2   -1    0    0  502    0  0.00000000000E+00  0.00000000000E+00  0.56408266279E+03  0.56408266279E+03  0.00000000000E+00 0.  1.
         -2   -1    0    0    0  501 -0.00000000000E+00 -0.00000000000E+00 -0.91108267245E+00  0.91108267245E+00  0.00000000000E+00 0. -1.
          1    1    1    2  502    0 -0.16670200009E+02  0.14208929003E+02  0.35439296748E+03  0.35506923921E+03  0.00000000000E+00 0.  1.
         -1    1    1    2    0  501  0.16670200009E+02 -0.14208929003E+02  0.20877861263E+03  0.20992450625E+03  0.00000000000E+00 0. -1.
</event>
<event>
 4    1  0.6729064E+001  0.2336723E+02  0.7546771E-02  0.1487938E+00
          2   -1    0    0  502    0  0.00000000000E+00  0.00000000000E+00  0.25015353533E+02  0.25015353533E+02  0.00000000000E+00 0. -1.
         -2   -1    0    0    0  501 -0.00000000000E+00 -0.00000000000E+00 -0.22404241238E+02  0.22404241238E+02  0.00000000000E+00 0.  1.
          1    1    1    2  502    0  0.18874256138E+02 -0.13776418150E+02  0.51090593846E+01  0.23919233466E+02  0.00000000000E+00 0. -1.
         -1    1    1    2    0  501 -0.18874256138E+02  0.13776418150E+02 -0.24979470893E+01  0.23500361305E+02  0.00000000000E+00 0.  1.
</event>
<event>
 4    1  0.6729064E+001  0.2790384E+02  0.7546771E-02  0.1438734E+00
          2   -1    0    0  502    0  0.00000000000E+00  0.00000000000E+00  0.15166132966E+04  0.15166132966E+04  0.00000000000E+00 0.  1.
         -2   -1    0    0    0  501 -0.00000000000E+00 -0.00000000000E+00 -0.76578799574E+00  0.76578799574E+00  0.00000000000E+00 0. -1.
          1    1    1    2  502    0 -0.21364968853E+02  0.17948890371E+02  0.11934826002E+04  0.11938087542E+04  0.00000000000E+00 0.  1.
         -1    1    1    2    0  501  0.21364968853E+02 -0.17948890371E+02  0.32236490846E+03  0.32357033048E+03  0.00000000000E+00 0. -1.
</event>
<event>
 4    1  0.6729064E+001  0.2040759E+02  0.7546771E-02  0.1527893E+00
          2   -1    0    0  502    0  0.00000000000E+00  0.00000000000E+00  0.64245667438E+02  0.64245667438E+02  0.00000000000E+00 0. -1.
         -2   -1    0    0    0  501 -0.00000000000E+00 -0.00000000000E+00 -0.65482921551E+01  0.65482921551E+01  0.00000000000E+00 0.  1.
          1    1    1    2  502    0  0.19648526839E+02 -0.55140798391E+01  0.32397931988E+02  0.38289628890E+02  0.00000000000E+00 0. -1.
         -1    1    1    2    0  501 -0.19648526839E+02  0.55140798391E+01  0.25299443294E+02  0.32504330703E+02  0.00000000000E+00 0.  1.
</event>
<event>
 4    1  0.6729064E+001  0.2662345E+02  0.7546771E-02  0.1451428E+00
          2   -1    0    0  502    0  0.00000000000E+00  0.00000000000E+00  0.12335239466E+03  0.12335239466E+03  0.00000000000E+00 0. -1.
         -2   -1    0    0    0  501 -0.00000000000E+00 -0.00000000000E+00 -0.74718623152E+01  0.74718623152E+01  0.00000000000E+00 0.  1.
          1    1    1    2  502    0  0.23791049844E+02 -0.11949638882E+02  0.89375837566E+02  0.93256893915E+02  0.00000000000E+00 0.  1.
         -1    1    1    2    0  501 -0.23791049844E+02  0.11949638882E+02  0.26504694783E+02  0.37567363065E+02  0.00000000000E+00 0. -1.
</event>
<event>
 4    1  0.6729064E+001  0.2015052E+02  0.7546771E-02  0.1531747E+00
          2   -1    0    0  502    0  0.00000000000E+00  0.00000000000E+00  0.58506807723E+02  0.58506807723E+02  0.00000000000E+00 0. -1.
         -2   -1    0    0    0  501 -0.00000000000E+00 -0.00000000000E+00 -0.75277710182E+01  0.75277710182E+01  0.00000000000E+00 0.  1.
          1    1    1    2  502    0  0.17519719020E+02  0.99550372858E+01  0.16264357916E+02  0.25895417747E+02  0.00000000000E+00 0.  1.
         -1    1    1    2    0  501 -0.17519719020E+02 -0.99550372858E+01  0.34714678789E+02  0.40139160994E+02  0.00000000000E+00 0. -1.
</event>
<event>
 4    1  0.6729064E+001  0.2432178E+02  0.7546771E-02  0.1476536E+00
          2   -1    0    0  502    0  0.00000000000E+00  0.00000000000E+00  0.96886811356E+03  0.96886811356E+03  0.00000000000E+00 0. -1.
         -2   -1    0    0    0  501 -0.00000000000E+00 -0.00000000000E+00 -0.83598640426E+00  0.83598640426E+00  0.00000000000E+00 0.  1.
          1    1    1    2  502    0 -0.54887705264E+01  0.23694352887E+02  0.23223958370E+03  0.23350968545E+03  0.00000000000E+00 0.  1.
         -1    1    1    2    0  501  0.54887705264E+01 -0.23694352887E+02  0.73579254346E+03  0.73619441452E+03  0.00000000000E+00 0. -1.
</event>
<event>
 4    1  0.6729064E+001  0.3549654E+02  0.7546771E-02  0.1377106E+00
          2   -1    0    0  502    0  0.00000000000E+00  0.00000000000E+00  0.14646752308E+04  0.14646752308E+04  0.00000000000E+00 0.  1.
         -2   -1    0    0    0  501 -0.00000000000E+00 -0.00000000000E+00 -0.94057413002E+00  0.94057413002E+00  0.00000000000E+00 0. -1.
          1    1    1    2  502    0  0.34720429047E+02 -0.73821412488E+01  0.51773381339E+03  0.51894923232E+03  0.00000000000E+00 0.  1.
         -1    1    1    2    0  501 -0.34720429047E+02  0.73821412488E+01  0.94600084329E+03  0.94666657262E+03  0.00000000000E+00 0. -1.
</event>
<event>
 4    1  0.6729064E+001  0.2164397E+02  0.7546771E-02  0.1510266E+00
          2   -1    0    0  502    0  0.00000000000E+00  0.00000000000E+00  0.14323560606E+04  0.14323560606E+04  0.00000000000E+00 0. -1.
         -2   -1    0    0    0  501 -0.00000000000E+00 -0.00000000000E+00 -0.32819412988E+00  0.32819412988E+00  0.00000000000E+00 0.  1.
          1    1    1    2  502    0  0.13129075131E+02 -0.17207232608E+02  0.75818758470E+03  0.75849645686E+03  0.00000000000E+00 0. -1.
         -1    1    1    2    0  501 -0.13129075131E+02  0.17207232608E+02  0.67384028174E+03  0.67418779784E+03  0.00000000000E+00 0.  1.
</event>
<event>
 4    1  0.6729064E+001  0.2483126E+02  0.7546771E-02  0.1470700E+00
          2   -1    0    0  502    0  0.00000000000E+00  0.00000000000E+00  0.12286026411E+04  0.12286026411E+04  0.00000000000E+00 0.  1.
         -2   -1    0    0    0  501 -0.00000000000E+00 -0.00000000000E+00 -0.50590109913E+01  0.50590109913E+01  0.00000000000E+00 0. -1.
          1    1    1    2  502    0  0.19843903281E+01  0.24751841375E+02  0.11972082880E+04  0.11974657725E+04  0.00000000000E+00 0.  1.
         -1    1    1    2    0  501 -0.19843903281E+01 -0.24751841375E+02  0.26335342167E+02  0.36195879648E+02  0.00000000000E+00 0. -1.
</event>
<event>
 4    1  0.6729064E+001  0.3176524E+02  0.7546771E-02  0.1404852E+00
          2   -1    0    0  502    0  0.00000000000E+00  0.00000000000E+00  0.11799152488E+04  0.11799152488E+04  0.00000000000E+00 0.  1.
         -2   -1    0    0    0  501 -0.00000000000E+00 -0.00000000000E+00 -0.85634334591E+00  0.85634334591E+00  0.00000000000E+00 0. -1.
          1    1    1    2  502    0 -0.18247682686E+02  0.26001013174E+02  0.61136352125E+03  0.61218819470E+03  0.00000000000E+00 0.  1.
         -1    1    1    2    0  501  0.18247682686E+02 -0.26001013174E+02  0.56769538421E+03  0.56858339745E+03  0.00000000000E+00 0. -1.
</event>
<event>
 4    1  0.6729064E+001  0.2405216E+02  0.7546771E-02  0.1479692E+00
          2   -1    0    0  502    0  0.00000000000E+00  0.00000000000E+00  0.60051661882E+02  0.60051661882E+02  0.00000000000E+00 0.  1.
         -2   -1    0    0    0  501 -0.00000000000E+00 -0.00000000000E+00 -0.11312158076E+02  0.11312158076E+02  0.00000000000E+00 0. -1.
          1    1    1    2  502    0 -0.24022201611E+02 -0.12001471519E+01  0.10624301212E+02  0.26294149534E+02  0.00000000000E+00 0.  1.
         -1    1    1    2    0  501  0.24022201611E+02  0.12001471519E+01  0.38115202593E+02  0.45069670424E+02  0.00000000000E+00 0. -1.
</event>
<event>
 4    1  0.6729064E+001  0.3091127E+02  0.7546771E-02  0.1411839E+00
          2   -1    0    0  502    0  0.00000000000E+00  0.00000000000E+00  0.31682813865E+03  0.31682813865E+03  0.00000000000E+00 0.  1.
         -2   -1    0    0    0  501 -0.00000000000E+00 -0.00000000000E+00 -0.40608823115E+01  0.40608823115E+01  0.00000000000E+00 0. -1.
          1    1    1    2  502    0  0.23984198715E+01  0.30818083529E+02  0.74992107891E+02  0.81113025688E+02  0.00000000000E+00 0. -1.
         -1    1    1    2    0  501 -0.23984198715E+01 -0.30818083529E+02  0.23777514845E+03  0.23977599527E+03  0.00000000000E+00 0.  1.
</event>
<event>
 4    1  0.6729064E+001  0.2189460E+02  0.7546771E-02  0.1506866E+00
          2   -1    0    0  502    0  0.00000000000E+00  0.00000000000E+00  0.26125741050E+02  0.26125741050E+02  0.00000000000E+00 0. -1.
         -2   -1    0    0    0  501 -0.00000000000E+00 -0.00000000000E+00 -0.24009779975E+02  0.24009779975E+02  0.00000000000E+00 0.  1.
          1    1    1    2  502    0 -0.11325920585E+02  0.18737587887E+02  0.13230224920E+02  0.25581488001E+02  0.00000000000E+00 0. -1.
         -1    1    1    2    0  501  0.11325920585E+02 -0.18737587887E+02 -0.11114263846E+02  0.24554033024E+02  0.00000000000E+00 0.  1.
</event>
<event>
 4    1  0.6729064E+001  0.2143370E+02  0.7546771E-02  0.1513162E+00
          2   -1    0    0  502    0  0.00000000000E+00  0.00000000000E+00  0.72137307843E+02  0.72137307843E+02  0.00000000000E+00 0.  1.
         -2   -1    0    0    0  501 -0.00000000000E+00 -0.00000000000E+00 -0.65655930879E+01  0.65655930879E+01  0.00000000000E+00 0. -1.
          1    1    1    2  502    0 -0.98691859490E+01  0.19026372911E+02  0.25967159959E+02  0.33670418675E+02  0.00000000000E+00 0. -1.
         -1    1    1    2    0  501  0.98691859490E+01 -0.19026372911E+02  0.39604554796E+02  0.45032482255E+02  0.00000000000E+00 0.  1.
</event>
<event>
 4    1  0.6729064E+001  0.2184785E+02  0.7546771E-02  0.1507496E+00
          2   -1    0    0  502    0  0.00000000000E+00  0.00000000000E+00  0.32732412883E+01  0.32732412883E+01  0.00000000000E+00 0. -1.
         -2   -1    0    0    0  501 -0.00000000000E+00 -0.00000000000E+00 -0.16173312495E+03  0.16173312495E+03  0.00000000000E+00 0.  1.
          1    1    1    2  502    0 -0.78765042421E+01 -0.20378644018E+02 -0.53356918475E+02  0.57656649228E+02  0.00000000000E+00 0. -1.
         -1    1    1    2    0  501  0.78765042421E+01  0.20378644018E+02 -0.10510296519E+03  0.10734971701E+03  0.00000000000E+00 0.  1.
</event>
<event>
 4    1  0.6729064E+001  0.2960945E+02  0.7546771E-02  0.1423021E+00
          2   -1    0    0  502    0  0.00000000000E+00  0.00000000000E+00  0.10243352725E+02  0.10243352725E+02  0.00000000000E+00 0.  1.
         -2   -1    0    0    0  501 -0.00000000000E+00 -0.00000000000E+00 -0.11205646013E+03  0.11205646013E+03  0.00000000000E+00 0. -1.
          1    1    1    2  502    0 -0.27890090818E+02  0.99429516951E+01 -0.21187664712E+02  0.36409292636E+02  0.00000000000E+00 0.  1.
         -1    1    1    2    0  501  0.27890090818E+02 -0.99429516951E+01 -0.80625442696E+02  0.85890520223E+02  0.00000000000E+00 0. -1.
</event>
<event>
 4    1  0.6729064E+001  0.2014468E+02  0.7546771E-02  0.1531835E+00
          2   -1    0    0  502    0  0.00000000000E+00  0.00000000000E+00  0.57466634381E+02  0.57466634381E+02  0.00000000000E+00 0. -1.
         -2   -1    0    0    0  501 -0.00000000000E+00 -0.00000000000E+00 -0.72627404706E+01  0.72627404706E+01  0.00000000000E+00 0.  1.
          1    1    1    2  502    0 -0.89885668924E+01 -0.18028142591E+02  0.19716327491E+02  0.28187618377E+02  0.00000000000E+00 0.  1.
         -1    1    1    2    0  501  0.89885668924E+01  0.18028142591E+02  0.30487566420E+02  0.36541756474E+02  0.00000000000E+00 0. -1.
</event>
<event>
 4    1  0.6729064E+001  0.2796374E+02  0.7546771E-02  0.1438160E+00
          2   -1    0    0  502    0  0.00000000000E+00  0.00000000000E+00  0.14705097648E+03  0.14705097648E+03  0.00000000000E+00 0.  1.
         -2   -1    0    0    0  501 -0.00000000000E+00 -0.00000000000E+00 -0.69714165587E+01  0.69714165587E+01  0.00000000000E+00 0. -1.
          1    1    1    2  502    0 -0.27949696742E+02  0.88607165423E+00  0.32531603417E+02  0.42898436940E+02  0.00000000000E+00 0. -1.
         -1    1    1    2    0  501  0.27949696742E+02 -0.88607165423E+00  0.10754795650E+03  0.11112395610E+03  0.00000000000E+00 0.  1.
</event>
<event>
 4    1  0.6729064E+001  0.2750364E+02  0.7546771E-02  0.1442614E+00
          2   -1    0    0  502    0  0.00000000000E+00  0.00000000000E+00  0.67500354892E+03  0.67500354892E+03  0.00000000000E+00 0. -1.
         -2   -1    0    0    0  501 -0.00000000000E+00 -0.00000000000E+00 -0.11226628908E+01  0.11226628908E+01  0.00000000000E+00 0.  1.
          1    1    1    2  502    0  0.20572220971E+02  0.18254696845E+02  0.32266530348E+03  0.32383537222E+03  0.00000000000E+00 0.  1.
         -1    1    1    2    0  501 -0.20572220971E+02 -0.18254696845E+02  0.35121558255E+03  0.35229083959E+03  0.00000000000E+00 0. -1.
</event>
<event>
 4    1  0.6729064E+001  0.2722623E+02  0.7546771E-02  0.1445349E+00
          2   -1    0    0  502    0  0.00000000000E+00  0.00000000000E+00  0.57385184791E+03  0.57385184791E+03  0.00000000000E+00 0.  1.
         -2   -1    0    0    0  501 -0.00000000000E+00 -0.00000000000E+00 -0.17738973193E+01  0.17738973193E+01  0.00000000000E+00 0. -1.
          1    1    1    2  502    0 -0.20177537901E+02 -0.18279349397E+02  0.13598754134E+03  0.13868626122E+03  0.00000000000E+00 0. -1.
         -1    1    1    2    0  501  0.20177537901E+02  0.18279349397E+02  0.43609040925E+03  0.43693948401E+03  0.00000000000E+00 0.  1.
</event>
<event>
 4    1  0.6729064E+001  0.2364342E+02  0.7546771E-02  0.1484573E+00
          2   -1    0    0  502    0  0.00000000000E+00  0.00000000000E+00  0.18505249568E+03  0.18505249568E+03  0.00000000000E+00 0.  1.
         -2   -1    0    0    0  501 -0.00000000000E+00 -0.00000000000E+00 -0.32955379998E+01  0.32955379998E+01  0.00000000000E+00 0. -1.
          1    1    1    2  502    0  0.82927268732E+01  0.22141412924E+02  0.63688658198E+02  0.67935680377E+02  0.00000000000E+00 0.  1.
         -1    1    1    2    0  501 -0.82927268732E+01 -0.22141412924E+02  0.11806829949E+03  0.12041235331E+03  0.00000000000E+00 0. -1.
</event>
<event>
 4    1  0.6729064E+001  0.3155749E+02  0.7546771E-02  0.1406528E+00
          2   -1    0    0  502    0  0.00000000000E+00  0.00000000000E+00  0.10113963664E+03  0.10113963664E+03  0.00000000000E+00 0. -1.
         -2   -1    0    0    0  501 -0.00000000000E+00 -0.00000000000E+00 -0.24484958170E+02  0.24484958170E+02  0.00000000000E+00 0.  1.
          1    1    1    2  502    0  0.26668091802E+02 -0.16872696465E+02 -0.10239757066E+02  0.33177215542E+02  0.00000000000E+00 0.  1.
         -1    1    1    2    0  501 -0.26668091802E+02  0.16872696465E+02  0.86894435539E+02  0.92447379271E+02  0.00000000000E+00 0. -1.
</event>
<event>
 4    1  0.6729064E+001  0.2752224E+02  0.7546771E-02  0.1442431E+00
          2   -1    0    0  502    0  0.00000000000E+00  0.00000000000E+00  0.13530938162E+03  0.13530938162E+03  0.00000000000E+00 0. -1.
         -2   -1    0    0    0  501 -0.00000000000E+00 -0.00000000000E+00 -0.12868087303E+02  0.12868087303E+02  0.00000000000E+00 0.  1.
          1    1    1    2  502    0 -0.26515663140E+02  0.73751770958E+01  0.11690874773E+03  0.12010465822E+03  0.00000000000E+00 0. -1.
         -1    1    1    2    0  501  0.26515663140E+02 -0.73751770958E+01  0.55325465779E+01  0.28072810699E+02  0.00000000000E+00 0.  1.
</event>
<event>
 4    1  0.6729064E+001  0.2060647E+02  0.7546771E-02  0.1524958E+00
          2   -1    0    0  502    0  0.00000000000E+00  0.00000000000E+00  0.89358463639E+03  0.89358463639E+03  0.00000000000E+00 0.  1.
         -2   -1    0    0    0  501 -0.00000000000E+00 -0.00000000000E+00 -0.66181743244E+00  0.66181743244E+00  0.00000000000E+00 0. -1.
          1    1    1    2  502    0  0.12969011924E+02 -0.16013477390E+02  0.20902881245E+03  0.21004206998E+03  0.00000000000E+00 0. -1.
         -1    1    1    2    0  501 -0.12969011924E+02  0.16013477390E+02  0.68389400651E+03  0.68420438385E+03  0.00000000000E+00 0.  1.
</event>
<event>
 4    1  0.6729064E+001  0.3025527E+02  0.7546771E-02  0.1417391E+00
          2   -1    0    0  502    0  0.00000000000E+00  0.00000000000E+00  0.12689281848E+03  0.12689281848E+03  0.00000000000E+00 0. -1.
         -2   -1    0    0    0  501 -0.00000000000E+00 -0.00000000000E+00 -0.16518804523E+02  0.16518804523E+02  0.00000000000E+00 0.  1.
          1    1    1    2  502    0  0.29922166233E+02  0.44772296663E+01  0.10900443481E+03  0.11312536597E+03  0.00000000000E+00 0. -1.
         -1    1    1    2    0  501 -0.29922166233E+02 -0.44772296663E+01  0.13695791393E+01  0.30286257025E+02  0.00000000000E+00 0.  1.
</event>
<event>
 4    1  0.6729064E+001  0.2820785E+02  0.7546771E-02  0.1435838E+00
          2   -1    0    0  502    0  0.00000000000E+00  0.00000000000E+00  0.27376853302E+01  0.27376853302E+01  0.00000000000E+00 0.  1.
         -2   -1    0    0    0  501 -0.00000000000E+00 -0.00000000000E+00 -0.32578945848E+03  0.32578945848E+03  0.00000000000E+00 0. -1.
          1    1    1    2  502    0  0.19746649206E+02  0.20143302644E+02 -0.10757138212E+03  0.11120829577E+03  0.00000000000E+00 0.  1.
         -1    1    1    2    0  501 -0.19746649206E+02 -0.20143302644E+02 -0.21548039103E+03  0.21731884804E+03  0.00000000000E+00 0. -1.
</event>
<event>
 4    1  0.6729064E+001  0.5169612E+02  0.7546771E-02  0.1290982E+00
          2   -1    0    0  502    0  0.00000000000E+00  0.00000000000E+00  0.18873523358E+03  0.18873523358E+03  0.00000000000E+00 0. -1.
         -2   -1    0    0    0  501 -0.00000000000E+00 -0.00000000000E+00 -0.18100932385E+02  0.18100932385E+02  0.00000000000E+00 0.  1.
          1    1    1    2  502    0 -0.49979351991E+02  0.13211840875E+02  0.13357258664E+03  0.14322752622E+03  0.00000000000E+00 0. -1.
         -1    1    1    2    0  501  0.49979351991E+02 -0.13211840875E+02  0.37061714556E+02  0.63608639748E+02  0.00000000000E+00 0.  1.
</event>
<event>
 4    1  0.6729064E+001  0.4022685E+02  0.7546771E-02  0.1347162E+00
          2   -1    0    0  502    0  0.00000000000E+00  0.00000000000E+00  0.11750301044E+02  0.11750301044E+02  0.00000000000E+00 0.  1.
         -2   -1    0    0    0  501 -0.00000000000E+00 -0.00000000000E+00 -0.14782239812E+03  0.14782239812E+03  0.00000000000E+00 0. -1.
          1    1    1    2  502    0 -0.29145491038E+02  0.27726163842E+02 -0.88898492165E+02  0.97576337902E+02  0.00000000000E+00 0. -1.
         -1    1    1    2    0  501  0.29145491038E+02 -0.27726163842E+02 -0.47173604910E+02  0.61996361260E+02  0.00000000000E+00 0.  1.
</event>
<event>
 4    1  0.6729064E+001  0.2505819E+02  0.7546771E-02  0.1468153E+00
          2   -1    0    0  502    0  0.00000000000E+00  0.00000000000E+00  0.46408800787E+01  0.46408800787E+01  0.00000000000E+00 0.  1.
         -2   -1    0    0    0  501 -0.00000000000E+00 -0.00000000000E+00 -0.13895878420E+03  0.13895878420E+03  0.00000000000E+00 0. -1.
          1    1    1    2  502    0  0.25058180153E+02  0.19017301235E-01 -0.55508914023E+02  0.60902810200E+02  0.00000000000E+00 0.  1.
         -1    1    1    2    0  501 -0.25058180153E+02 -0.19017301235E-01 -0.78808990103E+02  0.82696854083E+02  0.00000000000E+00 0. -1.
</event>
<event>
 4    1  0.6729064E+001  0.2107355E+02  0.7546771E-02  0.1518217E+00
          2   -1    0    0  502    0  0.00000000000E+00  0.00000000000E+00  0.50808620072E+03  0.50808620072E+03  0.00000000000E+00 0.  1.
         -2   -1    0    0    0  501 -0.00000000000E+00 -0.00000000000E+00 -0.87492402250E+00  0.87492402250E+00  0.00000000000E+00 0. -1.
          1    1    1    2  502    0  0.11838265086E+02  0.17434164326E+02  0.24557928580E+03  0.24648180504E+03  0.00000000000E+00 0.  1.
         -1    1    1    2    0  501 -0.11838265086E+02 -0.17434164326E+02  0.26163199091E+03  0.26247931970E+03  0.00000000000E+00 0. -1.
</event>
<event>
 4    1  0.6729064E+001  0.2278447E+02  0.7546771E-02  0.1495222E+00
          2   -1    0    0  502    0  0.00000000000E+00  0.00000000000E+00  0.73121929300E+02  0.73121929300E+02  0.00000000000E+00 0. -1.
         -2   -1    0    0    0  501 -0.00000000000E+00 -0.00000000000E+00 -0.89981382990E+01  0.89981382990E+01  0.00000000000E+00 0.  1.
          1    1    1    2  502    0 -0.14711487041E+02 -0.17398397557E+02  0.50922667832E+02  0.55787545095E+02  0.00000000000E+00 0. -1.
         -1    1    1    2    0  501  0.14711487041E+02  0.17398397557E+02  0.13201123168E+02  0.26332522504E+02  0.00000000000E+00 0.  1.
</event>
<event>
 4    1  0.6729064E+001  0.2672625E+02  0.7546771E-02  0.1450377E+00
          2   -1    0    0  502    0  0.00000000000E+00  0.00000000000E+00  0.55633224455E+01  0.55633224455E+01  0.00000000000E+00 0.  1.
         -2   -1    0    0    0  501 -0.00000000000E+00 -0.00000000000E+00 -0.16753467687E+03  0.16753467687E+03  0.00000000000E+00 0. -1.
          1    1    1    2  502    0  0.18632098886E+02  0.19160834043E+02 -0.12281958181E+03  0.12569384370E+03  0.00000000000E+00 0. -1.
         -1    1    1    2    0  501 -0.18632098886E+02 -0.19160834043E+02 -0.39151772622E+02  0.47404155615E+02  0.00000000000E+00 0.  1.
</event>
<event>
 4    1  0.6729064E+001  0.2546350E+02  0.7546771E-02  0.1463684E+00
          2   -1    0    0  502    0  0.00000000000E+00  0.00000000000E+00  0.81942544105E+02  0.81942544105E+02  0.00000000000E+00 0.  1.
         -2   -1    0    0    0  501 -0.00000000000E+00 -0.00000000000E+00 -0.11497052456E+02  0.11497052456E+02  0.00000000000E+00 0. -1.
          1    1    1    2  502    0  0.94585740486E+01  0.23641598531E+02  0.61308945389E+02  0.66386569341E+02  0.00000000000E+00 0.  1.
         -1    1    1    2    0  501 -0.94585740486E+01 -0.23641598531E+02  0.91365462598E+01  0.27053027219E+02  0.00000000000E+00 0. -1.
</event>
<event>
 4    1  0.6729064E+001  0.3908190E+02  0.7546771E-02  0.1353951E+00
          2   -1    0    0  502    0  0.00000000000E+00  0.00000000000E+00  0.17069459028E+02  0.17069459028E+02  0.00000000000E+00 0.  1.
         -2   -1    0    0    0  501 -0.00000000000E+00 -0.00000000000E+00 -0.92360110192E+02  0.92360110192E+02  0.00000000000E+00 0. -1.
          1    1    1    2  502    0 -0.23907368985E+02 -0.30916542346E+02 -0.47305390461E+02  0.61361183570E+02  0.00000000000E+00 0. -1.
         -1    1    1    2    0  501  0.23907368985E+02  0.30916542346E+02 -0.27985260703E+02  0.48068385650E+02  0.00000000000E+00 0.  1.
</event>
<event>
 4    1  0.6729064E+001  0.2260274E+02  0.7546771E-02  0.1497548E+00
          2   -1    0    0  502    0  0.00000000000E+00  0.00000000000E+00  0.49623756282E+03  0.49623756282E+03  0.00000000000E+00 0.  1.
         -2   -1    0    0    0  501 -0.00000000000E+00 -0.00000000000E+00 -0.16009642684E+01  0.16009642684E+01  0.00000000000E+00 0. -1.
          1    1    1    2  502    0  0.19062196653E+02 -0.12145641833E+02  0.98602683889E+02  0.10116013655E+03  0.00000000000E+00 0. -1.
         -1    1    1    2    0  501 -0.19062196653E+02  0.12145641833E+02  0.39603391467E+03  0.39667839054E+03  0.00000000000E+00 0.  1.
</event>
<event>
 4    1  0.6729064E+001  0.2580401E+02  0.7546771E-02  0.1460007E+00
          2   -1    0    0  502    0  0.00000000000E+00  0.00000000000E+00  0.11340863414E+04  0.11340863414E+04  0.00000000000E+00 0. -1.
         -2   -1    0    0    0  501 -0.00000000000E+00 -0.00000000000E+00 -0.61090725603E+00  0.61090725603E+00  0.00000000000E+00 0.  1.
          1    1    1    2  502    0  0.21103631279E+02  0.14848696331E+02  0.45478972200E+03  0.45552117214E+03  0.00000000000E+00 0. -1.
         -1    1    1    2    0  501 -0.21103631279E+02 -0.14848696331E+02  0.67868571213E+03  0.67917607649E+03  0.00000000000E+00 0.  1.
</event>
<event>
 4    1  0.6729064E+001  0.2921680E+02  0.7546771E-02  0.1426527E+00
          2   -1    0    0  502    0  0.00000000000E+00  0.00000000000E+00  0.10769441081E+03  0.10769441081E+03  0.00000000000E+00 0. -1.
         -2   -1    0    0    0  501 -0.00000000000E+00 -0.00000000000E+00 -0.10924905923E+02  0.10924905923E+02  0.00000000000E+00 0.  1.
          1    1    1    2  502    0 -0.20981330142E+01  0.29141364970E+02  0.17312396864E+02  0.33960865708E+02  0.00000000000E+00 0.  1.
         -1    1    1    2    0  501  0.20981330142E+01 -0.29141364970E+02  0.79457108020E+02  0.84658451021E+02  0.00000000000E+00 0. -1.
</event>
<event>
 4    1  0.6729064E+001  0.2545221E+02  0.7546771E-02  0.1463808E+00
          2   -1    0    0  502    0  0.00000000000E+00  0.00000000000E+00  0.22937971775E+04  0.22937971775E+04  0.00000000000E+00 0.  1.
         -2   -1    0    0    0  501 -0.00000000000E+00 -0.00000000000E+00 -0.38329945480E+00  0.38329945480E+00  0.00000000000E+00 0. -1.
          1    1    1    2  502    0  0.12779726533E+02 -0.22011220327E+02  0.17351831053E+04  0.17353697659E+04  0.00000000000E+00 0.  1.
         -1    1    1    2    0  501 -0.12779726533E+02  0.22011220327E+02  0.55823077268E+03  0.55881071106E+03  0.00000000000E+00 0. -1.
</event>
<event>
 4    1  0.6729064E+001  0.8832699E+02  0.7546771E-02  0.1185734E+00
          2   -1    0    0  502    0  0.00000000000E+00  0.00000000000E+00  0.52495648966E+03  0.52495648966E+03  0.00000000000E+00 0. -1.
         -2   -1    0    0    0  501 -0.00000000000E+00 -0.00000000000E+00 -0.21159705187E+02  0.21159705187E+02  0.00000000000E+00 0.  1.
          1    1    1    2  502    0 -0.84978858021E+02 -0.24088396435E+02  0.40087140022E+03  0.41048695067E+03  0.00000000000E+00 0. -1.
         -1    1    1    2    0  501  0.84978858021E+02  0.24088396435E+02  0.10292538425E+03  0.13562924418E+03  0.00000000000E+00 0.  1.
</event>
<event>
 4    1  0.6729064E+001  0.2987847E+02  0.7546771E-02  0.1420656E+00
          2   -1    0    0  502    0  0.00000000000E+00  0.00000000000E+00  0.57102218179E+03  0.57102218179E+03  0.00000000000E+00 0.  1.
         -2   -1    0    0    0  501 -0.00000000000E+00 -0.00000000000E+00 -0.15746680078E+01  0.15746680078E+01  0.00000000000E+00 0. -1.
          1    1    1    2  502    0 -0.28559623106E+02 -0.87790021978E+01  0.26048052000E+03  0.26218852807E+03  0.00000000000E+00 0. -1.
         -1    1    1    2    0  501  0.28559623106E+02  0.87790021978E+01  0.30896699378E+03  0.31040832173E+03  0.00000000000E+00 0.  1.
</event>
<event>
 4    1  0.6729064E+001  0.2422762E+02  0.7546771E-02  0.1477633E+00
          2   -1    0    0  502    0  0.00000000000E+00  0.00000000000E+00  0.18914410505E+02  0.18914410505E+02  0.00000000000E+00 0.  1.
         -2   -1    0    0    0  501 -0.00000000000E+00 -0.00000000000E+00 -0.31073835646E+02  0.31073835646E+02  0.00000000000E+00 0. -1.
          1    1    1    2  502    0  0.22087266146E+01 -0.24126727735E+02 -0.51775036582E+01  0.24774664652E+02  0.00000000000E+00 0.  1.
         -1    1    1    2    0  501 -0.22087266146E+01  0.24126727735E+02 -0.69819214825E+01  0.25213581500E+02  0.00000000000E+00 0. -1.
</event>
<event>
 4    1  0.6729064E+001  0.2186841E+02  0.7546771E-02  0.1507218E+00
          2   -1    0    0  502    0  0.00000000000E+00  0.00000000000E+00  0.30878359541E+03  0.30878359541E+03  0.00000000000E+00 0.  1.
         -2   -1    0    0    0  501 -0.00000000000E+00 -0.00000000000E+00 -0.34491604669E+01  0.34491604669E+01  0.00000000000E+00 0. -1.
          1    1    1    2  502    0  0.10869920262E+02  0.18975570181E+02  0.36785238278E+02  0.42794639680E+02  0.00000000000E+00 0. -1.
         -1    1    1    2    0  501 -0.10869920262E+02 -0.18975570181E+02  0.26854919666E+03  0.26943811620E+03  0.00000000000E+00 0.  1.
</event>
<event>
 4    1  0.6729064E+001  0.3813068E+02  0.7546771E-02  0.1359802E+00
          2   -1    0    0  502    0  0.00000000000E+00  0.00000000000E+00  0.28940417537E+04  0.28940417537E+04  0.00000000000E+00 0.  1.
         -2   -1    0    0    0  501 -0.00000000000E+00 -0.00000000000E+00 -0.94223242789E+00  0.94223242789E+00  0.00000000000E+00 0. -1.
          1    1    1    2  502    0  0.26121835011E+02 -0.27777655500E+02  0.24355214712E+04  0.24358199410E+04  0.00000000000E+00 0.  1.
         -1    1    1    2    0  501 -0.26121835011E+02  0.27777655500E+02  0.45757805013E+03  0.45916404517E+03  0.00000000000E+00 0. -1.
</event>
<event>
 4    1  0.6729064E+001  0.7776567E+02  0.7546771E-02  0.1209132E+00
          2   -1    0    0  502    0  0.00000000000E+00  0.00000000000E+00  0.51988670194E+03  0.51988670194E+03  0.00000000000E+00 0.  1.
         -2   -1    0    0    0  501 -0.00000000000E+00 -0.00000000000E+00 -0.17597232101E+02  0.17597232101E+02  0.00000000000E+00 0. -1.
          1    1    1    2  502    0 -0.66479370798E+02  0.40348391258E+02  0.40760878532E+03  0.41496074669E+03  0.00000000000E+00 0.  1.
         -1    1    1    2    0  501  0.66479370798E+02 -0.40348391258E+02  0.94680684512E+02  0.12252318735E+03  0.00000000000E+00 0. -1.
</event>
<event>
 4    1  0.6729064E+001  0.2495887E+02  0.7546771E-02  0.1469264E+00
          2   -1    0    0  502    0  0.00000000000E+00  0.00000000000E+00  0.13250070992E+04  0.13250070992E+04  0.00000000000E+00 0. -1.
         -2   -1    0    0    0  501 -0.00000000000E+00 -0.00000000000E+00 -0.66769951523E+00  0.66769951523E+00  0.00000000000E+00 0.  1.
          1    1    1    2  502    0 -0.22210191106E+02  0.11386518248E+02  0.30162425148E+03  0.30265514115E+03  0.00000000000E+00 0.  1.
         -1    1    1    2    0  501  0.22210191106E+02 -0.11386518248E+02  0.10227151482E+04  0.10230196576E+04  0.00000000000E+00 0. -1.
</event>
<event>
 4    1  0.6729064E+001  0.2237533E+02  0.7546771E-02  0.1500495E+00
          2   -1    0    0  502    0  0.00000000000E+00  0.00000000000E+00  0.55735052730E+03  0.55735052730E+03  0.00000000000E+00 0. -1.
         -2   -1    0    0    0  501 -0.00000000000E+00 -0.00000000000E+00 -0.29974872663E+01  0.29974872663E+01  0.00000000000E+00 0.  1.
          1    1    1    2  502    0 -0.87192147779E+01 -0.20606572202E+02  0.42712033227E+02  0.48217977007E+02  0.00000000000E+00 0.  1.
         -1    1    1    2    0  501  0.87192147779E+01  0.20606572202E+02  0.51164100681E+03  0.51213003756E+03  0.00000000000E+00 0. -1.
</event>
<event>
 4    1  0.6729064E+001  0.2141027E+02  0.7546771E-02  0.1513487E+00
          2   -1    0    0  502    0  0.00000000000E+00  0.00000000000E+00  0.34279214198E+03  0.34279214198E+03  0.00000000000E+00 0. -1.
         -2   -1    0    0    0  501 -0.00000000000E+00 -0.00000000000E+00 -0.17527745591E+01  0.17527745591E+01  0.00000000000E+00 0.  1.
          1    1    1    2  502    0  0.21359732123E+02 -0.14702438725E+01  0.86641373476E+02  0.89247562270E+02  0.00000000000E+00 0.  1.
         -1    1    1    2    0  501 -0.21359732123E+02  0.14702438725E+01  0.25439799394E+03  0.25529735426E+03  0.00000000000E+00 0. -1.
</event>
<event>
 4    1  0.6729064E+001  0.2454896E+02  0.7546771E-02  0.1473913E+00
          2   -1    0    0  502    0  0.00000000000E+00  0.00000000000E+00  0.52944459271E+01  0.52944459271E+01  0.00000000000E+00 0.  1.
         -2   -1    0    0    0  501 -0.00000000000E+00 -0.00000000000E+00 -0.11549878493E+03  0.11549878493E+03  0.00000000000E+00 0. -1.
          1    1    1    2  502    0 -0.14708503890E+02 -0.19654809379E+02 -0.47836152883E+02  0.53767547285E+02  0.00000000000E+00 0.  1.
         -1    1    1    2    0  501  0.14708503890E+02  0.19654809379E+02 -0.62368186116E+02  0.67025683568E+02  0.00000000000E+00 0. -1.
</event>
<event>
 4    1  0.6729064E+001  0.2121057E+02  0.7546771E-02  0.1516280E+00
          2   -1    0    0  502    0  0.00000000000E+00  0.00000000000E+00  0.31552164073E+01  0.31552164073E+01  0.00000000000E+00 0. -1.
         -2   -1    0    0    0  501 -0.00000000000E+00 -0.00000000000E+00 -0.14586603575E+03  0.14586603575E+03  0.00000000000E+00 0.  1.
          1    1    1    2  502    0  0.19868558150E+02 -0.74248717926E+01 -0.60181401151E+02  0.63809790538E+02  0.00000000000E+00 0. -1.
         -1    1    1    2    0  501 -0.19868558150E+02  0.74248717926E+01 -0.82529418190E+02  0.85211461617E+02  0.00000000000E+00 0.  1.
</event>
<event>
 4    1  0.6729064E+001  0.4166746E+02  0.7546771E-02  0.1338982E+00
          2   -1    0    0  502    0  0.00000000000E+00  0.00000000000E+00  0.47903319035E+03  0.47903319035E+03  0.00000000000E+00 0.  1.
         -2   -1    0    0    0  501 -0.00000000000E+00 -0.00000000000E+00 -0.41005922948E+01  0.41005922948E+01  0.00000000000E+00 0. -1.
          1    1    1    2  502    0  0.33036562506E+02  0.25392177391E+02  0.31979183682E+03  0.32249495504E+03  0.00000000000E+00 0.  1.
         -1    1    1    2    0  501 -0.33036562506E+02 -0.25392177391E+02  0.15514076124E+03  0.16063882760E+03  0.00000000000E+00 0. -1.
</event>
<event>
 4    1  0.6729064E+001  0.3661003E+02  0.7546771E-02  0.1369584E+00
          2   -1    0    0  502    0  0.00000000000E+00  0.00000000000E+00  0.31122730199E+02  0.31122730199E+02  0.00000000000E+00 0. -1.
         -2   -1    0    0    0  501 -0.00000000000E+00 -0.00000000000E+00 -0.11126170612E+03  0.11126170612E+03  0.00000000000E+00 0.  1.
          1    1    1    2  502    0 -0.20141078141E+02  0.30571734336E+02  0.15667310863E+02  0.39821584583E+02  0.00000000000E+00 0. -1.
         -1    1    1    2    0  501  0.20141078141E+02 -0.30571734336E+02 -0.95806286785E+02  0.10256285174E+03  0.00000000000E+00 0.  1.
</event>
<event>
 4    1  0.6729064E+001  0.2230498E+02  0.7546771E-02  0.1501415E+00
          2   -1    0    0  502    0  0.00000000000E+00  0.00000000000E+00  0.15820264911E+03  0.15820264911E+03  0.00000000000E+00 0. -1.
         -2   -1    0    0    0  501 -0.00000000000E+00 -0.00000000000E+00 -0.57257629862E+01  0.57257629862E+01  0.00000000000E+00 0.  1.
          1    1    1    2  502    0 -0.53326866236E+01  0.21658133402E+02  0.13126853651E+03  0.13315006935E+03  0.00000000000E+00 0. -1.
         -1    1    1    2    0  501  0.53326866236E+01 -0.21658133402E+02  0.21208349609E+02  0.30778342747E+02  0.00000000000E+00 0.  1.
</event>
<event>
 4    1  0.6729064E+001  0.6548054E+02  0.7546771E-02  0.1242268E+00
          2   -1    0    0  502    0  0.00000000000E+00  0.00000000000E+00  0.84838844778E+03  0.84838844778E+03  0.00000000000E+00 0.  1.
         -2   -1    0    0    0  501 -0.00000000000E+00 -0.00000000000E+00 -0.50546338453E+01  0.50546338453E+01  0.00000000000E+00 0. -1.
          1    1    1    2  502    0  0.64616364841E+02  0.10603164017E+02  0.42667756953E+03  0.43167285070E+03  0.00000000000E+00 0.  1.
         -1    1    1    2    0  501 -0.64616364841E+02 -0.10603164017E+02  0.41665624440E+03  0.42177023092E+03  0.00000000000E+00 0. -1.
</event>
<event>
 4    1  0.6729064E+001  0.9185065E+02  0.7546771E-02  0.1178731E+00
          2   -1    0    0  502    0  0.00000000000E+00  0.00000000000E+00  0.52179449773E+02  0.52179449773E+02  0.00000000000E+00 0.  1.
         -2   -1    0    0    0  501 -0.00000000000E+00 -0.00000000000E+00 -0.17400525508E+03  0.17400525508E+03  0.00000000000E+00 0. -1.
          1    1    1    2  502    0  0.64389520537E+02  0.65502148791E+02 -0.30817986128E+02  0.96882868043E+02  0.00000000000E+00 0. -1.
         -1    1    1    2    0  501 -0.64389520537E+02 -0.65502148791E+02 -0.91007819183E+02  0.12930183681E+03  0.00000000000E+00 0.  1.
</event>
<event>
 4    1  0.6729064E+001  0.2422905E+02  0.7546771E-02  0.1477616E+00
          2   -1    0    0  502    0  0.00000000000E+00  0.00000000000E+00  0.18760230868E+03  0.18760230868E+03  0.00000000000E+00 0.  1.
         -2   -1    0    0    0  501 -0.00000000000E+00 -0.00000000000E+00 -0.32360993505E+01  0.32360993505E+01  0.00000000000E+00 0. -1.
          1    1    1    2  502    0 -0.19159768419E+02 -0.14830711598E+02  0.10952494580E+03  0.11217290441E+03  0.00000000000E+00 0. -1.
         -1    1    1    2    0  501  0.19159768419E+02  0.14830711598E+02  0.74841263529E+02  0.78665503615E+02  0.00000000000E+00 0.  1.
</event>
<event>
 4    1  0.6729064E+001  0.6362579E+02  0.7546771E-02  0.1247987E+00
          2   -1    0    0  502    0  0.00000000000E+00  0.00000000000E+00  0.15643914922E+04  0.15643914922E+04  0.00000000000E+00 0. -1.
         -2   -1    0    0    0  501 -0.00000000000E+00 -0.00000000000E+00 -0.30703443063E+01  0.30703443063E+01  0.00000000000E+00 0.  1.
          1    1    1    2  502    0 -0.61144522732E+02  0.17595140808E+02  0.46994135524E+03  0.47422897318E+03  0.00000000000E+00 0.  1.
         -1    1    1    2    0  501  0.61144522732E+02 -0.17595140808E+02  0.10913797927E+04  0.10932328633E+04  0.00000000000E+00 0. -1.
</event>
<event>
 4    1  0.6729064E+001  0.5784077E+02  0.7546771E-02  0.1267351E+00
          2   -1    0    0  502    0  0.00000000000E+00  0.00000000000E+00  0.16777760314E+04  0.16777760314E+04  0.00000000000E+00 0. -1.
         -2   -1    0    0    0  501 -0.00000000000E+00 -0.00000000000E+00 -0.29123201313E+01  0.29123201313E+01  0.00000000000E+00 0.  1.
          1    1    1    2  502    0 -0.66672535156E+01  0.57455220004E+02  0.36555905786E+03  0.37010671348E+03  0.00000000000E+00 0.  1.
         -1    1    1    2    0  501  0.66672535156E+01 -0.57455220004E+02  0.13093046534E+04  0.13105816380E+04  0.00000000000E+00 0. -1.
</event>
<event>
 4    1  0.6729064E+001  0.2114160E+02  0.7546771E-02  0.1517253E+00
          2   -1    0    0  502    0  0.00000000000E+00  0.00000000000E+00  0.15269957154E+02  0.15269957154E+02  0.00000000000E+00 0. -1.
         -2   -1    0    0    0  501 -0.00000000000E+00 -0.00000000000E+00 -0.29626272113E+02  0.29626272113E+02  0.00000000000E+00 0.  1.
          1    1    1    2  502    0 -0.20624386649E+02 -0.46477791249E+01 -0.47199896113E+01  0.21662074632E+02  0.00000000000E+00 0.  1.
         -1    1    1    2    0  501  0.20624386649E+02  0.46477791249E+01 -0.96363253472E+01  0.23234154635E+02  0.00000000000E+00 0. -1.
</event>
<event>
 4    1  0.6729064E+001  0.2821556E+02  0.7546771E-02  0.1435765E+00
          2   -1    0    0  502    0  0.00000000000E+00  0.00000000000E+00  0.10782103363E+04  0.10782103363E+04  0.00000000000E+00 0. -1.
         -2   -1    0    0    0  501 -0.00000000000E+00 -0.00000000000E+00 -0.11752877879E+01  0.11752877879E+01  0.00000000000E+00 0.  1.
          1    1    1    2  502    0 -0.22305869915E+02 -0.17279064746E+02  0.20945797181E+03  0.21134985182E+03  0.00000000000E+00 0.  1.
         -1    1    1    2    0  501  0.22305869915E+02  0.17279064746E+02  0.86757707675E+03  0.86803577231E+03  0.00000000000E+00 0. -1.
</event>
<event>
 4    1  0.6729064E+001  0.3200209E+02  0.7546771E-02  0.1402961E+00
          2   -1    0    0  502    0  0.00000000000E+00  0.00000000000E+00  0.44317367220E+02  0.44317367220E+02  0.00000000000E+00 0. -1.
         -2   -1    0    0    0  501 -0.00000000000E+00 -0.00000000000E+00 -0.28625640280E+02  0.28625640280E+02  0.00000000000E+00 0.  1.
          1    1    1    2  502    0  0.10161390724E+02 -0.30345999650E+02  0.23856561788E+02  0.39915775034E+02  0.00000000000E+00 0. -1.
         -1    1    1    2    0  501 -0.10161390724E+02  0.30345999650E+02 -0.81648348477E+01  0.33027232465E+02  0.00000000000E+00 0.  1.
</event>
<event>
 4    1  0.6729064E+001  0.2188500E+02  0.7546771E-02  0.1506995E+00
          2   -1    0    0  502    0  0.00000000000E+00  0.00000000000E+00  0.20590227125E+02  0.20590227125E+02  0.00000000000E+00 0.  1.
         -2   -1    0    0    0  501 -0.00000000000E+00 -0.00000000000E+00 -0.26044851125E+02  0.26044851125E+02  0.00000000000E+00 0. -1.
          1    1    1    2  502    0 -0.13373797858E+02 -0.17323242205E+02  0.48957585682E+01  0.22425914510E+02  0.00000000000E+00 0.  1.
         -1    1    1    2    0  501  0.13373797858E+02  0.17323242205E+02 -0.10350382569E+02  0.24209163739E+02  0.00000000000E+00 0. -1.
</event>
<event>
 4    1  0.6729064E+001  0.2168657E+02  0.7546771E-02  0.1509684E+00
          2   -1    0    0  502    0  0.00000000000E+00  0.00000000000E+00  0.17497982188E+04  0.17497982188E+04  0.00000000000E+00 0.  1.
         -2   -1    0    0    0  501 -0.00000000000E+00 -0.00000000000E+00 -0.27094334517E+00  0.27094334517E+00  0.00000000000E+00 0. -1.
          1    1    1    2  502    0  0.61563950051E+01 -0.20794378667E+02  0.79653914071E+03  0.79683430528E+03  0.00000000000E+00 0.  1.
         -1    1    1    2    0  501 -0.61563950051E+01  0.20794378667E+02  0.95298813473E+03  0.95323485685E+03  0.00000000000E+00 0. -1.
</event>
<event>
 4    1  0.6729064E+001  0.2143908E+02  0.7546771E-02  0.1513087E+00
          2   -1    0    0  502    0  0.00000000000E+00  0.00000000000E+00  0.77126242995E+02  0.77126242995E+02  0.00000000000E+00 0. -1.
         -2   -1    0    0    0  501 -0.00000000000E+00 -0.00000000000E+00 -0.61763150728E+01  0.61763150728E+01  0.00000000000E+00 0.  1.
          1    1    1    2  502    0 -0.20015545350E+02  0.76819390974E+01  0.27671217031E+02  0.35004721053E+02  0.00000000000E+00 0.  1.
         -1    1    1    2    0  501  0.20015545350E+02 -0.76819390974E+01  0.43278710890E+02  0.48297837015E+02  0.00000000000E+00 0. -1.
</event>
<event>
 4    1  0.6729064E+001  0.2212170E+02  0.7546771E-02  0.1503832E+00
          2   -1    0    0  502    0  0.00000000000E+00  0.00000000000E+00  0.43611825334E+02  0.43611825334E+02  0.00000000000E+00 0.  1.
         -2   -1    0    0    0  501 -0.00000000000E+00 -0.00000000000E+00 -0.12612669688E+02  0.12612669688E+02  0.00000000000E+00 0. -1.
          1    1    1    2  502    0 -0.21675996366E+02 -0.44182574095E+01  0.24837595352E+02  0.33260726990E+02  0.00000000000E+00 0.  1.
         -1    1    1    2    0  501  0.21675996366E+02  0.44182574095E+01  0.61615602934E+01  0.22963768032E+02  0.00000000000E+00 0. -1.
</event>
<event>
 4    1  0.6729064E+001  0.2179387E+02  0.7546771E-02  0.1508226E+00
          2   -1    0    0  502    0  0.00000000000E+00  0.00000000000E+00  0.55080469855E+03  0.55080469855E+03  0.00000000000E+00 0.  1.
         -2   -1    0    0    0  501 -0.00000000000E+00 -0.00000000000E+00 -0.11038925053E+01  0.11038925053E+01  0.00000000000E+00 0. -1.
          1    1    1    2  502    0 -0.14254678987E+02 -0.16485654150E+02  0.14576027937E+03  0.14738056761E+03  0.00000000000E+00 0. -1.
         -1    1    1    2    0  501  0.14254678987E+02  0.16485654150E+02  0.40394052667E+03  0.40452802345E+03  0.00000000000E+00 0.  1.
</event>
<event>
 4    1  0.6729064E+001  0.2135838E+02  0.7546771E-02  0.1514209E+00
          2   -1    0    0  502    0  0.00000000000E+00  0.00000000000E+00  0.12519766480E+02  0.12519766480E+02  0.00000000000E+00 0. -1.
         -2   -1    0    0    0  501 -0.00000000000E+00 -0.00000000000E+00 -0.36436917899E+02  0.36436917899E+02  0.00000000000E+00 0.  1.
          1    1    1    2  502    0 -0.20945163088E+02  0.41809594985E+01 -0.12001827448E+02  0.24499472264E+02  0.00000000000E+00 0. -1.
         -1    1    1    2    0  501  0.20945163088E+02 -0.41809594985E+01 -0.11915323971E+02  0.24457212115E+02  0.00000000000E+00 0.  1.
</event>
<event>
 4    1  0.6729064E+001  0.2138785E+02  0.7546771E-02  0.1513799E+00
          2   -1    0    0  502    0  0.00000000000E+00  0.00000000000E+00  0.52215220205E+03  0.52215220205E+03  0.00000000000E+00 0. -1.
         -2   -1    0    0    0  501 -0.00000000000E+00 -0.00000000000E+00 -0.88809525133E+00  0.88809525133E+00  0.00000000000E+00 0.  1.
          1    1    1    2  502    0 -0.10929453822E+02  0.18384423223E+02  0.29106809809E+03  0.29185283570E+03  0.00000000000E+00 0. -1.
         -1    1    1    2    0  501  0.10929453822E+02 -0.18384423223E+02  0.23019600871E+03  0.23118746160E+03  0.00000000000E+00 0.  1.
</event>
<event>
 4    1  0.6729064E+001  0.2123819E+02  0.7546771E-02  0.1515891E+00
          2   -1    0    0  502    0  0.00000000000E+00  0.00000000000E+00  0.14813486974E+04  0.14813486974E+04  0.00000000000E+00 0.  1.
         -2   -1    0    0    0  501 -0.00000000000E+00 -0.00000000000E+00 -0.30463877858E+00  0.30463877858E+00  0.00000000000E+00 0. -1.
          1    1    1    2  502    0  0.21237787517E+02  0.13039436134E+00  0.75671611744E+03  0.75701409698E+03  0.00000000000E+00 0.  1.
         -1    1    1    2    0  501 -0.21237787517E+02 -0.13039436134E+00  0.72432794113E+03  0.72463923916E+03  0.00000000000E+00 0. -1.
</event>
<event>
 4    1  0.6729064E+001  0.3516249E+02  0.7546771E-02  0.1379424E+00
          2   -1    0    0  502    0  0.00000000000E+00  0.00000000000E+00  0.41792977942E+03  0.41792977942E+03  0.00000000000E+00 0. -1.
         -2   -1    0    0    0  501 -0.00000000000E+00 -0.00000000000E+00 -0.42145987304E+01  0.42145987304E+01  0.00000000000E+00 0.  1.
          1    1    1    2  502    0 -0.23575942775E+02 -0.26087849240E+02  0.32209224615E+03  0.32400588881E+03  0.00000000000E+00 0. -1.
         -1    1    1    2    0  501  0.23575942775E+02  0.26087849240E+02  0.91622934541E+02  0.98138489338E+02  0.00000000000E+00 0.  1.
</event>
<event>
 4    1  0.6729064E+001  0.2306390E+02  0.7546771E-02  0.1491697E+00
          2   -1    0    0  502    0  0.00000000000E+00  0.00000000000E+00  0.38104986788E+02  0.38104986788E+02  0.00000000000E+00 0.  1.
         -2   -1    0    0    0  501 -0.00000000000E+00 -0.00000000000E+00 -0.14204543434E+02  0.14204543434E+02  0.00000000000E+00 0. -1.
          1    1    1    2  502    0 -0.16410595792E+02 -0.16206039407E+02  0.85180613453E+01  0.24586596686E+02  0.00000000000E+00 0.  1.
         -1    1    1    2    0  501  0.16410595792E+02  0.16206039407E+02  0.15382382009E+02  0.27722933535E+02  0.00000000000E+00 0. -1.
</event>
<event>
 4    1  0.6729064E+001  0.2005372E+02  0.7546771E-02  0.1533216E+00
          2   -1    0    0  502    0  0.00000000000E+00  0.00000000000E+00  0.52099050929E+03  0.52099050929E+03  0.00000000000E+00 0. -1.
         -2   -1    0    0    0  501 -0.00000000000E+00 -0.00000000000E+00 -0.13781176945E+01  0.13781176945E+01  0.00000000000E+00 0.  1.
          1    1    1    2  502    0  0.19905563054E+02  0.24331890052E+01  0.43303445386E+03  0.43349854680E+03  0.00000000000E+00 0. -1.
         -1    1    1    2    0  501 -0.19905563054E+02 -0.24331890052E+01  0.86577937740E+02  0.88870080188E+02  0.00000000000E+00 0.  1.
</event>
<event>
 4    1  0.6729064E+001  0.2260513E+02  0.7546771E-02  0.1497517E+00
          2   -1    0    0  502    0  0.00000000000E+00  0.00000000000E+00  0.91994361614E+02  0.91994361614E+02  0.00000000000E+00 0. -1.
         -2   -1    0    0    0  501 -0.00000000000E+00 -0.00000000000E+00 -0.59518559392E+01  0.59518559392E+01  0.00000000000E+00 0.  1.
          1    1    1    2  502    0  0.10721722007E+02  0.19900663113E+02  0.30369006081E+02  0.37858529362E+02  0.00000000000E+00 0. -1.
         -1    1    1    2    0  501 -0.10721722007E+02 -0.19900663113E+02  0.55673499594E+02  0.60087688191E+02  0.00000000000E+00 0.  1.
</event>
<event>
 4    1  0.6729064E+001  0.4608742E+02  0.7546771E-02  0.1316090E+00
          2   -1    0    0  502    0  0.00000000000E+00  0.00000000000E+00  0.89688132443E+02  0.89688132443E+02  0.00000000000E+00 0. -1.
         -2   -1    0    0    0  501 -0.00000000000E+00 -0.00000000000E+00 -0.30237846027E+02  0.30237846027E+02  0.00000000000E+00 0.  1.
          1    1    1    2  502    0  0.92004746760E+01  0.45159733482E+02  0.57644253393E+02  0.73803185647E+02  0.00000000000E+00 0. -1.
         -1    1    1    2    0  501 -0.92004746760E+01 -0.45159733482E+02  0.18060330234E+01  0.46122792822E+02  0.00000000000E+00 0.  1.
</event>
<event>
 4    1  0.6729064E+001  0.3235048E+02  0.7546771E-02  0.1400213E+00
          2   -1    0    0  502    0  0.00000000000E+00  0.00000000000E+00  0.13054216513E+04  0.13054216513E+04  0.00000000000E+00 0. -1.
         -2   -1    0    0    0  501 -0.00000000000E+00 -0.00000000000E+00 -0.22046593126E+01  0.22046593126E+01  0.00000000000E+00 0.  1.
          1    1    1    2  502    0  0.31521613554E+02  0.72760737620E+01  0.13004663680E+03  0.13401000378E+03  0.00000000000E+00 0.  1.
         -1    1    1    2    0  501 -0.31521613554E+02 -0.72760737620E+01  0.11731703552E+04  0.11736163069E+04  0.00000000000E+00 0. -1.
</event>
<event>
 4    1  0.6729064E+001  0.3969457E+02  0.7546771E-02  0.1350285E+00
          2   -1    0    0  502    0  0.00000000000E+00  0.00000000000E+00  0.15315597991E+04  0.15315597991E+04  0.00000000000E+00 0. -1.
         -2   -1    0    0    0  501 -0.00000000000E+00 -0.00000000000E+00 -0.10810185433E+01  0.10810185433E+01  0.00000000000E+00 0.  1.
          1    1    1    2  502    0  0.10974922825E+02  0.38147209746E+02  0.59680381195E+03  0.59812243605E+03  0.00000000000E+00 0. -1.
         -1    1    1    2    0  501 -0.10974922825E+02 -0.38147209746E+02  0.93367496863E+03  0.93451838162E+03  0.00000000000E+00 0.  1.
</event>
<event>
 4    1  0.6729064E+001  0.2012793E+02  0.7546771E-02  0.1532089E+00
          2   -1    0    0  502    0  0.00000000000E+00  0.00000000000E+00  0.18269382920E+03  0.18269382920E+03  0.00000000000E+00 0.  1.
         -2   -1    0    0    0  501 -0.00000000000E+00 -0.00000000000E+00 -0.24299899676E+01  0.24299899676E+01  0.00000000000E+00 0. -1.
          1    1    1    2  502    0  0.19682468792E+02 -0.42111688476E+01  0.62763886201E+02  0.65912357960E+02  0.00000000000E+00 0. -1.
         -1    1    1    2    0  501 -0.19682468792E+02  0.42111688476E+01  0.11749995304E+03  0.11921146121E+03  0.00000000000E+00 0.  1.
</event>
<event>
 4    1  0.6729064E+001  0.3416030E+02  0.7546771E-02  0.1386565E+00
          2   -1    0    0  502    0  0.00000000000E+00  0.00000000000E+00  0.67874860021E+03  0.67874860021E+03  0.00000000000E+00 0. -1.
         -2   -1    0    0    0  501 -0.00000000000E+00 -0.00000000000E+00 -0.33747908569E+01  0.33747908569E+01  0.00000000000E+00 0.  1.
          1    1    1    2  502    0 -0.56370347899E+01  0.33691981793E+02  0.57656807984E+03  0.57757915171E+03  0.00000000000E+00 0. -1.
         -1    1    1    2    0  501  0.56370347899E+01 -0.33691981793E+02  0.98805729517E+02  0.10454423936E+03  0.00000000000E+00 0.  1.
</event>
<event>
 4    1  0.6729064E+001  0.3295449E+02  0.7546771E-02  0.1395544E+00
          2   -1    0    0  502    0  0.00000000000E+00  0.00000000000E+00  0.64584079966E+03  0.64584079966E+03  0.00000000000E+00 0. -1.
         -2   -1    0    0    0  501 -0.00000000000E+00 -0.00000000000E+00 -0.17539030756E+01  0.17539030756E+01  0.00000000000E+00 0.  1.
          1    1    1    2  502    0  0.30387945824E+02 -0.12750352453E+02  0.38781953435E+03  0.38921715014E+03  0.00000000000E+00 0. -1.
         -1    1    1    2    0  501 -0.30387945824E+02  0.12750352453E+02  0.25626736224E+03  0.25837755260E+03  0.00000000000E+00 0.  1.
</event>
<event>
 4    1  0.6729064E+001  0.2851439E+02  0.7546771E-02  0.1432961E+00
          2   -1    0    0  502    0  0.00000000000E+00  0.00000000000E+00  0.38305168374E+01  0.38305168374E+01  0.00000000000E+00 0. -1.
         -2   -1    0    0    0  501 -0.00000000000E+00 -0.00000000000E+00 -0.46125590953E+03  0.46125590953E+03  0.00000000000E+00 0.  1.
          1    1    1    2  502    0 -0.25176272636E+02 -0.13387527887E+02 -0.39956767636E+03  0.40058382218E+03  0.00000000000E+00 0.  1.
         -1    1    1    2    0  501  0.25176272636E+02  0.13387527887E+02 -0.57857716337E+02  0.64502604184E+02  0.00000000000E+00 0. -1.
</event>
<event>
 4    1  0.6729064E+001  0.2290694E+02  0.7546771E-02  0.1493670E+00
          2   -1    0    0  502    0  0.00000000000E+00  0.00000000000E+00  0.18276778541E+03  0.18276778541E+03  0.00000000000E+00 0. -1.
         -2   -1    0    0    0  501 -0.00000000000E+00 -0.00000000000E+00 -0.32486453057E+01  0.32486453057E+01  0.00000000000E+00 0.  1.
          1    1    1    2  502    0  0.21948479701E+02  0.65568424625E+01  0.12147036086E+03  0.12361139313E+03  0.00000000000E+00 0.  1.
         -1    1    1    2    0  501 -0.21948479701E+02 -0.65568424625E+01  0.58048779248E+02  0.62405037588E+02  0.00000000000E+00 0. -1.
</event>
<event>
 4    1  0.6729064E+001  0.3401602E+02  0.7546771E-02  0.1387616E+00
          2   -1    0    0  502    0  0.00000000000E+00  0.00000000000E+00  0.16780821554E+04  0.16780821554E+04  0.00000000000E+00 0.  1.
         -2   -1    0    0    0  501 -0.00000000000E+00 -0.00000000000E+00 -0.93826430731E+00  0.93826430731E+00  0.00000000000E+00 0. -1.
          1    1    1    2  502    0  0.37107839800E+01 -0.33813011144E+02  0.12708173359E+04  0.12712725085E+04  0.00000000000E+00 0.  1.
         -1    1    1    2    0  501 -0.37107839800E+01  0.33813011144E+02  0.40632655523E+03  0.40774791125E+03  0.00000000000E+00 0. -1.
</event>
<event>
 4    1  0.6729064E+001  0.3215366E+02  0.7546771E-02  0.1401760E+00
          2   -1    0    0  502    0  0.00000000000E+00  0.00000000000E+00  0.53578190370E+01  0.53578190370E+01  0.00000000000E+00 0.  1.
         -2   -1    0    0    0  501 -0.00000000000E+00 -0.00000000000E+00 -0.22179670141E+03  0.22179670141E+03  0.00000000000E+00 0. -1.
          1    1    1    2  502    0 -0.49950280457E+01  0.31763302229E+02 -0.14917081618E+03  0.15259682196E+03  0.00000000000E+00 0. -1.
         -1    1    1    2    0  501  0.49950280457E+01 -0.31763302229E+02 -0.67268066189E+02  0.74557698479E+02  0.00000000000E+00 0.  1.
</event>
<event>
 4    1  0.6729064E+001  0.2606410E+02  0.7546771E-02  0.1457243E+00
          2   -1    0    0  502    0  0.00000000000E+00  0.00000000000E+00  0.28287957405E+04  0.28287957405E+04  0.00000000000E+00 0. -1.
         -2   -1    0    0    0  501 -0.00000000000E+00 -0.00000000000E+00 -0.24253347951E+00  0.24253347951E+00  0.00000000000E+00 0.  1.
          1    1    1    2  502    0  0.21104167956E+02 -0.15295467503E+02  0.15544825357E+04  0.15547010295E+04  0.00000000000E+00 0. -1.
         -1    1    1    2    0  501 -0.21104167956E+02  0.15295467503E+02  0.12740706713E+04  0.12743372445E+04  0.00000000000E+00 0.  1.
</event>
<event>
 4    1  0.6729064E+001  0.2041264E+02  0.7546771E-02  0.1527818E+00
          2   -1    0    0  502    0  0.00000000000E+00  0.00000000000E+00  0.16473185606E+04  0.16473185606E+04  0.00000000000E+00 0.  1.
         -2   -1    0    0    0  501 -0.00000000000E+00 -0.00000000000E+00 -0.36093654651E+00  0.36093654651E+00  0.00000000000E+00 0. -1.
          1    1    1    2  502    0 -0.17147768901E+02  0.11073845124E+02  0.12741172765E+04  0.12742807816E+04  0.00000000000E+00 0.  1.
         -1    1    1    2    0  501  0.17147768901E+02 -0.11073845124E+02  0.37284034752E+03  0.37339871553E+03  0.00000000000E+00 0. -1.
</event>
<event>
 4    1  0.6729064E+001  0.2169617E+02  0.7546771E-02  0.1509553E+00
          2   -1    0    0  502    0  0.00000000000E+00  0.00000000000E+00  0.11801726072E+04  0.11801726072E+04  0.00000000000E+00 0.  1.
         -2   -1    0    0    0  501 -0.00000000000E+00 -0.00000000000E+00 -0.41074958940E+00  0.41074958940E+00  0.00000000000E+00 0. -1.
          1    1    1    2  502    0 -0.16015039464E+02 -0.14637019340E+02  0.48945201529E+03  0.48993264751E+03  0.00000000000E+00 0. -1.
         -1    1    1    2    0  501  0.16015039464E+02  0.14637019340E+02  0.69030984229E+03  0.69065070925E+03  0.00000000000E+00 0.  1.
</event>
<event>
 4    1  0.6729064E+001  0.2919470E+02  0.7546771E-02  0.1426726E+00
          2   -1    0    0  502    0  0.00000000000E+00  0.00000000000E+00  0.13258226080E+01  0.13258226080E+01  0.00000000000E+00 0.  1.
         -2   -1    0    0    0  501 -0.00000000000E+00 -0.00000000000E+00 -0.71351643534E+03  0.71351643534E+03  0.00000000000E+00 0. -1.
          1    1    1    2  502    0 -0.21134293079E+02  0.20141305587E+02 -0.46856248011E+03  0.46947111552E+03  0.00000000000E+00 0. -1.
         -1    1    1    2    0  501  0.21134293079E+02 -0.20141305587E+02 -0.24362813261E+03  0.24537114243E+03  0.00000000000E+00 0.  1.
</event>
<event>
 4    1  0.6729064E+001  0.2388022E+02  0.7546771E-02  0.1481731E+00
          2   -1    0    0  502    0  0.00000000000E+00  0.00000000000E+00  0.82469641680E+02  0.82469641680E+02  0.00000000000E+00 0.  1.
         -2   -1    0    0    0  501 -0.00000000000E+00 -0.00000000000E+00 -0.69412789841E+01  0.69412789841E+01  0.00000000000E+00 0. -1.
          1    1    1    2  502    0  0.23680695406E+02  0.30805263772E+01  0.35005488302E+02  0.42375101050E+02  0.00000000000E+00 0.  1.
         -1    1    1    2    0  501 -0.23680695406E+02 -0.30805263772E+01  0.40522874394E+02  0.47035819615E+02  0.00000000000E+00 0. -1.
</event>
<event>
 4    1  0.6729064E+001  0.4965095E+02  0.7546771E-02  0.1299693E+00
          2   -1    0    0  502    0  0.00000000000E+00  0.00000000000E+00  0.26564920085E+03  0.26564920085E+03  0.00000000000E+00 0.  1.
         -2   -1    0    0    0  501 -0.00000000000E+00 -0.00000000000E+00 -0.11912623088E+02  0.11912623088E+02  0.00000000000E+00 0. -1.
          1    1    1    2  502    0 -0.86105648976E+01  0.48898620184E+02  0.19210961352E+03  0.19842207662E+03  0.00000000000E+00 0.  1.
         -1    1    1    2    0  501  0.86105648976E+01 -0.48898620184E+02  0.61626964245E+02  0.79139747319E+02  0.00000000000E+00 0. -1.
</event>
<event>
 4    1  0.6729064E+001  0.2093154E+02  0.7546771E-02  0.1520245E+00
          2   -1    0    0  502    0  0.00000000000E+00  0.00000000000E+00  0.91643541063E+01  0.91643541063E+01  0.00000000000E+00 0.  1.
         -2   -1    0    0    0  501 -0.00000000000E+00 -0.00000000000E+00 -0.51015608860E+02  0.51015608860E+02  0.00000000000E+00 0. -1.
          1    1    1    2  502    0 -0.19903836529E+02 -0.64781545665E+01 -0.28470690931E+02  0.35337083033E+02  0.00000000000E+00 0. -1.
         -1    1    1    2    0  501  0.19903836529E+02  0.64781545665E+01 -0.13380563822E+02  0.24842879933E+02  0.00000000000E+00 0.  1.
</event>
<event>
 4    1  0.6729064E+001  0.2165268E+02  0.7546771E-02  0.1510147E+00
          2   -1    0    0  502    0  0.00000000000E+00  0.00000000000E+00  0.93848310755E+03  0.93848310755E+03  0.00000000000E+00 0.  1.
         -2   -1    0    0    0  501 -0.00000000000E+00 -0.00000000000E+00 -0.62112144265E+00  0.62112144265E+00  0.00000000000E+00 0. -1.
          1    1    1    2  502    0  0.18983594333E+02  0.10414488263E+02  0.67664931764E+03  0.67699567021E+03  0.00000000000E+00 0.  1.
         -1    1    1    2    0  501 -0.18983594333E+02 -0.10414488263E+02  0.26121266847E+03  0.26210855878E+03  0.00000000000E+00 0. -1.
</event>
<event>
 4    1  0.6729064E+001  0.4001561E+02  0.7546771E-02  0.1348394E+00
          2   -1    0    0  502    0  0.00000000000E+00  0.00000000000E+00  0.29794323366E+02  0.29794323366E+02  0.00000000000E+00 0.  1.
         -2   -1    0    0    0  501 -0.00000000000E+00 -0.00000000000E+00 -0.57042298534E+02  0.57042298534E+02  0.00000000000E+00 0. -1.
          1    1    1    2  502    0 -0.37665214760E+02 -0.13512234232E+02 -0.24065357553E+02  0.46694649704E+02  0.00000000000E+00 0. -1.
         -1    1    1    2    0  501  0.37665214760E+02  0.13512234232E+02 -0.31826176157E+01  0.40141972195E+02  0.00000000000E+00 0.  1.
</event>
<event>
 4    1  0.6729064E+001  0.2256354E+02  0.7546771E-02  0.1498053E+00
          2   -1    0    0  502    0  0.00000000000E+00  0.00000000000E+00  0.39934339634E+03  0.39934339634E+03  0.00000000000E+00 0. -1.
         -2   -1    0    0    0  501 -0.00000000000E+00 -0.00000000000E+00 -0.13119244056E+01  0.13119244056E+01  0.00000000000E+00 0.  1.
          1    1    1    2  502    0  0.19481022922E+02 -0.11384326225E+02  0.16535110723E+03  0.16688349768E+03  0.00000000000E+00 0. -1.
         -1    1    1    2    0  501 -0.19481022922E+02  0.11384326225E+02  0.23268036470E+03  0.23377182306E+03  0.00000000000E+00 0.  1.
</event>
<event>
 4    1  0.6729064E+001  0.3514476E+02  0.7546771E-02  0.1379548E+00
          2   -1    0    0  502    0  0.00000000000E+00  0.00000000000E+00  0.17330893720E+04  0.17330893720E+04  0.00000000000E+00 0. -1.
         -2   -1    0    0    0  501 -0.00000000000E+00 -0.00000000000E+00 -0.84216610929E+00  0.84216610929E+00  0.00000000000E+00 0.  1.
          1    1    1    2  502    0  0.33729617665E+02 -0.98725446626E+01  0.52618610807E+03  0.52735848772E+03  0.00000000000E+00 0.  1.
         -1    1    1    2    0  501 -0.33729617665E+02  0.98725446626E+01  0.12060610978E+04  0.12065730504E+04  0.00000000000E+00 0. -1.
</event>
<event>
 4    1  0.6729064E+001  0.2327278E+02  0.7546771E-02  0.1489101E+00
          2   -1    0    0  502    0  0.00000000000E+00  0.00000000000E+00  0.27576229552E+01  0.27576229552E+01  0.00000000000E+00 0. -1.
         -2   -1    0    0    0  501 -0.00000000000E+00 -0.00000000000E+00 -0.22869957999E+03  0.22869957999E+03  0.00000000000E+00 0.  1.
          1    1    1    2  502    0 -0.15226392542E+02  0.17600543236E+02 -0.69485375877E+02  0.73279189493E+02  0.00000000000E+00 0. -1.
         -1    1    1    2    0  501  0.15226392542E+02 -0.17600543236E+02 -0.15645658116E+03  0.15817801345E+03  0.00000000000E+00 0.  1.
</event>
<event>
 4    1  0.6729064E+001  0.2541993E+02  0.7546771E-02  0.1464160E+00
          2   -1    0    0  502    0  0.00000000000E+00  0.00000000000E+00  0.61963969115E+03  0.61963969115E+03  0.00000000000E+00 0.  1.
         -2   -1    0    0    0  501 -0.00000000000E+00 -0.00000000000E+00 -0.14984515762E+01  0.14984515762E+01  0.00000000000E+00 0. -1.
          1    1    1    2  502    0  0.83976617454E+01  0.23992752150E+02  0.13781549048E+03  0.14014022368E+03  0.00000000000E+00 0. -1.
         -1    1    1    2    0  501 -0.83976617454E+01 -0.23992752150E+02  0.48032574910E+03  0.48099791904E+03  0.00000000000E+00 0.  1.
</event>
<event>
 4    1  0.6729064E+001  0.2280123E+02  0.7546771E-02  0.1495009E+00
          2   -1    0    0  502    0  0.00000000000E+00  0.00000000000E+00  0.38573297104E+01  0.38573297104E+01  0.00000000000E+00 0. -1.
         -2   -1    0    0    0  501 -0.00000000000E+00 -0.00000000000E+00 -0.57276132336E+03  0.57276132336E+03  0.00000000000E+00 0.  1.
          1    1    1    2  502    0 -0.12192790640E+02 -0.19267378132E+02 -0.53656717315E+03  0.53705141961E+03  0.00000000000E+00 0.  1.
         -1    1    1    2    0  501  0.12192790640E+02  0.19267378132E+02 -0.32336820504E+02  0.39567233464E+02  0.00000000000E+00 0. -1.
</event>
<event>
 4    1  0.6729064E+001  0.5297848E+02  0.7546771E-02  0.1285751E+00
          2   -1    0    0  502    0  0.00000000000E+00  0.00000000000E+00  0.53047015157E+03  0.53047015157E+03  0.00000000000E+00 0. -1.
         -2   -1    0    0    0  501 -0.00000000000E+00 -0.00000000000E+00 -0.53322993373E+01  0.53322993373E+01  0.00000000000E+00 0.  1.
          1    1    1    2  502    0  0.52857029242E+01  0.52714142746E+02  0.28614491193E+03  0.29100795543E+03  0.00000000000E+00 0.  1.
         -1    1    1    2    0  501 -0.52857029242E+01 -0.52714142746E+02  0.23899294031E+03  0.24479449548E+03  0.00000000000E+00 0. -1.
</event>
<event>
 4    1  0.6729064E+001  0.2126056E+02  0.7546771E-02  0.1515577E+00
          2   -1    0    0  502    0  0.00000000000E+00  0.00000000000E+00  0.23365999180E+03  0.23365999180E+03  0.00000000000E+00 0.  1.
         -2   -1    0    0    0  501 -0.00000000000E+00 -0.00000000000E+00 -0.19445676802E+01  0.19445676802E+01  0.00000000000E+00 0. -1.
          1    1    1    2  502    0 -0.20139161819E+02  0.68136176440E+01  0.12434128015E+03  0.12614580918E+03  0.00000000000E+00 0. -1.
         -1    1    1    2    0  501  0.20139161819E+02 -0.68136176440E+01  0.10737414397E+03  0.10945875030E+03  0.00000000000E+00 0.  1.
</event>
<event>
 4    1  0.6729064E+001  0.2893980E+02  0.7546771E-02  0.1429039E+00
          2   -1    0    0  502    0  0.00000000000E+00  0.00000000000E+00  0.19375278596E+04  0.19375278596E+04  0.00000000000E+00 0. -1.
         -2   -1    0    0    0  501 -0.00000000000E+00 -0.00000000000E+00 -0.48400921131E+00  0.48400921131E+00  0.00000000000E+00 0.  1.
          1    1    1    2  502    0 -0.41200864921E+01  0.28645018302E+02  0.12853760033E+04  0.12857017469E+04  0.00000000000E+00 0. -1.
         -1    1    1    2    0  501  0.41200864921E+01 -0.28645018302E+02  0.65166784703E+03  0.65231012183E+03  0.00000000000E+00 0.  1.
</event>
<event>
 4    1  0.6729064E+001  0.2523646E+02  0.7546771E-02  0.1466175E+00
          2   -1    0    0  502    0  0.00000000000E+00  0.00000000000E+00  0.35758331107E+02  0.35758331107E+02  0.00000000000E+00 0.  1.
         -2   -1    0    0    0  501 -0.00000000000E+00 -0.00000000000E+00 -0.20593682150E+02  0.20593682150E+02  0.00000000000E+00 0. -1.
          1    1    1    2  502    0  0.19934666173E+02 -0.15475396279E+02 -0.27755879783E+01  0.25388633166E+02  0.00000000000E+00 0.  1.
         -1    1    1    2    0  501 -0.19934666173E+02  0.15475396279E+02  0.17940236935E+02  0.30963380091E+02  0.00000000000E+00 0. -1.
</event>
<event>
 4    1  0.6729064E+001  0.2007349E+02  0.7546771E-02  0.1532915E+00
          2   -1    0    0  502    0  0.00000000000E+00  0.00000000000E+00  0.15266359836E+04  0.15266359836E+04  0.00000000000E+00 0.  1.
         -2   -1    0    0    0  501 -0.00000000000E+00 -0.00000000000E+00 -0.46999211537E+00  0.46999211537E+00  0.00000000000E+00 0. -1.
          1    1    1    2  502    0  0.19148049808E+02 -0.60247068089E+01  0.12686506223E+04  0.12688094208E+04  0.00000000000E+00 0.  1.
         -1    1    1    2    0  501 -0.19148049808E+02  0.60247068089E+01  0.25751536914E+03  0.25829655485E+03  0.00000000000E+00 0. -1.
</event>
<event>
 4    1  0.6729064E+001  0.2603615E+02  0.7546771E-02  0.1457538E+00
          2   -1    0    0  502    0  0.00000000000E+00  0.00000000000E+00  0.14279151674E+03  0.14279151674E+03  0.00000000000E+00 0. -1.
         -2   -1    0    0    0  501 -0.00000000000E+00 -0.00000000000E+00 -0.49308229130E+01  0.49308229130E+01  0.00000000000E+00 0.  1.
          1    1    1    2  502    0 -0.24650932155E+02 -0.83792866288E+01  0.83178081833E+02  0.87157754663E+02  0.00000000000E+00 0. -1.
         -1    1    1    2    0  501  0.24650932155E+02  0.83792866288E+01  0.54682611993E+02  0.60564584989E+02  0.00000000000E+00 0.  1.
</event>
<event>
 4    1  0.6729064E+001  0.3260493E+02  0.7546771E-02  0.1398231E+00
          2   -1    0    0  502    0  0.00000000000E+00  0.00000000000E+00  0.28677685764E+03  0.28677685764E+03  0.00000000000E+00 0.  1.
         -2   -1    0    0    0  501 -0.00000000000E+00 -0.00000000000E+00 -0.71641624305E+01  0.71641624305E+01  0.00000000000E+00 0. -1.
          1    1    1    2  502    0 -0.19207625847E+02 -0.26346697171E+02  0.37710639774E+02  0.49851516473E+02  0.00000000000E+00 0. -1.
         -1    1    1    2    0  501  0.19207625847E+02  0.26346697171E+02  0.24190205544E+03  0.24408950360E+03  0.00000000000E+00 0.  1.
</event>
<event>
 4    1  0.6729064E+001  0.2766834E+02  0.7546771E-02  0.1441008E+00
          2   -1    0    0  502    0  0.00000000000E+00  0.00000000000E+00  0.26300600182E+03  0.26300600182E+03  0.00000000000E+00 0.  1.
         -2   -1    0    0    0  501 -0.00000000000E+00 -0.00000000000E+00 -0.39008137613E+01  0.39008137613E+01  0.00000000000E+00 0. -1.
          1    1    1    2  502    0 -0.26217022547E+02 -0.88433305969E+01  0.19678679904E+03  0.19872237178E+03  0.00000000000E+00 0.  1.
         -1    1    1    2    0  501  0.26217022547E+02  0.88433305969E+01  0.62318389013E+02  0.68184443801E+02  0.00000000000E+00 0. -1.
</event>
<event>
 4    1  0.6729064E+001  0.2841131E+02  0.7546771E-02  0.1433924E+00
          2   -1    0    0  502    0  0.00000000000E+00  0.00000000000E+00  0.66272846720E+02  0.66272846720E+02  0.00000000000E+00 0. -1.
         -2   -1    0    0    0  501 -0.00000000000E+00 -0.00000000000E+00 -0.13674675057E+02  0.13674675057E+02  0.00000000000E+00 0.  1.
          1    1    1    2  502    0 -0.20415966168E+02 -0.19758318159E+02  0.13083363386E+02  0.31279021860E+02  0.00000000000E+00 0.  1.
         -1    1    1    2    0  501  0.20415966168E+02  0.19758318159E+02  0.39514808276E+02  0.48668499917E+02  0.00000000000E+00 0. -1.
</event>
<event>
 4    1  0.6729064E+001  0.3148132E+02  0.7546771E-02  0.1407146E+00
          2   -1    0    0  502    0  0.00000000000E+00  0.00000000000E+00  0.93894158261E+02  0.93894158261E+02  0.00000000000E+00 0. -1.
         -2   -1    0    0    0  501 -0.00000000000E+00 -0.00000000000E+00 -0.11627537612E+02  0.11627537612E+02  0.00000000000E+00 0.  1.
          1    1    1    2  502    0 -0.23516593383E+02  0.20929481566E+02  0.25110824386E+02  0.40269428408E+02  0.00000000000E+00 0.  1.
         -1    1    1    2    0  501  0.23516593383E+02 -0.20929481566E+02  0.57155796262E+02  0.65252267465E+02  0.00000000000E+00 0. -1.
</event>
<event>
 4    1  0.6729064E+001  0.2358388E+02  0.7546771E-02  0.1485294E+00
          2   -1    0    0  502    0  0.00000000000E+00  0.00000000000E+00  0.15984544375E+02  0.15984544375E+02  0.00000000000E+00 0. -1.
         -2   -1    0    0    0  501 -0.00000000000E+00 -0.00000000000E+00 -0.39869507459E+02  0.39869507459E+02  0.00000000000E+00 0.  1.
          1    1    1    2  502    0 -0.21900190110E+02  0.87510675064E+01 -0.19802893784E+01  0.23666876756E+02  0.00000000000E+00 0. -1.
         -1    1    1    2    0  501  0.21900190110E+02 -0.87510675064E+01 -0.21904673707E+02  0.32187175078E+02  0.00000000000E+00 0.  1.
</event>
<event>
 4    1  0.6729064E+001  0.2422177E+02  0.7546771E-02  0.1477701E+00
          2   -1    0    0  502    0  0.00000000000E+00  0.00000000000E+00  0.20630755773E+04  0.20630755773E+04  0.00000000000E+00 0. -1.
         -2   -1    0    0    0  501 -0.00000000000E+00 -0.00000000000E+00 -0.31209417312E+00  0.31209417312E+00  0.00000000000E+00 0.  1.
          1    1    1    2  502    0  0.11159622004E+02 -0.21497837627E+02  0.72393400602E+03  0.72433910516E+03  0.00000000000E+00 0. -1.
         -1    1    1    2    0  501 -0.11159622004E+02  0.21497837627E+02  0.13388294771E+04  0.13390485663E+04  0.00000000000E+00 0.  1.
</event>
<event>
 4    1  0.6729064E+001  0.2147130E+02  0.7546771E-02  0.1512641E+00
          2   -1    0    0  502    0  0.00000000000E+00  0.00000000000E+00  0.53492725974E+03  0.53492725974E+03  0.00000000000E+00 0.  1.
         -2   -1    0    0    0  501 -0.00000000000E+00 -0.00000000000E+00 -0.88248808584E+00  0.88248808584E+00  0.00000000000E+00 0. -1.
          1    1    1    2  502    0  0.21468486488E+02  0.34773698873E+00  0.22603389418E+03  0.22705139980E+03  0.00000000000E+00 0.  1.
         -1    1    1    2    0  501 -0.21468486488E+02 -0.34773698873E+00  0.30801087748E+03  0.30875834803E+03  0.00000000000E+00 0. -1.
</event>
<event>
 4    1  0.6729064E+001  0.2067231E+02  0.7546771E-02  0.1523995E+00
          2   -1    0    0  502    0  0.00000000000E+00  0.00000000000E+00  0.19530791412E+04  0.19530791412E+04  0.00000000000E+00 0.  1.
         -2   -1    0    0    0  501 -0.00000000000E+00 -0.00000000000E+00 -0.22677871593E+00  0.22677871593E+00  0.00000000000E+00 0. -1.
          1    1    1    2  502    0  0.99583353448E+00 -0.20648309760E+02  0.11595551165E+04  0.11597393727E+04  0.00000000000E+00 0.  1.
         -1    1    1    2    0  501 -0.99583353448E+00  0.20648309760E+02  0.79329724593E+03  0.79356654717E+03  0.00000000000E+00 0. -1.
</event>
<event>
 4    1  0.6729064E+001  0.3121891E+02  0.7546771E-02  0.1409292E+00
          2   -1    0    0  502    0  0.00000000000E+00  0.00000000000E+00  0.12227525343E+03  0.12227525343E+03  0.00000000000E+00 0. -1.
         -2   -1    0    0    0  501 -0.00000000000E+00 -0.00000000000E+00 -0.96494833405E+01  0.96494833405E+01  0.00000000000E+00 0.  1.
          1    1    1    2  502    0 -0.74422836262E+01  0.30318853578E+02  0.83826038248E+02  0.89450685611E+02  0.00000000000E+00 0. -1.
         -1    1    1    2    0  501  0.74422836262E+01 -0.30318853578E+02  0.28799731845E+02  0.42474051163E+02  0.00000000000E+00 0.  1.
</event>
<event>
 4    1  0.6729064E+001  0.2147327E+02  0.7546771E-02  0.1512614E+00
          2   -1    0    0  502    0  0.00000000000E+00  0.00000000000E+00  0.18674400736E+02  0.18674400736E+02  0.00000000000E+00 0. -1.
         -2   -1    0    0    0  501 -0.00000000000E+00 -0.00000000000E+00 -0.25753774657E+02  0.25753774657E+02  0.00000000000E+00 0.  1.
          1    1    1    2  502    0 -0.18353792028E+02  0.11146283698E+02 -0.80509759860E+01  0.22932935625E+02  0.00000000000E+00 0. -1.
         -1    1    1    2    0  501  0.18353792028E+02 -0.11146283698E+02  0.97160206453E+00  0.21495239767E+02  0.00000000000E+00 0.  1.
</event>
<event>
 4    1  0.6729064E+001  0.3101808E+02  0.7546771E-02  0.1410951E+00
          2   -1    0    0  502    0  0.00000000000E+00  0.00000000000E+00  0.58801007788E+02  0.58801007788E+02  0.00000000000E+00 0. -1.
         -2   -1    0    0    0  501 -0.00000000000E+00 -0.00000000000E+00 -0.16415933659E+02  0.16415933659E+02  0.00000000000E+00 0.  1.
          1    1    1    2  502    0 -0.19956140210E+02  0.23746028468E+02  0.19043437424E+02  0.36397443716E+02  0.00000000000E+00 0. -1.
         -1    1    1    2    0  501  0.19956140210E+02 -0.23746028468E+02  0.23341636704E+02  0.38819497731E+02  0.00000000000E+00 0.  1.
</event>
<event>
 4    1  0.6729064E+001  0.2252156E+02  0.7546771E-02  0.1498595E+00
          2   -1    0    0  502    0  0.00000000000E+00  0.00000000000E+00  0.50277712264E+02  0.50277712264E+02  0.00000000000E+00 0.  1.
         -2   -1    0    0    0  501 -0.00000000000E+00 -0.00000000000E+00 -0.15759139961E+02  0.15759139961E+02  0.00000000000E+00 0. -1.
          1    1    1    2  502    0 -0.15473665188E+02  0.16364183339E+02  0.37065918224E+02  0.43371685516E+02  0.00000000000E+00 0.  1.
         -1    1    1    2    0  501  0.15473665188E+02 -0.16364183339E+02 -0.25473459216E+01  0.22665166709E+02  0.00000000000E+00 0. -1.
</event>
<event>
 4    1  0.6729064E+001  0.2103204E+02  0.7546771E-02  0.1518808E+00
          2   -1    0    0  502    0  0.00000000000E+00  0.00000000000E+00  0.79936900454E+03  0.79936900454E+03  0.00000000000E+00 0.  1.
         -2   -1    0    0    0  501 -0.00000000000E+00 -0.00000000000E+00 -0.56069631573E+00  0.56069631573E+00  0.00000000000E+00 0. -1.
          1    1    1    2  502    0 -0.60444661042E+00  0.21023350188E+02  0.35368387806E+03  0.35430866798E+03  0.00000000000E+00 0. -1.
         -1    1    1    2    0  501  0.60444661042E+00 -0.21023350188E+02  0.44512443017E+03  0.44562103287E+03  0.00000000000E+00 0.  1.
</event>
<event>
 4    1  0.6729064E+001  0.5136470E+02  0.7546771E-02  0.1292362E+00
          2   -1    0    0  502    0  0.00000000000E+00  0.00000000000E+00  0.21293493403E+03  0.21293493403E+03  0.00000000000E+00 0. -1.
         -2   -1    0    0    0  501 -0.00000000000E+00 -0.00000000000E+00 -0.12618536716E+02  0.12618536716E+02  0.00000000000E+00 0.  1.
          1    1    1    2  502    0 -0.51086884839E+02 -0.53350591652E+01  0.84991687929E+02  0.99307198510E+02  0.00000000000E+00 0.  1.
         -1    1    1    2    0  501  0.51086884839E+02  0.53350591652E+01  0.11532470939E+03  0.12624627224E+03  0.00000000000E+00 0. -1.
</event>
<event>
 4    1  0.6729064E+001  0.2092716E+02  0.7546771E-02  0.1520307E+00
          2   -1    0    0  502    0  0.00000000000E+00  0.00000000000E+00  0.79621946985E+00  0.79621946985E+00  0.00000000000E+00 0.  1.
         -2   -1    0    0    0  501 -0.00000000000E+00 -0.00000000000E+00 -0.55651615701E+03  0.55651615701E+03  0.00000000000E+00 0. -1.
          1    1    1    2  502    0  0.19496032574E+02  0.76059710461E+01 -0.30793880393E+03  0.30864907751E+03  0.00000000000E+00 0.  1.
         -1    1    1    2    0  501 -0.19496032574E+02 -0.76059710461E+01 -0.24778113362E+03  0.24866329898E+03  0.00000000000E+00 0. -1.
</event>
<event>
 4    1  0.6729064E+001  0.3492349E+02  0.7546771E-02  0.1381102E+00
          2   -1    0    0  502    0  0.00000000000E+00  0.00000000000E+00  0.41319420137E+03  0.41319420137E+03  0.00000000000E+00 0. -1.
         -2   -1    0    0    0  501 -0.00000000000E+00 -0.00000000000E+00 -0.47639565455E+01  0.47639565455E+01  0.00000000000E+00 0.  1.
          1    1    1    2  502    0 -0.26012200078E+02  0.23302690438E+02  0.33310583262E+03  0.33493155370E+03  0.00000000000E+00 0. -1.
         -1    1    1    2    0  501  0.26012200078E+02 -0.23302690438E+02  0.75324412200E+02  0.83026604217E+02  0.00000000000E+00 0.  1.
</event>
<event>
 4    1  0.6729064E+001  0.2377019E+02  0.7546771E-02  0.1483047E+00
          2   -1    0    0  502    0  0.00000000000E+00  0.00000000000E+00  0.99755350139E+03  0.99755350139E+03  0.00000000000E+00 0. -1.
         -2   -1    0    0    0  501 -0.00000000000E+00 -0.00000000000E+00 -0.88065174678E+00  0.88065174678E+00  0.00000000000E+00 0.  1.
          1    1    1    2  502    0  0.23227880332E+02 -0.50485138318E+01  0.20012731340E+03  0.20153402563E+03  0.00000000000E+00 0.  1.
         -1    1    1    2    0  501 -0.23227880332E+02  0.50485138318E+01  0.79654553624E+03  0.79690012750E+03  0.00000000000E+00 0. -1.
</event>
<event>
 4    1  0.6729064E+001  0.2258162E+02  0.7546771E-02  0.1497820E+00
          2   -1    0    0  502    0  0.00000000000E+00  0.00000000000E+00  0.29417124937E+01  0.29417124937E+01  0.00000000000E+00 0.  1.
         -2   -1    0    0    0  501 -0.00000000000E+00 -0.00000000000E+00 -0.19270654817E+03  0.19270654817E+03  0.00000000000E+00 0. -1.
          1    1    1    2  502    0  0.22439656137E+02 -0.25280938773E+01 -0.63874373207E+02  0.67748542263E+02  0.00000000000E+00 0.  1.
         -1    1    1    2    0  501 -0.22439656137E+02  0.25280938773E+01 -0.12589046247E+03  0.12789971840E+03  0.00000000000E+00 0. -1.
</event>
<event>
 4    1  0.6729064E+001  0.2327099E+02  0.7546771E-02  0.1489123E+00
          2   -1    0    0  502    0  0.00000000000E+00  0.00000000000E+00  0.29665227570E+02  0.29665227570E+02  0.00000000000E+00 0. -1.
         -2   -1    0    0    0  501 -0.00000000000E+00 -0.00000000000E+00 -0.21640349454E+02  0.21640349454E+02  0.00000000000E+00 0.  1.
          1    1    1    2  502    0 -0.20687058582E+02  0.10657597368E+02  0.14158654998E+02  0.27239792323E+02  0.00000000000E+00 0. -1.
         -1    1    1    2    0  501  0.20687058582E+02 -0.10657597368E+02 -0.61337768822E+01  0.24065784701E+02  0.00000000000E+00 0.  1.
</event>
<event>
 4    1  0.6729064E+001  0.3594545E+02  0.7546771E-02  0.1374036E+00
          2   -1    0    0  502    0  0.00000000000E+00  0.00000000000E+00  0.20206087358E+04  0.20206087358E+04  0.00000000000E+00 0.  1.
         -2   -1    0    0    0  501 -0.00000000000E+00 -0.00000000000E+00 -0.69999923980E+00  0.69999923980E+00  0.00000000000E+00 0. -1.
          1    1    1    2  502    0 -0.33168963665E+02 -0.13852615489E+02  0.13071988566E+04  0.13076929784E+04  0.00000000000E+00 0.  1.
         -1    1    1    2    0  501  0.33168963665E+02  0.13852615489E+02  0.71270987996E+03  0.71361575662E+03  0.00000000000E+00 0. -1.
</event>
<event>
 4    1  0.6729064E+001  0.2499402E+02  0.7546771E-02  0.1468870E+00
          2   -1    0    0  502    0  0.00000000000E+00  0.00000000000E+00  0.22378724426E+02  0.22378724426E+02  0.00000000000E+00 0. -1.
         -2   -1    0    0    0  501 -0.00000000000E+00 -0.00000000000E+00 -0.32949058661E+02  0.32949058661E+02  0.00000000000E+00 0.  1.
          1    1    1    2  502    0  0.20582253044E+02 -0.14179980393E+02  0.55280030906E+01  0.25598042943E+02  0.00000000000E+00 0. -1.
         -1    1    1    2    0  501 -0.20582253044E+02  0.14179980393E+02 -0.16098337326E+02  0.29729740143E+02  0.00000000000E+00 0.  1.
</event>
<event>
 4    1  0.6729064E+001  0.2009880E+02  0.7546771E-02  0.1532531E+00
          2   -1    0    0  502    0  0.00000000000E+00  0.00000000000E+00  0.63965659130E+01  0.63965659130E+01  0.00000000000E+00 0.  1.
         -2   -1    0    0    0  501 -0.00000000000E+00 -0.00000000000E+00 -0.63479328431E+02  0.63479328431E+02  0.00000000000E+00 0. -1.
          1    1    1    2  502    0  0.19443123175E+02  0.50918416752E+01 -0.26036113782E+02  0.32891353139E+02  0.00000000000E+00 0. -1.
         -1    1    1    2    0  501 -0.19443123175E+02 -0.50918416752E+01 -0.31046648736E+02  0.36984541205E+02  0.00000000000E+00 0.  1.
</event>
<event>
 4    1  0.6729064E+001  0.2042732E+02  0.7546771E-02  0.1527601E+00
          2   -1    0    0  502    0  0.00000000000E+00  0.00000000000E+00  0.13977287717E+04  0.13977287717E+04  0.00000000000E+00 0. -1.
         -2   -1    0    0    0  501 -0.00000000000E+00 -0.00000000000E+00 -0.30113735638E+00  0.30113735638E+00  0.00000000000E+00 0.  1.
          1    1    1    2  502    0 -0.62728166712E+00  0.20417685692E+02  0.76365556279E+03  0.76392872308E+03  0.00000000000E+00 0. -1.
         -1    1    1    2    0  501  0.62728166712E+00 -0.20417685692E+02  0.63377207151E+03  0.63410118593E+03  0.00000000000E+00 0.  1.
</event>
<event>
 4    1  0.6729064E+001  0.2843696E+02  0.7546771E-02  0.1433684E+00
          2   -1    0    0  502    0  0.00000000000E+00  0.00000000000E+00  0.41344925342E+02  0.41344925342E+02  0.00000000000E+00 0. -1.
         -2   -1    0    0    0  501 -0.00000000000E+00 -0.00000000000E+00 -0.31687301007E+02  0.31687301007E+02  0.00000000000E+00 0.  1.
          1    1    1    2  502    0  0.63348408135E+01  0.27722379614E+02  0.27420256931E+02  0.39503557179E+02  0.00000000000E+00 0. -1.
         -1    1    1    2    0  501 -0.63348408135E+01 -0.27722379614E+02 -0.17762632596E+02  0.33528669171E+02  0.00000000000E+00 0.  1.
</event>
<event>
 4    1  0.6729064E+001  0.2046833E+02  0.7546771E-02  0.1526993E+00
          2   -1    0    0  502    0  0.00000000000E+00  0.00000000000E+00  0.80717853933E+01  0.80717853933E+01  0.00000000000E+00 0. -1.
         -2   -1    0    0    0  501 -0.00000000000E+00 -0.00000000000E+00 -0.53074180677E+02  0.53074180677E+02  0.00000000000E+00 0.  1.
          1    1    1    2  502    0  0.18638667725E+02  0.84588807002E+01 -0.17960259060E+02  0.27230929157E+02  0.00000000000E+00 0. -1.
         -1    1    1    2    0  501 -0.18638667725E+02 -0.84588807002E+01 -0.27042136223E+02  0.33915036913E+02  0.00000000000E+00 0.  1.
</event>
<event>
 4    1  0.6729064E+001  0.4128065E+02  0.7546771E-02  0.1341140E+00
          2   -1    0    0  502    0  0.00000000000E+00  0.00000000000E+00  0.33932140377E+03  0.33932140377E+03  0.00000000000E+00 0.  1.
         -2   -1    0    0    0  501 -0.00000000000E+00 -0.00000000000E+00 -0.70107414867E+01  0.70107414867E+01  0.00000000000E+00 0. -1.
          1    1    1    2  502    0 -0.24498336762E+02 -0.33225340312E+02  0.25838351853E+03  0.26166034165E+03  0.00000000000E+00 0.  1.
         -1    1    1    2    0  501  0.24498336762E+02  0.33225340312E+02  0.73927143752E+02  0.84671803609E+02  0.00000000000E+00 0. -1.
</event>
<event>
 4    1  0.6729064E+001  0.2542929E+02  0.7546771E-02  0.1464058E+00
          2   -1    0    0  502    0  0.00000000000E+00  0.00000000000E+00  0.64263623125E+03  0.64263623125E+03  0.00000000000E+00 0.  1.
         -2   -1    0    0    0  501 -0.00000000000E+00 -0.00000000000E+00 -0.10077999566E+01  0.10077999566E+01  0.00000000000E+00 0. -1.
          1    1    1    2  502    0  0.22182168971E+02 -0.12433827343E+02  0.33346053291E+03  0.33442873036E+03  0.00000000000E+00 0. -1.
         -1    1    1    2    0  501 -0.22182168971E+02  0.12433827343E+02  0.30816789839E+03  0.30921530085E+03  0.00000000000E+00 0.  1.
</event>
<event>
 4    1  0.6729064E+001  0.3307539E+02  0.7546771E-02  0.1394623E+00
          2   -1    0    0  502    0  0.00000000000E+00  0.00000000000E+00  0.42765248469E+01  0.42765248469E+01  0.00000000000E+00 0.  1.
         -2   -1    0    0    0  501 -0.00000000000E+00 -0.00000000000E+00 -0.26993460750E+03  0.26993460750E+03  0.00000000000E+00 0. -1.
          1    1    1    2  502    0  0.22727291268E+02 -0.24030217208E+02 -0.10146715457E+03  0.10672190292E+03  0.00000000000E+00 0.  1.
         -1    1    1    2    0  501 -0.22727291268E+02  0.24030217208E+02 -0.16419092808E+03  0.16748922942E+03  0.00000000000E+00 0. -1.
</event>
<event>
 4    1  0.6729064E+001  0.2826750E+02  0.7546771E-02  0.1435275E+00
          2   -1    0    0  502    0  0.00000000000E+00  0.00000000000E+00  0.75604193361E+01  0.75604193361E+01  0.00000000000E+00 0.  1.
         -2   -1    0    0    0  501 -0.00000000000E+00 -0.00000000000E+00 -0.17449654646E+03  0.17449654646E+03  0.00000000000E+00 0. -1.
          1    1    1    2  502    0  0.24264433927E+02  0.14501331914E+02 -0.14062943828E+03  0.14344228907E+03  0.00000000000E+00 0. -1.
         -1    1    1    2    0  501 -0.24264433927E+02 -0.14501331914E+02 -0.26306688839E+02  0.38614676727E+02  0.00000000000E+00 0.  1.
</event>
<event>
 4    1  0.6729064E+001  0.2650875E+02  0.7546771E-02  0.1452606E+00
          2   -1    0    0  502    0  0.00000000000E+00  0.00000000000E+00  0.10757892810E+03  0.10757892810E+03  0.00000000000E+00 0. -1.
         -2   -1    0    0    0  501 -0.00000000000E+00 -0.00000000000E+00 -0.65424153717E+01  0.65424153717E+01  0.00000000000E+00 0.  1.
          1    1    1    2  502    0 -0.20614832818E+01  0.26428473360E+02  0.48250067881E+02  0.55052547334E+02  0.00000000000E+00 0. -1.
         -1    1    1    2    0  501  0.20614832818E+01 -0.26428473360E+02  0.52786444846E+02  0.59068796136E+02  0.00000000000E+00 0.  1.
</event>
<event>
 4    1  0.6729064E+001  0.2313088E+02  0.7546771E-02  0.1490861E+00
          2   -1    0    0  502    0  0.00000000000E+00  0.00000000000E+00  0.30685015530E+02  0.30685015530E+02  0.00000000000E+00 0.  1.
         -2   -1    0    0    0  501 -0.00000000000E+00 -0.00000000000E+00 -0.24861361523E+02  0.24861361523E+02  0.00000000000E+00 0. -1.
          1    1    1    2  502    0 -0.22783292025E+02 -0.39949191411E+01  0.18089629437E+02  0.29364476287E+02  0.00000000000E+00 0.  1.
         -1    1    1    2    0  501  0.22783292025E+02  0.39949191411E+01 -0.12265975431E+02  0.26181900766E+02  0.00000000000E+00 0. -1.
</event>
<event>
 4    1  0.6729064E+001  0.2193694E+02  0.7546771E-02  0.1506297E+00
          2   -1    0    0  502    0  0.00000000000E+00  0.00000000000E+00  0.32318717813E+03  0.32318717813E+03  0.00000000000E+00 0.  1.
         -2   -1    0    0    0  501 -0.00000000000E+00 -0.00000000000E+00 -0.18140391532E+01  0.18140391532E+01  0.00000000000E+00 0. -1.
          1    1    1    2  502    0 -0.21482333593E+02  0.44428369374E+01  0.22947125471E+03  0.23051743143E+03  0.00000000000E+00 0.  1.
         -1    1    1    2    0  501  0.21482333593E+02 -0.44428369374E+01  0.91901884264E+02  0.94483785846E+02  0.00000000000E+00 0. -1.
</event>
<event>
 4    1  0.6729064E+001  0.4259725E+02  0.7546771E-02  0.1333903E+00
          2   -1    0    0  502    0  0.00000000000E+00  0.00000000000E+00  0.11538492412E+03  0.11538492412E+03  0.00000000000E+00 0.  1.
         -2   -1    0    0    0  501 -0.00000000000E+00 -0.00000000000E+00 -0.48626721012E+02  0.48626721012E+02  0.00000000000E+00 0. -1.
          1    1    1    2  502    0 -0.16121770403E+02  0.39428592579E+02  0.10083360188E+03  0.10946205124E+03  0.00000000000E+00 0.  1.
         -1    1    1    2    0  501  0.16121770403E+02 -0.39428592579E+02 -0.34075398763E+02  0.54549593899E+02  0.00000000000E+00 0. -1.
</event>
<event>
 4    1  0.6729064E+001  0.4053914E+02  0.7546771E-02  0.1345355E+00
          2   -1    0    0  502    0  0.00000000000E+00  0.00000000000E+00  0.78929168452E+03  0.78929168452E+03  0.00000000000E+00 0.  1.
         -2   -1    0    0    0  501 -0.00000000000E+00 -0.00000000000E+00 -0.22128781660E+01  0.22128781660E+01  0.00000000000E+00 0. -1.
          1    1    1    2  502    0 -0.32304096402E+02 -0.24492188494E+02  0.48973006654E+03  0.49140508749E+03  0.00000000000E+00 0.  1.
         -1    1    1    2    0  501  0.32304096402E+02  0.24492188494E+02  0.29734873981E+03  0.30009947519E+03  0.00000000000E+00 0. -1.
</event>
<event>
 4    1  0.6729064E+001  0.4441312E+02  0.7546771E-02  0.1324400E+00
          2   -1    0    0  502    0  0.00000000000E+00  0.00000000000E+00  0.32394244151E+04  0.32394244151E+04  0.00000000000E+00 0. -1.
         -2   -1    0    0    0  501 -0.00000000000E+00 -0.00000000000E+00 -0.72022336015E+00  0.72022336015E+00  0.00000000000E+00 0.  1.
          1    1    1    2  502    0 -0.33935568185E+02 -0.28651390676E+02  0.98245363745E+03  0.98345700197E+03  0.00000000000E+00 0.  1.
         -1    1    1    2    0  501  0.33935568185E+02  0.28651390676E+02  0.22562505543E+04  0.22566876365E+04  0.00000000000E+00 0. -1.
</event>
<event>
 4    1  0.6729064E+001  0.2219318E+02  0.7546771E-02  0.1502886E+00
          2   -1    0    0  502    0  0.00000000000E+00  0.00000000000E+00  0.79628034060E+02  0.79628034060E+02  0.00000000000E+00 0.  1.
         -2   -1    0    0    0  501 -0.00000000000E+00 -0.00000000000E+00 -0.74430710467E+01  0.74430710467E+01  0.00000000000E+00 0. -1.
          1    1    1    2  502    0  0.20736573669E+02  0.79076936663E+01  0.18197189347E+02  0.28699735309E+02  0.00000000000E+00 0. -1.
         -1    1    1    2    0  501 -0.20736573669E+02 -0.79076936663E+01  0.53987773666E+02  0.58371369798E+02  0.00000000000E+00 0.  1.
</event>
<event>
 4    1  0.6729064E+001  0.3022604E+02  0.7546771E-02  0.1417642E+00
          2   -1    0    0  502    0  0.00000000000E+00  0.00000000000E+00  0.15205240930E+03  0.15205240930E+03  0.00000000000E+00 0. -1.
         -2   -1    0    0    0  501 -0.00000000000E+00 -0.00000000000E+00 -0.63608164531E+01  0.63608164531E+01  0.00000000000E+00 0.  1.
          1    1    1    2  502    0  0.28143252963E+02  0.11025920895E+02  0.54205867971E+02  0.62063594332E+02  0.00000000000E+00 0.  1.
         -1    1    1    2    0  501 -0.28143252963E+02 -0.11025920895E+02  0.91485724880E+02  0.96349631426E+02  0.00000000000E+00 0. -1.
</event>
<event>
 4    1  0.6729064E+001  0.3069507E+02  0.7546771E-02  0.1413651E+00
          2   -1    0    0  502    0  0.00000000000E+00  0.00000000000E+00  0.55050266594E+03  0.55050266594E+03  0.00000000000E+00 0. -1.
         -2   -1    0    0    0  501 -0.00000000000E+00 -0.00000000000E+00 -0.18975177313E+01  0.18975177313E+01  0.00000000000E+00 0.  1.
          1    1    1    2  502    0  0.45135556575E+01 -0.30361406962E+02  0.18782489407E+03  0.19031652070E+03  0.00000000000E+00 0.  1.
         -1    1    1    2    0  501 -0.45135556575E+01  0.30361406962E+02  0.36078025413E+03  0.36208366297E+03  0.00000000000E+00 0. -1.
</event>
<event>
 4    1  0.6729064E+001  0.3018407E+02  0.7546771E-02  0.1418003E+00
          2   -1    0    0  502    0  0.00000000000E+00  0.00000000000E+00  0.57613929370E+02  0.57613929370E+02  0.00000000000E+00 0. -1.
         -2   -1    0    0    0  501 -0.00000000000E+00 -0.00000000000E+00 -0.39604098959E+02  0.39604098959E+02  0.00000000000E+00 0.  1.
          1    1    1    2  502    0 -0.22803734233E+02  0.19775437273E+02 -0.28669748000E+02  0.41629708919E+02  0.00000000000E+00 0.  1.
         -1    1    1    2    0  501  0.22803734233E+02 -0.19775437273E+02  0.46679578411E+02  0.55588319411E+02  0.00000000000E+00 0. -1.
</event>
<event>
 4    1  0.6729064E+001  0.2095264E+02  0.7546771E-02  0.1519942E+00
          2   -1    0    0  502    0  0.00000000000E+00  0.00000000000E+00  0.15789722945E+02  0.15789722945E+02  0.00000000000E+00 0. -1.
         -2   -1    0    0    0  501 -0.00000000000E+00 -0.00000000000E+00 -0.32090177282E+02  0.32090177282E+02  0.00000000000E+00 0.  1.
          1    1    1    2  502    0  0.20265752345E+02  0.53209501909E+01  0.59932474656E+00  0.20961212255E+02  0.00000000000E+00 0. -1.
         -1    1    1    2    0  501 -0.20265752345E+02 -0.53209501909E+01 -0.16899779083E+02  0.26918687971E+02  0.00000000000E+00 0.  1.
</event>
<event>
 4    1  0.6729064E+001  0.2076361E+02  0.7546771E-02  0.1522667E+00
          2   -1    0    0  502    0  0.00000000000E+00  0.00000000000E+00  0.45111256903E+01  0.45111256903E+01  0.00000000000E+00 0. -1.
         -2   -1    0    0    0  501 -0.00000000000E+00 -0.00000000000E+00 -0.14463995217E+03  0.14463995217E+03  0.00000000000E+00 0.  1.
          1    1    1    2  502    0 -0.60910145580E+01 -0.19850111896E+02 -0.26627300711E+02  0.33765967242E+02  0.00000000000E+00 0. -1.
         -1    1    1    2    0  501  0.60910145580E+01  0.19850111896E+02 -0.11350152577E+03  0.11538511062E+03  0.00000000000E+00 0.  1.
</event>
<event>
 4    1  0.6729064E+001  0.3835118E+02  0.7546771E-02  0.1358428E+00
          2   -1    0    0  502    0  0.00000000000E+00  0.00000000000E+00  0.17302059691E+04  0.17302059691E+04  0.00000000000E+00 0.  1.
         -2   -1    0    0    0  501 -0.00000000000E+00 -0.00000000000E+00 -0.98650442664E+00  0.98650442664E+00  0.00000000000E+00 0. -1.
          1    1    1    2  502    0  0.26511468406E+02 -0.27711998447E+02  0.11865034719E+04  0.11871231199E+04  0.00000000000E+00 0.  1.
         -1    1    1    2    0  501 -0.26511468406E+02  0.27711998447E+02  0.54271599276E+03  0.54406935368E+03  0.00000000000E+00 0. -1.
</event>
<event>
 4    1  0.6729064E+001  0.4737259E+02  0.7546771E-02  0.1309984E+00
          2   -1    0    0  502    0  0.00000000000E+00  0.00000000000E+00  0.26479337787E+04  0.26479337787E+04  0.00000000000E+00 0.  1.
         -2   -1    0    0    0  501 -0.00000000000E+00 -0.00000000000E+00 -0.86967858190E+00  0.86967858190E+00  0.00000000000E+00 0. -1.
          1    1    1    2  502    0 -0.37558490541E+02  0.28870778907E+02  0.11121023892E+04  0.11131109047E+04  0.00000000000E+00 0.  1.
         -1    1    1    2    0  501  0.37558490541E+02 -0.28870778907E+02  0.15349617109E+04  0.15356925525E+04  0.00000000000E+00 0. -1.
</event>
<event>
 4    1  0.6729064E+001  0.5390577E+02  0.7546771E-02  0.1282072E+00
          2   -1    0    0  502    0  0.00000000000E+00  0.00000000000E+00  0.37541512462E+02  0.37541512462E+02  0.00000000000E+00 0. -1.
         -2   -1    0    0    0  501 -0.00000000000E+00 -0.00000000000E+00 -0.80919767431E+02  0.80919767431E+02  0.00000000000E+00 0.  1.
          1    1    1    2  502    0 -0.45891436540E+02  0.28280886771E+02 -0.34036647159E+02  0.63752065489E+02  0.00000000000E+00 0.  1.
         -1    1    1    2    0  501  0.45891436540E+02 -0.28280886771E+02 -0.93416078102E+01  0.54709214404E+02  0.00000000000E+00 0. -1.
</event>
<event>
 4    1  0.6729064E+001  0.3369853E+02  0.7546771E-02  0.1389951E+00
          2   -1    0    0  502    0  0.00000000000E+00  0.00000000000E+00  0.66765836983E+03  0.66765836983E+03  0.00000000000E+00 0.  1.
         -2   -1    0    0    0  501 -0.00000000000E+00 -0.00000000000E+00 -0.51219499843E+01  0.51219499843E+01  0.00000000000E+00 0. -1.
          1    1    1    2  502    0 -0.61058360503E+01 -0.33140756049E+02  0.60618932719E+03  0.60712526825E+03  0.00000000000E+00 0.  1.
         -1    1    1    2    0  501  0.61058360503E+01  0.33140756049E+02  0.56347092648E+02  0.65655051559E+02  0.00000000000E+00 0. -1.
</event>
<event>
 4    1  0.6729064E+001  0.2070823E+02  0.7546771E-02  0.1523472E+00
          2   -1    0    0  502    0  0.00000000000E+00  0.00000000000E+00  0.86531154108E+01  0.86531154108E+01  0.00000000000E+00 0.  1.
         -2   -1    0    0    0  501 -0.00000000000E+00 -0.00000000000E+00 -0.66343338165E+02  0.66343338165E+02  0.00000000000E+00 0. -1.
          1    1    1    2  502    0  0.20044051062E+02  0.52025924908E+01 -0.99835634660E+01  0.22989182045E+02  0.00000000000E+00 0.  1.
         -1    1    1    2    0  501 -0.20044051062E+02 -0.52025924908E+01 -0.47706659288E+02  0.52007271531E+02  0.00000000000E+00 0. -1.
</event>
<event>
 4    1  0.6729064E+001  0.2029512E+02  0.7546771E-02  0.1529571E+00
          2   -1    0    0  502    0  0.00000000000E+00  0.00000000000E+00  0.42622495094E+03  0.42622495094E+03  0.00000000000E+00 0. -1.
         -2   -1    0    0    0  501 -0.00000000000E+00 -0.00000000000E+00 -0.11518778841E+01  0.11518778841E+01  0.00000000000E+00 0.  1.
          1    1    1    2  502    0 -0.18380333912E+02 -0.86055251605E+01  0.12678203402E+03  0.12839616773E+03  0.00000000000E+00 0.  1.
         -1    1    1    2    0  501  0.18380333912E+02  0.86055251605E+01  0.29829103904E+03  0.29898066109E+03  0.00000000000E+00 0. -1.
</event>
<event>
 4    1  0.6729064E+001  0.2268503E+02  0.7546771E-02  0.1496492E+00
          2   -1    0    0  502    0  0.00000000000E+00  0.00000000000E+00  0.11389559316E+03  0.11389559316E+03  0.00000000000E+00 0.  1.
         -2   -1    0    0    0  501 -0.00000000000E+00 -0.00000000000E+00 -0.13460106722E+02  0.13460106722E+02  0.00000000000E+00 0. -1.
          1    1    1    2  502    0  0.19047940080E+02  0.12320164044E+02 -0.16834844246E+01  0.22747408274E+02  0.00000000000E+00 0. -1.
         -1    1    1    2    0  501 -0.19047940080E+02 -0.12320164044E+02  0.10211897087E+03  0.10460829161E+03  0.00000000000E+00 0.  1.
</event>
<event>
 4    1  0.6729064E+001  0.2515866E+02  0.7546771E-02  0.1467036E+00
          2   -1    0    0  502    0  0.00000000000E+00  0.00000000000E+00  0.27556879091E+02  0.27556879091E+02  0.00000000000E+00 0. -1.
         -2   -1    0    0    0  501 -0.00000000000E+00 -0.00000000000E+00 -0.27931871160E+02  0.27931871160E+02  0.00000000000E+00 0.  1.
          1    1    1    2  502    0  0.10205901359E+02  0.22995600839E+02  0.11507090827E+02  0.27665343298E+02  0.00000000000E+00 0. -1.
         -1    1    1    2    0  501 -0.10205901359E+02 -0.22995600839E+02 -0.11882082896E+02  0.27823406953E+02  0.00000000000E+00 0.  1.
</event>
<event>
 4    1  0.6729064E+001  0.3236877E+02  0.7546771E-02  0.1400069E+00
          2   -1    0    0  502    0  0.00000000000E+00  0.00000000000E+00  0.21541872130E+02  0.21541872130E+02  0.00000000000E+00 0. -1.
         -2   -1    0    0    0  501 -0.00000000000E+00 -0.00000000000E+00 -0.68548820613E+02  0.68548820613E+02  0.00000000000E+00 0.  1.
          1    1    1    2  502    0 -0.16097126285E+02 -0.28082378523E+02 -0.47780902371E+02  0.57712668363E+02  0.00000000000E+00 0.  1.
         -1    1    1    2    0  501  0.16097126285E+02  0.28082378523E+02  0.77395388732E+00  0.32378024380E+02  0.00000000000E+00 0. -1.
</event>
<event>
 4    1  0.6729064E+001  0.2760053E+02  0.7546771E-02  0.1441667E+00
          2   -1    0    0  502    0  0.00000000000E+00  0.00000000000E+00  0.42843002308E+03  0.42843002308E+03  0.00000000000E+00 0.  1.
         -2   -1    0    0    0  501 -0.00000000000E+00 -0.00000000000E+00 -0.39321026801E+01  0.39321026801E+01  0.00000000000E+00 0. -1.
          1    1    1    2  502    0  0.25522656780E+02 -0.10506352545E+02  0.52245709467E+02  0.59088100414E+02  0.00000000000E+00 0. -1.
         -1    1    1    2    0  501 -0.25522656780E+02  0.10506352545E+02  0.37225221093E+03  0.37327402534E+03  0.00000000000E+00 0.  1.
</event>
<event>
 4    1  0.6729064E+001  0.2015933E+02  0.7546771E-02  0.1531614E+00
          2   -1    0    0  502    0  0.00000000000E+00  0.00000000000E+00  0.17633743778E+03  0.17633743778E+03  0.00000000000E+00 0. -1.
         -2   -1    0    0    0  501 -0.00000000000E+00 -0.00000000000E+00 -0.26257618522E+01  0.26257618522E+01  0.00000000000E+00 0.  1.
          1    1    1    2  502    0 -0.19445087856E+02 -0.53185599589E+01  0.11814722838E+03  0.11985477085E+03  0.00000000000E+00 0.  1.
         -1    1    1    2    0  501  0.19445087856E+02  0.53185599589E+01  0.55564447551E+02  0.59108428785E+02  0.00000000000E+00 0. -1.
</event>
<event>
 4    1  0.6729064E+001  0.2974702E+02  0.7546771E-02  0.1421808E+00
          2   -1    0    0  502    0  0.00000000000E+00  0.00000000000E+00  0.87815434640E+02  0.87815434640E+02  0.00000000000E+00 0. -1.
         -2   -1    0    0    0  501 -0.00000000000E+00 -0.00000000000E+00 -0.10937829293E+02  0.10937829293E+02  0.00000000000E+00 0.  1.
          1    1    1    2  502    0 -0.22092900526E+02  0.19919563077E+02  0.24583911464E+02  0.38590853187E+02  0.00000000000E+00 0.  1.
         -1    1    1    2    0  501  0.22092900526E+02 -0.19919563077E+02  0.52293693883E+02  0.60162410746E+02  0.00000000000E+00 0. -1.
</event>
<event>
 4    1  0.6729064E+001  0.2859700E+02  0.7546771E-02  0.1432193E+00
          2   -1    0    0  502    0  0.00000000000E+00  0.00000000000E+00  0.10686234563E+03  0.10686234563E+03  0.00000000000E+00 0.  1.
         -2   -1    0    0    0  501 -0.00000000000E+00 -0.00000000000E+00 -0.76622981176E+01  0.76622981176E+01  0.00000000000E+00 0. -1.
          1    1    1    2  502    0  0.24607608956E+02  0.14568934742E+02  0.47576130251E+02  0.55509246506E+02  0.00000000000E+00 0. -1.
         -1    1    1    2    0  501 -0.24607608956E+02 -0.14568934742E+02  0.51623917257E+02  0.59015397237E+02  0.00000000000E+00 0.  1.
</event>
<event>
 4    1  0.6729064E+001  0.4684129E+02  0.7546771E-02  0.1312481E+00
          2   -1    0    0  502    0  0.00000000000E+00  0.00000000000E+00  0.15659740785E+04  0.15659740785E+04  0.00000000000E+00 0.  1.
         -2   -1    0    0    0  501 -0.00000000000E+00 -0.00000000000E+00 -0.16109294924E+01  0.16109294924E+01  0.00000000000E+00 0. -1.
          1    1    1    2  502    0  0.29942649539E+02 -0.36021440463E+02  0.10650489010E+04  0.10660784530E+04  0.00000000000E+00 0.  1.
         -1    1    1    2    0  501 -0.29942649539E+02  0.36021440463E+02  0.49931424796E+03  0.50150655494E+03  0.00000000000E+00 0. -1.
</event>
<event>
 4    1  0.6729064E+001  0.2282422E+02  0.7546771E-02  0.1494717E+00
          2   -1    0    0  502    0  0.00000000000E+00  0.00000000000E+00  0.23846942010E+02  0.23846942010E+02  0.00000000000E+00 0. -1.
         -2   -1    0    0    0  501 -0.00000000000E+00 -0.00000000000E+00 -0.35260693700E+02  0.35260693700E+02  0.00000000000E+00 0.  1.
          1    1    1    2  502    0  0.22469888315E+02 -0.40061480093E+01 -0.23936128281E+02  0.33073907236E+02  0.00000000000E+00 0.  1.
         -1    1    1    2    0  501 -0.22469888315E+02  0.40061480093E+01  0.12522376592E+02  0.26033728474E+02  0.00000000000E+00 0. -1.
</event>
<event>
 4    1  0.6729064E+001  0.3113469E+02  0.7546771E-02  0.1409986E+00
          2   -1    0    0  502    0  0.00000000000E+00  0.00000000000E+00  0.17857369053E+04  0.17857369053E+04  0.00000000000E+00 0.  1.
         -2   -1    0    0    0  501 -0.00000000000E+00 -0.00000000000E+00 -0.63622427390E+00  0.63622427390E+00  0.00000000000E+00 0. -1.
          1    1    1    2  502    0  0.27329921327E+02 -0.14914557861E+02  0.12347463658E+04  0.12351388410E+04  0.00000000000E+00 0.  1.
         -1    1    1    2    0  501 -0.27329921327E+02  0.14914557861E+02  0.55035431521E+03  0.55123428858E+03  0.00000000000E+00 0. -1.
</event>
<event>
 4    1  0.6729064E+001  0.2716272E+02  0.7546771E-02  0.1445980E+00
          2   -1    0    0  502    0  0.00000000000E+00  0.00000000000E+00  0.25989921632E+04  0.25989921632E+04  0.00000000000E+00 0.  1.
         -2   -1    0    0    0  501 -0.00000000000E+00 -0.00000000000E+00 -0.29686489907E+00  0.29686489907E+00  0.00000000000E+00 0. -1.
          1    1    1    2  502    0  0.18125155611E+02 -0.20230974027E+02  0.10275853113E+04  0.10279442522E+04  0.00000000000E+00 0. -1.
         -1    1    1    2    0  501 -0.18125155611E+02  0.20230974027E+02  0.15711099869E+04  0.15713447759E+04  0.00000000000E+00 0.  1.
</event>
<event>
 4    1  0.6729064E+001  0.2354415E+02  0.7546771E-02  0.1485776E+00
          2   -1    0    0  502    0  0.00000000000E+00  0.00000000000E+00  0.10079285467E+04  0.10079285467E+04  0.00000000000E+00 0.  1.
         -2   -1    0    0    0  501 -0.00000000000E+00 -0.00000000000E+00 -0.84440492176E+00  0.84440492176E+00  0.00000000000E+00 0. -1.
          1    1    1    2  502    0 -0.23187998909E+02  0.40796762474E+01  0.20570057082E+03  0.20704359901E+03  0.00000000000E+00 0. -1.
         -1    1    1    2    0  501  0.23187998909E+02 -0.40796762474E+01  0.80138357099E+03  0.80172935265E+03  0.00000000000E+00 0.  1.
</event>
<event>
 4    1  0.6729064E+001  0.2089645E+02  0.7546771E-02  0.1520748E+00
          2   -1    0    0  502    0  0.00000000000E+00  0.00000000000E+00  0.20476057846E+02  0.20476057846E+02  0.00000000000E+00 0.  1.
         -2   -1    0    0    0  501 -0.00000000000E+00 -0.00000000000E+00 -0.21768170289E+02  0.21768170289E+02  0.00000000000E+00 0. -1.
          1    1    1    2  502    0 -0.19728465302E+02  0.68883399756E+01 -0.36582367789E+01  0.21214246796E+02  0.00000000000E+00 0. -1.
         -1    1    1    2    0  501  0.19728465302E+02 -0.68883399756E+01  0.23661243357E+01  0.21029981340E+02  0.00000000000E+00 0.  1.
</event>
<event>
 4    1  0.6729064E+001  0.4772550E+02  0.7546771E-02  0.1308347E+00
          2   -1    0    0  502    0  0.00000000000E+00  0.00000000000E+00  0.21964559711E+04  0.21964559711E+04  0.00000000000E+00 0.  1.
         -2   -1    0    0    0  501 -0.00000000000E+00 -0.00000000000E+00 -0.22059808941E+01  0.22059808941E+01  0.00000000000E+00 0. -1.
          1    1    1    2  502    0  0.44382643565E+02  0.17547190932E+02  0.18973856363E+04  0.18979857681E+04  0.00000000000E+00 0.  1.
         -1    1    1    2    0  501 -0.44382643565E+02 -0.17547190932E+02  0.29686435397E+03  0.30067618398E+03  0.00000000000E+00 0. -1.
</event>
<event>
 4    1  0.6729064E+001  0.2054006E+02  0.7546771E-02  0.1525934E+00
          2   -1    0    0  502    0  0.00000000000E+00  0.00000000000E+00  0.10566878265E+03  0.10566878265E+03  0.00000000000E+00 0.  1.
         -2   -1    0    0    0  501 -0.00000000000E+00 -0.00000000000E+00 -0.41208928720E+01  0.41208928720E+01  0.00000000000E+00 0. -1.
          1    1    1    2  502    0  0.20034897810E+02 -0.45273502615E+01  0.41088412293E+02  0.45936387052E+02  0.00000000000E+00 0. -1.
         -1    1    1    2    0  501 -0.20034897810E+02  0.45273502615E+01  0.60459477481E+02  0.63853288466E+02  0.00000000000E+00 0.  1.
</event>
<event>
 4    1  0.6729064E+001  0.2415674E+02  0.7546771E-02  0.1478462E+00
          2   -1    0    0  502    0  0.00000000000E+00  0.00000000000E+00  0.41059158863E+01  0.41059158863E+01  0.00000000000E+00 0. -1.
         -2   -1    0    0    0  501 -0.00000000000E+00 -0.00000000000E+00 -0.15832091890E+03  0.15832091890E+03  0.00000000000E+00 0.  1.
          1    1    1    2  502    0  0.11870586451E+02  0.21038948094E+02 -0.10308385591E+03  0.10587648233E+03  0.00000000000E+00 0.  1.
         -1    1    1    2    0  501 -0.11870586451E+02 -0.21038948094E+02 -0.51131147096E+02  0.56550352457E+02  0.00000000000E+00 0. -1.
</event>
<event>
 4    1  0.6729064E+001  0.3508643E+02  0.7546771E-02  0.1379957E+00
          2   -1    0    0  502    0  0.00000000000E+00  0.00000000000E+00  0.12594321752E+04  0.12594321752E+04  0.00000000000E+00 0. -1.
         -2   -1    0    0    0  501 -0.00000000000E+00 -0.00000000000E+00 -0.10869189127E+01  0.10869189127E+01  0.00000000000E+00 0.  1.
          1    1    1    2  502    0 -0.13775261372E+02  0.32269174338E+02  0.42917439424E+03  0.43060622163E+03  0.00000000000E+00 0.  1.
         -1    1    1    2    0  501  0.13775261372E+02 -0.32269174338E+02  0.82917086205E+03  0.82991287249E+03  0.00000000000E+00 0. -1.
</event>
<event>
 4    1  0.6729064E+001  0.2511880E+02  0.7546771E-02  0.1467479E+00
          2   -1    0    0  502    0  0.00000000000E+00  0.00000000000E+00  0.46570426218E+03  0.46570426218E+03  0.00000000000E+00 0. -1.
         -2   -1    0    0    0  501 -0.00000000000E+00 -0.00000000000E+00 -0.28410569265E+01  0.28410569265E+01  0.00000000000E+00 0.  1.
          1    1    1    2  502    0  0.23293146674E+01  0.25010568275E+02  0.61988885151E+02  0.66884797334E+02  0.00000000000E+00 0.  1.
         -1    1    1    2    0  501 -0.23293146674E+01 -0.25010568275E+02  0.40087432011E+03  0.40166052178E+03  0.00000000000E+00 0. -1.
</event>
<event>
 4    1  0.6729064E+001  0.2939651E+02  0.7546771E-02  0.1424914E+00
          2   -1    0    0  502    0  0.00000000000E+00  0.00000000000E+00  0.53103698403E+03  0.53103698403E+03  0.00000000000E+00 0.  1.
         -2   -1    0    0    0  501 -0.00000000000E+00 -0.00000000000E+00 -0.18140292702E+01  0.18140292702E+01  0.00000000000E+00 0. -1.
          1    1    1    2  502    0  0.12940359164E+02 -0.26395114294E+02  0.35009122004E+03  0.35132323764E+03  0.00000000000E+00 0.  1.
         -1    1    1    2    0  501 -0.12940359164E+02  0.26395114294E+02  0.17913173472E+03  0.18152777567E+03  0.00000000000E+00 0. -1.
</event>
<event>
 4    1  0.6729064E+001  0.2353193E+02  0.7546771E-02  0.1485925E+00
          2   -1    0    0  502    0  0.00000000000E+00  0.00000000000E+00  0.10374006455E+01  0.10374006455E+01  0.00000000000E+00 0.  1.
         -2   -1    0    0    0  501 -0.00000000000E+00 -0.00000000000E+00 -0.82166744271E+03  0.82166744271E+03  0.00000000000E+00 0. -1.
          1    1    1    2  502    0 -0.15716750073E+02 -0.17513860938E+02 -0.16683031986E+03  0.16848177107E+03  0.00000000000E+00 0.  1.
         -1    1    1    2    0  501  0.15716750073E+02  0.17513860938E+02 -0.65379972220E+03  0.65422307228E+03  0.00000000000E+00 0. -1.
</event>
<event>
 4    1  0.6729064E+001  0.2224598E+02  0.7546771E-02  0.1502190E+00
          2   -1    0    0  502    0  0.00000000000E+00  0.00000000000E+00  0.89826396986E+02  0.89826396986E+02  0.00000000000E+00 0.  1.
         -2   -1    0    0    0  501 -0.00000000000E+00 -0.00000000000E+00 -0.57772246987E+01  0.57772246987E+01  0.00000000000E+00 0. -1.
          1    1    1    2  502    0 -0.21536740987E+02 -0.55724573118E+01  0.31731047210E+02  0.38752327025E+02  0.00000000000E+00 0. -1.
         -1    1    1    2    0  501  0.21536740987E+02  0.55724573118E+01  0.52318125077E+02  0.56851294659E+02  0.00000000000E+00 0.  1.
</event>
<event>
 4    1  0.6729064E+001  0.2032867E+02  0.7546771E-02  0.1529069E+00
          2   -1    0    0  502    0  0.00000000000E+00  0.00000000000E+00  0.97736916772E+02  0.97736916772E+02  0.00000000000E+00 0. -1.
         -2   -1    0    0    0  501 -0.00000000000E+00 -0.00000000000E+00 -0.42867045101E+01  0.42867045101E+01  0.00000000000E+00 0.  1.
          1    1    1    2  502    0 -0.15294972888E+02  0.13390985503E+02  0.40767492692E+02  0.45554836722E+02  0.00000000000E+00 0.  1.
         -1    1    1    2    0  501  0.15294972888E+02 -0.13390985503E+02  0.52682719570E+02  0.56468784560E+02  0.00000000000E+00 0. -1.
</event>
<event>
 4    1  0.6729064E+001  0.2019461E+02  0.7546771E-02  0.1531081E+00
          2   -1    0    0  502    0  0.00000000000E+00  0.00000000000E+00  0.49929496249E+03  0.49929496249E+03  0.00000000000E+00 0.  1.
         -2   -1    0    0    0  501 -0.00000000000E+00 -0.00000000000E+00 -0.25247477105E+01  0.25247477105E+01  0.00000000000E+00 0. -1.
          1    1    1    2  502    0  0.17384414048E+02  0.10276402703E+02  0.42015149738E+02  0.46616468247E+02  0.00000000000E+00 0. -1.
         -1    1    1    2    0  501 -0.17384414048E+02 -0.10276402703E+02  0.45475506504E+03  0.45520324196E+03  0.00000000000E+00 0.  1.
</event>
<event>
 4    1  0.6729064E+001  0.2492583E+02  0.7546771E-02  0.1469635E+00
          2   -1    0    0  502    0  0.00000000000E+00  0.00000000000E+00  0.41180579162E+03  0.41180579162E+03  0.00000000000E+00 0. -1.
         -2   -1    0    0    0  501 -0.00000000000E+00 -0.00000000000E+00 -0.18939633745E+01  0.18939633745E+01  0.00000000000E+00 0.  1.
          1    1    1    2  502    0  0.16193406424E+02  0.18949152396E+02  0.11166465294E+03  0.11441281180E+03  0.00000000000E+00 0.  1.
         -1    1    1    2    0  501 -0.16193406424E+02 -0.18949152396E+02  0.29824717530E+03  0.29928694319E+03  0.00000000000E+00 0. -1.
</event>
<event>
 4    1  0.6729064E+001  0.5830782E+02  0.7546771E-02  0.1265693E+00
          2   -1    0    0  502    0  0.00000000000E+00  0.00000000000E+00  0.71080812473E+03  0.71080812473E+03  0.00000000000E+00 0. -1.
         -2   -1    0    0    0  501 -0.00000000000E+00 -0.00000000000E+00 -0.50429239712E+01  0.50429239712E+01  0.00000000000E+00 0.  1.
          1    1    1    2  502    0  0.58061729672E+02  0.53513661428E+01  0.27162439842E+03  0.27781219446E+03  0.00000000000E+00 0.  1.
         -1    1    1    2    0  501 -0.58061729672E+02 -0.53513661428E+01  0.43414080234E+03  0.43803885424E+03  0.00000000000E+00 0. -1.
</event>
<event>
 4    1  0.6729064E+001  0.2582840E+02  0.7546771E-02  0.1459746E+00
          2   -1    0    0  502    0  0.00000000000E+00  0.00000000000E+00  0.15164065601E+01  0.15164065601E+01  0.00000000000E+00 0.  1.
         -2   -1    0    0    0  501 -0.00000000000E+00 -0.00000000000E+00 -0.44006201113E+03  0.44006201113E+03  0.00000000000E+00 0. -1.
          1    1    1    2  502    0  0.14310384466E+02 -0.21501612063E+02 -0.21538889787E+03  0.21693197955E+03  0.00000000000E+00 0.  1.
         -1    1    1    2    0  501 -0.14310384466E+02  0.21501612063E+02 -0.22315670670E+03  0.22464643815E+03  0.00000000000E+00 0. -1.
</event>
<event>
 4    1  0.6729064E+001  0.2390084E+02  0.7546771E-02  0.1481486E+00
          2   -1    0    0  502    0  0.00000000000E+00  0.00000000000E+00  0.76991890467E+01  0.76991890467E+01  0.00000000000E+00 0.  1.
         -2   -1    0    0    0  501 -0.00000000000E+00 -0.00000000000E+00 -0.74198348017E+02  0.74198348017E+02  0.00000000000E+00 0. -1.
          1    1    1    2  502    0  0.22804856476E+02 -0.71546105468E+01 -0.33474122467E+02  0.41131092933E+02  0.00000000000E+00 0.  1.
         -1    1    1    2    0  501 -0.22804856476E+02  0.71546105468E+01 -0.33025036503E+02  0.40766444130E+02  0.00000000000E+00 0. -1.
</event>
<event>
 4    1  0.6729064E+001  0.2489658E+02  0.7546771E-02  0.1469964E+00
          2   -1    0    0  502    0  0.00000000000E+00  0.00000000000E+00  0.59578761815E+02  0.59578761815E+02  0.00000000000E+00 0. -1.
         -2   -1    0    0    0  501 -0.00000000000E+00 -0.00000000000E+00 -0.20970782852E+02  0.20970782852E+02  0.00000000000E+00 0.  1.
          1    1    1    2  502    0  0.11715213657E+02 -0.21968009045E+02  0.47893274765E+02  0.53977823411E+02  0.00000000000E+00 0. -1.
         -1    1    1    2    0  501 -0.11715213657E+02  0.21968009045E+02 -0.92852958024E+01  0.26571721257E+02  0.00000000000E+00 0.  1.
</event>
<event>
 4    1  0.6729064E+001  0.2557373E+02  0.7546771E-02  0.1462486E+00
          2   -1    0    0  502    0  0.00000000000E+00  0.00000000000E+00  0.16006471880E+04  0.16006471880E+04  0.00000000000E+00 0.  1.
         -2   -1    0    0    0  501 -0.00000000000E+00 -0.00000000000E+00 -0.42733283844E+00  0.42733283844E+00  0.00000000000E+00 0. -1.
          1    1    1    2  502    0 -0.12933124646E+02 -0.22062405435E+02  0.96774517410E+03  0.96808302197E+03  0.00000000000E+00 0.  1.
         -1    1    1    2    0  501  0.12933124646E+02  0.22062405435E+02  0.63247468111E+03  0.63299149891E+03  0.00000000000E+00 0. -1.
</event>
<event>
 4    1  0.6729064E+001  0.2416607E+02  0.7546771E-02  0.1478353E+00
          2   -1    0    0  502    0  0.00000000000E+00  0.00000000000E+00  0.72530292897E+02  0.72530292897E+02  0.00000000000E+00 0.  1.
         -2   -1    0    0    0  501 -0.00000000000E+00 -0.00000000000E+00 -0.80518599492E+01  0.80518599492E+01  0.00000000000E+00 0. -1.
          1    1    1    2  502    0  0.18302460770E+02  0.15780324830E+02  0.32357561820E+02  0.40385771368E+02  0.00000000000E+00 0.  1.
         -1    1    1    2    0  501 -0.18302460770E+02 -0.15780324830E+02  0.32120871128E+02  0.40196381479E+02  0.00000000000E+00 0. -1.
</event>
<event>
 4    1  0.6729064E+001  0.2245515E+02  0.7546771E-02  0.1499456E+00
          2   -1    0    0  502    0  0.00000000000E+00  0.00000000000E+00  0.73674180718E+02  0.73674180718E+02  0.00000000000E+00 0.  1.
         -2   -1    0    0    0  501 -0.00000000000E+00 -0.00000000000E+00 -0.17139341957E+02  0.17139341957E+02  0.00000000000E+00 0. -1.
          1    1    1    2  502    0 -0.19870105789E+02 -0.10460056113E+02 -0.69243914249E+01  0.23498533456E+02  0.00000000000E+00 0. -1.
         -1    1    1    2    0  501  0.19870105789E+02  0.10460056113E+02  0.63459230186E+02  0.67314989220E+02  0.00000000000E+00 0.  1.
</event>
<event>
 4    1  0.6729064E+001  0.3167629E+02  0.7546771E-02  0.1405568E+00
          2   -1    0    0  502    0  0.00000000000E+00  0.00000000000E+00  0.18963096898E+02  0.18963096898E+02  0.00000000000E+00 0. -1.
         -2   -1    0    0    0  501 -0.00000000000E+00 -0.00000000000E+00 -0.53266265972E+02  0.53266265972E+02  0.00000000000E+00 0.  1.
          1    1    1    2  502    0 -0.22564914269E+01  0.31595811935E+02 -0.14208899416E+02  0.34717141415E+02  0.00000000000E+00 0.  1.
         -1    1    1    2    0  501  0.22564914269E+01 -0.31595811935E+02 -0.20094269658E+02  0.37512221455E+02  0.00000000000E+00 0. -1.
</event>
<event>
 4    1  0.6729064E+001  0.3729307E+02  0.7546771E-02  0.1365123E+00
          2   -1    0    0  502    0  0.00000000000E+00  0.00000000000E+00  0.32652157572E+04  0.32652157572E+04  0.00000000000E+00 0.  1.
         -2   -1    0    0    0  501 -0.00000000000E+00 -0.00000000000E+00 -0.42640224193E+00  0.42640224193E+00  0.00000000000E+00 0. -1.
          1    1    1    2  502    0  0.37250388526E+02 -0.17837597398E+01  0.16863818962E+04  0.16867942000E+04  0.00000000000E+00 0. -1.
         -1    1    1    2    0  501 -0.37250388526E+02  0.17837597398E+01  0.15784074588E+04  0.15788479595E+04  0.00000000000E+00 0.  1.
</event>
<event>
 4    1  0.6729064E+001  0.2205743E+02  0.7546771E-02  0.1504686E+00
          2   -1    0    0  502    0  0.00000000000E+00  0.00000000000E+00  0.56309441148E+01  0.56309441148E+01  0.00000000000E+00 0. -1.
         -2   -1    0    0    0  501 -0.00000000000E+00 -0.00000000000E+00 -0.13050307337E+03  0.13050307337E+03  0.00000000000E+00 0.  1.
          1    1    1    2  502    0 -0.18260816432E+02  0.12372257057E+02 -0.22867871684E+02  0.31772153166E+02  0.00000000000E+00 0. -1.
         -1    1    1    2    0  501  0.18260816432E+02 -0.12372257057E+02 -0.10200425757E+03  0.10436186432E+03  0.00000000000E+00 0.  1.
</event>
<event>
 4    1  0.6729064E+001  0.2328430E+02  0.7546771E-02  0.1488959E+00
          2   -1    0    0  502    0  0.00000000000E+00  0.00000000000E+00  0.45723761740E+02  0.45723761740E+02  0.00000000000E+00 0.  1.
         -2   -1    0    0    0  501 -0.00000000000E+00 -0.00000000000E+00 -0.39697890064E+02  0.39697890064E+02  0.00000000000E+00 0. -1.
          1    1    1    2  502    0  0.19200707093E+02 -0.13171620849E+02 -0.32754989460E+02  0.40187660833E+02  0.00000000000E+00 0. -1.
         -1    1    1    2    0  501 -0.19200707093E+02  0.13171620849E+02  0.38780861137E+02  0.45233990971E+02  0.00000000000E+00 0.  1.
</event>
<event>
 4    1  0.6729064E+001  0.2168062E+02  0.7546771E-02  0.1509765E+00
          2   -1    0    0  502    0  0.00000000000E+00  0.00000000000E+00  0.30039365326E+03  0.30039365326E+03  0.00000000000E+00 0. -1.
         -2   -1    0    0    0  501 -0.00000000000E+00 -0.00000000000E+00 -0.15650409065E+01  0.15650409065E+01  0.00000000000E+00 0.  1.
          1    1    1    2  502    0  0.33764374427E+01  0.21416089087E+02  0.14745525737E+03  0.14904060563E+03  0.00000000000E+00 0. -1.
         -1    1    1    2    0  501 -0.33764374427E+01 -0.21416089087E+02  0.15137335499E+03  0.15291808854E+03  0.00000000000E+00 0.  1.
</event>
<event>
 4    1  0.6729064E+001  0.2318062E+02  0.7546771E-02  0.1490242E+00
          2   -1    0    0  502    0  0.00000000000E+00  0.00000000000E+00  0.14540301006E+04  0.14540301006E+04  0.00000000000E+00 0. -1.
         -2   -1    0    0    0  501 -0.00000000000E+00 -0.00000000000E+00 -0.37356887963E+00  0.37356887963E+00  0.00000000000E+00 0.  1.
          1    1    1    2  502    0  0.28853489333E+01 -0.23000347268E+02  0.65143041696E+03  0.65184271827E+03  0.00000000000E+00 0.  1.
         -1    1    1    2    0  501 -0.28853489333E+01  0.23000347268E+02  0.80222611479E+03  0.80256095125E+03  0.00000000000E+00 0. -1.
</event>
<event>
 4    1  0.6729064E+001  0.2109858E+02  0.7546771E-02  0.1517862E+00
          2   -1    0    0  502    0  0.00000000000E+00  0.00000000000E+00  0.16137972714E+03  0.16137972714E+03  0.00000000000E+00 0.  1.
         -2   -1    0    0    0  501 -0.00000000000E+00 -0.00000000000E+00 -0.27986494994E+01  0.27986494994E+01  0.00000000000E+00 0. -1.
          1    1    1    2  502    0 -0.15622417000E+02  0.14180622914E+02  0.89134894005E+02  0.91597921966E+02  0.00000000000E+00 0.  1.
         -1    1    1    2    0  501  0.15622417000E+02 -0.14180622914E+02  0.69446183640E+02  0.72580454678E+02  0.00000000000E+00 0. -1.
</event>
<event>
 4    1  0.6729064E+001  0.4503724E+02  0.7546771E-02  0.1321253E+00
          2   -1    0    0  502    0  0.00000000000E+00  0.00000000000E+00  0.15246344513E+03  0.15246344513E+03  0.00000000000E+00 0.  1.
         -2   -1    0    0    0  501 -0.00000000000E+00 -0.00000000000E+00 -0.14819226125E+02  0.14819226125E+02  0.00000000000E+00 0. -1.
          1    1    1    2  502    0 -0.23252335491E+02 -0.38570482106E+02  0.95568560878E+02  0.10564896130E+03  0.00000000000E+00 0.  1.
         -1    1    1    2    0  501  0.23252335491E+02  0.38570482106E+02  0.42075658124E+02  0.61633709950E+02  0.00000000000E+00 0. -1.
</event>
<event>
 4    1  0.6729064E+001  0.2187699E+02  0.7546771E-02  0.1507103E+00
          2   -1    0    0  502    0  0.00000000000E+00  0.00000000000E+00  0.12228811832E+04  0.12228811832E+04  0.00000000000E+00 0.  1.
         -2   -1    0    0    0  501 -0.00000000000E+00 -0.00000000000E+00 -0.65180667600E+00  0.65180667600E+00  0.00000000000E+00 0. -1.
          1    1    1    2  502    0  0.13977903529E+02  0.16829172068E+02  0.22441416536E+03  0.22547798214E+03  0.00000000000E+00 0.  1.
         -1    1    1    2    0  501 -0.13977903529E+02 -0.16829172068E+02  0.99781521113E+03  0.99805500770E+03  0.00000000000E+00 0. -1.
</event>
<event>
 4    1  0.6729064E+001  0.2495582E+02  0.7546771E-02  0.1469298E+00
          2   -1    0    0  502    0  0.00000000000E+00  0.00000000000E+00  0.12515856932E+03  0.12515856932E+03  0.00000000000E+00 0.  1.
         -2   -1    0    0    0  501 -0.00000000000E+00 -0.00000000000E+00 -0.51354058213E+01  0.51354058213E+01  0.00000000000E+00 0. -1.
          1    1    1    2  502    0 -0.85000994807E+01  0.23463614679E+02  0.71488280501E+02  0.75719001274E+02  0.00000000000E+00 0.  1.
         -1    1    1    2    0  501  0.85000994807E+01 -0.23463614679E+02  0.48534882999E+02  0.54574973868E+02  0.00000000000E+00 0. -1.
</event>
<event>
 4    1  0.6729064E+001  0.4011001E+02  0.7546771E-02  0.1347842E+00
          2   -1    0    0  502    0  0.00000000000E+00  0.00000000000E+00  0.55850785720E+02  0.55850785720E+02  0.00000000000E+00 0.  1.
         -2   -1    0    0    0  501 -0.00000000000E+00 -0.00000000000E+00 -0.55435816023E+02  0.55435816023E+02  0.00000000000E+00 0. -1.
          1    1    1    2  502    0 -0.53248199154E+01  0.39754990333E+02  0.38773552820E+02  0.55787107487E+02  0.00000000000E+00 0.  1.
         -1    1    1    2    0  501  0.53248199154E+01 -0.39754990333E+02 -0.38358583123E+02  0.55499494256E+02  0.00000000000E+00 0. -1.
</event>
<event>
 4    1  0.6729064E+001  0.2558574E+02  0.7546771E-02  0.1462356E+00
          2   -1    0    0  502    0  0.00000000000E+00  0.00000000000E+00  0.28210995725E+01  0.28210995725E+01  0.00000000000E+00 0. -1.
         -2   -1    0    0    0  501 -0.00000000000E+00 -0.00000000000E+00 -0.24442853056E+03  0.24442853056E+03  0.00000000000E+00 0.  1.
          1    1    1    2  502    0 -0.25097280477E+02 -0.49756204458E+01 -0.92980920944E+02  0.96436932478E+02  0.00000000000E+00 0.  1.
         -1    1    1    2    0  501  0.25097280477E+02  0.49756204458E+01 -0.14862651004E+03  0.15081269765E+03  0.00000000000E+00 0. -1.
</event>
<event>
 4    1  0.6729064E+001  0.2319664E+02  0.7546771E-02  0.1490044E+00
          2   -1    0    0  502    0  0.00000000000E+00  0.00000000000E+00  0.57094692317E+01  0.57094692317E+01  0.00000000000E+00 0.  1.
         -2   -1    0    0    0  501 -0.00000000000E+00 -0.00000000000E+00 -0.14544469029E+03  0.14544469029E+03  0.00000000000E+00 0. -1.
          1    1    1    2  502    0  0.11474967236E+02 -0.20159591637E+02 -0.11470894131E+03  0.11703087296E+03  0.00000000000E+00 0. -1.
         -1    1    1    2    0  501 -0.11474967236E+02  0.20159591637E+02 -0.25026279745E+02  0.34123286564E+02  0.00000000000E+00 0.  1.
</event>
<event>
 4    1  0.6729064E+001  0.2309357E+02  0.7546771E-02  0.1491327E+00
          2   -1    0    0  502    0  0.00000000000E+00  0.00000000000E+00  0.57082964347E+02  0.57082964347E+02  0.00000000000E+00 0. -1.
         -2   -1    0    0    0  501 -0.00000000000E+00 -0.00000000000E+00 -0.97575587939E+01  0.97575587939E+01  0.00000000000E+00 0.  1.
          1    1    1    2  502    0 -0.21448117084E+02  0.85610243141E+01  0.16772149809E+02  0.28541511400E+02  0.00000000000E+00 0.  1.
         -1    1    1    2    0  501  0.21448117084E+02 -0.85610243141E+01  0.30553255744E+02  0.38299011741E+02  0.00000000000E+00 0. -1.
</event>
<event>
 4    1  0.6729064E+001  0.1826264E+03  0.7546771E-02  0.1068188E+00
          2   -1    0    0  502    0  0.00000000000E+00  0.00000000000E+00  0.14113324269E+04  0.14113324269E+04  0.00000000000E+00 0. -1.
         -2   -1    0    0    0  501 -0.00000000000E+00 -0.00000000000E+00 -0.27386897286E+02  0.27386897286E+02  0.00000000000E+00 0.  1.
          1    1    1    2  502    0  0.15925231760E+03 -0.89392978699E+02  0.42560479691E+03  0.46313264671E+03  0.00000000000E+00 0. -1.
         -1    1    1    2    0  501 -0.15925231760E+03  0.89392978699E+02  0.95834073275E+03  0.97558667752E+03  0.00000000000E+00 0.  1.
</event>
<event>
 4    1  0.6729064E+001  0.3925080E+02  0.7546771E-02  0.1352933E+00
          2   -1    0    0  502    0  0.00000000000E+00  0.00000000000E+00  0.30593762021E+04  0.30593762021E+04  0.00000000000E+00 0.  1.
         -2   -1    0    0    0  501 -0.00000000000E+00 -0.00000000000E+00 -0.97254415624E+00  0.97254415624E+00  0.00000000000E+00 0. -1.
          1    1    1    2  502    0 -0.17313267157E+01 -0.39212598533E+02  0.46662975106E+03  0.46827764195E+03  0.00000000000E+00 0. -1.
         -1    1    1    2    0  501  0.17313267157E+01  0.39212598533E+02  0.25917739069E+04  0.25920711043E+04  0.00000000000E+00 0.  1.
</event>
<event>
 4    1  0.6729064E+001  0.5064499E+02  0.7546771E-02  0.1295400E+00
          2   -1    0    0  502    0  0.00000000000E+00  0.00000000000E+00  0.13679579902E+04  0.13679579902E+04  0.00000000000E+00 0. -1.
         -2   -1    0    0    0  501 -0.00000000000E+00 -0.00000000000E+00 -0.32319151030E+01  0.32319151030E+01  0.00000000000E+00 0.  1.
          1    1    1    2  502    0 -0.30099004812E+02  0.40730395141E+02  0.23812608026E+03  0.24345214166E+03  0.00000000000E+00 0.  1.
         -1    1    1    2    0  501  0.30099004812E+02 -0.40730395141E+02  0.11265999948E+04  0.11277377636E+04  0.00000000000E+00 0. -1.
</event>
<event>
 4    1  0.6729064E+001  0.2308840E+02  0.7546771E-02  0.1491391E+00
          2   -1    0    0  502    0  0.00000000000E+00  0.00000000000E+00  0.77910638766E+03  0.77910638766E+03  0.00000000000E+00 0.  1.
         -2   -1    0    0    0  501 -0.00000000000E+00 -0.00000000000E+00 -0.12007936357E+01  0.12007936357E+01  0.00000000000E+00 0. -1.
          1    1    1    2  502    0 -0.12687967516E+02 -0.19289630770E+02  0.13305257294E+03  0.13504096246E+03  0.00000000000E+00 0. -1.
         -1    1    1    2    0  501  0.12687967516E+02  0.19289630770E+02  0.64485302109E+03  0.64526621884E+03  0.00000000000E+00 0.  1.
</event>
<event>
 4    1  0.6729064E+001  0.3344618E+02  0.7546771E-02  0.1391829E+00
          2   -1    0    0  502    0  0.00000000000E+00  0.00000000000E+00  0.11085290219E+03  0.11085290219E+03  0.00000000000E+00 0. -1.
         -2   -1    0    0    0  501 -0.00000000000E+00 -0.00000000000E+00 -0.10568615057E+02  0.10568615057E+02  0.00000000000E+00 0.  1.
          1    1    1    2  502    0 -0.26202335643E+02 -0.20786648641E+02  0.63044541115E+02  0.71367088488E+02  0.00000000000E+00 0. -1.
         -1    1    1    2    0  501  0.26202335643E+02  0.20786648641E+02  0.37239746015E+02  0.50054428756E+02  0.00000000000E+00 0.  1.
</event>
<event>
 4    1  0.6729064E+001  0.2983480E+02  0.7546771E-02  0.1421038E+00
          2   -1    0    0  502    0  0.00000000000E+00  0.00000000000E+00  0.10736117663E+03  0.10736117663E+03  0.00000000000E+00 0.  1.
         -2   -1    0    0    0  501 -0.00000000000E+00 -0.00000000000E+00 -0.86991773645E+01  0.86991773645E+01  0.00000000000E+00 0. -1.
          1    1    1    2  502    0 -0.20875451483E+02  0.21315031931E+02  0.61903474646E+02  0.68717939681E+02  0.00000000000E+00 0.  1.
         -1    1    1    2    0  501  0.20875451483E+02 -0.21315031931E+02  0.36758524622E+02  0.47342414315E+02  0.00000000000E+00 0. -1.
</event>
<event>
 4    1  0.6729064E+001  0.4361919E+02  0.7546771E-02  0.1328490E+00
          2   -1    0    0  502    0  0.00000000000E+00  0.00000000000E+00  0.56967929875E+03  0.56967929875E+03  0.00000000000E+00 0.  1.
         -2   -1    0    0    0  501 -0.00000000000E+00 -0.00000000000E+00 -0.13981009357E+02  0.13981009357E+02  0.00000000000E+00 0. -1.
          1    1    1    2  502    0 -0.43162800100E+02  0.62933760230E+01  0.53244757131E+03  0.53423127023E+03  0.00000000000E+00 0.  1.
         -1    1    1    2    0  501  0.43162800100E+02 -0.62933760230E+01  0.23250718080E+02  0.49429037877E+02  0.00000000000E+00 0. -1.
</event>
<event>
 4    1  0.6729064E+001  0.4399779E+02  0.7546771E-02  0.1326527E+00
          2   -1    0    0  502    0  0.00000000000E+00  0.00000000000E+00  0.28592478171E+02  0.28592478171E+02  0.00000000000E+00 0. -1.
         -2   -1    0    0    0  501 -0.00000000000E+00 -0.00000000000E+00 -0.69483673550E+02  0.69483673550E+02  0.00000000000E+00 0.  1.
          1    1    1    2  502    0  0.35151152944E+02  0.26461324728E+02 -0.12596006517E+02  0.45765321367E+02  0.00000000000E+00 0. -1.
         -1    1    1    2    0  501 -0.35151152944E+02 -0.26461324728E+02 -0.28295188862E+02  0.52310830355E+02  0.00000000000E+00 0.  1.
</event>
<event>
 4    1  0.6729064E+001  0.2184737E+02  0.7546771E-02  0.1507502E+00
          2   -1    0    0  502    0  0.00000000000E+00  0.00000000000E+00  0.27687335082E+03  0.27687335082E+03  0.00000000000E+00 0. -1.
         -2   -1    0    0    0  501 -0.00000000000E+00 -0.00000000000E+00 -0.49344228588E+01  0.49344228588E+01  0.00000000000E+00 0.  1.
          1    1    1    2  502    0 -0.18534499904E+02 -0.11566326445E+02  0.22313743196E+02  0.31228364183E+02  0.00000000000E+00 0.  1.
         -1    1    1    2    0  501  0.18534499904E+02  0.11566326445E+02  0.24962518476E+03  0.25057940949E+03  0.00000000000E+00 0. -1.
</event>
<event>
 4    1  0.6729064E+001  0.7761195E+02  0.7546771E-02  0.1209503E+00
          2   -1    0    0  502    0  0.00000000000E+00  0.00000000000E+00  0.10840217239E+04  0.10840217239E+04  0.00000000000E+00 0.  1.
         -2   -1    0    0    0  501 -0.00000000000E+00 -0.00000000000E+00 -0.64387159395E+01  0.64387159395E+01  0.00000000000E+00 0. -1.
          1    1    1    2  502    0 -0.52414862786E+02  0.57238945814E+02  0.33699603676E+03  0.34581778953E+03  0.00000000000E+00 0.  1.
         -1    1    1    2    0  501  0.52414862786E+02 -0.57238945814E+02  0.74058697122E+03  0.74464265034E+03  0.00000000000E+00 0. -1.
</event>
<event>
 4    1  0.6729064E+001  0.2880465E+02  0.7546771E-02  0.1430276E+00
          2   -1    0    0  502    0  0.00000000000E+00  0.00000000000E+00  0.24106988358E+03  0.24106988358E+03  0.00000000000E+00 0.  1.
         -2   -1    0    0    0  501 -0.00000000000E+00 -0.00000000000E+00 -0.35173736195E+01  0.35173736195E+01  0.00000000000E+00 0. -1.
          1    1    1    2  502    0 -0.25700925159E+02 -0.13006548757E+02  0.10084722955E+03  0.10488027256E+03  0.00000000000E+00 0. -1.
         -1    1    1    2    0  501  0.25700925159E+02  0.13006548757E+02  0.13670528041E+03  0.13970698464E+03  0.00000000000E+00 0.  1.
</event>
<event>
 4    1  0.6729064E+001  0.2243344E+02  0.7546771E-02  0.1499738E+00
          2   -1    0    0  502    0  0.00000000000E+00  0.00000000000E+00  0.76894291270E+03  0.76894291270E+03  0.00000000000E+00 0.  1.
         -2   -1    0    0    0  501 -0.00000000000E+00 -0.00000000000E+00 -0.78468337185E+00  0.78468337185E+00  0.00000000000E+00 0. -1.
          1    1    1    2  502    0 -0.72433475942E+01  0.21231886081E+02  0.22730725737E+03  0.22841157660E+03  0.00000000000E+00 0. -1.
         -1    1    1    2    0  501  0.72433475942E+01 -0.21231886081E+02  0.54085097196E+03  0.54131601947E+03  0.00000000000E+00 0.  1.
</event>
<event>
 4    1  0.6729064E+001  0.4012680E+02  0.7546771E-02  0.1347744E+00
          2   -1    0    0  502    0  0.00000000000E+00  0.00000000000E+00  0.12201405749E+03  0.12201405749E+03  0.00000000000E+00 0.  1.
         -2   -1    0    0    0  501 -0.00000000000E+00 -0.00000000000E+00 -0.17251290608E+02  0.17251290608E+02  0.00000000000E+00 0. -1.
          1    1    1    2  502    0 -0.21359982839E+02  0.33969269007E+02  0.18622677233E+02  0.44237588215E+02  0.00000000000E+00 0. -1.
         -1    1    1    2    0  501  0.21359982839E+02 -0.33969269007E+02  0.86140089650E+02  0.95027759884E+02  0.00000000000E+00 0.  1.
</event>
<event>
 4    1  0.6729064E+001  0.2193269E+02  0.7546771E-02  0.1506354E+00
          2   -1    0    0  502    0  0.00000000000E+00  0.00000000000E+00  0.13763822268E+04  0.13763822268E+04  0.00000000000E+00 0. -1.
         -2   -1    0    0    0  501 -0.00000000000E+00 -0.00000000000E+00 -0.55791114981E+00  0.55791114981E+00  0.00000000000E+00 0.  1.
          1    1    1    2  502    0 -0.78019928480E+01  0.20498095745E+02  0.11087017230E+04  0.11089186416E+04  0.00000000000E+00 0.  1.
         -1    1    1    2    0  501  0.78019928480E+01 -0.20498095745E+02  0.26712259267E+03  0.26802149640E+03  0.00000000000E+00 0. -1.
</event>
<event>
 4    1  0.6729064E+001  0.6997010E+02  0.7546771E-02  0.1229267E+00
          2   -1    0    0  502    0  0.00000000000E+00  0.00000000000E+00  0.19965967033E+03  0.19965967033E+03  0.00000000000E+00 0. -1.
         -2   -1    0    0    0  501 -0.00000000000E+00 -0.00000000000E+00 -0.26004793760E+02  0.26004793760E+02  0.00000000000E+00 0.  1.
          1    1    1    2  502    0  0.64759599140E+02 -0.26495457102E+02  0.59873486413E+02  0.92090440889E+02  0.00000000000E+00 0.  1.
         -1    1    1    2    0  501 -0.64759599140E+02  0.26495457102E+02  0.11378139015E+03  0.13357402320E+03  0.00000000000E+00 0. -1.
</event>
<event>
 4    1  0.6729064E+001  0.2868954E+02  0.7546771E-02  0.1431337E+00
          2   -1    0    0  502    0  0.00000000000E+00  0.00000000000E+00  0.23437584642E+01  0.23437584642E+01  0.00000000000E+00 0.  1.
         -2   -1    0    0    0  501 -0.00000000000E+00 -0.00000000000E+00 -0.35388901278E+03  0.35388901278E+03  0.00000000000E+00 0. -1.
          1    1    1    2  502    0  0.24868021538E+02 -0.14306342863E+02 -0.19134565951E+03  0.19348449901E+03  0.00000000000E+00 0. -1.
         -1    1    1    2    0  501 -0.24868021538E+02  0.14306342863E+02 -0.16019959481E+03  0.16274827224E+03  0.00000000000E+00 0.  1.
</event>
<event>
 4    1  0.6729064E+001  0.8220780E+02  0.7546771E-02  0.1198813E+00
          2   -1    0    0  502    0  0.00000000000E+00  0.00000000000E+00  0.50321266112E+03  0.50321266112E+03  0.00000000000E+00 0.  1.
         -2   -1    0    0    0  501 -0.00000000000E+00 -0.00000000000E+00 -0.14012441283E+02  0.14012441283E+02  0.00000000000E+00 0. -1.
          1    1    1    2  502    0  0.40851022036E+02  0.71339448185E+02  0.29732745889E+03  0.30848296659E+03  0.00000000000E+00 0.  1.
         -1    1    1    2    0  501 -0.40851022036E+02 -0.71339448185E+02  0.19187276095E+03  0.20874213581E+03  0.00000000000E+00 0. -1.
</event>
<event>
 4    1  0.6729064E+001  0.3262187E+02  0.7546771E-02  0.1398100E+00
          2   -1    0    0  502    0  0.00000000000E+00  0.00000000000E+00  0.68077054053E+03  0.68077054053E+03  0.00000000000E+00 0. -1.
         -2   -1    0    0    0  501 -0.00000000000E+00 -0.00000000000E+00 -0.15718758937E+01  0.15718758937E+01  0.00000000000E+00 0.  1.
          1    1    1    2  502    0  0.26030319707E+01  0.32517852484E+02  0.36493309951E+03  0.36638825530E+03  0.00000000000E+00 0.  1.
         -1    1    1    2    0  501 -0.26030319707E+01 -0.32517852484E+02  0.31426556513E+03  0.31595416112E+03  0.00000000000E+00 0. -1.
</event>
<event>
 4    1  0.6729064E+001  0.3656733E+02  0.7546771E-02  0.1369867E+00
          2   -1    0    0  502    0  0.00000000000E+00  0.00000000000E+00  0.45088897818E+03  0.45088897818E+03  0.00000000000E+00 0.  1.
         -2   -1    0    0    0  501 -0.00000000000E+00 -0.00000000000E+00 -0.45014747596E+01  0.45014747596E+01  0.00000000000E+00 0. -1.
          1    1    1    2  502    0  0.13002587032E+02  0.34177509438E+02  0.35619334730E+03  0.35806545503E+03  0.00000000000E+00 0.  1.
         -1    1    1    2    0  501 -0.13002587032E+02 -0.34177509438E+02  0.90194156119E+02  0.97324997914E+02  0.00000000000E+00 0. -1.
</event>
<event>
 4    1  0.6729064E+001  0.2756718E+02  0.7546771E-02  0.1441992E+00
          2   -1    0    0  502    0  0.00000000000E+00  0.00000000000E+00  0.41701003610E+02  0.41701003610E+02  0.00000000000E+00 0. -1.
         -2   -1    0    0    0  501 -0.00000000000E+00 -0.00000000000E+00 -0.37248803910E+02  0.37248803910E+02  0.00000000000E+00 0.  1.
          1    1    1    2  502    0  0.17070349216E+02 -0.21646072101E+02 -0.25985498953E+02  0.37883973070E+02  0.00000000000E+00 0.  1.
         -1    1    1    2    0  501 -0.17070349216E+02  0.21646072101E+02  0.30437698653E+02  0.41065834450E+02  0.00000000000E+00 0. -1.
</event>
<event>
 4    1  0.6729064E+001  0.2893844E+02  0.7546771E-02  0.1429051E+00
          2   -1    0    0  502    0  0.00000000000E+00  0.00000000000E+00  0.52442470448E+03  0.52442470448E+03  0.00000000000E+00 0.  1.
         -2   -1    0    0    0  501 -0.00000000000E+00 -0.00000000000E+00 -0.17004727103E+01  0.17004727103E+01  0.00000000000E+00 0. -1.
          1    1    1    2  502    0  0.25221995280E+02 -0.14187465976E+02  0.32629716331E+03  0.32757788696E+03  0.00000000000E+00 0.  1.
         -1    1    1    2    0  501 -0.25221995280E+02  0.14187465976E+02  0.19642706845E+03  0.19854729023E+03  0.00000000000E+00 0. -1.
</event>
<event>
 4    1  0.6729064E+001  0.2170080E+02  0.7546771E-02  0.1509490E+00
          2   -1    0    0  502    0  0.00000000000E+00  0.00000000000E+00  0.91284013348E+01  0.91284013348E+01  0.00000000000E+00 0. -1.
         -2   -1    0    0    0  501 -0.00000000000E+00 -0.00000000000E+00 -0.10943102984E+03  0.10943102984E+03  0.00000000000E+00 0.  1.
          1    1    1    2  502    0  0.12963734729E+02  0.17403058171E+02 -0.93249375233E+02  0.95741165823E+02  0.00000000000E+00 0.  1.
         -1    1    1    2    0  501 -0.12963734729E+02 -0.17403058171E+02 -0.70532532688E+01  0.22818265348E+02  0.00000000000E+00 0. -1.
</event>
<event>
 4    1  0.6729064E+001  0.3122430E+02  0.7546771E-02  0.1409247E+00
          2   -1    0    0  502    0  0.00000000000E+00  0.00000000000E+00  0.19529365693E+02  0.19529365693E+02  0.00000000000E+00 0. -1.
         -2   -1    0    0    0  501 -0.00000000000E+00 -0.00000000000E+00 -0.50204512984E+02  0.50204512984E+02  0.00000000000E+00 0.  1.
          1    1    1    2  502    0  0.77439448623E+01  0.30248775733E+02 -0.12724906607E+02  0.33717656555E+02  0.00000000000E+00 0. -1.
         -1    1    1    2    0  501 -0.77439448623E+01 -0.30248775733E+02 -0.17950240683E+02  0.36016222123E+02  0.00000000000E+00 0.  1.
</event>
<event>
 4    1  0.6729064E+001  0.2087334E+02  0.7546771E-02  0.1521081E+00
          2   -1    0    0  502    0  0.00000000000E+00  0.00000000000E+00  0.39005103561E+03  0.39005103561E+03  0.00000000000E+00 0.  1.
         -2   -1    0    0    0  501 -0.00000000000E+00 -0.00000000000E+00 -0.14705288320E+01  0.14705288320E+01  0.00000000000E+00 0. -1.
          1    1    1    2  502    0 -0.19096390988E+01 -0.20785802204E+02  0.29027157206E+03  0.29102110206E+03  0.00000000000E+00 0.  1.
         -1    1    1    2    0  501  0.19096390988E+01  0.20785802204E+02  0.98308934719E+02  0.10050046239E+03  0.00000000000E+00 0. -1.
</event>
<event>
 4    1  0.6729064E+001  0.2743767E+02  0.7546771E-02  0.1443260E+00
          2   -1    0    0  502    0  0.00000000000E+00  0.00000000000E+00  0.11974675483E+03  0.11974675483E+03  0.00000000000E+00 0.  1.
         -2   -1    0    0    0  501 -0.00000000000E+00 -0.00000000000E+00 -0.63694562148E+01  0.63694562148E+01  0.00000000000E+00 0. -1.
          1    1    1    2  502    0  0.20641429006E+02 -0.18076429137E+02  0.49506011332E+02  0.56600980909E+02  0.00000000000E+00 0. -1.
         -1    1    1    2    0  501 -0.20641429006E+02  0.18076429137E+02  0.63871287284E+02  0.69515230138E+02  0.00000000000E+00 0.  1.
</event>
<event>
 4    1  0.6729064E+001  0.2154496E+02  0.7546771E-02  0.1511625E+00
          2   -1    0    0  502    0  0.00000000000E+00  0.00000000000E+00  0.15310879958E+03  0.15310879958E+03  0.00000000000E+00 0.  1.
         -2   -1    0    0    0  501 -0.00000000000E+00 -0.00000000000E+00 -0.32316100701E+01  0.32316100701E+01  0.00000000000E+00 0. -1.
          1    1    1    2  502    0 -0.16665356645E+01  0.21480410197E+02  0.55497949095E+02  0.59533248837E+02  0.00000000000E+00 0. -1.
         -1    1    1    2    0  501  0.16665356645E+01 -0.21480410197E+02  0.94379240413E+02  0.96807160811E+02  0.00000000000E+00 0.  1.
</event>
<event>
 4    1  0.6729064E+001  0.2399777E+02  0.7546771E-02  0.1480335E+00
          2   -1    0    0  502    0  0.00000000000E+00  0.00000000000E+00  0.18080368750E+04  0.18080368750E+04  0.00000000000E+00 0.  1.
         -2   -1    0    0    0  501 -0.00000000000E+00 -0.00000000000E+00 -0.31912549368E+00  0.31912549368E+00  0.00000000000E+00 0. -1.
          1    1    1    2  502    0 -0.26349054804E+01 -0.23852676757E+02  0.94329736361E+03  0.94360256947E+03  0.00000000000E+00 0. -1.
         -1    1    1    2    0  501  0.26349054804E+01  0.23852676757E+02  0.86442038590E+03  0.86475343103E+03  0.00000000000E+00 0.  1.
</event>
<event>
 4    1  0.6729064E+001  0.2392276E+02  0.7546771E-02  0.1481225E+00
          2   -1    0    0  502    0  0.00000000000E+00  0.00000000000E+00  0.31926626343E+01  0.31926626343E+01  0.00000000000E+00 0.  1.
         -2   -1    0    0    0  501 -0.00000000000E+00 -0.00000000000E+00 -0.20253789013E+03  0.20253789013E+03  0.00000000000E+00 0. -1.
          1    1    1    2  502    0 -0.23826914032E+02  0.21393028777E+01 -0.64795479376E+02  0.69070634836E+02  0.00000000000E+00 0.  1.
         -1    1    1    2    0  501  0.23826914032E+02 -0.21393028777E+01 -0.13454974812E+03  0.13665991793E+03  0.00000000000E+00 0. -1.
</event>
<event>
 4    1  0.6729064E+001  0.2212450E+02  0.7546771E-02  0.1503794E+00
          2   -1    0    0  502    0  0.00000000000E+00  0.00000000000E+00  0.10122698927E+04  0.10122698927E+04  0.00000000000E+00 0. -1.
         -2   -1    0    0    0  501 -0.00000000000E+00 -0.00000000000E+00 -0.48361408069E+00  0.48361408069E+00  0.00000000000E+00 0.  1.
          1    1    1    2  502    0 -0.20477411132E+02 -0.83767026832E+01  0.50055227977E+03  0.50104099463E+03  0.00000000000E+00 0.  1.
         -1    1    1    2    0  501  0.20477411132E+02  0.83767026832E+01  0.51123399883E+03  0.51171251214E+03  0.00000000000E+00 0. -1.
</event>
<event>
 4    1  0.6729064E+001  0.2688297E+02  0.7546771E-02  0.1448787E+00
          2   -1    0    0  502    0  0.00000000000E+00  0.00000000000E+00  0.43957730516E+03  0.43957730516E+03  0.00000000000E+00 0.  1.
         -2   -1    0    0    0  501 -0.00000000000E+00 -0.00000000000E+00 -0.40278109221E+01  0.40278109221E+01  0.00000000000E+00 0. -1.
          1    1    1    2  502    0 -0.15780670872E+02 -0.21763833560E+02  0.47142182059E+02  0.54268585330E+02  0.00000000000E+00 0. -1.
         -1    1    1    2    0  501  0.15780670872E+02  0.21763833560E+02  0.38840731218E+03  0.38933653075E+03  0.00000000000E+00 0.  1.
</event>
<event>
 4    1  0.6729064E+001  0.2313110E+02  0.7546771E-02  0.1490858E+00
          2   -1    0    0  502    0  0.00000000000E+00  0.00000000000E+00  0.29930082149E+03  0.29930082149E+03  0.00000000000E+00 0.  1.
         -2   -1    0    0    0  501 -0.00000000000E+00 -0.00000000000E+00 -0.21696135968E+01  0.21696135968E+01  0.00000000000E+00 0. -1.
          1    1    1    2  502    0 -0.78623501960E+01 -0.21753880309E+02  0.21181105689E+03  0.21307034444E+03  0.00000000000E+00 0.  1.
         -1    1    1    2    0  501  0.78623501960E+01  0.21753880309E+02  0.85320151005E+02  0.88400090648E+02  0.00000000000E+00 0. -1.
</event>
<event>
 4    1  0.6729064E+001  0.2150635E+02  0.7546771E-02  0.1512157E+00
          2   -1    0    0  502    0  0.00000000000E+00  0.00000000000E+00  0.29552137015E+02  0.29552137015E+02  0.00000000000E+00 0.  1.
         -2   -1    0    0    0  501 -0.00000000000E+00 -0.00000000000E+00 -0.17970904534E+02  0.17970904534E+02  0.00000000000E+00 0. -1.
          1    1    1    2  502    0 -0.14826249576E+02 -0.15579001982E+02 -0.27466034414E+01  0.21681024185E+02  0.00000000000E+00 0. -1.
         -1    1    1    2    0  501  0.14826249576E+02  0.15579001982E+02  0.14327835922E+02  0.25842017364E+02  0.00000000000E+00 0.  1.
</event>
<event>
 4    1  0.6729064E+001  0.2548782E+02  0.7546771E-02  0.1463419E+00
          2   -1    0    0  502    0  0.00000000000E+00  0.00000000000E+00  0.45222266089E+03  0.45222266089E+03  0.00000000000E+00 0. -1.
         -2   -1    0    0    0  501 -0.00000000000E+00 -0.00000000000E+00 -0.15158832639E+01  0.15158832639E+01  0.00000000000E+00 0.  1.
          1    1    1    2  502    0 -0.22396562981E+02  0.12166469234E+02  0.27726204561E+03  0.27843108832E+03  0.00000000000E+00 0. -1.
         -1    1    1    2    0  501  0.22396562981E+02 -0.12166469234E+02  0.17344473202E+03  0.17530745584E+03  0.00000000000E+00 0.  1.
</event>
<event>
 4    1  0.6729064E+001  0.6247886E+02  0.7546771E-02  0.1251635E+00
          2   -1    0    0  502    0  0.00000000000E+00  0.00000000000E+00  0.17081095634E+04  0.17081095634E+04  0.00000000000E+00 0. -1.
         -2   -1    0    0    0  501 -0.00000000000E+00 -0.00000000000E+00 -0.34466028649E+01  0.34466028649E+01  0.00000000000E+00 0.  1.
          1    1    1    2  502    0 -0.48158328601E+02 -0.39804308837E+02  0.13490738321E+04  0.13505198303E+04  0.00000000000E+00 0. -1.
         -1    1    1    2    0  501  0.48158328601E+02  0.39804308837E+02  0.35558912847E+03  0.36103633598E+03  0.00000000000E+00 0.  1.
</event>
<event>
 4    1  0.6729064E+001  0.2149542E+02  0.7546771E-02  0.1512308E+00
          2   -1    0    0  502    0  0.00000000000E+00  0.00000000000E+00  0.54278219293E+03  0.54278219293E+03  0.00000000000E+00 0. -1.
         -2   -1    0    0    0  501 -0.00000000000E+00 -0.00000000000E+00 -0.93118137610E+00  0.93118137610E+00  0.00000000000E+00 0.  1.
          1    1    1    2  502    0 -0.20316239574E+02 -0.70216523354E+01  0.19128532854E+03  0.19248929868E+03  0.00000000000E+00 0. -1.
         -1    1    1    2    0  501  0.20316239574E+02  0.70216523354E+01  0.35056568301E+03  0.35122407562E+03  0.00000000000E+00 0.  1.
</event>
<event>
 4    1  0.6729064E+001  0.3510532E+02  0.7546771E-02  0.1379824E+00
          2   -1    0    0  502    0  0.00000000000E+00  0.00000000000E+00  0.57373058478E+03  0.57373058478E+03  0.00000000000E+00 0. -1.
         -2   -1    0    0    0  501 -0.00000000000E+00 -0.00000000000E+00 -0.21811617232E+01  0.21811617232E+01  0.00000000000E+00 0.  1.
          1    1    1    2  502    0  0.26005899980E+02  0.23581278589E+02  0.25027836324E+03  0.25272839698E+03  0.00000000000E+00 0. -1.
         -1    1    1    2    0  501 -0.26005899980E+02 -0.23581278589E+02  0.32127105981E+03  0.32318334952E+03  0.00000000000E+00 0.  1.
</event>
<event>
 4    1  0.6729064E+001  0.2558459E+02  0.7546771E-02  0.1462369E+00
          2   -1    0    0  502    0  0.00000000000E+00  0.00000000000E+00  0.56007577284E+01  0.56007577284E+01  0.00000000000E+00 0.  1.
         -2   -1    0    0    0  501 -0.00000000000E+00 -0.00000000000E+00 -0.12751404319E+03  0.12751404319E+03  0.00000000000E+00 0. -1.
          1    1    1    2  502    0  0.11649649595E+02  0.22778425703E+02 -0.80184574056E+02  0.84167315091E+02  0.00000000000E+00 0. -1.
         -1    1    1    2    0  501 -0.11649649595E+02 -0.22778425703E+02 -0.41728711408E+02  0.48947485829E+02  0.00000000000E+00 0.  1.
</event>
<event>
 4    1  0.6729064E+001  0.3300665E+02  0.7546771E-02  0.1395146E+00
          2   -1    0    0  502    0  0.00000000000E+00  0.00000000000E+00  0.10839391472E+02  0.10839391472E+02  0.00000000000E+00 0.  1.
         -2   -1    0    0    0  501 -0.00000000000E+00 -0.00000000000E+00 -0.10500068055E+03  0.10500068055E+03  0.00000000000E+00 0. -1.
          1    1    1    2  502    0  0.32827625921E+02 -0.34331097980E+01 -0.59062210664E+02  0.67659323046E+02  0.00000000000E+00 0.  1.
         -1    1    1    2    0  501 -0.32827625921E+02  0.34331097980E+01 -0.35099078416E+02  0.48180748979E+02  0.00000000000E+00 0. -1.
</event>
<event>
 4    1  0.6729064E+001  0.2154524E+02  0.7546771E-02  0.1511621E+00
          2   -1    0    0  502    0  0.00000000000E+00  0.00000000000E+00  0.30226694889E+02  0.30226694889E+02  0.00000000000E+00 0. -1.
         -2   -1    0    0    0  501 -0.00000000000E+00 -0.00000000000E+00 -0.16524746470E+02  0.16524746470E+02  0.00000000000E+00 0.  1.
          1    1    1    2  502    0 -0.21111276391E+02  0.43024892734E+01  0.63749775684E+00  0.21554670218E+02  0.00000000000E+00 0.  1.
         -1    1    1    2    0  501  0.21111276391E+02 -0.43024892734E+01  0.13064450662E+02  0.25196771141E+02  0.00000000000E+00 0. -1.
</event>
<event>
 4    1  0.6729064E+001  0.2108732E+02  0.7546771E-02  0.1518022E+00
          2   -1    0    0  502    0  0.00000000000E+00  0.00000000000E+00  0.83647288551E+03  0.83647288551E+03  0.00000000000E+00 0.  1.
         -2   -1    0    0    0  501 -0.00000000000E+00 -0.00000000000E+00 -0.58448542478E+00  0.58448542478E+00  0.00000000000E+00 0. -1.
          1    1    1    2  502    0  0.21034562227E+02  0.14907393467E+01  0.54382987495E+03  0.54423855799E+03  0.00000000000E+00 0.  1.
         -1    1    1    2    0  501 -0.21034562227E+02 -0.14907393467E+01  0.29205852514E+03  0.29281881295E+03  0.00000000000E+00 0. -1.
</event>
<event>
 4    1  0.6729064E+001  0.2277107E+02  0.7546771E-02  0.1495393E+00
          2   -1    0    0  502    0  0.00000000000E+00  0.00000000000E+00  0.32794719908E+01  0.32794719908E+01  0.00000000000E+00 0. -1.
         -2   -1    0    0    0  501 -0.00000000000E+00 -0.00000000000E+00 -0.15826127132E+03  0.15826127132E+03  0.00000000000E+00 0.  1.
          1    1    1    2  502    0 -0.22759090740E+02  0.73849698922E+00 -0.79977263762E+02  0.83155783371E+02  0.00000000000E+00 0. -1.
         -1    1    1    2    0  501  0.22759090740E+02 -0.73849698922E+00 -0.75004535563E+02  0.78384959936E+02  0.00000000000E+00 0.  1.
</event>
<event>
 4    1  0.6729064E+001  0.2404927E+02  0.7546771E-02  0.1479727E+00
          2   -1    0    0  502    0  0.00000000000E+00  0.00000000000E+00  0.57452552153E+03  0.57452552153E+03  0.00000000000E+00 0.  1.
         -2   -1    0    0    0  501 -0.00000000000E+00 -0.00000000000E+00 -0.70260160823E+01  0.70260160823E+01  0.00000000000E+00 0. -1.
          1    1    1    2  502    0 -0.22202897511E+02 -0.92411549550E+01  0.55288939581E+03  0.55341218960E+03  0.00000000000E+00 0.  1.
         -1    1    1    2    0  501  0.22202897511E+02  0.92411549550E+01  0.14610109640E+02  0.28139348011E+02  0.00000000000E+00 0. -1.
</event>
<event>
 4    1  0.6729064E+001  0.2194607E+02  0.7546771E-02  0.1506174E+00
          2   -1    0    0  502    0  0.00000000000E+00  0.00000000000E+00  0.81138192957E+03  0.81138192957E+03  0.00000000000E+00 0. -1.
         -2   -1    0    0    0  501 -0.00000000000E+00 -0.00000000000E+00 -0.15154516227E+01  0.15154516227E+01  0.00000000000E+00 0.  1.
          1    1    1    2  502    0 -0.21102036944E+02 -0.60277872902E+01  0.87927603894E+02  0.90625017017E+02  0.00000000000E+00 0.  1.
         -1    1    1    2    0  501  0.21102036944E+02  0.60277872902E+01  0.72193887405E+03  0.72227236418E+03  0.00000000000E+00 0. -1.
</event>
<event>
 4    1  0.6729064E+001  0.2256473E+02  0.7546771E-02  0.1498037E+00
          2   -1    0    0  502    0  0.00000000000E+00  0.00000000000E+00  0.21098870534E+04  0.21098870534E+04  0.00000000000E+00 0.  1.
         -2   -1    0    0    0  501 -0.00000000000E+00 -0.00000000000E+00 -0.26384536927E+00  0.26384536927E+00  0.00000000000E+00 0. -1.
          1    1    1    2  502    0  0.17856704327E+02 -0.13795112245E+02  0.13630617602E+04  0.13632485207E+04  0.00000000000E+00 0.  1.
         -1    1    1    2    0  501 -0.17856704327E+02  0.13795112245E+02  0.74656144785E+03  0.74690237811E+03  0.00000000000E+00 0. -1.
</event>
<event>
 4    1  0.6729064E+001  0.2044148E+02  0.7546771E-02  0.1527390E+00
          2   -1    0    0  502    0  0.00000000000E+00  0.00000000000E+00  0.12860979570E+02  0.12860979570E+02  0.00000000000E+00 0.  1.
         -2   -1    0    0    0  501 -0.00000000000E+00 -0.00000000000E+00 -0.33741197272E+02  0.33741197272E+02  0.00000000000E+00 0. -1.
          1    1    1    2  502    0 -0.19810064741E+02  0.50413830973E+01 -0.59532170081E+01  0.21290725712E+02  0.00000000000E+00 0.  1.
         -1    1    1    2    0  501  0.19810064741E+02 -0.50413830973E+01 -0.14927000695E+02  0.25311451130E+02  0.00000000000E+00 0. -1.
</event>
<event>
 4    1  0.6729064E+001  0.2232961E+02  0.7546771E-02  0.1501092E+00
          2   -1    0    0  502    0  0.00000000000E+00  0.00000000000E+00  0.13214157033E+04  0.13214157033E+04  0.00000000000E+00 0.  1.
         -2   -1    0    0    0  501 -0.00000000000E+00 -0.00000000000E+00 -0.37959482869E+00  0.37959482869E+00  0.00000000000E+00 0. -1.
          1    1    1    2  502    0  0.14988557127E+02  0.16551581321E+02  0.60948474615E+03  0.60989365259E+03  0.00000000000E+00 0.  1.
         -1    1    1    2    0  501 -0.14988557127E+02 -0.16551581321E+02  0.71155136230E+03  0.71190164551E+03  0.00000000000E+00 0. -1.
</event>
<event>
 4    1  0.6729064E+001  0.3192178E+02  0.7546771E-02  0.1403600E+00
          2   -1    0    0  502    0  0.00000000000E+00  0.00000000000E+00  0.34175841103E+02  0.34175841103E+02  0.00000000000E+00 0.  1.
         -2   -1    0    0    0  501 -0.00000000000E+00 -0.00000000000E+00 -0.40309459597E+02  0.40309459597E+02  0.00000000000E+00 0. -1.
          1    1    1    2  502    0  0.88915028804E+01  0.30658455960E+02  0.15934724091E+02  0.35677936840E+02  0.00000000000E+00 0.  1.
         -1    1    1    2    0  501 -0.88915028804E+01 -0.30658455960E+02 -0.22068342585E+02  0.38807363860E+02  0.00000000000E+00 0. -1.
</event>
<event>
 4    1  0.6729064E+001  0.2477366E+02  0.7546771E-02  0.1471351E+00
          2   -1    0    0  502    0  0.00000000000E+00  0.00000000000E+00  0.25373042465E+02  0.25373042465E+02  0.00000000000E+00 0.  1.
         -2   -1    0    0    0  501 -0.00000000000E+00 -0.00000000000E+00 -0.24193459578E+02  0.24193459578E+02  0.00000000000E+00 0. -1.
          1    1    1    2  502    0  0.83167234778E+01 -0.23335946420E+02  0.94681344815E+00  0.24791747426E+02  0.00000000000E+00 0. -1.
         -1    1    1    2    0  501 -0.83167234778E+01  0.23335946420E+02  0.23276943886E+00  0.24774754617E+02  0.00000000000E+00 0.  1.
</event>
<event>
 4    1  0.6729064E+001  0.3049394E+02  0.7546771E-02  0.1415352E+00
          2   -1    0    0  502    0  0.00000000000E+00  0.00000000000E+00  0.16274220846E+03  0.16274220846E+03  0.00000000000E+00 0.  1.
         -2   -1    0    0    0  501 -0.00000000000E+00 -0.00000000000E+00 -0.83159283772E+01  0.83159283772E+01  0.00000000000E+00 0. -1.
          1    1    1    2  502    0  0.14767099191E+02 -0.26679831730E+02  0.29369901154E+02  0.42337592438E+02  0.00000000000E+00 0. -1.
         -1    1    1    2    0  501 -0.14767099191E+02  0.26679831730E+02  0.12505637893E+03  0.12872054440E+03  0.00000000000E+00 0.  1.
</event>
<event>
 4    1  0.6729064E+001  0.4947574E+02  0.7546771E-02  0.1300462E+00
          2   -1    0    0  502    0  0.00000000000E+00  0.00000000000E+00  0.40763468174E+01  0.40763468174E+01  0.00000000000E+00 0. -1.
         -2   -1    0    0    0  501 -0.00000000000E+00 -0.00000000000E+00 -0.86831341286E+03  0.86831341286E+03  0.00000000000E+00 0.  1.
          1    1    1    2  502    0  0.16112207298E+02  0.46778687279E+02 -0.67436528603E+03  0.67617777825E+03  0.00000000000E+00 0.  1.
         -1    1    1    2    0  501 -0.16112207298E+02 -0.46778687279E+02 -0.18987178002E+03  0.19621198143E+03  0.00000000000E+00 0. -1.
</event>
<event>
 4    1  0.6729064E+001  0.2196039E+02  0.7546771E-02  0.1505982E+00
          2   -1    0    0  502    0  0.00000000000E+00  0.00000000000E+00  0.28775169338E+03  0.28775169338E+03  0.00000000000E+00 0.  1.
         -2   -1    0    0    0  501 -0.00000000000E+00 -0.00000000000E+00 -0.16782864844E+01  0.16782864844E+01  0.00000000000E+00 0. -1.
          1    1    1    2  502    0  0.71082702251E+01  0.20778143292E+02  0.13764229697E+03  0.13938314338E+03  0.00000000000E+00 0. -1.
         -1    1    1    2    0  501 -0.71082702251E+01 -0.20778143292E+02  0.14843110993E+03  0.15004683648E+03  0.00000000000E+00 0.  1.
</event>
<event>
 4    1  0.6729064E+001  0.6792625E+02  0.7546771E-02  0.1235045E+00
          2   -1    0    0  502    0  0.00000000000E+00  0.00000000000E+00  0.22226549515E+04  0.22226549515E+04  0.00000000000E+00 0. -1.
         -2   -1    0    0    0  501 -0.00000000000E+00 -0.00000000000E+00 -0.22118433213E+01  0.22118433213E+01  0.00000000000E+00 0.  1.
          1    1    1    2  502    0 -0.38083023098E+02  0.56246409258E+02  0.83441768034E+03  0.83717790252E+03  0.00000000000E+00 0.  1.
         -1    1    1    2    0  501  0.38083023098E+02 -0.56246409258E+02  0.13860254278E+04  0.13876888923E+04  0.00000000000E+00 0. -1.
</event>
<event>
 4    1  0.6729064E+001  0.2795843E+02  0.7546771E-02  0.1438211E+00
          2   -1    0    0  502    0  0.00000000000E+00  0.00000000000E+00  0.21505186594E+03  0.21505186594E+03  0.00000000000E+00 0.  1.
         -2   -1    0    0    0  501 -0.00000000000E+00 -0.00000000000E+00 -0.56710006289E+01  0.56710006289E+01  0.00000000000E+00 0. -1.
          1    1    1    2  502    0  0.20214386478E+02  0.19314562711E+02  0.17082007376E+03  0.17309295582E+03  0.00000000000E+00 0.  1.
         -1    1    1    2    0  501 -0.20214386478E+02 -0.19314562711E+02  0.38560791550E+02  0.47629910753E+02  0.00000000000E+00 0. -1.
</event>
<event>
 4    1  0.6729064E+001  0.2139678E+02  0.7546771E-02  0.1513675E+00
          2   -1    0    0  502    0  0.00000000000E+00  0.00000000000E+00  0.47444865305E+02  0.47444865305E+02  0.00000000000E+00 0. -1.
         -2   -1    0    0    0  501 -0.00000000000E+00 -0.00000000000E+00 -0.13371968047E+02  0.13371968047E+02  0.00000000000E+00 0.  1.
          1    1    1    2  502    0  0.15919824865E+02 -0.14296201675E+02  0.99262164412E+00  0.21419792338E+02  0.00000000000E+00 0.  1.
         -1    1    1    2    0  501 -0.15919824865E+02  0.14296201675E+02  0.33080275614E+02  0.39397041015E+02  0.00000000000E+00 0. -1.
</event>
<event>
 4    1  0.6729064E+001  0.2718091E+02  0.7546771E-02  0.1445799E+00
          2   -1    0    0  502    0  0.00000000000E+00  0.00000000000E+00  0.10501909236E+02  0.10501909236E+02  0.00000000000E+00 0.  1.
         -2   -1    0    0    0  501 -0.00000000000E+00 -0.00000000000E+00 -0.10722537285E+03  0.10722537285E+03  0.00000000000E+00 0. -1.
          1    1    1    2  502    0 -0.24148983546E+02 -0.12475103756E+02 -0.13841725669E+02  0.30502376785E+02  0.00000000000E+00 0.  1.
         -1    1    1    2    0  501  0.24148983546E+02  0.12475103756E+02 -0.82881737949E+02  0.87224905305E+02  0.00000000000E+00 0. -1.
</event>
<event>
 4    1  0.6729064E+001  0.3434903E+02  0.7546771E-02  0.1385198E+00
          2   -1    0    0  502    0  0.00000000000E+00  0.00000000000E+00  0.15395097997E+03  0.15395097997E+03  0.00000000000E+00 0.  1.
         -2   -1    0    0    0  501 -0.00000000000E+00 -0.00000000000E+00 -0.77810338071E+01  0.77810338071E+01  0.00000000000E+00 0. -1.
          1    1    1    2  502    0  0.24926184269E+02  0.23633470836E+02  0.83009288277E+02  0.89835391390E+02  0.00000000000E+00 0. -1.
         -1    1    1    2    0  501 -0.24926184269E+02 -0.23633470836E+02  0.63160657883E+02  0.71896622383E+02  0.00000000000E+00 0.  1.
</event>
<event>
 4    1  0.6729064E+001  0.2002183E+02  0.7546771E-02  0.1533702E+00
          2   -1    0    0  502    0  0.00000000000E+00  0.00000000000E+00  0.11311964371E+01  0.11311964371E+01  0.00000000000E+00 0. -1.
         -2   -1    0    0    0  501 -0.00000000000E+00 -0.00000000000E+00 -0.41539448447E+03  0.41539448447E+03  0.00000000000E+00 0.  1.
          1    1    1    2  502    0 -0.18673429297E+02  0.72233503861E+01 -0.12731439273E+03  0.12887912302E+03  0.00000000000E+00 0. -1.
         -1    1    1    2    0  501  0.18673429297E+02 -0.72233503861E+01 -0.28694889530E+03  0.28764655789E+03  0.00000000000E+00 0.  1.
</event>
<event>
 4    1  0.6729064E+001  0.2407855E+02  0.7546771E-02  0.1479381E+00
          2   -1    0    0  502    0  0.00000000000E+00  0.00000000000E+00  0.87034728175E+01  0.87034728175E+01  0.00000000000E+00 0. -1.
         -2   -1    0    0    0  501 -0.00000000000E+00 -0.00000000000E+00 -0.20109224628E+03  0.20109224628E+03  0.00000000000E+00 0.  1.
          1    1    1    2  502    0  0.10620332427E+01  0.24055116096E+02 -0.18197602850E+03  0.18356211884E+03  0.00000000000E+00 0.  1.
         -1    1    1    2    0  501 -0.10620332427E+01 -0.24055116096E+02 -0.10412744971E+02  0.26233600265E+02  0.00000000000E+00 0. -1.
</event>
<event>
 4    1  0.6729064E+001  0.2224686E+02  0.7546771E-02  0.1502178E+00
          2   -1    0    0  502    0  0.00000000000E+00  0.00000000000E+00  0.42560017536E+02  0.42560017536E+02  0.00000000000E+00 0.  1.
         -2   -1    0    0    0  501 -0.00000000000E+00 -0.00000000000E+00 -0.32263429333E+02  0.32263429333E+02  0.00000000000E+00 0. -1.
          1    1    1    2  502    0 -0.22224214252E+02 -0.10034605728E+01 -0.24770949809E+02  0.33294482826E+02  0.00000000000E+00 0. -1.
         -1    1    1    2    0  501  0.22224214252E+02  0.10034605728E+01  0.35067538012E+02  0.41528964043E+02  0.00000000000E+00 0.  1.
</event>
<event>
 4    1  0.6729064E+001  0.3718230E+02  0.7546771E-02  0.1365838E+00
          2   -1    0    0  502    0  0.00000000000E+00  0.00000000000E+00  0.32222533561E+02  0.32222533561E+02  0.00000000000E+00 0.  1.
         -2   -1    0    0    0  501 -0.00000000000E+00 -0.00000000000E+00 -0.62117200421E+02  0.62117200421E+02  0.00000000000E+00 0. -1.
          1    1    1    2  502    0  0.29654767214E+02  0.22430288811E+02 -0.41179968143E+02  0.55482545461E+02  0.00000000000E+00 0. -1.
         -1    1    1    2    0  501 -0.29654767214E+02 -0.22430288811E+02  0.11285301283E+02  0.38857188520E+02  0.00000000000E+00 0.  1.
</event>
<event>
 4    1  0.6729064E+001  0.3515445E+02  0.7546771E-02  0.1379481E+00
          2   -1    0    0  502    0  0.00000000000E+00  0.00000000000E+00  0.39272999449E+02  0.39272999449E+02  0.00000000000E+00 0.  1.
         -2   -1    0    0    0  501 -0.00000000000E+00 -0.00000000000E+00 -0.61860363429E+02  0.61860363429E+02  0.00000000000E+00 0. -1.
          1    1    1    2  502    0 -0.29939250157E+02 -0.18424895898E+02 -0.46737604359E+02  0.58482810723E+02  0.00000000000E+00 0. -1.
         -1    1    1    2    0  501  0.29939250157E+02  0.18424895898E+02  0.24150240379E+02  0.42650552156E+02  0.00000000000E+00 0.  1.
</event>
<event>
 4    1  0.6729064E+001  0.3359993E+02  0.7546771E-02  0.1390682E+00
          2   -1    0    0  502    0  0.00000000000E+00  0.00000000000E+00  0.20096692375E+04  0.20096692375E+04  0.00000000000E+00 0. -1.
         -2   -1    0    0    0  501 -0.00000000000E+00 -0.00000000000E+00 -0.58790889463E+00  0.58790889463E+00  0.00000000000E+00 0.  1.
          1    1    1    2  502    0  0.28146760153E+02  0.18349809079E+02  0.79256913688E+03  0.79328102986E+03  0.00000000000E+00 0.  1.
         -1    1    1    2    0  501 -0.28146760153E+02 -0.18349809079E+02  0.12165121917E+04  0.12169761165E+04  0.00000000000E+00 0. -1.
</event>
<event>
 4    1  0.6729064E+001  0.6113759E+02  0.7546771E-02  0.1256016E+00
          2   -1    0    0  502    0  0.00000000000E+00  0.00000000000E+00  0.92580060449E+03  0.92580060449E+03  0.00000000000E+00 0. -1.
         -2   -1    0    0    0  501 -0.00000000000E+00 -0.00000000000E+00 -0.55044461516E+01  0.55044461516E+01  0.00000000000E+00 0.  1.
          1    1    1    2  502    0  0.58814918328E+02  0.16691630950E+02  0.70054593300E+03  0.70320865282E+03  0.00000000000E+00 0.  1.
         -1    1    1    2    0  501 -0.58814918328E+02 -0.16691630950E+02  0.21975022534E+03  0.22809639782E+03  0.00000000000E+00 0. -1.
</event>
<event>
 4    1  0.6729064E+001  0.2301484E+02  0.7546771E-02  0.1492312E+00
          2   -1    0    0  502    0  0.00000000000E+00  0.00000000000E+00  0.68331261316E+03  0.68331261316E+03  0.00000000000E+00 0. -1.
         -2   -1    0    0    0  501 -0.00000000000E+00 -0.00000000000E+00 -0.79030510729E+00  0.79030510729E+00  0.00000000000E+00 0.  1.
          1    1    1    2  502    0  0.19910263604E+02 -0.11544020822E+02  0.29392469971E+03  0.29482437503E+03  0.00000000000E+00 0.  1.
         -1    1    1    2    0  501 -0.19910263604E+02  0.11544020822E+02  0.38859760834E+03  0.38927854323E+03  0.00000000000E+00 0. -1.
</event>
<event>
 4    1  0.6729064E+001  0.2625395E+02  0.7546771E-02  0.1455250E+00
          2   -1    0    0  502    0  0.00000000000E+00  0.00000000000E+00  0.48850301070E+03  0.48850301070E+03  0.00000000000E+00 0.  1.
         -2   -1    0    0    0  501 -0.00000000000E+00 -0.00000000000E+00 -0.16793797975E+01  0.16793797975E+01  0.00000000000E+00 0. -1.
          1    1    1    2  502    0 -0.12854706280E+02  0.22891618717E+02  0.34139273682E+03  0.34240074537E+03  0.00000000000E+00 0.  1.
         -1    1    1    2    0  501  0.12854706280E+02 -0.22891618717E+02  0.14543089409E+03  0.14778164513E+03  0.00000000000E+00 0. -1.
</event>
<event>
 4    1  0.6729064E+001  0.6388635E+02  0.7546771E-02  0.1247171E+00
          2   -1    0    0  502    0  0.00000000000E+00  0.00000000000E+00  0.20782868472E+02  0.20782868472E+02  0.00000000000E+00 0.  1.
         -2   -1    0    0    0  501 -0.00000000000E+00 -0.00000000000E+00 -0.30713816163E+03  0.30713816163E+03  0.00000000000E+00 0. -1.
          1    1    1    2  502    0 -0.42624795215E+02 -0.47587741055E+02 -0.24163503549E+03  0.24993790557E+03  0.00000000000E+00 0. -1.
         -1    1    1    2    0  501  0.42624795215E+02  0.47587741055E+02 -0.44720257675E+02  0.77983124536E+02  0.00000000000E+00 0.  1.
</event>
<event>
 4    1  0.6729064E+001  0.2372495E+02  0.7546771E-02  0.1483590E+00
          2   -1    0    0  502    0  0.00000000000E+00  0.00000000000E+00  0.17730315553E+03  0.17730315553E+03  0.00000000000E+00 0. -1.
         -2   -1    0    0    0  501 -0.00000000000E+00 -0.00000000000E+00 -0.49992365128E+01  0.49992365128E+01  0.00000000000E+00 0.  1.
          1    1    1    2  502    0 -0.53931027043E+01  0.23103847721E+02  0.14121931074E+03  0.14319834867E+03  0.00000000000E+00 0. -1.
         -1    1    1    2    0  501  0.53931027043E+01 -0.23103847721E+02  0.31084608282E+02  0.39104043376E+02  0.00000000000E+00 0.  1.
</event>
<event>
 4    1  0.6729064E+001  0.3246976E+02  0.7546771E-02  0.1399281E+00
          2   -1    0    0  502    0  0.00000000000E+00  0.00000000000E+00  0.65332944251E+03  0.65332944251E+03  0.00000000000E+00 0. -1.
         -2   -1    0    0    0  501 -0.00000000000E+00 -0.00000000000E+00 -0.25649842991E+01  0.25649842991E+01  0.00000000000E+00 0.  1.
          1    1    1    2  502    0 -0.80880459724E+01 -0.31446287942E+02  0.52509876822E+03  0.52610170300E+03  0.00000000000E+00 0. -1.
         -1    1    1    2    0  501  0.80880459724E+01  0.31446287942E+02  0.12566568999E+03  0.12979272381E+03  0.00000000000E+00 0.  1.
</event>
<event>
 4    1  0.6729064E+001  0.2271629E+02  0.7546771E-02  0.1496092E+00
          2   -1    0    0  502    0  0.00000000000E+00  0.00000000000E+00  0.62802478054E+02  0.62802478054E+02  0.00000000000E+00 0.  1.
         -2   -1    0    0    0  501 -0.00000000000E+00 -0.00000000000E+00 -0.83704141918E+01  0.83704141918E+01  0.00000000000E+00 0. -1.
          1    1    1    2  502    0  0.10601930257E+02  0.20090522929E+02  0.22393806184E+02  0.31898473195E+02  0.00000000000E+00 0. -1.
         -1    1    1    2    0  501 -0.10601930257E+02 -0.20090522929E+02  0.32038257678E+02  0.39274419051E+02  0.00000000000E+00 0.  1.
</event>
<event>
 4    1  0.6729064E+001  0.3249502E+02  0.7546771E-02  0.1399084E+00
          2   -1    0    0  502    0  0.00000000000E+00  0.00000000000E+00  0.13685620670E+02  0.13685620670E+02  0.00000000000E+00 0. -1.
         -2   -1    0    0    0  501 -0.00000000000E+00 -0.00000000000E+00 -0.20848326272E+03  0.20848326272E+03  0.00000000000E+00 0.  1.
          1    1    1    2  502    0  0.24312238103E+02 -0.21560183441E+02 -0.18556362461E+03  0.18838732762E+03  0.00000000000E+00 0.  1.
         -1    1    1    2    0  501 -0.24312238103E+02  0.21560183441E+02 -0.92340174375E+01  0.33781555761E+02  0.00000000000E+00 0. -1.
</event>
<event>
 4    1  0.6729064E+001  0.3242857E+02  0.7546771E-02  0.1399602E+00
          2   -1    0    0  502    0  0.00000000000E+00  0.00000000000E+00  0.14329180890E+04  0.14329180890E+04  0.00000000000E+00 0.  1.
         -2   -1    0    0    0  501 -0.00000000000E+00 -0.00000000000E+00 -0.79369709263E+00  0.79369709263E+00  0.00000000000E+00 0. -1.
          1    1    1    2  502    0 -0.17795769041E+02 -0.27109457175E+02  0.51929122619E+03  0.52030278652E+03  0.00000000000E+00 0. -1.
         -1    1    1    2    0  501  0.17795769041E+02  0.27109457175E+02  0.91283316577E+03  0.91340899962E+03  0.00000000000E+00 0.  1.
</event>
<event>
 4    1  0.6729064E+001  0.3043621E+02  0.7546771E-02  0.1415843E+00
          2   -1    0    0  502    0  0.00000000000E+00  0.00000000000E+00  0.84970608264E+02  0.84970608264E+02  0.00000000000E+00 0.  1.
         -2   -1    0    0    0  501 -0.00000000000E+00 -0.00000000000E+00 -0.18728378231E+02  0.18728378231E+02  0.00000000000E+00 0. -1.
          1    1    1    2  502    0  0.23629718521E+02  0.19183314182E+02  0.66638522234E+02  0.73260192369E+02  0.00000000000E+00 0.  1.
         -1    1    1    2    0  501 -0.23629718521E+02 -0.19183314182E+02 -0.39629220048E+00  0.30438794127E+02  0.00000000000E+00 0. -1.
</event>
<event>
 4    1  0.6729064E+001  0.2477320E+02  0.7546771E-02  0.1471357E+00
          2   -1    0    0  502    0  0.00000000000E+00  0.00000000000E+00  0.20943156459E+03  0.20943156459E+03  0.00000000000E+00 0.  1.
         -2   -1    0    0    0  501 -0.00000000000E+00 -0.00000000000E+00 -0.11181500543E+02  0.11181500543E+02  0.00000000000E+00 0. -1.
          1    1    1    2  502    0  0.69398212338E+01 -0.23781297728E+02  0.19388131357E+03  0.19545760408E+03  0.00000000000E+00 0.  1.
         -1    1    1    2    0  501 -0.69398212338E+01  0.23781297728E+02  0.43687504820E+01  0.25155461060E+02  0.00000000000E+00 0. -1.
</event>
<event>
 4    1  0.6729064E+001  0.2797394E+02  0.7546771E-02  0.1438063E+00
          2   -1    0    0  502    0  0.00000000000E+00  0.00000000000E+00  0.54779716203E+02  0.54779716203E+02  0.00000000000E+00 0.  1.
         -2   -1    0    0    0  501 -0.00000000000E+00 -0.00000000000E+00 -0.14408500945E+02  0.14408500945E+02  0.00000000000E+00 0. -1.
          1    1    1    2  502    0  0.26900540554E+02  0.76747794200E+01  0.23385296868E+02  0.36461122183E+02  0.00000000000E+00 0. -1.
         -1    1    1    2    0  501 -0.26900540554E+02 -0.76747794200E+01  0.16985918390E+02  0.32727094964E+02  0.00000000000E+00 0.  1.
</event>
<event>
 4    1  0.6729064E+001  0.2022355E+02  0.7546771E-02  0.1530645E+00
          2   -1    0    0  502    0  0.00000000000E+00  0.00000000000E+00  0.15543664035E+03  0.15543664035E+03  0.00000000000E+00 0. -1.
         -2   -1    0    0    0  501 -0.00000000000E+00 -0.00000000000E+00 -0.26340216723E+01  0.26340216723E+01  0.00000000000E+00 0.  1.
          1    1    1    2  502    0  0.33490808446E+01  0.19944317246E+02  0.73835951163E+02  0.76555468891E+02  0.00000000000E+00 0. -1.
         -1    1    1    2    0  501 -0.33490808446E+01 -0.19944317246E+02  0.78966667512E+02  0.81515193129E+02  0.00000000000E+00 0.  1.
</event>
<event>
 4    1  0.6729064E+001  0.2549542E+02  0.7546771E-02  0.1463337E+00
          2   -1    0    0  502    0  0.00000000000E+00  0.00000000000E+00  0.36428001520E+01  0.36428001520E+01  0.00000000000E+00 0. -1.
         -2   -1    0    0    0  501 -0.00000000000E+00 -0.00000000000E+00 -0.67726185130E+03  0.67726185130E+03  0.00000000000E+00 0.  1.
          1    1    1    2  502    0  0.25171844059E+02  0.40490589296E+01 -0.62899006660E+03  0.62950656907E+03  0.00000000000E+00 0.  1.
         -1    1    1    2    0  501 -0.25171844059E+02 -0.40490589296E+01 -0.44628984548E+02  0.51398082390E+02  0.00000000000E+00 0. -1.
</event>
<event>
 4    1  0.6729064E+001  0.2016926E+02  0.7546771E-02  0.1531464E+00
          2   -1    0    0  502    0  0.00000000000E+00  0.00000000000E+00  0.40490513355E+03  0.40490513355E+03  0.00000000000E+00 0.  1.
         -2   -1    0    0    0  501 -0.00000000000E+00 -0.00000000000E+00 -0.10535151041E+01  0.10535151041E+01  0.00000000000E+00 0. -1.
          1    1    1    2  502    0 -0.32503541386E+01 -0.19905630443E+02  0.15822290857E+03  0.15950325301E+03  0.00000000000E+00 0. -1.
         -1    1    1    2    0  501  0.32503541386E+01  0.19905630443E+02  0.24562870988E+03  0.24645539565E+03  0.00000000000E+00 0.  1.
</event>
<event>
 4    1  0.6729064E+001  0.2578749E+02  0.7546771E-02  0.1460183E+00
          2   -1    0    0  502    0  0.00000000000E+00  0.00000000000E+00  0.85257211866E+01  0.85257211866E+01  0.00000000000E+00 0.  1.
         -2   -1    0    0    0  501 -0.00000000000E+00 -0.00000000000E+00 -0.83958227667E+02  0.83958227667E+02  0.00000000000E+00 0. -1.
          1    1    1    2  502    0 -0.21250663074E+02  0.14608346402E+02 -0.25396169365E+02  0.36193367957E+02  0.00000000000E+00 0.  1.
         -1    1    1    2    0  501  0.21250663074E+02 -0.14608346402E+02 -0.50036337116E+02  0.56290580896E+02  0.00000000000E+00 0. -1.
</event>
<event>
 4    1  0.6729064E+001  0.2366669E+02  0.7546771E-02  0.1484292E+00
          2   -1    0    0  502    0  0.00000000000E+00  0.00000000000E+00  0.48757429321E+01  0.48757429321E+01  0.00000000000E+00 0. -1.
         -2   -1    0    0    0  501 -0.00000000000E+00 -0.00000000000E+00 -0.11764396122E+03  0.11764396122E+03  0.00000000000E+00 0.  1.
          1    1    1    2  502    0 -0.19321229231E+02 -0.13667565808E+02 -0.46989732267E+02  0.52613184590E+02  0.00000000000E+00 0. -1.
         -1    1    1    2    0  501  0.19321229231E+02  0.13667565808E+02 -0.65778486019E+02  0.69906519561E+02  0.00000000000E+00 0.  1.
</event>
<event>
 4    1  0.6729064E+001  0.2497701E+02  0.7546771E-02  0.1469061E+00
          2   -1    0    0  502    0  0.00000000000E+00  0.00000000000E+00  0.22969256749E+01  0.22969256749E+01  0.00000000000E+00 0. -1.
         -2   -1    0    0    0  501 -0.00000000000E+00 -0.00000000000E+00 -0.33734061158E+03  0.33734061158E+03  0.00000000000E+00 0.  1.
          1    1    1    2  502    0  0.20483939190E+02  0.14291937222E+02 -0.24248697274E+03  0.24376993905E+03  0.00000000000E+00 0.  1.
         -1    1    1    2    0  501 -0.20483939190E+02 -0.14291937222E+02 -0.92556713167E+02  0.95867598210E+02  0.00000000000E+00 0. -1.
</event>
<event>
 4    1  0.6729064E+001  0.4052348E+02  0.7546771E-02  0.1345445E+00
          2   -1    0    0  502    0  0.00000000000E+00  0.00000000000E+00  0.10883027088E+04  0.10883027088E+04  0.00000000000E+00 0.  1.
         -2   -1    0    0    0  501 -0.00000000000E+00 -0.00000000000E+00 -0.23142620160E+01  0.23142620160E+01  0.00000000000E+00 0. -1.
          1    1    1    2  502    0 -0.25767573716E+02  0.31275948530E+02  0.86467742223E+03  0.86562647679E+03  0.00000000000E+00 0.  1.
         -1    1    1    2    0  501  0.25767573716E+02 -0.31275948530E+02  0.22131102460E+03  0.22499049407E+03  0.00000000000E+00 0. -1.
</event>
<event>
 4    1  0.6729064E+001  0.2026653E+02  0.7546771E-02  0.1530000E+00
          2   -1    0    0  502    0  0.00000000000E+00  0.00000000000E+00  0.12172280589E+01  0.12172280589E+01  0.00000000000E+00 0.  1.
         -2   -1    0    0    0  501 -0.00000000000E+00 -0.00000000000E+00 -0.33775595981E+03  0.33775595981E+03  0.00000000000E+00 0. -1.
          1    1    1    2  502    0 -0.10545102181E+02 -0.17307025669E+02 -0.17351427778E+03  0.17469383764E+03  0.00000000000E+00 0.  1.
         -1    1    1    2    0  501  0.10545102181E+02  0.17307025669E+02 -0.16302445397E+03  0.16427935023E+03  0.00000000000E+00 0. -1.
</event>
<event>
 4    1  0.6729064E+001  0.2664983E+02  0.7546771E-02  0.1451158E+00
          2   -1    0    0  502    0  0.00000000000E+00  0.00000000000E+00  0.10755364747E+04  0.10755364747E+04  0.00000000000E+00 0.  1.
         -2   -1    0    0    0  501 -0.00000000000E+00 -0.00000000000E+00 -0.81610891985E+00  0.81610891985E+00  0.00000000000E+00 0. -1.
          1    1    1    2  502    0 -0.47990347805E+01  0.26214168030E+02  0.77248540502E+03  0.77294496201E+03  0.00000000000E+00 0.  1.
         -1    1    1    2    0  501  0.47990347805E+01 -0.26214168030E+02  0.30223496076E+03  0.30340762160E+03  0.00000000000E+00 0. -1.
</event>
<event>
 4    1  0.6729064E+001  0.2813847E+02  0.7546771E-02  0.1436495E+00
          2   -1    0    0  502    0  0.00000000000E+00  0.00000000000E+00  0.13829852283E+03  0.13829852283E+03  0.00000000000E+00 0. -1.
         -2   -1    0    0    0  501 -0.00000000000E+00 -0.00000000000E+00 -0.67860898217E+01  0.67860898217E+01  0.00000000000E+00 0.  1.
          1    1    1    2  502    0 -0.19242508996E+02  0.20530447924E+02  0.94439992380E+02  0.98542811027E+02  0.00000000000E+00 0. -1.
         -1    1    1    2    0  501  0.19242508996E+02 -0.20530447924E+02  0.37072440633E+02  0.46541801629E+02  0.00000000000E+00 0.  1.
</event>
<event>
 4    1  0.6729064E+001  0.2423309E+02  0.7546771E-02  0.1477569E+00
          2   -1    0    0  502    0  0.00000000000E+00  0.00000000000E+00  0.17721303734E+01  0.17721303734E+01  0.00000000000E+00 0. -1.
         -2   -1    0    0    0  501 -0.00000000000E+00 -0.00000000000E+00 -0.33858618425E+03  0.33858618425E+03  0.00000000000E+00 0.  1.
          1    1    1    2  502    0 -0.36003482467E+01  0.23964138664E+02 -0.14357407391E+03  0.14560479783E+03  0.00000000000E+00 0. -1.
         -1    1    1    2    0  501  0.36003482467E+01 -0.23964138664E+02 -0.19323997996E+03  0.19475351679E+03  0.00000000000E+00 0.  1.
</event>
<event>
 4    1  0.6729064E+001  0.1038106E+03  0.7546771E-02  0.1157364E+00
          2   -1    0    0  502    0  0.00000000000E+00  0.00000000000E+00  0.11445765194E+04  0.11445765194E+04  0.00000000000E+00 0. -1.
         -2   -1    0    0    0  501 -0.00000000000E+00 -0.00000000000E+00 -0.97112544366E+01  0.97112544366E+01  0.00000000000E+00 0.  1.
          1    1    1    2  502    0  0.86160431090E+02 -0.57905300128E+02  0.46669614160E+03  0.47810242862E+03  0.00000000000E+00 0. -1.
         -1    1    1    2    0  501 -0.86160431090E+02  0.57905300128E+02  0.66816912335E+03  0.67618534520E+03  0.00000000000E+00 0.  1.
</event>
<event>
 4    1  0.6729064E+001  0.2686639E+02  0.7546771E-02  0.1448955E+00
          2   -1    0    0  502    0  0.00000000000E+00  0.00000000000E+00  0.67021577489E+03  0.67021577489E+03  0.00000000000E+00 0.  1.
         -2   -1    0    0    0  501 -0.00000000000E+00 -0.00000000000E+00 -0.12669937016E+01  0.12669937016E+01  0.00000000000E+00 0. -1.
          1    1    1    2  502    0 -0.26345959817E+02  0.52624222289E+01  0.20445119127E+03  0.20620885601E+03  0.00000000000E+00 0. -1.
         -1    1    1    2    0  501  0.26345959817E+02 -0.52624222289E+01  0.46449758992E+03  0.46527391258E+03  0.00000000000E+00 0.  1.
</event>
<event>
 4    1  0.6729064E+001  0.2014894E+02  0.7546771E-02  0.1531771E+00
          2   -1    0    0  502    0  0.00000000000E+00  0.00000000000E+00  0.12630392353E+04  0.12630392353E+04  0.00000000000E+00 0. -1.
         -2   -1    0    0    0  501 -0.00000000000E+00 -0.00000000000E+00 -0.37292812915E+00  0.37292812915E+00  0.00000000000E+00 0.  1.
          1    1    1    2  502    0  0.15408566977E+02  0.12982900596E+02  0.39658884829E+03  0.39710035789E+03  0.00000000000E+00 0. -1.
         -1    1    1    2    0  501 -0.15408566977E+02 -0.12982900596E+02  0.86607745886E+03  0.86631180553E+03  0.00000000000E+00 0.  1.
</event>
<event>
 4    1  0.6729064E+001  0.3948836E+02  0.7546771E-02  0.1351510E+00
          2   -1    0    0  502    0  0.00000000000E+00  0.00000000000E+00  0.38350564364E+02  0.38350564364E+02  0.00000000000E+00 0.  1.
         -2   -1    0    0    0  501 -0.00000000000E+00 -0.00000000000E+00 -0.42268439717E+02  0.42268439717E+02  0.00000000000E+00 0. -1.
          1    1    1    2  502    0 -0.38770057673E+02 -0.74975477814E+01 -0.98223947433E+01  0.40691645742E+02  0.00000000000E+00 0. -1.
         -1    1    1    2    0  501  0.38770057673E+02  0.74975477814E+01  0.59045193905E+01  0.39927358339E+02  0.00000000000E+00 0.  1.
</event>
<event>
 4    1  0.6729064E+001  0.2480258E+02  0.7546771E-02  0.1471024E+00
          2   -1    0    0  502    0  0.00000000000E+00  0.00000000000E+00  0.25547837458E+04  0.25547837458E+04  0.00000000000E+00 0.  1.
         -2   -1    0    0    0  501 -0.00000000000E+00 -0.00000000000E+00 -0.24304533084E+00  0.24304533084E+00  0.00000000000E+00 0. -1.
          1    1    1    2  502    0  0.21822443416E+02  0.11787654803E+02  0.14003175573E+04  0.14005371931E+04  0.00000000000E+00 0.  1.
         -1    1    1    2    0  501 -0.21822443416E+02 -0.11787654803E+02  0.11542231432E+04  0.11544895981E+04  0.00000000000E+00 0. -1.
</event>
<event>
 4    1  0.6729064E+001  0.2196750E+02  0.7546771E-02  0.1505887E+00
          2   -1    0    0  502    0  0.00000000000E+00  0.00000000000E+00  0.86845015217E+03  0.86845015217E+03  0.00000000000E+00 0.  1.
         -2   -1    0    0    0  501 -0.00000000000E+00 -0.00000000000E+00 -0.86159131296E+00  0.86159131296E+00  0.00000000000E+00 0. -1.
          1    1    1    2  502    0 -0.13705271334E+02  0.17167900350E+02  0.17479407123E+03  0.17616906256E+03  0.00000000000E+00 0. -1.
         -1    1    1    2    0  501  0.13705271334E+02 -0.17167900350E+02  0.69279448963E+03  0.69314268093E+03  0.00000000000E+00 0.  1.
</event>
<event>
 4    1  0.6729064E+001  0.3054043E+02  0.7546771E-02  0.1414957E+00
          2   -1    0    0  502    0  0.00000000000E+00  0.00000000000E+00  0.21679398539E+04  0.21679398539E+04  0.00000000000E+00 0. -1.
         -2   -1    0    0    0  501 -0.00000000000E+00 -0.00000000000E+00 -0.11444708121E+01  0.11444708121E+01  0.00000000000E+00 0.  1.
          1    1    1    2  502    0  0.12292861047E+02 -0.27957168496E+02  0.19401705855E+04  0.19404109406E+04  0.00000000000E+00 0. -1.
         -1    1    1    2    0  501 -0.12292861047E+02  0.27957168496E+02  0.22662479765E+03  0.22867338414E+03  0.00000000000E+00 0.  1.
</event>
<event>
 4    1  0.6729064E+001  0.2728937E+02  0.7546771E-02  0.1444723E+00
          2   -1    0    0  502    0  0.00000000000E+00  0.00000000000E+00  0.22938416081E+04  0.22938416081E+04  0.00000000000E+00 0.  1.
         -2   -1    0    0    0  501 -0.00000000000E+00 -0.00000000000E+00 -0.36255184478E+00  0.36255184478E+00  0.00000000000E+00 0. -1.
          1    1    1    2  502    0  0.25718375170E+02  0.91255016704E+01  0.77587747198E+03  0.77635723808E+03  0.00000000000E+00 0. -1.
         -1    1    1    2    0  501 -0.25718375170E+02 -0.91255016704E+01  0.15176015843E+04  0.15178469219E+04  0.00000000000E+00 0.  1.
</event>
<event>
 4    1  0.6729064E+001  0.2614632E+02  0.7546771E-02  0.1456377E+00
          2   -1    0    0  502    0  0.00000000000E+00  0.00000000000E+00  0.18759488867E+04  0.18759488867E+04  0.00000000000E+00 0. -1.
         -2   -1    0    0    0  501 -0.00000000000E+00 -0.00000000000E+00 -0.47684492989E+00  0.47684492989E+00  0.00000000000E+00 0.  1.
          1    1    1    2  502    0  0.17860213671E+02 -0.19095622539E+02  0.48217404330E+03  0.48288242675E+03  0.00000000000E+00 0.  1.
         -1    1    1    2    0  501 -0.17860213671E+02  0.19095622539E+02  0.13932979985E+04  0.13935433049E+04  0.00000000000E+00 0. -1.
</event>
<event>
 4    1  0.6729064E+001  0.2076451E+02  0.7546771E-02  0.1522654E+00
          2   -1    0    0  502    0  0.00000000000E+00  0.00000000000E+00  0.21123450295E+02  0.21123450295E+02  0.00000000000E+00 0.  1.
         -2   -1    0    0    0  501 -0.00000000000E+00 -0.00000000000E+00 -0.37852047441E+02  0.37852047441E+02  0.00000000000E+00 0. -1.
          1    1    1    2  502    0  0.20762653086E+02 -0.27736440422E+00 -0.28380192486E+02  0.35165324109E+02  0.00000000000E+00 0. -1.
         -1    1    1    2    0  501 -0.20762653086E+02  0.27736440422E+00  0.11651595340E+02  0.23810173627E+02  0.00000000000E+00 0.  1.
</event>
<event>
 4    1  0.6729064E+001  0.2034402E+02  0.7546771E-02  0.1528840E+00
          2   -1    0    0  502    0  0.00000000000E+00  0.00000000000E+00  0.45389892746E+03  0.45389892746E+03  0.00000000000E+00 0. -1.
         -2   -1    0    0    0  501 -0.00000000000E+00 -0.00000000000E+00 -0.23069643625E+01  0.23069643625E+01  0.00000000000E+00 0.  1.
          1    1    1    2  502    0 -0.18001987132E+02 -0.94766889078E+01  0.48410409547E+02  0.52511398057E+02  0.00000000000E+00 0.  1.
         -1    1    1    2    0  501  0.18001987132E+02  0.94766889078E+01  0.40318155355E+03  0.40369449376E+03  0.00000000000E+00 0. -1.
</event>
<event>
 4    1  0.6729064E+001  0.4874461E+02  0.7546771E-02  0.1303709E+00
          2   -1    0    0  502    0  0.00000000000E+00  0.00000000000E+00  0.66477832900E+03  0.66477832900E+03  0.00000000000E+00 0. -1.
         -2   -1    0    0    0  501 -0.00000000000E+00 -0.00000000000E+00 -0.61632606466E+01  0.61632606466E+01  0.00000000000E+00 0.  1.
          1    1    1    2  502    0 -0.12039939759E+02 -0.47234276844E+02  0.11187612345E+03  0.12203402827E+03  0.00000000000E+00 0.  1.
         -1    1    1    2    0  501  0.12039939759E+02  0.47234276844E+02  0.54673894491E+03  0.54890756138E+03  0.00000000000E+00 0. -1.
</event>
<event>
 4    1  0.6729064E+001  0.2144397E+02  0.7546771E-02  0.1513020E+00
          2   -1    0    0  502    0  0.00000000000E+00  0.00000000000E+00  0.19890429766E+04  0.19890429766E+04  0.00000000000E+00 0.  1.
         -2   -1    0    0    0  501 -0.00000000000E+00 -0.00000000000E+00 -0.23271755799E+00  0.23271755799E+00  0.00000000000E+00 0. -1.
          1    1    1    2  502    0 -0.17781681253E+02 -0.11985644272E+02  0.10750288378E+04  0.10752426917E+04  0.00000000000E+00 0.  1.
         -1    1    1    2    0  501  0.17781681253E+02  0.11985644272E+02  0.91378142122E+03  0.91403300248E+03  0.00000000000E+00 0. -1.
</event>
<event>
 4    1  0.6729064E+001  0.2571942E+02  0.7546771E-02  0.1460914E+00
          2   -1    0    0  502    0  0.00000000000E+00  0.00000000000E+00  0.12771785663E+03  0.12771785663E+03  0.00000000000E+00 0. -1.
         -2   -1    0    0    0  501 -0.00000000000E+00 -0.00000000000E+00 -0.14145158418E+02  0.14145158418E+02  0.00000000000E+00 0.  1.
          1    1    1    2  502    0  0.37328531444E+01  0.25447088205E+02  0.31458755438E+00  0.25721342423E+02  0.00000000000E+00 0.  1.
         -1    1    1    2    0  501 -0.37328531444E+01 -0.25447088205E+02  0.11325811065E+03  0.11614167262E+03  0.00000000000E+00 0. -1.
</event>
<event>
 4    1  0.6729064E+001  0.2351854E+02  0.7546771E-02  0.1486088E+00
          2   -1    0    0  502    0  0.00000000000E+00  0.00000000000E+00  0.61945230649E+03  0.61945230649E+03  0.00000000000E+00 0.  1.
         -2   -1    0    0    0  501 -0.00000000000E+00 -0.00000000000E+00 -0.12787408993E+01  0.12787408993E+01  0.00000000000E+00 0. -1.
          1    1    1    2  502    0 -0.29210952934E+01 -0.23336424380E+02  0.13860619443E+03  0.14058733455E+03  0.00000000000E+00 0. -1.
         -1    1    1    2    0  501  0.29210952934E+01  0.23336424380E+02  0.47956737116E+03  0.48014371284E+03  0.00000000000E+00 0.  1.
</event>
<event>
 4    1  0.6729064E+001  0.3740820E+02  0.7546771E-02  0.1364382E+00
          2   -1    0    0  502    0  0.00000000000E+00  0.00000000000E+00  0.38723557378E+02  0.38723557378E+02  0.00000000000E+00 0. -1.
         -2   -1    0    0    0  501 -0.00000000000E+00 -0.00000000000E+00 -0.36299229548E+02  0.36299229548E+02  0.00000000000E+00 0.  1.
          1    1    1    2  502    0 -0.33526602580E+02  0.16593374788E+02 -0.12915686434E+01  0.37430486464E+02  0.00000000000E+00 0.  1.
         -1    1    1    2    0  501  0.33526602580E+02 -0.16593374788E+02  0.37158964740E+01  0.37592300462E+02  0.00000000000E+00 0. -1.
</event>
<event>
 4    1  0.6729064E+001  0.4309179E+02  0.7546771E-02  0.1331262E+00
          2   -1    0    0  502    0  0.00000000000E+00  0.00000000000E+00  0.14076092389E+04  0.14076092389E+04  0.00000000000E+00 0.  1.
         -2   -1    0    0    0  501 -0.00000000000E+00 -0.00000000000E+00 -0.27532244704E+01  0.27532244704E+01  0.00000000000E+00 0. -1.
          1    1    1    2  502    0  0.41004654432E+01  0.42896251478E+02  0.12113602035E+04  0.12121264146E+04  0.00000000000E+00 0.  1.
         -1    1    1    2    0  501 -0.41004654432E+01 -0.42896251478E+02  0.19349581094E+03  0.19823604884E+03  0.00000000000E+00 0. -1.
</event>
<event>
 4    1  0.6729064E+001  0.2480968E+02  0.7546771E-02  0.1470944E+00
          2   -1    0    0  502    0  0.00000000000E+00  0.00000000000E+00  0.47290844211E+03  0.47290844211E+03  0.00000000000E+00 0.  1.
         -2   -1    0    0    0  501 -0.00000000000E+00 -0.00000000000E+00 -0.15203522156E+01  0.15203522156E+01  0.00000000000E+00 0. -1.
          1    1    1    2  502    0 -0.20272897997E+02  0.14301396256E+02  0.14570669143E+03  0.14780378972E+03  0.00000000000E+00 0. -1.
         -1    1    1    2    0  501  0.20272897997E+02 -0.14301396256E+02  0.32568139846E+03  0.32662500460E+03  0.00000000000E+00 0.  1.
</event>
<event>
 4    1  0.6729064E+001  0.2147124E+02  0.7546771E-02  0.1512642E+00
          2   -1    0    0  502    0  0.00000000000E+00  0.00000000000E+00  0.88790462527E+01  0.88790462527E+01  0.00000000000E+00 0. -1.
         -2   -1    0    0    0  501 -0.00000000000E+00 -0.00000000000E+00 -0.28331933459E+03  0.28331933459E+03  0.00000000000E+00 0.  1.
          1    1    1    2  502    0 -0.19114710680E+02 -0.97796618832E+01 -0.26925521108E+03  0.27010994548E+03  0.00000000000E+00 0.  1.
         -1    1    1    2    0  501  0.19114710680E+02  0.97796618832E+01 -0.51850772610E+01  0.22088435371E+02  0.00000000000E+00 0. -1.
</event>
<event>
 4    1  0.6729064E+001  0.2028894E+02  0.7546771E-02  0.1529664E+00
          2   -1    0    0  502    0  0.00000000000E+00  0.00000000000E+00  0.21949216319E+01  0.21949216319E+01  0.00000000000E+00 0. -1.
         -2   -1    0    0    0  501 -0.00000000000E+00 -0.00000000000E+00 -0.39820332616E+03  0.39820332616E+03  0.00000000000E+00 0.  1.
          1    1    1    2  502    0  0.20114643606E+02 -0.26537164681E+01 -0.52390709723E+02  0.56182092910E+02  0.00000000000E+00 0. -1.
         -1    1    1    2    0  501 -0.20114643606E+02  0.26537164681E+01 -0.34361769480E+03  0.34421615488E+03  0.00000000000E+00 0.  1.
</event>
<event>
 4    1  0.6729064E+001  0.5274322E+02  0.7546771E-02  0.1286698E+00
          2   -1    0    0  502    0  0.00000000000E+00  0.00000000000E+00  0.14772847817E+04  0.14772847817E+04  0.00000000000E+00 0.  1.
         -2   -1    0    0    0  501 -0.00000000000E+00 -0.00000000000E+00 -0.21121436139E+01  0.21121436139E+01  0.00000000000E+00 0. -1.
          1    1    1    2  502    0 -0.39333809244E+02 -0.35138277957E+02  0.98118220915E+03  0.98259878622E+03  0.00000000000E+00 0. -1.
         -1    1    1    2    0  501  0.39333809244E+02  0.35138277957E+02  0.49399042897E+03  0.49679813913E+03  0.00000000000E+00 0.  1.
</event>
<event>
 4    1  0.6729064E+001  0.2361093E+02  0.7546771E-02  0.1484966E+00
          2   -1    0    0  502    0  0.00000000000E+00  0.00000000000E+00  0.34088936674E+03  0.34088936674E+03  0.00000000000E+00 0. -1.
         -2   -1    0    0    0  501 -0.00000000000E+00 -0.00000000000E+00 -0.22397346698E+01  0.22397346698E+01  0.00000000000E+00 0.  1.
          1    1    1    2  502    0  0.23459950793E+02 -0.26658615301E+01  0.25844645468E+03  0.25952272741E+03  0.00000000000E+00 0. -1.
         -1    1    1    2    0  501 -0.23459950793E+02  0.26658615301E+01  0.80203177395E+02  0.83606373999E+02  0.00000000000E+00 0.  1.
</event>
<event>
 4    1  0.6729064E+001  0.3248704E+02  0.7546771E-02  0.1399147E+00
          2   -1    0    0  502    0  0.00000000000E+00  0.00000000000E+00  0.54297380833E+01  0.54297380833E+01  0.00000000000E+00 0.  1.
         -2   -1    0    0    0  501 -0.00000000000E+00 -0.00000000000E+00 -0.19483479865E+03  0.19483479865E+03  0.00000000000E+00 0. -1.
          1    1    1    2  502    0  0.73547318570E+01 -0.31643574890E+02 -0.89840689106E+02  0.95534063724E+02  0.00000000000E+00 0. -1.
         -1    1    1    2    0  501 -0.73547318570E+01  0.31643574890E+02 -0.99564371465E+02  0.10473047301E+03  0.00000000000E+00 0.  1.
</event>
<event>
 4    1  0.6729064E+001  0.2188361E+02  0.7546771E-02  0.1507014E+00
          2   -1    0    0  502    0  0.00000000000E+00  0.00000000000E+00  0.22188164385E+03  0.22188164385E+03  0.00000000000E+00 0. -1.
         -2   -1    0    0    0  501 -0.00000000000E+00 -0.00000000000E+00 -0.70340306651E+01  0.70340306651E+01  0.00000000000E+00 0.  1.
          1    1    1    2  502    0  0.17695940889E+02  0.12874240325E+02  0.12130541126E+02  0.25020839632E+02  0.00000000000E+00 0.  1.
         -1    1    1    2    0  501 -0.17695940889E+02 -0.12874240325E+02  0.20271707206E+03  0.20389483489E+03  0.00000000000E+00 0. -1.
</event>
<event>
 4    1  0.6729064E+001  0.2332531E+02  0.7546771E-02  0.1488453E+00
          2   -1    0    0  502    0  0.00000000000E+00  0.00000000000E+00  0.28162572218E+01  0.28162572218E+01  0.00000000000E+00 0.  1.
         -2   -1    0    0    0  501 -0.00000000000E+00 -0.00000000000E+00 -0.19818510297E+03  0.19818510297E+03  0.00000000000E+00 0. -1.
          1    1    1    2  502    0 -0.22704852952E+02 -0.53441356697E+01 -0.81727621632E+02  0.84991024651E+02  0.00000000000E+00 0. -1.
         -1    1    1    2    0  501  0.22704852952E+02  0.53441356697E+01 -0.11364122412E+03  0.11601033554E+03  0.00000000000E+00 0.  1.
</event>
<event>
 4    1  0.6729064E+001  0.2536609E+02  0.7546771E-02  0.1464749E+00
          2   -1    0    0  502    0  0.00000000000E+00  0.00000000000E+00  0.35489236259E+03  0.35489236259E+03  0.00000000000E+00 0.  1.
         -2   -1    0    0    0  501 -0.00000000000E+00 -0.00000000000E+00 -0.20175166110E+01  0.20175166110E+01  0.00000000000E+00 0. -1.
          1    1    1    2  502    0 -0.10893121911E+02 -0.22908045760E+02  0.11962700053E+03  0.12228678556E+03  0.00000000000E+00 0.  1.
         -1    1    1    2    0  501  0.10893121911E+02  0.22908045760E+02  0.23324784544E+03  0.23462309364E+03  0.00000000000E+00 0. -1.
</event>
<event>
 4    1  0.6729064E+001  0.2084998E+02  0.7546771E-02  0.1521418E+00
          2   -1    0    0  502    0  0.00000000000E+00  0.00000000000E+00  0.11609173529E+02  0.11609173529E+02  0.00000000000E+00 0. -1.
         -2   -1    0    0    0  501 -0.00000000000E+00 -0.00000000000E+00 -0.40397093204E+02  0.40397093204E+02  0.00000000000E+00 0.  1.
          1    1    1    2  502    0 -0.16428433147E+02  0.12838551132E+02 -0.21421645109E+02  0.29893288377E+02  0.00000000000E+00 0.  1.
         -1    1    1    2    0  501  0.16428433147E+02 -0.12838551132E+02 -0.73662745661E+01  0.22112978357E+02  0.00000000000E+00 0. -1.
</event>
<event>
 4    1  0.6729064E+001  0.3483706E+02  0.7546771E-02  0.1381712E+00
          2   -1    0    0  502    0  0.00000000000E+00  0.00000000000E+00  0.27689207634E+04  0.27689207634E+04  0.00000000000E+00 0.  1.
         -2   -1    0    0    0  501 -0.00000000000E+00 -0.00000000000E+00 -0.54936752479E+00  0.54936752479E+00  0.00000000000E+00 0. -1.
          1    1    1    2  502    0  0.31727735012E+02 -0.14386503445E+02  0.20068111254E+04  0.20071134780E+04  0.00000000000E+00 0.  1.
         -1    1    1    2    0  501 -0.31727735012E+02  0.14386503445E+02  0.76156027041E+03  0.76235665283E+03  0.00000000000E+00 0. -1.
</event>
<event>
 4    1  0.6729064E+001  0.2076127E+02  0.7546771E-02  0.1522701E+00
          2   -1    0    0  502    0  0.00000000000E+00  0.00000000000E+00  0.17667937733E+01  0.17667937733E+01  0.00000000000E+00 0. -1.
         -2   -1    0    0    0  501 -0.00000000000E+00 -0.00000000000E+00 -0.24406712509E+03  0.24406712509E+03  0.00000000000E+00 0.  1.
          1    1    1    2  502    0  0.20759321882E+02 -0.28417121041E+00 -0.11859680334E+03  0.12040029884E+03  0.00000000000E+00 0. -1.
         -1    1    1    2    0  501 -0.20759321882E+02  0.28417121041E+00 -0.12370352797E+03  0.12543362002E+03  0.00000000000E+00 0.  1.
</event>
<event>
 4    1  0.6729064E+001  0.2024512E+02  0.7546771E-02  0.1530321E+00
          2   -1    0    0  502    0  0.00000000000E+00  0.00000000000E+00  0.98050496206E+03  0.98050496206E+03  0.00000000000E+00 0. -1.
         -2   -1    0    0    0  501 -0.00000000000E+00 -0.00000000000E+00 -0.61310064447E+00  0.61310064447E+00  0.00000000000E+00 0.  1.
          1    1    1    2  502    0  0.30984057269E+01  0.20006615353E+02  0.76666506316E+03  0.76693232025E+03  0.00000000000E+00 0. -1.
         -1    1    1    2    0  501 -0.30984057269E+01 -0.20006615353E+02  0.21322679826E+03  0.21418574246E+03  0.00000000000E+00 0.  1.
</event>
<event>
 4    1  0.6729064E+001  0.2683938E+02  0.7546771E-02  0.1449228E+00
          2   -1    0    0  502    0  0.00000000000E+00  0.00000000000E+00  0.17510939850E+04  0.17510939850E+04  0.00000000000E+00 0. -1.
         -2   -1    0    0    0  501 -0.00000000000E+00 -0.00000000000E+00 -0.59174195881E+00  0.59174195881E+00  0.00000000000E+00 0.  1.
          1    1    1    2  502    0 -0.16768608242E+02  0.20956289587E+02  0.39170127549E+03  0.39261971616E+03  0.00000000000E+00 0.  1.
         -1    1    1    2    0  501  0.16768608242E+02 -0.20956289587E+02  0.13588009675E+04  0.13590660108E+04  0.00000000000E+00 0. -1.
</event>
<event>
 4    1  0.6729064E+001  0.2248564E+02  0.7546771E-02  0.1499060E+00
          2   -1    0    0  502    0  0.00000000000E+00  0.00000000000E+00  0.35729384863E+03  0.35729384863E+03  0.00000000000E+00 0. -1.
         -2   -1    0    0    0  501 -0.00000000000E+00 -0.00000000000E+00 -0.14663297639E+01  0.14663297639E+01  0.00000000000E+00 0.  1.
          1    1    1    2  502    0  0.60287823780E+01 -0.21662361780E+02  0.21144487044E+03  0.21263710253E+03  0.00000000000E+00 0.  1.
         -1    1    1    2    0  501 -0.60287823780E+01  0.21662361780E+02  0.14438264843E+03  0.14612307587E+03  0.00000000000E+00 0. -1.
</event>
<event>
 4    1  0.6729064E+001  0.2373920E+02  0.7546771E-02  0.1483419E+00
          2   -1    0    0  502    0  0.00000000000E+00  0.00000000000E+00  0.42741017083E+02  0.42741017083E+02  0.00000000000E+00 0. -1.
         -2   -1    0    0    0  501 -0.00000000000E+00 -0.00000000000E+00 -0.15436360712E+02  0.15436360712E+02  0.00000000000E+00 0.  1.
          1    1    1    2  502    0  0.21510110484E+02  0.10043151669E+02  0.25438918760E+01  0.23875115379E+02  0.00000000000E+00 0.  1.
         -1    1    1    2    0  501 -0.21510110484E+02 -0.10043151669E+02  0.24760764496E+02  0.34302262416E+02  0.00000000000E+00 0. -1.
</event>
<event>
 4    1  0.6729064E+001  0.2438352E+02  0.7546771E-02  0.1475819E+00
          2   -1    0    0  502    0  0.00000000000E+00  0.00000000000E+00  0.10521643502E+04  0.10521643502E+04  0.00000000000E+00 0. -1.
         -2   -1    0    0    0  501 -0.00000000000E+00 -0.00000000000E+00 -0.72547759058E+00  0.72547759058E+00  0.00000000000E+00 0.  1.
          1    1    1    2  502    0 -0.21759379915E+02  0.11003889312E+02  0.27818197650E+03  0.27924857787E+03  0.00000000000E+00 0.  1.
         -1    1    1    2    0  501  0.21759379915E+02 -0.11003889312E+02  0.77325689607E+03  0.77364124987E+03  0.00000000000E+00 0. -1.
</event>
<event>
 4    1  0.6729064E+001  0.2034816E+02  0.7546771E-02  0.1528778E+00
          2   -1    0    0  502    0  0.00000000000E+00  0.00000000000E+00  0.17306994573E+04  0.17306994573E+04  0.00000000000E+00 0.  1.
         -2   -1    0    0    0  501 -0.00000000000E+00 -0.00000000000E+00 -0.27736378340E+00  0.27736378340E+00  0.00000000000E+00 0. -1.
          1    1    1    2  502    0  0.10578736851E+02 -0.17382120810E+02  0.11860964629E+04  0.11862709923E+04  0.00000000000E+00 0.  1.
         -1    1    1    2    0  501 -0.10578736851E+02  0.17382120810E+02  0.54432563061E+03  0.54470582880E+03  0.00000000000E+00 0. -1.
</event>
<event>
 4    1  0.6729064E+001  0.2314620E+02  0.7546771E-02  0.1490670E+00
          2   -1    0    0  502    0  0.00000000000E+00  0.00000000000E+00  0.28523531419E+01  0.28523531419E+01  0.00000000000E+00 0. -1.
         -2   -1    0    0    0  501 -0.00000000000E+00 -0.00000000000E+00 -0.23231648494E+03  0.23231648494E+03  0.00000000000E+00 0.  1.
          1    1    1    2  502    0 -0.18965567768E+02 -0.13268535214E+02 -0.16618878892E+03  0.16779290912E+03  0.00000000000E+00 0.  1.
         -1    1    1    2    0  501  0.18965567768E+02  0.13268535214E+02 -0.63275342881E+02  0.67375928967E+02  0.00000000000E+00 0. -1.
</event>
<event>
 4    1  0.6729064E+001  0.3527922E+02  0.7546771E-02  0.1378611E+00
          2   -1    0    0  502    0  0.00000000000E+00  0.00000000000E+00  0.18725493727E+03  0.18725493727E+03  0.00000000000E+00 0. -1.
         -2   -1    0    0    0  501 -0.00000000000E+00 -0.00000000000E+00 -0.29656350822E+02  0.29656350822E+02  0.00000000000E+00 0.  1.
          1    1    1    2  502    0  0.14355930760E+02  0.32226243703E+02  0.17433121427E+03  0.17786510563E+03  0.00000000000E+00 0. -1.
         -1    1    1    2    0  501 -0.14355930760E+02 -0.32226243703E+02 -0.16732627822E+02  0.39046182464E+02  0.00000000000E+00 0.  1.
</event>
<event>
 4    1  0.6729064E+001  0.2093232E+02  0.7546771E-02  0.1520233E+00
          2   -1    0    0  502    0  0.00000000000E+00  0.00000000000E+00  0.84580304031E+01  0.84580304031E+01  0.00000000000E+00 0. -1.
         -2   -1    0    0    0  501 -0.00000000000E+00 -0.00000000000E+00 -0.52401171218E+02  0.52401171218E+02  0.00000000000E+00 0.  1.
          1    1    1    2  502    0  0.19703605197E+02  0.70661231458E+01 -0.25219258129E+02  0.32774580617E+02  0.00000000000E+00 0.  1.
         -1    1    1    2    0  501 -0.19703605197E+02 -0.70661231458E+01 -0.18723882686E+02  0.28084621004E+02  0.00000000000E+00 0. -1.
</event>
<event>
 4    1  0.6729064E+001  0.2855576E+02  0.7546771E-02  0.1432576E+00
          2   -1    0    0  502    0  0.00000000000E+00  0.00000000000E+00  0.19422040125E+04  0.19422040125E+04  0.00000000000E+00 0. -1.
         -2   -1    0    0    0  501 -0.00000000000E+00 -0.00000000000E+00 -0.42715144644E+00  0.42715144644E+00  0.00000000000E+00 0.  1.
          1    1    1    2  502    0 -0.24448125999E+02 -0.14755349108E+02  0.10978938600E+04  0.10982651588E+04  0.00000000000E+00 0.  1.
         -1    1    1    2    0  501  0.24448125999E+02  0.14755349108E+02  0.84388300104E+03  0.84436600514E+03  0.00000000000E+00 0. -1.
</event>
<event>
 4    1  0.6729064E+001  0.3606218E+02  0.7546771E-02  0.1373246E+00
          2   -1    0    0  502    0  0.00000000000E+00  0.00000000000E+00  0.16596424918E+04  0.16596424918E+04  0.00000000000E+00 0.  1.
         -2   -1    0    0    0  501 -0.00000000000E+00 -0.00000000000E+00 -0.92245494260E+00  0.92245494260E+00  0.00000000000E+00 0. -1.
          1    1    1    2  502    0 -0.35974414135E+02 -0.25144612314E+01  0.50721755820E+03  0.50849791772E+03  0.00000000000E+00 0. -1.
         -1    1    1    2    0  501  0.35974414135E+02  0.25144612314E+01  0.11515024787E+04  0.11520670291E+04  0.00000000000E+00 0.  1.
</event>
<event>
 4    1  0.6729064E+001  0.2109241E+02  0.7546771E-02  0.1517949E+00
          2   -1    0    0  502    0  0.00000000000E+00  0.00000000000E+00  0.28875827052E+03  0.28875827052E+03  0.00000000000E+00 0.  1.
         -2   -1    0    0    0  501 -0.00000000000E+00 -0.00000000000E+00 -0.19272216533E+01  0.19272216533E+01  0.00000000000E+00 0. -1.
          1    1    1    2  502    0  0.15059305547E+02 -0.14768452385E+02  0.78325499415E+02  0.81115804428E+02  0.00000000000E+00 0. -1.
         -1    1    1    2    0  501 -0.15059305547E+02  0.14768452385E+02  0.20850554945E+03  0.20956968774E+03  0.00000000000E+00 0.  1.
</event>
<event>
 4    1  0.6729064E+001  0.2356406E+02  0.7546771E-02  0.1485534E+00
          2   -1    0    0  502    0  0.00000000000E+00  0.00000000000E+00  0.94128210297E+02  0.94128210297E+02  0.00000000000E+00 0. -1.
         -2   -1    0    0    0  501 -0.00000000000E+00 -0.00000000000E+00 -0.60375366227E+01  0.60375366227E+01  0.00000000000E+00 0.  1.
          1    1    1    2  502    0 -0.17062840876E+02 -0.16251906392E+02  0.36459615434E+02  0.43411617773E+02  0.00000000000E+00 0. -1.
         -1    1    1    2    0  501  0.17062840876E+02  0.16251906392E+02  0.51631058240E+02  0.56754129146E+02  0.00000000000E+00 0.  1.
</event>
<event>
 4    1  0.6729064E+001  0.4246999E+02  0.7546771E-02  0.1334589E+00
          2   -1    0    0  502    0  0.00000000000E+00  0.00000000000E+00  0.64189057785E+03  0.64189057785E+03  0.00000000000E+00 0. -1.
         -2   -1    0    0    0  501 -0.00000000000E+00 -0.00000000000E+00 -0.28806321101E+01  0.28806321101E+01  0.00000000000E+00 0.  1.
          1    1    1    2  502    0  0.40286261664E+02  0.13443122154E+02  0.36999328295E+03  0.37242278373E+03  0.00000000000E+00 0. -1.
         -1    1    1    2    0  501 -0.40286261664E+02 -0.13443122154E+02  0.26901666279E+03  0.27234842624E+03  0.00000000000E+00 0.  1.
</event>
<event>
 4    1  0.6729064E+001  0.2156286E+02  0.7546771E-02  0.1511378E+00
          2   -1    0    0  502    0  0.00000000000E+00  0.00000000000E+00  0.32429427203E+03  0.32429427203E+03  0.00000000000E+00 0. -1.
         -2   -1    0    0    0  501 -0.00000000000E+00 -0.00000000000E+00 -0.18895922769E+01  0.18895922769E+01  0.00000000000E+00 0.  1.
          1    1    1    2  502    0 -0.12992916575E+02 -0.17208751464E+02  0.81098084915E+02  0.83915769584E+02  0.00000000000E+00 0.  1.
         -1    1    1    2    0  501  0.12992916575E+02  0.17208751464E+02  0.24130659484E+03  0.24226809472E+03  0.00000000000E+00 0. -1.
</event>
<event>
 4    1  0.6729064E+001  0.3303027E+02  0.7546771E-02  0.1394966E+00
          2   -1    0    0  502    0  0.00000000000E+00  0.00000000000E+00  0.76582017029E+01  0.76582017029E+01  0.00000000000E+00 0. -1.
         -2   -1    0    0    0  501 -0.00000000000E+00 -0.00000000000E+00 -0.15449478108E+03  0.15449478108E+03  0.00000000000E+00 0.  1.
          1    1    1    2  502    0  0.88740557650E+00  0.33018349004E+02 -0.50791123329E+02  0.60586607997E+02  0.00000000000E+00 0. -1.
         -1    1    1    2    0  501 -0.88740557650E+00 -0.33018349004E+02 -0.96045456049E+02  0.10156637479E+03  0.00000000000E+00 0.  1.
</event>
<event>
 4    1  0.6729064E+001  0.2232689E+02  0.7546771E-02  0.1501128E+00
          2   -1    0    0  502    0  0.00000000000E+00  0.00000000000E+00  0.29830071334E+01  0.29830071334E+01  0.00000000000E+00 0.  1.
         -2   -1    0    0    0  501 -0.00000000000E+00 -0.00000000000E+00 -0.17347622848E+03  0.17347622848E+03  0.00000000000E+00 0. -1.
          1    1    1    2  502    0  0.11042625134E+02  0.19404908033E+02 -0.10214864239E+03  0.10456019877E+03  0.00000000000E+00 0.  1.
         -1    1    1    2    0  501 -0.11042625134E+02 -0.19404908033E+02 -0.68344578960E+02  0.71899036842E+02  0.00000000000E+00 0. -1.
</event>
<event>
 4    1  0.6729064E+001  0.2977220E+02  0.7546771E-02  0.1421587E+00
          2   -1    0    0  502    0  0.00000000000E+00  0.00000000000E+00  0.14094767565E+03  0.14094767565E+03  0.00000000000E+00 0.  1.
         -2   -1    0    0    0  501 -0.00000000000E+00 -0.00000000000E+00 -0.10208906656E+02  0.10208906656E+02  0.00000000000E+00 0. -1.
          1    1    1    2  502    0 -0.25527701242E+02 -0.15320589327E+02  0.11220318924E+03  0.11608591501E+03  0.00000000000E+00 0.  1.
         -1    1    1    2    0  501  0.25527701242E+02  0.15320589327E+02  0.18535579762E+02  0.35070667304E+02  0.00000000000E+00 0. -1.
</event>
<event>
 4    1  0.6729064E+001  0.2209570E+02  0.7546771E-02  0.1504177E+00
          2   -1    0    0  502    0  0.00000000000E+00  0.00000000000E+00  0.11130559625E+02  0.11130559625E+02  0.00000000000E+00 0.  1.
         -2   -1    0    0    0  501 -0.00000000000E+00 -0.00000000000E+00 -0.53010766682E+02  0.53010766682E+02  0.00000000000E+00 0. -1.
          1    1    1    2  502    0 -0.16113504897E+02 -0.15118697643E+02 -0.76176948725E+01  0.23371977530E+02  0.00000000000E+00 0.  1.
         -1    1    1    2    0  501  0.16113504897E+02  0.15118697643E+02 -0.34262512184E+02  0.40769348777E+02  0.00000000000E+00 0. -1.
</event>
<event>
 4    1  0.6729064E+001  0.3252483E+02  0.7546771E-02  0.1398853E+00
          2   -1    0    0  502    0  0.00000000000E+00  0.00000000000E+00  0.58884769127E+01  0.58884769127E+01  0.00000000000E+00 0.  1.
         -2   -1    0    0    0  501 -0.00000000000E+00 -0.00000000000E+00 -0.46904897553E+03  0.46904897553E+03  0.00000000000E+00 0. -1.
          1    1    1    2  502    0 -0.12285333612E+00  0.32524602583E+02 -0.41810901781E+03  0.41937216842E+03  0.00000000000E+00 0. -1.
         -1    1    1    2    0  501  0.12285333612E+00 -0.32524602583E+02 -0.45051480801E+02  0.55565284023E+02  0.00000000000E+00 0.  1.
</event>
<event>
 4    1  0.6729064E+001  0.2507672E+02  0.7546771E-02  0.1467947E+00
          2   -1    0    0  502    0  0.00000000000E+00  0.00000000000E+00  0.25326237249E+04  0.25326237249E+04  0.00000000000E+00 0. -1.
         -2   -1    0    0    0  501 -0.00000000000E+00 -0.00000000000E+00 -0.24829931685E+00  0.24829931685E+00  0.00000000000E+00 0.  1.
          1    1    1    2  502    0 -0.19077279333E+02  0.16275726303E+02  0.12703788839E+04  0.12706263615E+04  0.00000000000E+00 0.  1.
         -1    1    1    2    0  501  0.19077279333E+02 -0.16275726303E+02  0.12619965417E+04  0.12622456628E+04  0.00000000000E+00 0. -1.
</event>
<event>
 4    1  0.6729064E+001  0.2551869E+02  0.7546771E-02  0.1463084E+00
          2   -1    0    0  502    0  0.00000000000E+00  0.00000000000E+00  0.15075364935E+01  0.15075364935E+01  0.00000000000E+00 0.  1.
         -2   -1    0    0    0  501 -0.00000000000E+00 -0.00000000000E+00 -0.62039260305E+03  0.62039260305E+03  0.00000000000E+00 0. -1.
          1    1    1    2  502    0  0.15136749734E+02  0.20544644578E+02 -0.48081030397E+03  0.48148702165E+03  0.00000000000E+00 0. -1.
         -1    1    1    2    0  501 -0.15136749734E+02 -0.20544644578E+02 -0.13807476259E+03  0.14041311790E+03  0.00000000000E+00 0.  1.
</event>
<event>
 4    1  0.6729064E+001  0.2591207E+02  0.7546771E-02  0.1458854E+00
          2   -1    0    0  502    0  0.00000000000E+00  0.00000000000E+00  0.10398210723E+04  0.10398210723E+04  0.00000000000E+00 0. -1.
         -2   -1    0    0    0  501 -0.00000000000E+00 -0.00000000000E+00 -0.14510259944E+01  0.14510259944E+01  0.00000000000E+00 0.  1.
          1    1    1    2  502    0  0.87362632115E+01 -0.24394939096E+02  0.90704642638E+03  0.90741647272E+03  0.00000000000E+00 0. -1.
         -1    1    1    2    0  501 -0.87362632115E+01  0.24394939096E+02  0.13132361991E+03  0.13385562556E+03  0.00000000000E+00 0.  1.
</event>
<event>
 4    1  0.6729064E+001  0.2627242E+02  0.7546771E-02  0.1455057E+00
          2   -1    0    0  502    0  0.00000000000E+00  0.00000000000E+00  0.98012564945E+03  0.98012564945E+03  0.00000000000E+00 0. -1.
         -2   -1    0    0    0  501 -0.00000000000E+00 -0.00000000000E+00 -0.70423714851E+00  0.70423714851E+00  0.00000000000E+00 0.  1.
          1    1    1    2  502    0  0.16958132874E+02  0.20066435999E+02  0.48919331108E+03  0.48989829121E+03  0.00000000000E+00 0.  1.
         -1    1    1    2    0  501 -0.16958132874E+02 -0.20066435999E+02  0.49022810122E+03  0.49093159538E+03  0.00000000000E+00 0. -1.
</event>
<event>
 4    1  0.6729064E+001  0.2239133E+02  0.7546771E-02  0.1500286E+00
          2   -1    0    0  502    0  0.00000000000E+00  0.00000000000E+00  0.33846874128E+02  0.33846874128E+02  0.00000000000E+00 0. -1.
         -2   -1    0    0    0  501 -0.00000000000E+00 -0.00000000000E+00 -0.19300715718E+02  0.19300715718E+02  0.00000000000E+00 0.  1.
          1    1    1    2  502    0 -0.21456365038E+02 -0.64028087173E+01 -0.55408602210E+01  0.23066700937E+02  0.00000000000E+00 0.  1.
         -1    1    1    2    0  501  0.21456365038E+02  0.64028087173E+01  0.20087018631E+02  0.30080888910E+02  0.00000000000E+00 0. -1.
</event>
<event>
 4    1  0.6729064E+001  0.2077265E+02  0.7546771E-02  0.1522536E+00
          2   -1    0    0  502    0  0.00000000000E+00  0.00000000000E+00  0.50597576078E+03  0.50597576078E+03  0.00000000000E+00 0.  1.
         -2   -1    0    0    0  501 -0.00000000000E+00 -0.00000000000E+00 -0.19238407804E+01  0.19238407804E+01  0.00000000000E+00 0. -1.
          1    1    1    2  502    0  0.16039674315E+02 -0.13199696257E+02  0.62545901530E+02  0.65905181371E+02  0.00000000000E+00 0. -1.
         -1    1    1    2    0  501 -0.16039674315E+02  0.13199696257E+02  0.44150601847E+03  0.44199442019E+03  0.00000000000E+00 0.  1.
</event>
<event>
 4    1  0.6729064E+001  0.2072861E+02  0.7546771E-02  0.1523175E+00
          2   -1    0    0  502    0  0.00000000000E+00  0.00000000000E+00  0.70527601059E+03  0.70527601059E+03  0.00000000000E+00 0. -1.
         -2   -1    0    0    0  501 -0.00000000000E+00 -0.00000000000E+00 -0.79997378304E+00  0.79997378304E+00  0.00000000000E+00 0.  1.
          1    1    1    2  502    0 -0.18839196129E+02  0.86463931871E+01  0.17984940905E+03  0.18104001039E+03  0.00000000000E+00 0.  1.
         -1    1    1    2    0  501  0.18839196129E+02 -0.86463931871E+01  0.52462662776E+03  0.52503597398E+03  0.00000000000E+00 0. -1.
</event>
<event>
 4    1  0.6729064E+001  0.2339725E+02  0.7546771E-02  0.1487569E+00
          2   -1    0    0  502    0  0.00000000000E+00  0.00000000000E+00  0.17915725706E+04  0.17915725706E+04  0.00000000000E+00 0. -1.
         -2   -1    0    0    0  501 -0.00000000000E+00 -0.00000000000E+00 -0.31909593672E+00  0.31909593672E+00  0.00000000000E+00 0.  1.
          1    1    1    2  502    0 -0.83717062962E+01 -0.21848243412E+02  0.10801625110E+04  0.10804158835E+04  0.00000000000E+00 0. -1.
         -1    1    1    2    0  501  0.83717062962E+01  0.21848243412E+02  0.71109096372E+03  0.71147578307E+03  0.00000000000E+00 0.  1.
</event>
<event>
 4    1  0.6729064E+001  0.2026153E+02  0.7546771E-02  0.1530075E+00
          2   -1    0    0  502    0  0.00000000000E+00  0.00000000000E+00  0.10292012887E+03  0.10292012887E+03  0.00000000000E+00 0.  1.
         -2   -1    0    0    0  501 -0.00000000000E+00 -0.00000000000E+00 -0.40019054537E+01  0.40019054537E+01  0.00000000000E+00 0. -1.
          1    1    1    2  502    0  0.39236521925E+01  0.19877986949E+02  0.52516649474E+02  0.56289678305E+02  0.00000000000E+00 0.  1.
         -1    1    1    2    0  501 -0.39236521925E+01 -0.19877986949E+02  0.46401573940E+02  0.50632356016E+02  0.00000000000E+00 0. -1.
</event>
<event>
 4    1  0.6729064E+001  0.2004105E+02  0.7546771E-02  0.1533409E+00
          2   -1    0    0  502    0  0.00000000000E+00  0.00000000000E+00  0.15089444164E+02  0.15089444164E+02  0.00000000000E+00 0. -1.
         -2   -1    0    0    0  501 -0.00000000000E+00 -0.00000000000E+00 -0.27133653350E+02  0.27133653350E+02  0.00000000000E+00 0.  1.
          1    1    1    2  502    0 -0.93464863514E+01 -0.17728141310E+02 -0.89337655115E+01  0.21942104904E+02  0.00000000000E+00 0.  1.
         -1    1    1    2    0  501  0.93464863514E+01  0.17728141310E+02 -0.31104436750E+01  0.20280992610E+02  0.00000000000E+00 0. -1.
</event>
<event>
 4    1  0.6729064E+001  0.2665352E+02  0.7546771E-02  0.1451120E+00
          2   -1    0    0  502    0  0.00000000000E+00  0.00000000000E+00  0.11842162347E+04  0.11842162347E+04  0.00000000000E+00 0.  1.
         -2   -1    0    0    0  501 -0.00000000000E+00 -0.00000000000E+00 -0.89613609147E+00  0.89613609147E+00  0.00000000000E+00 0. -1.
          1    1    1    2  502    0  0.26390993870E+02  0.37316865765E+01  0.93235235588E+03  0.93273325531E+03  0.00000000000E+00 0.  1.
         -1    1    1    2    0  501 -0.26390993870E+02 -0.37316865765E+01  0.25096774276E+03  0.25237911552E+03  0.00000000000E+00 0. -1.
</event>
<event>
 4    1  0.6729064E+001  0.2284961E+02  0.7546771E-02  0.1494395E+00
          2   -1    0    0  502    0  0.00000000000E+00  0.00000000000E+00  0.34277267802E+03  0.34277267802E+03  0.00000000000E+00 0. -1.
         -2   -1    0    0    0  501 -0.00000000000E+00 -0.00000000000E+00 -0.21331395607E+01  0.21331395607E+01  0.00000000000E+00 0.  1.
          1    1    1    2  502    0 -0.28388762763E+01  0.22672565662E+02  0.78102672043E+02  0.81376482060E+02  0.00000000000E+00 0.  1.
         -1    1    1    2    0  501  0.28388762763E+01 -0.22672565662E+02  0.26253686642E+03  0.26352933553E+03  0.00000000000E+00 0. -1.
</event>
<event>
 4    1  0.6729064E+001  0.2010019E+02  0.7546771E-02  0.1532510E+00
          2   -1    0    0  502    0  0.00000000000E+00  0.00000000000E+00  0.48189876614E+03  0.48189876614E+03  0.00000000000E+00 0.  1.
         -2   -1    0    0    0  501 -0.00000000000E+00 -0.00000000000E+00 -0.86803930449E+00  0.86803930449E+00  0.00000000000E+00 0. -1.
          1    1    1    2  502    0  0.18474614297E+02 -0.79187339024E+01  0.19590189012E+03  0.19693036402E+03  0.00000000000E+00 0. -1.
         -1    1    1    2    0  501 -0.18474614297E+02  0.79187339024E+01  0.28512883672E+03  0.28583644143E+03  0.00000000000E+00 0.  1.
</event>
<event>
 4    1  0.6729064E+001  0.2909684E+02  0.7546771E-02  0.1427611E+00
          2   -1    0    0  502    0  0.00000000000E+00  0.00000000000E+00  0.20128920136E+04  0.20128920136E+04  0.00000000000E+00 0. -1.
         -2   -1    0    0    0  501 -0.00000000000E+00 -0.00000000000E+00 -0.42084016155E+00  0.42084016155E+00  0.00000000000E+00 0.  1.
          1    1    1    2  502    0 -0.68286508168E+01 -0.28284195877E+02  0.10301879474E+04  0.10305987741E+04  0.00000000000E+00 0. -1.
         -1    1    1    2    0  501  0.68286508168E+01  0.28284195877E+02  0.98228322601E+03  0.98271407963E+03  0.00000000000E+00 0.  1.
</event>
<event>
 4    1  0.6729064E+001  0.2031526E+02  0.7546771E-02  0.1529270E+00
          2   -1    0    0  502    0  0.00000000000E+00  0.00000000000E+00  0.18822166980E+04  0.18822166980E+04  0.00000000000E+00 0. -1.
         -2   -1    0    0    0  501 -0.00000000000E+00 -0.00000000000E+00 -0.25644386240E+00  0.25644386240E+00  0.00000000000E+00 0.  1.
          1    1    1    2  502    0  0.18188061616E+02  0.90501007554E+01  0.58260892107E+03  0.58296300467E+03  0.00000000000E+00 0.  1.
         -1    1    1    2    0  501 -0.18188061616E+02 -0.90501007554E+01  0.12993513331E+04  0.12995101372E+04  0.00000000000E+00 0. -1.
</event>
<event>
 4    1  0.6729064E+001  0.4362607E+02  0.7546771E-02  0.1328454E+00
          2   -1    0    0  502    0  0.00000000000E+00  0.00000000000E+00  0.61108477530E+02  0.61108477530E+02  0.00000000000E+00 0.  1.
         -2   -1    0    0    0  501 -0.00000000000E+00 -0.00000000000E+00 -0.58276407334E+02  0.58276407334E+02  0.00000000000E+00 0. -1.
          1    1    1    2  502    0 -0.13092967051E+02 -0.41614999765E+02 -0.39313340776E+02  0.58726252687E+02  0.00000000000E+00 0. -1.
         -1    1    1    2    0  501  0.13092967051E+02  0.41614999765E+02  0.42145410972E+02  0.60658632178E+02  0.00000000000E+00 0.  1.
</event>
<event>
 4    1  0.6729064E+001  0.4663053E+02  0.7546771E-02  0.1313482E+00
          2   -1    0    0  502    0  0.00000000000E+00  0.00000000000E+00  0.34927067798E+03  0.34927067798E+03  0.00000000000E+00 0. -1.
         -2   -1    0    0    0  501 -0.00000000000E+00 -0.00000000000E+00 -0.84652516804E+01  0.84652516804E+01  0.00000000000E+00 0.  1.
          1    1    1    2  502    0 -0.29121303372E+02 -0.36419170265E+02  0.26240667926E+03  0.26651767595E+03  0.00000000000E+00 0. -1.
         -1    1    1    2    0  501  0.29121303372E+02  0.36419170265E+02  0.78398747043E+02  0.91218253715E+02  0.00000000000E+00 0.  1.
</event>
<event>
 4    1  0.6729064E+001  0.2655861E+02  0.7546771E-02  0.1452093E+00
          2   -1    0    0  502    0  0.00000000000E+00  0.00000000000E+00  0.36338320352E+02  0.36338320352E+02  0.00000000000E+00 0.  1.
         -2   -1    0    0    0  501 -0.00000000000E+00 -0.00000000000E+00 -0.19422752761E+02  0.19422752761E+02  0.00000000000E+00 0. -1.
          1    1    1    2  502    0 -0.20881793056E+02 -0.16410682421E+02  0.91463031878E+01  0.28089404422E+02  0.00000000000E+00 0. -1.
         -1    1    1    2    0  501  0.20881793056E+02  0.16410682421E+02  0.77692644025E+01  0.27671668691E+02  0.00000000000E+00 0.  1.
</event>
<event>
 4    1  0.6729064E+001  0.5688058E+02  0.7546771E-02  0.1270816E+00
          2   -1    0    0  502    0  0.00000000000E+00  0.00000000000E+00  0.62094314146E+03  0.62094314146E+03  0.00000000000E+00 0.  1.
         -2   -1    0    0    0  501 -0.00000000000E+00 -0.00000000000E+00 -0.61220428296E+01  0.61220428296E+01  0.00000000000E+00 0. -1.
          1    1    1    2  502    0 -0.53397158878E+02 -0.19599585715E+02  0.18642535664E+03  0.19490975844E+03  0.00000000000E+00 0. -1.
         -1    1    1    2    0  501  0.53397158878E+02  0.19599585715E+02  0.42839574198E+03  0.43215542584E+03  0.00000000000E+00 0.  1.
</event>
<event>
 4    1  0.6729064E+001  0.2184249E+02  0.7546771E-02  0.1507568E+00
          2   -1    0    0  502    0  0.00000000000E+00  0.00000000000E+00  0.45826902058E+03  0.45826902058E+03  0.00000000000E+00 0.  1.
         -2   -1    0    0    0  501 -0.00000000000E+00 -0.00000000000E+00 -0.14375409712E+01  0.14375409712E+01  0.00000000000E+00 0. -1.
          1    1    1    2  502    0 -0.11841868136E+02  0.18353866061E+02  0.10770626087E+03  0.10989873917E+03  0.00000000000E+00 0. -1.
         -1    1    1    2    0  501  0.11841868136E+02 -0.18353866061E+02  0.34912521874E+03  0.34980782238E+03  0.00000000000E+00 0.  1.
</event>
<event>
 4    1  0.6729064E+001  0.2093018E+02  0.7546771E-02  0.1520264E+00
          2   -1    0    0  502    0  0.00000000000E+00  0.00000000000E+00  0.19367381533E+03  0.19367381533E+03  0.00000000000E+00 0. -1.
         -2   -1    0    0    0  501 -0.00000000000E+00 -0.00000000000E+00 -0.26361832274E+01  0.26361832274E+01  0.00000000000E+00 0.  1.
          1    1    1    2  502    0  0.15500412583E+02  0.14064478499E+02  0.13250335330E+03  0.13414622985E+03  0.00000000000E+00 0. -1.
         -1    1    1    2    0  501 -0.15500412583E+02 -0.14064478499E+02  0.58534278799E+02  0.62163768709E+02  0.00000000000E+00 0.  1.
</event>
<event>
 4    1  0.6729064E+001  0.2126615E+02  0.7546771E-02  0.1515499E+00
          2   -1    0    0  502    0  0.00000000000E+00  0.00000000000E+00  0.15155964037E+04  0.15155964037E+04  0.00000000000E+00 0.  1.
         -2   -1    0    0    0  501 -0.00000000000E+00 -0.00000000000E+00 -0.40289728818E+00  0.40289728818E+00  0.00000000000E+00 0. -1.
          1    1    1    2  502    0 -0.17755771695E+02 -0.11703923625E+02  0.37155809154E+03  0.37216617880E+03  0.00000000000E+00 0. -1.
         -1    1    1    2    0  501  0.17755771695E+02  0.11703923625E+02  0.11436354149E+04  0.11438331222E+04  0.00000000000E+00 0.  1.
</event>
<event>
 4    1  0.6729064E+001  0.2112107E+02  0.7546771E-02  0.1517543E+00
          2   -1    0    0  502    0  0.00000000000E+00  0.00000000000E+00  0.97757612014E+02  0.97757612014E+02  0.00000000000E+00 0. -1.
         -2   -1    0    0    0  501 -0.00000000000E+00 -0.00000000000E+00 -0.60279950821E+01  0.60279950821E+01  0.00000000000E+00 0.  1.
          1    1    1    2  502    0 -0.84265637314E+01  0.19367310638E+02  0.71444227813E+02  0.74500854931E+02  0.00000000000E+00 0. -1.
         -1    1    1    2    0  501  0.84265637314E+01 -0.19367310638E+02  0.20285389119E+02  0.29284752165E+02  0.00000000000E+00 0.  1.
</event>
<event>
 4    1  0.6729064E+001  0.2030067E+02  0.7546771E-02  0.1529488E+00
          2   -1    0    0  502    0  0.00000000000E+00  0.00000000000E+00  0.64951982574E+02  0.64951982574E+02  0.00000000000E+00 0. -1.
         -2   -1    0    0    0  501 -0.00000000000E+00 -0.00000000000E+00 -0.72665358394E+01  0.72665358394E+01  0.00000000000E+00 0.  1.
          1    1    1    2  502    0 -0.17777731301E+02  0.98015105415E+01  0.41702156723E+02  0.46380892773E+02  0.00000000000E+00 0.  1.
         -1    1    1    2    0  501  0.17777731301E+02 -0.98015105415E+01  0.15983290012E+02  0.25837625640E+02  0.00000000000E+00 0. -1.
</event>
<event>
 4    1  0.6729064E+001  0.3498159E+02  0.7546771E-02  0.1380693E+00
          2   -1    0    0  502    0  0.00000000000E+00  0.00000000000E+00  0.57898460562E+03  0.57898460562E+03  0.00000000000E+00 0.  1.
         -2   -1    0    0    0  501 -0.00000000000E+00 -0.00000000000E+00 -0.21338747792E+01  0.21338747792E+01  0.00000000000E+00 0. -1.
          1    1    1    2  502    0  0.25974057831E+02  0.23432024727E+02  0.31678429945E+03  0.31870990546E+03  0.00000000000E+00 0. -1.
         -1    1    1    2    0  501 -0.25974057831E+02 -0.23432024727E+02  0.26006643140E+03  0.26240857494E+03  0.00000000000E+00 0.  1.
</event>
<event>
 4    1  0.6729064E+001  0.4178046E+02  0.7546771E-02  0.1338357E+00
          2   -1    0    0  502    0  0.00000000000E+00  0.00000000000E+00  0.54528235816E+03  0.54528235816E+03  0.00000000000E+00 0.  1.
         -2   -1    0    0    0  501 -0.00000000000E+00 -0.00000000000E+00 -0.33398795271E+01  0.33398795271E+01  0.00000000000E+00 0. -1.
          1    1    1    2  502    0 -0.41036579934E+02 -0.78489665291E+01  0.21509301204E+03  0.21911323784E+03  0.00000000000E+00 0. -1.
         -1    1    1    2    0  501  0.41036579934E+02  0.78489665291E+01  0.32684946659E+03  0.32950899984E+03  0.00000000000E+00 0.  1.
</event>
<event>
 4    1  0.6729064E+001  0.2718209E+02  0.7546771E-02  0.1445787E+00
          2   -1    0    0  502    0  0.00000000000E+00  0.00000000000E+00  0.14831354317E+04  0.14831354317E+04  0.00000000000E+00 0.  1.
         -2   -1    0    0    0  501 -0.00000000000E+00 -0.00000000000E+00 -0.62457495046E+00  0.62457495046E+00  0.00000000000E+00 0. -1.
          1    1    1    2  502    0  0.12443980273E+02  0.24166372537E+02  0.10749958403E+04  0.10753394455E+04  0.00000000000E+00 0.  1.
         -1    1    1    2    0  501 -0.12443980273E+02 -0.24166372537E+02  0.40751501640E+03  0.40842056119E+03  0.00000000000E+00 0. -1.
</event>
<event>
 4    1  0.6729064E+001  0.2334295E+02  0.7546771E-02  0.1488236E+00
          2   -1    0    0  502    0  0.00000000000E+00  0.00000000000E+00  0.12268142974E+03  0.12268142974E+03  0.00000000000E+00 0. -1.
         -2   -1    0    0    0  501 -0.00000000000E+00 -0.00000000000E+00 -0.44599060123E+01  0.44599060123E+01  0.00000000000E+00 0.  1.
          1    1    1    2  502    0  0.50166872702E+01 -0.22797501557E+02  0.55030183732E+02  0.59776369495E+02  0.00000000000E+00 0.  1.
         -1    1    1    2    0  501 -0.50166872702E+01  0.22797501557E+02  0.63191339991E+02  0.67364966253E+02  0.00000000000E+00 0. -1.
</event>
<event>
 4    1  0.6729064E+001  0.6872033E+02  0.7546771E-02  0.1232773E+00
          2   -1    0    0  502    0  0.00000000000E+00  0.00000000000E+00  0.16001179007E+04  0.16001179007E+04  0.00000000000E+00 0. -1.
         -2   -1    0    0    0  501 -0.00000000000E+00 -0.00000000000E+00 -0.52145589376E+01  0.52145589376E+01  0.00000000000E+00 0.  1.
          1    1    1    2  502    0 -0.64929231521E+02  0.22509535554E+02  0.26865349871E+03  0.27730341986E+03  0.00000000000E+00 0.  1.
         -1    1    1    2    0  501  0.64929231521E+02 -0.22509535554E+02  0.13262498431E+04  0.13280290398E+04  0.00000000000E+00 0. -1.
</event>
<event>
 4    1  0.6729064E+001  0.3374116E+02  0.7546771E-02  0.1389636E+00
          2   -1    0    0  502    0  0.00000000000E+00  0.00000000000E+00  0.31820028294E+01  0.31820028294E+01  0.00000000000E+00 0.  1.
         -2   -1    0    0    0  501 -0.00000000000E+00 -0.00000000000E+00 -0.84999057425E+03  0.84999057425E+03  0.00000000000E+00 0. -1.
          1    1    1    2  502    0  0.44074815943E+01 -0.33452050182E+02 -0.98785150091E+02  0.10438855988E+03  0.00000000000E+00 0.  1.
         -1    1    1    2    0  501 -0.44074815943E+01  0.33452050182E+02 -0.74802342133E+03  0.74878401720E+03  0.00000000000E+00 0. -1.
</event>
<event>
 4    1  0.6729064E+001  0.2510045E+02  0.7546771E-02  0.1467683E+00
          2   -1    0    0  502    0  0.00000000000E+00  0.00000000000E+00  0.60808639390E+03  0.60808639390E+03  0.00000000000E+00 0. -1.
         -2   -1    0    0    0  501 -0.00000000000E+00 -0.00000000000E+00 -0.12184486453E+01  0.12184486453E+01  0.00000000000E+00 0.  1.
          1    1    1    2  502    0  0.20414714908E+02 -0.14603828963E+02  0.42129327296E+03  0.42204034670E+03  0.00000000000E+00 0. -1.
         -1    1    1    2    0  501 -0.20414714908E+02  0.14603828963E+02  0.18557467229E+03  0.18726449584E+03  0.00000000000E+00 0.  1.
</event>
<event>
 4    1  0.6729064E+001  0.2038959E+02  0.7546771E-02  0.1528161E+00
          2   -1    0    0  502    0  0.00000000000E+00  0.00000000000E+00  0.84149720407E+02  0.84149720407E+02  0.00000000000E+00 0. -1.
         -2   -1    0    0    0  501 -0.00000000000E+00 -0.00000000000E+00 -0.62211805608E+01  0.62211805608E+01  0.00000000000E+00 0.  1.
          1    1    1    2  502    0  0.20313767539E+02 -0.17567877009E+01  0.18462318847E+02  0.27506229692E+02  0.00000000000E+00 0.  1.
         -1    1    1    2    0  501 -0.20313767539E+02  0.17567877009E+01  0.59466220999E+02  0.62864671276E+02  0.00000000000E+00 0. -1.
</event>
<event>
 4    1  0.6729064E+001  0.2782910E+02  0.7546771E-02  0.1439453E+00
          2   -1    0    0  502    0  0.00000000000E+00  0.00000000000E+00  0.14072572175E+01  0.14072572175E+01  0.00000000000E+00 0. -1.
         -2   -1    0    0    0  501 -0.00000000000E+00 -0.00000000000E+00 -0.58170812622E+03  0.58170812622E+03  0.00000000000E+00 0.  1.
          1    1    1    2  502    0 -0.92465861909E+01 -0.26248036734E+02 -0.22243758959E+03  0.22417167540E+03  0.00000000000E+00 0. -1.
         -1    1    1    2    0  501  0.92465861909E+01  0.26248036734E+02 -0.35786327941E+03  0.35894370804E+03  0.00000000000E+00 0.  1.
</event>
<event>
 4    1  0.6729064E+001  0.2820109E+02  0.7546771E-02  0.1435902E+00
          2   -1    0    0  502    0  0.00000000000E+00  0.00000000000E+00  0.25310938619E+04  0.25310938619E+04  0.00000000000E+00 0.  1.
         -2   -1    0    0    0  501 -0.00000000000E+00 -0.00000000000E+00 -0.31919076463E+00  0.31919076463E+00  0.00000000000E+00 0. -1.
          1    1    1    2  502    0  0.14821767257E+02  0.23992017816E+02  0.11073206252E+04  0.11076796779E+04  0.00000000000E+00 0. -1.
         -1    1    1    2    0  501 -0.14821767257E+02 -0.23992017816E+02  0.14234540459E+04  0.14237333748E+04  0.00000000000E+00 0.  1.
</event>
<event>
 4    1  0.6729064E+001  0.2119922E+02  0.7546771E-02  0.1516439E+00
          2   -1    0    0  502    0  0.00000000000E+00  0.00000000000E+00  0.14087667512E+02  0.14087667512E+02  0.00000000000E+00 0.  1.
         -2   -1    0    0    0  501 -0.00000000000E+00 -0.00000000000E+00 -0.34324618908E+02  0.34324618908E+02  0.00000000000E+00 0. -1.
          1    1    1    2  502    0 -0.20072213037E+02 -0.68200639162E+01 -0.16550953003E+02  0.26895000527E+02  0.00000000000E+00 0. -1.
         -1    1    1    2    0  501  0.20072213037E+02  0.68200639162E+01 -0.36859983927E+01  0.21517285893E+02  0.00000000000E+00 0.  1.
</event>
<event>
 4    1  0.6729064E+001  0.2891695E+02  0.7546771E-02  0.1429247E+00
          2   -1    0    0  502    0  0.00000000000E+00  0.00000000000E+00  0.26636484428E+01  0.26636484428E+01  0.00000000000E+00 0. -1.
         -2   -1    0    0    0  501 -0.00000000000E+00 -0.00000000000E+00 -0.43674013496E+03  0.43674013496E+03  0.00000000000E+00 0.  1.
          1    1    1    2  502    0  0.28857566966E+02 -0.18521731909E+01 -0.33354352494E+03  0.33479467252E+03  0.00000000000E+00 0.  1.
         -1    1    1    2    0  501 -0.28857566966E+02  0.18521731909E+01 -0.10053296157E+03  0.10460911088E+03  0.00000000000E+00 0. -1.
</event>
<event>
 4    1  0.6729064E+001  0.2492552E+02  0.7546771E-02  0.1469638E+00
          2   -1    0    0  502    0  0.00000000000E+00  0.00000000000E+00  0.75892319001E+03  0.75892319001E+03  0.00000000000E+00 0. -1.
         -2   -1    0    0    0  501 -0.00000000000E+00 -0.00000000000E+00 -0.11308477916E+01  0.11308477916E+01  0.00000000000E+00 0.  1.
          1    1    1    2  502    0 -0.80522687122E+01 -0.23589030581E+02  0.57857750095E+03  0.57911415627E+03  0.00000000000E+00 0. -1.
         -1    1    1    2    0  501  0.80522687122E+01  0.23589030581E+02  0.17921484127E+03  0.18093988153E+03  0.00000000000E+00 0.  1.
</event>
<event>
 4    1  0.6729064E+001  0.2301533E+02  0.7546771E-02  0.1492306E+00
          2   -1    0    0  502    0  0.00000000000E+00  0.00000000000E+00  0.88397576055E+00  0.88397576055E+00  0.00000000000E+00 0. -1.
         -2   -1    0    0    0  501 -0.00000000000E+00 -0.00000000000E+00 -0.70089871202E+03  0.70089871202E+03  0.00000000000E+00 0.  1.
          1    1    1    2  502    0 -0.22527938119E+02 -0.47114161795E+01 -0.21636716399E+03  0.21758781007E+03  0.00000000000E+00 0.  1.
         -1    1    1    2    0  501  0.22527938119E+02  0.47114161795E+01 -0.48364757227E+03  0.48419487771E+03  0.00000000000E+00 0. -1.
</event>
<event>
 4    1  0.6729064E+001  0.2640120E+02  0.7546771E-02  0.1453718E+00
          2   -1    0    0  502    0  0.00000000000E+00  0.00000000000E+00  0.26283104505E+04  0.26283104505E+04  0.00000000000E+00 0. -1.
         -2   -1    0    0    0  501 -0.00000000000E+00 -0.00000000000E+00 -0.30720185610E+00  0.30720185610E+00  0.00000000000E+00 0.  1.
          1    1    1    2  502    0  0.31445024444E+01  0.26213266886E+02  0.17999934267E+04  0.18001870346E+04  0.00000000000E+00 0.  1.
         -1    1    1    2    0  501 -0.31445024444E+01 -0.26213266886E+02  0.82800982196E+03  0.82843061781E+03  0.00000000000E+00 0. -1.
</event>
<event>
 4    1  0.6729064E+001  0.2010293E+02  0.7546771E-02  0.1532468E+00
          2   -1    0    0  502    0  0.00000000000E+00  0.00000000000E+00  0.22909430304E+01  0.22909430304E+01  0.00000000000E+00 0.  1.
         -2   -1    0    0    0  501 -0.00000000000E+00 -0.00000000000E+00 -0.25426184851E+03  0.25426184851E+03  0.00000000000E+00 0. -1.
          1    1    1    2  502    0 -0.46141021216E+01 -0.19566238757E+02 -0.19696971414E+03  0.19799291888E+03  0.00000000000E+00 0. -1.
         -1    1    1    2    0  501  0.46141021216E+01  0.19566238757E+02 -0.55001191342E+02  0.58559872665E+02  0.00000000000E+00 0.  1.
</event>
<event>
 4    1  0.6729064E+001  0.2341914E+02  0.7546771E-02  0.1487301E+00
          2   -1    0    0  502    0  0.00000000000E+00  0.00000000000E+00  0.37354446735E+02  0.37354446735E+02  0.00000000000E+00 0.  1.
         -2   -1    0    0    0  501 -0.00000000000E+00 -0.00000000000E+00 -0.25642407541E+02  0.25642407541E+02  0.00000000000E+00 0. -1.
          1    1    1    2  502    0 -0.23306553834E+02  0.22935726908E+01  0.26448720179E+02  0.35326912212E+02  0.00000000000E+00 0.  1.
         -1    1    1    2    0  501  0.23306553834E+02 -0.22935726908E+01 -0.14736680985E+02  0.27669942063E+02  0.00000000000E+00 0. -1.
</event>
<event>
 4    1  0.6729064E+001  0.2580056E+02  0.7546771E-02  0.1460043E+00
          2   -1    0    0  502    0  0.00000000000E+00  0.00000000000E+00  0.14314351784E+04  0.14314351784E+04  0.00000000000E+00 0.  1.
         -2   -1    0    0    0  501 -0.00000000000E+00 -0.00000000000E+00 -0.48055180543E+00  0.48055180543E+00  0.00000000000E+00 0. -1.
          1    1    1    2  502    0  0.16846455432E+02 -0.19541387955E+02  0.58682891562E+03  0.58739581639E+03  0.00000000000E+00 0.  1.
         -1    1    1    2    0  501 -0.16846455432E+02  0.19541387955E+02  0.84412571097E+03  0.84451991381E+03  0.00000000000E+00 0. -1.
</event>
<event>
 4    1  0.6729064E+001  0.3452237E+02  0.7546771E-02  0.1383953E+00
          2   -1    0    0  502    0  0.00000000000E+00  0.00000000000E+00  0.60007221566E+03  0.60007221566E+03  0.00000000000E+00 0. -1.
         -2   -1    0    0    0  501 -0.00000000000E+00 -0.00000000000E+00 -0.26189694739E+01  0.26189694739E+01  0.00000000000E+00 0.  1.
          1    1    1    2  502    0  0.33863456420E+02 -0.67126785310E+01  0.44686317874E+03  0.44819470573E+03  0.00000000000E+00 0. -1.
         -1    1    1    2    0  501 -0.33863456420E+02  0.67126785310E+01  0.15059006745E+03  0.15449647941E+03  0.00000000000E+00 0.  1.
</event>
<event>
 4    1  0.6729064E+001  0.2243306E+02  0.7546771E-02  0.1499743E+00
          2   -1    0    0  502    0  0.00000000000E+00  0.00000000000E+00  0.23760436152E+02  0.23760436152E+02  0.00000000000E+00 0. -1.
         -2   -1    0    0    0  501 -0.00000000000E+00 -0.00000000000E+00 -0.21417309763E+02  0.21417309763E+02  0.00000000000E+00 0.  1.
          1    1    1    2  502    0 -0.67140025853E+01 -0.21404774489E+02 -0.12070158383E+01  0.22465508872E+02  0.00000000000E+00 0.  1.
         -1    1    1    2    0  501  0.67140025853E+01  0.21404774489E+02  0.35501422271E+01  0.22712237043E+02  0.00000000000E+00 0. -1.
</event>
<event>
 4    1  0.6729064E+001  0.2157646E+02  0.7546771E-02  0.1511191E+00
          2   -1    0    0  502    0  0.00000000000E+00  0.00000000000E+00  0.24084973151E+03  0.24084973151E+03  0.00000000000E+00 0. -1.
         -2   -1    0    0    0  501 -0.00000000000E+00 -0.00000000000E+00 -0.19678351370E+01  0.19678351370E+01  0.00000000000E+00 0.  1.
          1    1    1    2  502    0  0.18508902310E+02  0.11088924404E+02  0.13561247802E+03  0.13731819946E+03  0.00000000000E+00 0.  1.
         -1    1    1    2    0  501 -0.18508902310E+02 -0.11088924404E+02  0.10326941835E+03  0.10549936718E+03  0.00000000000E+00 0. -1.
</event>
<event>
 4    1  0.6729064E+001  0.2016602E+02  0.7546771E-02  0.1531513E+00
          2   -1    0    0  502    0  0.00000000000E+00  0.00000000000E+00  0.24347076451E+01  0.24347076451E+01  0.00000000000E+00 0. -1.
         -2   -1    0    0    0  501 -0.00000000000E+00 -0.00000000000E+00 -0.21916159092E+03  0.21916159092E+03  0.00000000000E+00 0.  1.
          1    1    1    2  502    0 -0.14530739040E+02  0.13983057062E+02 -0.16240183261E+03  0.16364908645E+03  0.00000000000E+00 0.  1.
         -1    1    1    2    0  501  0.14530739040E+02 -0.13983057062E+02 -0.54325050670E+02  0.57947212118E+02  0.00000000000E+00 0. -1.
</event>
<event>
 4    1  0.6729064E+001  0.2056183E+02  0.7546771E-02  0.1525614E+00
          2   -1    0    0  502    0  0.00000000000E+00  0.00000000000E+00  0.39059426354E+03  0.39059426354E+03  0.00000000000E+00 0. -1.
         -2   -1    0    0    0  501 -0.00000000000E+00 -0.00000000000E+00 -0.11560994257E+01  0.11560994257E+01  0.00000000000E+00 0.  1.
          1    1    1    2  502    0 -0.15885696774E+02 -0.13055021829E+02  0.24416614395E+03  0.24503039568E+03  0.00000000000E+00 0. -1.
         -1    1    1    2    0  501  0.15885696774E+02  0.13055021829E+02  0.14527202016E+03  0.14671996728E+03  0.00000000000E+00 0.  1.
</event>
<event>
 4    1  0.6729064E+001  0.2308262E+02  0.7546771E-02  0.1491463E+00
          2   -1    0    0  502    0  0.00000000000E+00  0.00000000000E+00  0.53880232333E+03  0.53880232333E+03  0.00000000000E+00 0. -1.
         -2   -1    0    0    0  501 -0.00000000000E+00 -0.00000000000E+00 -0.10104250460E+01  0.10104250460E+01  0.00000000000E+00 0.  1.
          1    1    1    2  502    0 -0.21935478138E+02  0.71862612944E+01  0.22947779194E+03  0.23063578332E+03  0.00000000000E+00 0.  1.
         -1    1    1    2    0  501  0.21935478138E+02 -0.71862612944E+01  0.30831410635E+03  0.30917696506E+03  0.00000000000E+00 0. -1.
</event>
<event>
 4    1  0.6729064E+001  0.2109877E+02  0.7546771E-02  0.1517859E+00
          2   -1    0    0  502    0  0.00000000000E+00  0.00000000000E+00  0.11305052002E+03  0.11305052002E+03  0.00000000000E+00 0.  1.
         -2   -1    0    0    0  501 -0.00000000000E+00 -0.00000000000E+00 -0.57307926728E+01  0.57307926728E+01  0.00000000000E+00 0. -1.
          1    1    1    2  502    0 -0.46953604499E+01  0.20569675860E+02  0.86880907769E+02  0.89406096601E+02  0.00000000000E+00 0.  1.
         -1    1    1    2    0  501  0.46953604499E+01 -0.20569675860E+02  0.20438819582E+02  0.29375216095E+02  0.00000000000E+00 0. -1.
</event>
<event>
 4    1  0.6729064E+001  0.2651738E+02  0.7546771E-02  0.1452517E+00
          2   -1    0    0  502    0  0.00000000000E+00  0.00000000000E+00  0.11101590015E+04  0.11101590015E+04  0.00000000000E+00 0. -1.
         -2   -1    0    0    0  501 -0.00000000000E+00 -0.00000000000E+00 -0.12037207440E+01  0.12037207440E+01  0.00000000000E+00 0.  1.
          1    1    1    2  502    0 -0.15003260416E+02 -0.21864888955E+02  0.17198441409E+03  0.17401669426E+03  0.00000000000E+00 0.  1.
         -1    1    1    2    0  501  0.15003260416E+02  0.21864888955E+02  0.93697086665E+03  0.93734602796E+03  0.00000000000E+00 0. -1.
</event>
<event>
 4    1  0.6729064E+001  0.2542744E+02  0.7546771E-02  0.1464078E+00
          2   -1    0    0  502    0  0.00000000000E+00  0.00000000000E+00  0.90264344857E+03  0.90264344857E+03  0.00000000000E+00 0.  1.
         -2   -1    0    0    0  501 -0.00000000000E+00 -0.00000000000E+00 -0.17514744655E+01  0.17514744655E+01  0.00000000000E+00 0. -1.
          1    1    1    2  502    0  0.17751822595E+02  0.18205144360E+02  0.79809026499E+03  0.79849522575E+03  0.00000000000E+00 0.  1.
         -1    1    1    2    0  501 -0.17751822595E+02 -0.18205144360E+02  0.10280170912E+03  0.10589969728E+03  0.00000000000E+00 0. -1.
</event>
<event>
 4    1  0.6729064E+001  0.2416308E+02  0.7546771E-02  0.1478388E+00
          2   -1    0    0  502    0  0.00000000000E+00  0.00000000000E+00  0.28510144650E+03  0.28510144650E+03  0.00000000000E+00 0. -1.
         -2   -1    0    0    0  501 -0.00000000000E+00 -0.00000000000E+00 -0.20528563384E+01  0.20528563384E+01  0.00000000000E+00 0.  1.
          1    1    1    2  502    0  0.25678449421E+01 -0.24026247187E+02  0.13445731715E+03  0.13661121666E+03  0.00000000000E+00 0.  1.
         -1    1    1    2    0  501 -0.25678449421E+01  0.24026247187E+02  0.14859127301E+03  0.15054308618E+03  0.00000000000E+00 0. -1.
</event>
<event>
 4    1  0.6729064E+001  0.2132592E+02  0.7546771E-02  0.1514662E+00
          2   -1    0    0  502    0  0.00000000000E+00  0.00000000000E+00  0.20783401377E+02  0.20783401377E+02  0.00000000000E+00 0. -1.
         -2   -1    0    0    0  501 -0.00000000000E+00 -0.00000000000E+00 -0.23147951075E+02  0.23147951075E+02  0.00000000000E+00 0.  1.
          1    1    1    2  502    0  0.10170116582E+02 -0.18744694458E+02  0.39533579357E+01  0.21689257262E+02  0.00000000000E+00 0.  1.
         -1    1    1    2    0  501 -0.10170116582E+02  0.18744694458E+02 -0.63179076338E+01  0.22242095190E+02  0.00000000000E+00 0. -1.
</event>
<event>
 4    1  0.6729064E+001  0.2454950E+02  0.7546771E-02  0.1473907E+00
          2   -1    0    0  502    0  0.00000000000E+00  0.00000000000E+00  0.53359997551E+03  0.53359997551E+03  0.00000000000E+00 0.  1.
         -2   -1    0    0    0  501 -0.00000000000E+00 -0.00000000000E+00 -0.12189388909E+01  0.12189388909E+01  0.00000000000E+00 0. -1.
          1    1    1    2  502    0  0.24437101068E+02  0.23465233137E+01  0.33864312949E+03  0.33953180592E+03  0.00000000000E+00 0.  1.
         -1    1    1    2    0  501 -0.24437101068E+02 -0.23465233137E+01  0.19373790713E+03  0.19528710848E+03  0.00000000000E+00 0. -1.
</event>
<event>
 4    1  0.6729064E+001  0.3310967E+02  0.7546771E-02  0.1394363E+00
          2   -1    0    0  502    0  0.00000000000E+00  0.00000000000E+00  0.41990630197E+01  0.41990630197E+01  0.00000000000E+00 0. -1.
         -2   -1    0    0    0  501 -0.00000000000E+00 -0.00000000000E+00 -0.30477640692E+03  0.30477640692E+03  0.00000000000E+00 0.  1.
          1    1    1    2  502    0  0.70854035834E+01  0.32342652909E+02 -0.20879124780E+03  0.21140017809E+03  0.00000000000E+00 0.  1.
         -1    1    1    2    0  501 -0.70854035834E+01 -0.32342652909E+02 -0.91786096107E+02  0.97575291850E+02  0.00000000000E+00 0. -1.
</event>
<event>
 4    1  0.6729064E+001  0.2208382E+02  0.7546771E-02  0.1504335E+00
          2   -1    0    0  502    0  0.00000000000E+00  0.00000000000E+00  0.70953941320E+03  0.70953941320E+03  0.00000000000E+00 0. -1.
         -2   -1    0    0    0  501 -0.00000000000E+00 -0.00000000000E+00 -0.69497320153E+00  0.69497320153E+00  0.00000000000E+00 0.  1.
          1    1    1    2  502    0 -0.10799178474E+02 -0.19263251118E+02  0.39163823303E+03  0.39226037356E+03  0.00000000000E+00 0. -1.
         -1    1    1    2    0  501  0.10799178474E+02  0.19263251118E+02  0.31720620697E+03  0.31797401284E+03  0.00000000000E+00 0.  1.
</event>
<event>
 4    1  0.6729064E+001  0.2351240E+02  0.7546771E-02  0.1486162E+00
          2   -1    0    0  502    0  0.00000000000E+00  0.00000000000E+00  0.81754690253E+02  0.81754690253E+02  0.00000000000E+00 0. -1.
         -2   -1    0    0    0  501 -0.00000000000E+00 -0.00000000000E+00 -0.10357318678E+02  0.10357318678E+02  0.00000000000E+00 0.  1.
          1    1    1    2  502    0 -0.15428900447E+01  0.23461725905E+02  0.85639582282E+01  0.25023478428E+02  0.00000000000E+00 0.  1.
         -1    1    1    2    0  501  0.15428900447E+01 -0.23461725905E+02  0.62833413347E+02  0.67088530503E+02  0.00000000000E+00 0. -1.
</event>
<event>
 4    1  0.6729064E+001  0.2714918E+02  0.7546771E-02  0.1446115E+00
          2   -1    0    0  502    0  0.00000000000E+00  0.00000000000E+00  0.32073227648E+02  0.32073227648E+02  0.00000000000E+00 0. -1.
         -2   -1    0    0    0  501 -0.00000000000E+00 -0.00000000000E+00 -0.35149778954E+02  0.35149778954E+02  0.00000000000E+00 0.  1.
          1    1    1    2  502    0 -0.12708424562E+02 -0.23991125721E+02  0.18238172265E+02  0.32706407564E+02  0.00000000000E+00 0. -1.
         -1    1    1    2    0  501  0.12708424562E+02  0.23991125721E+02 -0.21314723572E+02  0.34516599038E+02  0.00000000000E+00 0.  1.
</event>
<event>
 4    1  0.6729064E+001  0.2378706E+02  0.7546771E-02  0.1482845E+00
          2   -1    0    0  502    0  0.00000000000E+00  0.00000000000E+00  0.13242221506E+03  0.13242221506E+03  0.00000000000E+00 0.  1.
         -2   -1    0    0    0  501 -0.00000000000E+00 -0.00000000000E+00 -0.44218024393E+01  0.44218024393E+01  0.00000000000E+00 0. -1.
          1    1    1    2  502    0 -0.64278177349E+01 -0.22902123667E+02  0.51443446132E+02  0.56676734726E+02  0.00000000000E+00 0.  1.
         -1    1    1    2    0  501  0.64278177349E+01  0.22902123667E+02  0.76556966493E+02  0.80167282777E+02  0.00000000000E+00 0. -1.
</event>
<event>
 4    1  0.6729064E+001  0.1794053E+03  0.7546771E-02  0.1070784E+00
          2   -1    0    0  502    0  0.00000000000E+00  0.00000000000E+00  0.21713843858E+03  0.21713843858E+03  0.00000000000E+00 0.  1.
         -2   -1    0    0    0  501 -0.00000000000E+00 -0.00000000000E+00 -0.17173433080E+03  0.17173433080E+03  0.00000000000E+00 0. -1.
          1    1    1    2  502    0 -0.12964374456E+03 -0.12401114361E+03  0.94635357464E+02  0.20283519202E+03  0.00000000000E+00 0. -1.
         -1    1    1    2    0  501  0.12964374456E+03  0.12401114361E+03 -0.49231249682E+02  0.18603757735E+03  0.00000000000E+00 0.  1.
</event>
<event>
 4    1  0.6729064E+001  0.6321912E+02  0.7546771E-02  0.1249271E+00
          2   -1    0    0  502    0  0.00000000000E+00  0.00000000000E+00  0.31544421868E+03  0.31544421868E+03  0.00000000000E+00 0.  1.
         -2   -1    0    0    0  501 -0.00000000000E+00 -0.00000000000E+00 -0.39767657022E+02  0.39767657022E+02  0.00000000000E+00 0. -1.
          1    1    1    2  502    0  0.55540581602E+01  0.62974669993E+02  0.28444669607E+03  0.29138733590E+03  0.00000000000E+00 0.  1.
         -1    1    1    2    0  501 -0.55540581602E+01 -0.62974669993E+02 -0.87701344079E+01  0.63824539797E+02  0.00000000000E+00 0. -1.
</event>
<event>
 4    1  0.6729064E+001  0.2829722E+02  0.7546771E-02  0.1434995E+00
          2   -1    0    0  502    0  0.00000000000E+00  0.00000000000E+00  0.17268961867E+03  0.17268961867E+03  0.00000000000E+00 0. -1.
         -2   -1    0    0    0  501 -0.00000000000E+00 -0.00000000000E+00 -0.13521037183E+02  0.13521037183E+02  0.00000000000E+00 0.  1.
          1    1    1    2  502    0 -0.25393426363E+02 -0.12486262017E+02  0.41135161127E+01  0.28594647339E+02  0.00000000000E+00 0.  1.
         -1    1    1    2    0  501  0.25393426363E+02  0.12486262017E+02  0.15505506537E+03  0.15761600851E+03  0.00000000000E+00 0. -1.
</event>
<event>
 4    1  0.6729064E+001  0.2231367E+02  0.7546771E-02  0.1501301E+00
          2   -1    0    0  502    0  0.00000000000E+00  0.00000000000E+00  0.75159193706E+02  0.75159193706E+02  0.00000000000E+00 0. -1.
         -2   -1    0    0    0  501 -0.00000000000E+00 -0.00000000000E+00 -0.68421922185E+01  0.68421922185E+01  0.00000000000E+00 0.  1.
          1    1    1    2  502    0  0.13097937976E+02  0.18064988418E+02  0.41470105447E+02  0.47092137683E+02  0.00000000000E+00 0. -1.
         -1    1    1    2    0  501 -0.13097937976E+02 -0.18064988418E+02  0.26846896041E+02  0.34909248242E+02  0.00000000000E+00 0.  1.
</event>
<event>
 4    1  0.6729064E+001  0.2803284E+02  0.7546771E-02  0.1437500E+00
          2   -1    0    0  502    0  0.00000000000E+00  0.00000000000E+00  0.56857015592E+02  0.56857015592E+02  0.00000000000E+00 0. -1.
         -2   -1    0    0    0  501 -0.00000000000E+00 -0.00000000000E+00 -0.22963292132E+02  0.22963292132E+02  0.00000000000E+00 0.  1.
          1    1    1    2  502    0 -0.58424892557E+01  0.27417244520E+02 -0.82348859240E+01  0.29217346285E+02  0.00000000000E+00 0.  1.
         -1    1    1    2    0  501  0.58424892557E+01 -0.27417244520E+02  0.42128609384E+02  0.50602961439E+02  0.00000000000E+00 0. -1.
</event>
<event>
 4    1  0.6729064E+001  0.3590462E+02  0.7546771E-02  0.1374313E+00
          2   -1    0    0  502    0  0.00000000000E+00  0.00000000000E+00  0.28715477763E+03  0.28715477763E+03  0.00000000000E+00 0. -1.
         -2   -1    0    0    0  501 -0.00000000000E+00 -0.00000000000E+00 -0.67373422132E+01  0.67373422132E+01  0.00000000000E+00 0.  1.
          1    1    1    2  502    0 -0.31238918233E+02 -0.17699490593E+02  0.55327850897E+02  0.65956903084E+02  0.00000000000E+00 0.  1.
         -1    1    1    2    0  501  0.31238918233E+02  0.17699490593E+02  0.22508958452E+03  0.22793521676E+03  0.00000000000E+00 0. -1.
</event>
<event>
 4    1  0.6729064E+001  0.2285916E+02  0.7546771E-02  0.1494274E+00
          2   -1    0    0  502    0  0.00000000000E+00  0.00000000000E+00  0.52446613835E+03  0.52446613835E+03  0.00000000000E+00 0. -1.
         -2   -1    0    0    0  501 -0.00000000000E+00 -0.00000000000E+00 -0.10970789302E+01  0.10970789302E+01  0.00000000000E+00 0.  1.
          1    1    1    2  502    0  0.15584896133E+02  0.16722810631E+02  0.18205097423E+03  0.18348051287E+03  0.00000000000E+00 0.  1.
         -1    1    1    2    0  501 -0.15584896133E+02 -0.16722810631E+02  0.34131808519E+03  0.34208270441E+03  0.00000000000E+00 0. -1.
</event>
<event>
 4    1  0.6729064E+001  0.2915208E+02  0.7546771E-02  0.1427111E+00
          2   -1    0    0  502    0  0.00000000000E+00  0.00000000000E+00  0.36700649577E+03  0.36700649577E+03  0.00000000000E+00 0. -1.
         -2   -1    0    0    0  501 -0.00000000000E+00 -0.00000000000E+00 -0.23919461865E+01  0.23919461865E+01  0.00000000000E+00 0.  1.
          1    1    1    2  502    0  0.18376293035E+02  0.22630861879E+02  0.21530268104E+03  0.21726732041E+03  0.00000000000E+00 0. -1.
         -1    1    1    2    0  501 -0.18376293035E+02 -0.22630861879E+02  0.14931186854E+03  0.15213112155E+03  0.00000000000E+00 0.  1.
</event>
<event>
 4    1  0.6729064E+001  0.3209078E+02  0.7546771E-02  0.1402257E+00
          2   -1    0    0  502    0  0.00000000000E+00  0.00000000000E+00  0.53456592074E+02  0.53456592074E+02  0.00000000000E+00 0.  1.
         -2   -1    0    0    0  501 -0.00000000000E+00 -0.00000000000E+00 -0.19265872788E+02  0.19265872788E+02  0.00000000000E+00 0. -1.
          1    1    1    2  502    0 -0.24574442240E+02 -0.20637711475E+02  0.17394181029E+02  0.36501724343E+02  0.00000000000E+00 0. -1.
         -1    1    1    2    0  501  0.24574442240E+02  0.20637711475E+02  0.16796538256E+02  0.36220740519E+02  0.00000000000E+00 0.  1.
</event>
<event>
 4    1  0.6729064E+001  0.2393073E+02  0.7546771E-02  0.1481130E+00
          2   -1    0    0  502    0  0.00000000000E+00  0.00000000000E+00  0.55430333849E+00  0.55430333849E+00  0.00000000000E+00 0.  1.
         -2   -1    0    0    0  501 -0.00000000000E+00 -0.00000000000E+00 -0.10740816601E+04  0.10740816601E+04  0.00000000000E+00 0. -1.
          1    1    1    2  502    0 -0.20881908402E+02 -0.11688702473E+02 -0.43187483586E+03  0.43253734372E+03  0.00000000000E+00 0.  1.
         -1    1    1    2    0  501  0.20881908402E+02  0.11688702473E+02 -0.64165252087E+03  0.64209861969E+03  0.00000000000E+00 0. -1.
</event>
<event>
 4    1  0.6729064E+001  0.2253013E+02  0.7546771E-02  0.1498484E+00
          2   -1    0    0  502    0  0.00000000000E+00  0.00000000000E+00  0.18290353602E+01  0.18290353602E+01  0.00000000000E+00 0. -1.
         -2   -1    0    0    0  501 -0.00000000000E+00 -0.00000000000E+00 -0.28278960940E+03  0.28278960940E+03  0.00000000000E+00 0.  1.
          1    1    1    2  502    0  0.12494468764E+02  0.18748201731E+02 -0.15989359105E+03  0.16147311626E+03  0.00000000000E+00 0.  1.
         -1    1    1    2    0  501 -0.12494468764E+02 -0.18748201731E+02 -0.12106698299E+03  0.12314552850E+03  0.00000000000E+00 0. -1.
</event>
<event>
 4    1  0.6729064E+001  0.3874073E+02  0.7546771E-02  0.1356027E+00
          2   -1    0    0  502    0  0.00000000000E+00  0.00000000000E+00  0.18728042772E+03  0.18728042772E+03  0.00000000000E+00 0.  1.
         -2   -1    0    0    0  501 -0.00000000000E+00 -0.00000000000E+00 -0.19792556209E+02  0.19792556209E+02  0.00000000000E+00 0. -1.
          1    1    1    2  502    0 -0.38656835936E+02  0.25481140104E+01  0.38726550463E+01  0.38933806733E+02  0.00000000000E+00 0. -1.
         -1    1    1    2    0  501  0.38656835936E+02 -0.25481140104E+01  0.16361521646E+03  0.16813917720E+03  0.00000000000E+00 0.  1.
</event>
<event>
 4    1  0.6729064E+001  0.2537817E+02  0.7546771E-02  0.1464617E+00
          2   -1    0    0  502    0  0.00000000000E+00  0.00000000000E+00  0.26659281371E+03  0.26659281371E+03  0.00000000000E+00 0. -1.
         -2   -1    0    0    0  501 -0.00000000000E+00 -0.00000000000E+00 -0.28203535631E+01  0.28203535631E+01  0.00000000000E+00 0.  1.
          1    1    1    2  502    0  0.10705444351E+02 -0.23009666211E+02  0.80871907876E+02  0.84760348993E+02  0.00000000000E+00 0.  1.
         -1    1    1    2    0  501 -0.10705444351E+02  0.23009666211E+02  0.18290055227E+03  0.18465281828E+03  0.00000000000E+00 0. -1.
</event>
<event>
 4    1  0.6729064E+001  0.2012032E+02  0.7546771E-02  0.1532204E+00
          2   -1    0    0  502    0  0.00000000000E+00  0.00000000000E+00  0.11327284269E+03  0.11327284269E+03  0.00000000000E+00 0.  1.
         -2   -1    0    0    0  501 -0.00000000000E+00 -0.00000000000E+00 -0.49104199110E+01  0.49104199110E+01  0.00000000000E+00 0. -1.
          1    1    1    2  502    0 -0.20119321152E+02 -0.20043700965E+00  0.85009705113E+02  0.87358326575E+02  0.00000000000E+00 0.  1.
         -1    1    1    2    0  501  0.20119321152E+02  0.20043700965E+00  0.23352717665E+02  0.30824936025E+02  0.00000000000E+00 0. -1.
</event>
<event>
 4    1  0.6729064E+001  0.3126972E+02  0.7546771E-02  0.1408874E+00
          2   -1    0    0  502    0  0.00000000000E+00  0.00000000000E+00  0.13572300616E+03  0.13572300616E+03  0.00000000000E+00 0. -1.
         -2   -1    0    0    0  501 -0.00000000000E+00 -0.00000000000E+00 -0.79932725644E+01  0.79932725644E+01  0.00000000000E+00 0.  1.
          1    1    1    2  502    0 -0.30624488655E+02 -0.63195144117E+01  0.41289656639E+02  0.51794124310E+02  0.00000000000E+00 0.  1.
         -1    1    1    2    0  501  0.30624488655E+02  0.63195144117E+01  0.86440076957E+02  0.91922154414E+02  0.00000000000E+00 0. -1.
</event>
<event>
 4    1  0.6729064E+001  0.3640884E+02  0.7546771E-02  0.1370920E+00
          2   -1    0    0  502    0  0.00000000000E+00  0.00000000000E+00  0.55300856929E+03  0.55300856929E+03  0.00000000000E+00 0.  1.
         -2   -1    0    0    0  501 -0.00000000000E+00 -0.00000000000E+00 -0.31746541031E+01  0.31746541031E+01  0.00000000000E+00 0. -1.
          1    1    1    2  502    0  0.35108662077E+02  0.96428955768E+01  0.41254650575E+03  0.41415000060E+03  0.00000000000E+00 0.  1.
         -1    1    1    2    0  501 -0.35108662077E+02 -0.96428955768E+01  0.13728740944E+03  0.14203322280E+03  0.00000000000E+00 0. -1.
</event>
<event>
 4    1  0.6729064E+001  0.2410701E+02  0.7546771E-02  0.1479046E+00
          2   -1    0    0  502    0  0.00000000000E+00  0.00000000000E+00  0.46186039613E+03  0.46186039613E+03  0.00000000000E+00 0.  1.
         -2   -1    0    0    0  501 -0.00000000000E+00 -0.00000000000E+00 -0.15664128261E+01  0.15664128261E+01  0.00000000000E+00 0. -1.
          1    1    1    2  502    0 -0.22900714725E+02 -0.75302707856E+01  0.12737611596E+03  0.12963727330E+03  0.00000000000E+00 0. -1.
         -1    1    1    2    0  501  0.22900714725E+02  0.75302707856E+01  0.33291786735E+03  0.33378953566E+03  0.00000000000E+00 0.  1.
</event>
<event>
 4    1  0.6729064E+001  0.2818600E+02  0.7546771E-02  0.1436045E+00
          2   -1    0    0  502    0  0.00000000000E+00  0.00000000000E+00  0.56912997592E+03  0.56912997592E+03  0.00000000000E+00 0.  1.
         -2   -1    0    0    0  501 -0.00000000000E+00 -0.00000000000E+00 -0.14627427068E+01  0.14627427068E+01  0.00000000000E+00 0. -1.
          1    1    1    2  502    0 -0.19379895085E+02 -0.20466313966E+02  0.22284778422E+03  0.22462320734E+03  0.00000000000E+00 0. -1.
         -1    1    1    2    0  501  0.19379895085E+02  0.20466313966E+02  0.34481944898E+03  0.34596951129E+03  0.00000000000E+00 0.  1.
</event>
<event>
 4    1  0.6729064E+001  0.3340526E+02  0.7546771E-02  0.1392135E+00
          2   -1    0    0  502    0  0.00000000000E+00  0.00000000000E+00  0.18448735118E+04  0.18448735118E+04  0.00000000000E+00 0.  1.
         -2   -1    0    0    0  501 -0.00000000000E+00 -0.00000000000E+00 -0.18211187997E+01  0.18211187997E+01  0.00000000000E+00 0. -1.
          1    1    1    2  502    0 -0.25733647369E+02  0.21300012865E+02  0.16694336288E+03  0.17025274613E+03  0.00000000000E+00 0. -1.
         -1    1    1    2    0  501  0.25733647369E+02 -0.21300012865E+02  0.16761090301E+04  0.16764418845E+04  0.00000000000E+00 0.  1.
</event>
<event>
 4    1  0.6729064E+001  0.2385094E+02  0.7546771E-02  0.1482081E+00
          2   -1    0    0  502    0  0.00000000000E+00  0.00000000000E+00  0.58139345873E+02  0.58139345873E+02  0.00000000000E+00 0.  1.
         -2   -1    0    0    0  501 -0.00000000000E+00 -0.00000000000E+00 -0.13584239857E+02  0.13584239857E+02  0.00000000000E+00 0. -1.
          1    1    1    2  502    0 -0.23801258472E+02  0.15386116191E+01  0.41244110254E+02  0.47643927852E+02  0.00000000000E+00 0.  1.
         -1    1    1    2    0  501  0.23801258472E+02 -0.15386116191E+01  0.33109957620E+01  0.24079657877E+02  0.00000000000E+00 0. -1.
</event>
<event>
 4    1  0.6729064E+001  0.2004632E+02  0.7546771E-02  0.1533329E+00
          2   -1    0    0  502    0  0.00000000000E+00  0.00000000000E+00  0.16707050659E+04  0.16707050659E+04  0.00000000000E+00 0.  1.
         -2   -1    0    0    0  501 -0.00000000000E+00 -0.00000000000E+00 -0.29723659849E+00  0.29723659849E+00  0.00000000000E+00 0. -1.
          1    1    1    2  502    0 -0.10230878438E+02  0.17239031896E+02  0.47027205352E+03  0.47069911771E+03  0.00000000000E+00 0. -1.
         -1    1    1    2    0  501  0.10230878438E+02 -0.17239031896E+02  0.12001357758E+04  0.12003031848E+04  0.00000000000E+00 0.  1.
</event>
<event>
 4    1  0.6729064E+001  0.2049483E+02  0.7546771E-02  0.1526601E+00
          2   -1    0    0  502    0  0.00000000000E+00  0.00000000000E+00  0.75864685080E+03  0.75864685080E+03  0.00000000000E+00 0. -1.
         -2   -1    0    0    0  501 -0.00000000000E+00 -0.00000000000E+00 -0.72579541752E+00  0.72579541752E+00  0.00000000000E+00 0.  1.
          1    1    1    2  502    0  0.14581610231E+02 -0.14401897322E+02  0.19405765046E+03  0.19513689991E+03  0.00000000000E+00 0.  1.
         -1    1    1    2    0  501 -0.14581610231E+02  0.14401897322E+02  0.56386340492E+03  0.56423574631E+03  0.00000000000E+00 0. -1.
</event>
<event>
 4    1  0.6729064E+001  0.2863273E+02  0.7546771E-02  0.1431862E+00
          2   -1    0    0  502    0  0.00000000000E+00  0.00000000000E+00  0.65431997205E+03  0.65431997205E+03  0.00000000000E+00 0.  1.
         -2   -1    0    0    0  501 -0.00000000000E+00 -0.00000000000E+00 -0.13205207610E+01  0.13205207610E+01  0.00000000000E+00 0. -1.
          1    1    1    2  502    0  0.28504796002E+02  0.27036299715E+01  0.25234671253E+03  0.25396593538E+03  0.00000000000E+00 0. -1.
         -1    1    1    2    0  501 -0.28504796002E+02 -0.27036299715E+01  0.40065273876E+03  0.40167455743E+03  0.00000000000E+00 0.  1.
</event>
<event>
 4    1  0.6729064E+001  0.2961014E+02  0.7546771E-02  0.1423015E+00
          2   -1    0    0  502    0  0.00000000000E+00  0.00000000000E+00  0.15419778881E+04  0.15419778881E+04  0.00000000000E+00 0.  1.
         -2   -1    0    0    0  501 -0.00000000000E+00 -0.00000000000E+00 -0.65995855172E+00  0.65995855172E+00  0.00000000000E+00 0. -1.
          1    1    1    2  502    0  0.29551951547E+02 -0.18554236970E+01  0.48367152969E+03  0.48457704142E+03  0.00000000000E+00 0. -1.
         -1    1    1    2    0  501 -0.29551951547E+02  0.18554236970E+01  0.10576463998E+04  0.10580608052E+04  0.00000000000E+00 0.  1.
</event>
<event>
 4    1  0.6729064E+001  0.2517591E+02  0.7546771E-02  0.1466845E+00
          2   -1    0    0  502    0  0.00000000000E+00  0.00000000000E+00  0.64000035477E+03  0.64000035477E+03  0.00000000000E+00 0. -1.
         -2   -1    0    0    0  501 -0.00000000000E+00 -0.00000000000E+00 -0.99949175959E+00  0.99949175959E+00  0.00000000000E+00 0.  1.
          1    1    1    2  502    0 -0.78997856021E+01  0.23904384632E+02  0.35014714846E+03  0.35105106722E+03  0.00000000000E+00 0.  1.
         -1    1    1    2    0  501  0.78997856021E+01 -0.23904384632E+02  0.28885371454E+03  0.28994877931E+03  0.00000000000E+00 0. -1.
</event>
<event>
 4    1  0.6729064E+001  0.2032479E+02  0.7546771E-02  0.1529127E+00
          2   -1    0    0  502    0  0.00000000000E+00  0.00000000000E+00  0.20730760193E+02  0.20730760193E+02  0.00000000000E+00 0. -1.
         -2   -1    0    0    0  501 -0.00000000000E+00 -0.00000000000E+00 -0.20714663639E+02  0.20714663639E+02  0.00000000000E+00 0.  1.
          1    1    1    2  502    0  0.18314069029E+02  0.88143120515E+01 -0.40334249062E+01  0.20721142290E+02  0.00000000000E+00 0.  1.
         -1    1    1    2    0  501 -0.18314069029E+02 -0.88143120515E+01  0.40495214607E+01  0.20724281541E+02  0.00000000000E+00 0. -1.
</event>
<event>
 4    1  0.6729064E+001  0.2178009E+02  0.7546771E-02  0.1508412E+00
          2   -1    0    0  502    0  0.00000000000E+00  0.00000000000E+00  0.86379209646E+01  0.86379209646E+01  0.00000000000E+00 0.  1.
         -2   -1    0    0    0  501 -0.00000000000E+00 -0.00000000000E+00 -0.60609854161E+02  0.60609854161E+02  0.00000000000E+00 0. -1.
          1    1    1    2  502    0  0.12460081804E+02  0.17863894740E+02 -0.15375046616E+02  0.26660165646E+02  0.00000000000E+00 0.  1.
         -1    1    1    2    0  501 -0.12460081804E+02 -0.17863894740E+02 -0.36596886581E+02  0.42587609480E+02  0.00000000000E+00 0. -1.
</event>
<event>
 4    1  0.6729064E+001  0.4179590E+02  0.7546771E-02  0.1338271E+00
          2   -1    0    0  502    0  0.00000000000E+00  0.00000000000E+00  0.10356459086E+02  0.10356459086E+02  0.00000000000E+00 0. -1.
         -2   -1    0    0    0  501 -0.00000000000E+00 -0.00000000000E+00 -0.22860825936E+03  0.22860825936E+03  0.00000000000E+00 0.  1.
          1    1    1    2  502    0 -0.23509590825E+02  0.34557147786E+02 -0.17030234380E+03  0.17535616792E+03  0.00000000000E+00 0.  1.
         -1    1    1    2    0  501  0.23509590825E+02 -0.34557147786E+02 -0.47949456470E+02  0.63608550523E+02  0.00000000000E+00 0. -1.
</event>
<event>
 4    1  0.6729064E+001  0.6273761E+02  0.7546771E-02  0.1250804E+00
          2   -1    0    0  502    0  0.00000000000E+00  0.00000000000E+00  0.13836310976E+03  0.13836310976E+03  0.00000000000E+00 0. -1.
         -2   -1    0    0    0  501 -0.00000000000E+00 -0.00000000000E+00 -0.33003226298E+02  0.33003226298E+02  0.00000000000E+00 0.  1.
          1    1    1    2  502    0 -0.11539068564E+01  0.62727002140E+02  0.84516227956E+02  0.10525683392E+03  0.00000000000E+00 0. -1.
         -1    1    1    2    0  501  0.11539068564E+01 -0.62727002140E+02  0.20843655509E+02  0.66109502142E+02  0.00000000000E+00 0.  1.
</event>
<event>
 4    1  0.6729064E+001  0.2269988E+02  0.7546771E-02  0.1496302E+00
          2   -1    0    0  502    0  0.00000000000E+00  0.00000000000E+00  0.15611921498E+04  0.15611921498E+04  0.00000000000E+00 0. -1.
         -2   -1    0    0    0  501 -0.00000000000E+00 -0.00000000000E+00 -0.45113075985E+00  0.45113075985E+00  0.00000000000E+00 0.  1.
          1    1    1    2  502    0  0.22667264215E+02  0.12163810251E+01  0.11848749356E+04  0.11850923582E+04  0.00000000000E+00 0. -1.
         -1    1    1    2    0  501 -0.22667264215E+02 -0.12163810251E+01  0.37586608345E+03  0.37655092237E+03  0.00000000000E+00 0.  1.
</event>
<event>
 4    1  0.6729064E+001  0.2743919E+02  0.7546771E-02  0.1443246E+00
          2   -1    0    0  502    0  0.00000000000E+00  0.00000000000E+00  0.58268964898E+03  0.58268964898E+03  0.00000000000E+00 0. -1.
         -2   -1    0    0    0  501 -0.00000000000E+00 -0.00000000000E+00 -0.13637223032E+01  0.13637223032E+01  0.00000000000E+00 0.  1.
          1    1    1    2  502    0 -0.26302523660E+02  0.78157885247E+01  0.22375151773E+03  0.22542770678E+03  0.00000000000E+00 0.  1.
         -1    1    1    2    0  501  0.26302523660E+02 -0.78157885247E+01  0.35757440895E+03  0.35862566450E+03  0.00000000000E+00 0. -1.
</event>
<event>
 4    1  0.6729064E+001  0.2470585E+02  0.7546771E-02  0.1472121E+00
          2   -1    0    0  502    0  0.00000000000E+00  0.00000000000E+00  0.45535938458E+03  0.45535938458E+03  0.00000000000E+00 0. -1.
         -2   -1    0    0    0  501 -0.00000000000E+00 -0.00000000000E+00 -0.14408105438E+01  0.14408105438E+01  0.00000000000E+00 0.  1.
          1    1    1    2  502    0 -0.19581841086E+02  0.15064209674E+02  0.16667413885E+03  0.16849524466E+03  0.00000000000E+00 0.  1.
         -1    1    1    2    0  501  0.19581841086E+02 -0.15064209674E+02  0.28724443519E+03  0.28830495046E+03  0.00000000000E+00 0. -1.
</event>
<event>
 4    1  0.6729064E+001  0.3370723E+02  0.7546771E-02  0.1389887E+00
          2   -1    0    0  502    0  0.00000000000E+00  0.00000000000E+00  0.49610706506E+03  0.49610706506E+03  0.00000000000E+00 0. -1.
         -2   -1    0    0    0  501 -0.00000000000E+00 -0.00000000000E+00 -0.24323937392E+01  0.24323937392E+01  0.00000000000E+00 0.  1.
          1    1    1    2  502    0 -0.31607005040E+02 -0.11712150852E+02  0.18656543803E+03  0.18958596971E+03  0.00000000000E+00 0. -1.
         -1    1    1    2    0  501  0.31607005040E+02  0.11712150852E+02  0.30710923330E+03  0.30895348909E+03  0.00000000000E+00 0.  1.
</event>
<event>
 4    1  0.6729064E+001  0.2222422E+02  0.7546771E-02  0.1502476E+00
          2   -1    0    0  502    0  0.00000000000E+00  0.00000000000E+00  0.97827470094E+02  0.97827470094E+02  0.00000000000E+00 0. -1.
         -2   -1    0    0    0  501 -0.00000000000E+00 -0.00000000000E+00 -0.52671427322E+01  0.52671427322E+01  0.00000000000E+00 0.  1.
          1    1    1    2  502    0 -0.21324027923E+02 -0.62611308324E+01  0.35786163118E+02  0.42125590760E+02  0.00000000000E+00 0. -1.
         -1    1    1    2    0  501  0.21324027923E+02  0.62611308324E+01  0.56774164244E+02  0.60969022066E+02  0.00000000000E+00 0.  1.
</event>
<event>
 4    1  0.6729064E+001  0.2035273E+02  0.7546771E-02  0.1528710E+00
          2   -1    0    0  502    0  0.00000000000E+00  0.00000000000E+00  0.10522025721E+03  0.10522025721E+03  0.00000000000E+00 0.  1.
         -2   -1    0    0    0  501 -0.00000000000E+00 -0.00000000000E+00 -0.39430474820E+01  0.39430474820E+01  0.00000000000E+00 0. -1.
          1    1    1    2  502    0 -0.41168951757E+01 -0.19932004357E+02  0.48470147863E+02  0.52569847417E+02  0.00000000000E+00 0. -1.
         -1    1    1    2    0  501  0.41168951757E+01  0.19932004357E+02  0.52807061870E+02  0.56593457280E+02  0.00000000000E+00 0.  1.
</event>
<event>
 4    1  0.6729064E+001  0.4626775E+02  0.7546771E-02  0.1315219E+00
          2   -1    0    0  502    0  0.00000000000E+00  0.00000000000E+00  0.15420638727E+04  0.15420638727E+04  0.00000000000E+00 0.  1.
         -2   -1    0    0    0  501 -0.00000000000E+00 -0.00000000000E+00 -0.14176275562E+01  0.14176275562E+01  0.00000000000E+00 0. -1.
          1    1    1    2  502    0  0.32112584065E+02 -0.33308953587E+02  0.65914661837E+03  0.66076846849E+03  0.00000000000E+00 0. -1.
         -1    1    1    2    0  501 -0.32112584065E+02  0.33308953587E+02  0.88149962672E+03  0.88271303171E+03  0.00000000000E+00 0.  1.
</event>
<event>
 4    1  0.6729064E+001  0.2132050E+02  0.7546771E-02  0.1514738E+00
          2   -1    0    0  502    0  0.00000000000E+00  0.00000000000E+00  0.23301820493E+03  0.23301820493E+03  0.00000000000E+00 0.  1.
         -2   -1    0    0    0  501 -0.00000000000E+00 -0.00000000000E+00 -0.20041973127E+01  0.20041973127E+01  0.00000000000E+00 0. -1.
          1    1    1    2  502    0  0.20911381731E+02 -0.41566641243E+01  0.13469419011E+03  0.13637114282E+03  0.00000000000E+00 0. -1.
         -1    1    1    2    0  501 -0.20911381731E+02  0.41566641243E+01  0.96319817502E+02  0.98651259425E+02  0.00000000000E+00 0.  1.
</event>
<event>
 4    1  0.6729064E+001  0.2237999E+02  0.7546771E-02  0.1500434E+00
          2   -1    0    0  502    0  0.00000000000E+00  0.00000000000E+00  0.13138352923E+03  0.13138352923E+03  0.00000000000E+00 0.  1.
         -2   -1    0    0    0  501 -0.00000000000E+00 -0.00000000000E+00 -0.19613410053E+02  0.19613410053E+02  0.00000000000E+00 0. -1.
          1    1    1    2  502    0  0.20758684954E+02 -0.83630691257E+01 -0.11880087817E+02  0.25337727063E+02  0.00000000000E+00 0. -1.
         -1    1    1    2    0  501 -0.20758684954E+02  0.83630691257E+01  0.12365020700E+03  0.12565921222E+03  0.00000000000E+00 0.  1.
</event>
<event>
 4    1  0.6729064E+001  0.2338932E+02  0.7546771E-02  0.1487666E+00
          2   -1    0    0  502    0  0.00000000000E+00  0.00000000000E+00  0.22095058584E+04  0.22095058584E+04  0.00000000000E+00 0.  1.
         -2   -1    0    0    0  501 -0.00000000000E+00 -0.00000000000E+00 -0.25982546342E+00  0.25982546342E+00  0.00000000000E+00 0. -1.
          1    1    1    2  502    0 -0.20675036164E+02 -0.10936322427E+02  0.86489676868E+03  0.86521296843E+03  0.00000000000E+00 0. -1.
         -1    1    1    2    0  501  0.20675036164E+02  0.10936322427E+02  0.13443492642E+04  0.13445527154E+04  0.00000000000E+00 0.  1.
</event>
<event>
 4    1  0.6729064E+001  0.3290848E+02  0.7546771E-02  0.1395895E+00
          2   -1    0    0  502    0  0.00000000000E+00  0.00000000000E+00  0.11160686453E+04  0.11160686453E+04  0.00000000000E+00 0.  1.
         -2   -1    0    0    0  501 -0.00000000000E+00 -0.00000000000E+00 -0.10640822000E+01  0.10640822000E+01  0.00000000000E+00 0. -1.
          1    1    1    2  502    0 -0.27790737687E+02  0.17625058522E+02  0.72328954008E+03  0.72403779361E+03  0.00000000000E+00 0.  1.
         -1    1    1    2    0  501  0.27790737687E+02 -0.17625058522E+02  0.39171502305E+03  0.39309493391E+03  0.00000000000E+00 0. -1.
</event>
<event>
 4    1  0.6729064E+001  0.3083798E+02  0.7546771E-02  0.1412451E+00
          2   -1    0    0  502    0  0.00000000000E+00  0.00000000000E+00  0.28627301562E+04  0.28627301562E+04  0.00000000000E+00 0.  1.
         -2   -1    0    0    0  501 -0.00000000000E+00 -0.00000000000E+00 -0.33271127188E+00  0.33271127188E+00  0.00000000000E+00 0. -1.
          1    1    1    2  502    0  0.29125973368E+02 -0.10132062266E+02  0.13747388861E+04  0.13750847196E+04  0.00000000000E+00 0. -1.
         -1    1    1    2    0  501 -0.29125973368E+02  0.10132062266E+02  0.14876585588E+04  0.14879781479E+04  0.00000000000E+00 0.  1.
</event>
<event>
 4    1  0.6729064E+001  0.5131696E+02  0.7546771E-02  0.1292561E+00
          2   -1    0    0  502    0  0.00000000000E+00  0.00000000000E+00  0.11022796727E+04  0.11022796727E+04  0.00000000000E+00 0.  1.
         -2   -1    0    0    0  501 -0.00000000000E+00 -0.00000000000E+00 -0.23962464082E+01  0.23962464082E+01  0.00000000000E+00 0. -1.
          1    1    1    2  502    0 -0.29818819967E+02 -0.41764439096E+02  0.51972844221E+03  0.52225576496E+03  0.00000000000E+00 0.  1.
         -1    1    1    2    0  501  0.29818819967E+02  0.41764439096E+02  0.58015498410E+03  0.58242015416E+03  0.00000000000E+00 0. -1.
</event>
<event>
 4    1  0.6729064E+001  0.3817802E+02  0.7546771E-02  0.1359506E+00
          2   -1    0    0  502    0  0.00000000000E+00  0.00000000000E+00  0.31559015499E+03  0.31559015499E+03  0.00000000000E+00 0.  1.
         -2   -1    0    0    0  501 -0.00000000000E+00 -0.00000000000E+00 -0.17668721601E+02  0.17668721601E+02  0.00000000000E+00 0. -1.
          1    1    1    2  502    0  0.29631080838E+02 -0.24074064376E+02  0.57558864200E+01  0.38609477537E+02  0.00000000000E+00 0. -1.
         -1    1    1    2    0  501 -0.29631080838E+02  0.24074064376E+02  0.29216554697E+03  0.29464939905E+03  0.00000000000E+00 0.  1.
</event>
<event>
 4    1  0.6729064E+001  0.2542100E+02  0.7546771E-02  0.1464148E+00
          2   -1    0    0  502    0  0.00000000000E+00  0.00000000000E+00  0.29771776211E+01  0.29771776211E+01  0.00000000000E+00 0. -1.
         -2   -1    0    0    0  501 -0.00000000000E+00 -0.00000000000E+00 -0.22094054194E+03  0.22094054194E+03  0.00000000000E+00 0.  1.
          1    1    1    2  502    0  0.17028602346E+02  0.18874689257E+02 -0.94144623425E+02  0.97516343822E+02  0.00000000000E+00 0.  1.
         -1    1    1    2    0  501 -0.17028602346E+02 -0.18874689257E+02 -0.12381874090E+03  0.12640137574E+03  0.00000000000E+00 0. -1.
</event>
<event>
 4    1  0.6729064E+001  0.2658173E+02  0.7546771E-02  0.1451856E+00
          2   -1    0    0  502    0  0.00000000000E+00  0.00000000000E+00  0.95040804726E+00  0.95040804726E+00  0.00000000000E+00 0. -1.
         -2   -1    0    0    0  501 -0.00000000000E+00 -0.00000000000E+00 -0.16570685251E+04  0.16570685251E+04  0.00000000000E+00 0.  1.
          1    1    1    2  502    0  0.26576473549E+02  0.52860935250E+00 -0.21249985965E+03  0.21415596822E+03  0.00000000000E+00 0. -1.
         -1    1    1    2    0  501 -0.26576473549E+02 -0.52860935250E+00 -0.14436182574E+04  0.14438629649E+04  0.00000000000E+00 0.  1.
</event>
<event>
 4    1  0.6729064E+001  0.3134920E+02  0.7546771E-02  0.1408223E+00
          2   -1    0    0  502    0  0.00000000000E+00  0.00000000000E+00  0.14499058169E+03  0.14499058169E+03  0.00000000000E+00 0. -1.
         -2   -1    0    0    0  501 -0.00000000000E+00 -0.00000000000E+00 -0.93756277794E+01  0.93756277794E+01  0.00000000000E+00 0.  1.
          1    1    1    2  502    0  0.31297175650E+02  0.18053128715E+01  0.10843266855E+03  0.11287345112E+03  0.00000000000E+00 0. -1.
         -1    1    1    2    0  501 -0.31297175650E+02 -0.18053128715E+01  0.27182285359E+02  0.41492758351E+02  0.00000000000E+00 0.  1.
</event>
<event>
 4    1  0.6729064E+001  0.2046882E+02  0.7546771E-02  0.1526986E+00
          2   -1    0    0  502    0  0.00000000000E+00  0.00000000000E+00  0.28032966355E+02  0.28032966355E+02  0.00000000000E+00 0. -1.
         -2   -1    0    0    0  501 -0.00000000000E+00 -0.00000000000E+00 -0.16703571990E+02  0.16703571990E+02  0.00000000000E+00 0.  1.
          1    1    1    2  502    0 -0.13814339797E+02 -0.15104196164E+02  0.12921068093E+02  0.24205923375E+02  0.00000000000E+00 0. -1.
         -1    1    1    2    0  501  0.13814339797E+02  0.15104196164E+02 -0.15916737282E+01  0.20530614970E+02  0.00000000000E+00 0.  1.
</event>
<event>
 4    1  0.6729064E+001  0.2256828E+02  0.7546771E-02  0.1497992E+00
          2   -1    0    0  502    0  0.00000000000E+00  0.00000000000E+00  0.10023552724E+03  0.10023552724E+03  0.00000000000E+00 0.  1.
         -2   -1    0    0    0  501 -0.00000000000E+00 -0.00000000000E+00 -0.61094955294E+01  0.61094955294E+01  0.00000000000E+00 0. -1.
          1    1    1    2  502    0  0.13872811369E+02  0.17800914139E+02  0.25249735910E+02  0.33865566627E+02  0.00000000000E+00 0. -1.
         -1    1    1    2    0  501 -0.13872811369E+02 -0.17800914139E+02  0.68876295797E+02  0.72479456139E+02  0.00000000000E+00 0.  1.
</event>
<event>
 4    1  0.6729064E+001  0.4119175E+02  0.7546771E-02  0.1341640E+00
          2   -1    0    0  502    0  0.00000000000E+00  0.00000000000E+00  0.14608419522E+04  0.14608419522E+04  0.00000000000E+00 0. -1.
         -2   -1    0    0    0  501 -0.00000000000E+00 -0.00000000000E+00 -0.12975428137E+01  0.12975428137E+01  0.00000000000E+00 0.  1.
          1    1    1    2  502    0 -0.34204986698E+02 -0.22951672857E+02  0.49304727864E+03  0.49476497388E+03  0.00000000000E+00 0.  1.
         -1    1    1    2    0  501  0.34204986698E+02  0.22951672857E+02  0.96649713075E+03  0.96737452114E+03  0.00000000000E+00 0. -1.
</event>
<event>
 4    1  0.6729064E+001  0.2157288E+02  0.7546771E-02  0.1511241E+00
          2   -1    0    0  502    0  0.00000000000E+00  0.00000000000E+00  0.24357729463E+03  0.24357729463E+03  0.00000000000E+00 0. -1.
         -2   -1    0    0    0  501 -0.00000000000E+00 -0.00000000000E+00 -0.20831752269E+01  0.20831752269E+01  0.00000000000E+00 0.  1.
          1    1    1    2  502    0 -0.11279356756E+02  0.18389272199E+02  0.85398016657E+02  0.88080704299E+02  0.00000000000E+00 0.  1.
         -1    1    1    2    0  501  0.11279356756E+02 -0.18389272199E+02  0.15609610275E+03  0.15757976556E+03  0.00000000000E+00 0. -1.
</event>
<event>
 4    1  0.6729064E+001  0.2611345E+02  0.7546771E-02  0.1456723E+00
          2   -1    0    0  502    0  0.00000000000E+00  0.00000000000E+00  0.18612550068E+04  0.18612550068E+04  0.00000000000E+00 0.  1.
         -2   -1    0    0    0  501 -0.00000000000E+00 -0.00000000000E+00 -0.58821048242E+00  0.58821048242E+00  0.00000000000E+00 0. -1.
          1    1    1    2  502    0  0.31740459596E+01 -0.25919832133E+02  0.15020290472E+04  0.15022560271E+04  0.00000000000E+00 0.  1.
         -1    1    1    2    0  501 -0.31740459596E+01  0.25919832133E+02  0.35863774913E+03  0.35958719021E+03  0.00000000000E+00 0. -1.
</event>
<event>
 4    1  0.6729064E+001  0.2117897E+02  0.7546771E-02  0.1516725E+00
          2   -1    0    0  502    0  0.00000000000E+00  0.00000000000E+00  0.11918688033E+02  0.11918688033E+02  0.00000000000E+00 0. -1.
         -2   -1    0    0    0  501 -0.00000000000E+00 -0.00000000000E+00 -0.42208462402E+02  0.42208462402E+02  0.00000000000E+00 0.  1.
          1    1    1    2  502    0  0.19880231205E+02 -0.73024086471E+01 -0.62354142902E+01  0.22077797811E+02  0.00000000000E+00 0.  1.
         -1    1    1    2    0  501 -0.19880231205E+02  0.73024086471E+01 -0.24054360079E+02  0.32049352624E+02  0.00000000000E+00 0. -1.
</event>
<event>
 4    1  0.6729064E+001  0.3282069E+02  0.7546771E-02  0.1396568E+00
          2   -1    0    0  502    0  0.00000000000E+00  0.00000000000E+00  0.34640891185E+03  0.34640891185E+03  0.00000000000E+00 0. -1.
         -2   -1    0    0    0  501 -0.00000000000E+00 -0.00000000000E+00 -0.32191840757E+01  0.32191840757E+01  0.00000000000E+00 0.  1.
          1    1    1    2  502    0 -0.35482389919E+01 -0.32628328733E+02  0.13934333143E+03  0.14315642441E+03  0.00000000000E+00 0.  1.
         -1    1    1    2    0  501  0.35482389919E+01  0.32628328733E+02  0.20384639634E+03  0.20647167151E+03  0.00000000000E+00 0. -1.
</event>
<event>
 4    1  0.6729064E+001  0.4760382E+02  0.7546771E-02  0.1308910E+00
          2   -1    0    0  502    0  0.00000000000E+00  0.00000000000E+00  0.16256595738E+03  0.16256595738E+03  0.00000000000E+00 0. -1.
         -2   -1    0    0    0  501 -0.00000000000E+00 -0.00000000000E+00 -0.14990878797E+02  0.14990878797E+02  0.00000000000E+00 0.  1.
          1    1    1    2  502    0  0.46922680263E+02 -0.80240939396E+01  0.97296201709E+02  0.10831747261E+03  0.00000000000E+00 0. -1.
         -1    1    1    2    0  501 -0.46922680263E+02  0.80240939396E+01  0.50278876871E+02  0.69239363559E+02  0.00000000000E+00 0.  1.
</event>
<event>
 4    1  0.6729064E+001  0.3468118E+02  0.7546771E-02  0.1382819E+00
          2   -1    0    0  502    0  0.00000000000E+00  0.00000000000E+00  0.40559282080E+02  0.40559282080E+02  0.00000000000E+00 0.  1.
         -2   -1    0    0    0  501 -0.00000000000E+00 -0.00000000000E+00 -0.36469419971E+02  0.36469419971E+02  0.00000000000E+00 0. -1.
          1    1    1    2  502    0 -0.18149063213E+02 -0.29553267714E+02 -0.14603514486E+02  0.37630396801E+02  0.00000000000E+00 0.  1.
         -1    1    1    2    0  501  0.18149063213E+02  0.29553267714E+02  0.18693376595E+02  0.39398305250E+02  0.00000000000E+00 0. -1.
</event>
<event>
 4    1  0.6729064E+001  0.2827031E+02  0.7546771E-02  0.1435249E+00
          2   -1    0    0  502    0  0.00000000000E+00  0.00000000000E+00  0.35952869853E+03  0.35952869853E+03  0.00000000000E+00 0.  1.
         -2   -1    0    0    0  501 -0.00000000000E+00 -0.00000000000E+00 -0.22297033390E+01  0.22297033390E+01  0.00000000000E+00 0. -1.
          1    1    1    2  502    0  0.68646564036E+01 -0.27424201087E+02  0.18861232218E+03  0.19071921348E+03  0.00000000000E+00 0.  1.
         -1    1    1    2    0  501 -0.68646564036E+01  0.27424201087E+02  0.16868667301E+03  0.17103918839E+03  0.00000000000E+00 0. -1.
</event>
<event>
 4    1  0.6729064E+001  0.2211665E+02  0.7546771E-02  0.1503899E+00
          2   -1    0    0  502    0  0.00000000000E+00  0.00000000000E+00  0.20114042885E+03  0.20114042885E+03  0.00000000000E+00 0. -1.
         -2   -1    0    0    0  501 -0.00000000000E+00 -0.00000000000E+00 -0.30534201191E+01  0.30534201191E+01  0.00000000000E+00 0.  1.
          1    1    1    2  502    0 -0.16176397126E+02  0.15082125711E+02  0.14510725035E+03  0.14678303868E+03  0.00000000000E+00 0.  1.
         -1    1    1    2    0  501  0.16176397126E+02 -0.15082125711E+02  0.52979758377E+02  0.57410810286E+02  0.00000000000E+00 0. -1.
</event>
<event>
 4    1  0.6729064E+001  0.5623091E+02  0.7546771E-02  0.1273206E+00
          2   -1    0    0  502    0  0.00000000000E+00  0.00000000000E+00  0.16990610600E+02  0.16990610600E+02  0.00000000000E+00 0.  1.
         -2   -1    0    0    0  501 -0.00000000000E+00 -0.00000000000E+00 -0.26974258403E+03  0.26974258403E+03  0.00000000000E+00 0. -1.
          1    1    1    2  502    0  0.56050291948E+02  0.45033904243E+01 -0.20621084831E+03  0.21374009852E+03  0.00000000000E+00 0. -1.
         -1    1    1    2    0  501 -0.56050291948E+02 -0.45033904243E+01 -0.46541125120E+02  0.72993096114E+02  0.00000000000E+00 0.  1.
</event>
<event>
 4    1  0.6729064E+001  0.2380246E+02  0.7546771E-02  0.1482660E+00
          2   -1    0    0  502    0  0.00000000000E+00  0.00000000000E+00  0.80934058380E+03  0.80934058380E+03  0.00000000000E+00 0.  1.
         -2   -1    0    0    0  501 -0.00000000000E+00 -0.00000000000E+00 -0.70371025663E+00  0.70371025663E+00  0.00000000000E+00 0. -1.
          1    1    1    2  502    0 -0.16532561936E+02 -0.17124005211E+02  0.37500115646E+03  0.37575580435E+03  0.00000000000E+00 0. -1.
         -1    1    1    2    0  501  0.16532561936E+02  0.17124005211E+02  0.43363571708E+03  0.43428848970E+03  0.00000000000E+00 0.  1.
</event>
<event>
 4    1  0.6729064E+001  0.2022407E+02  0.7546771E-02  0.1530638E+00
          2   -1    0    0  502    0  0.00000000000E+00  0.00000000000E+00  0.35220542177E+03  0.35220542177E+03  0.00000000000E+00 0. -1.
         -2   -1    0    0    0  501 -0.00000000000E+00 -0.00000000000E+00 -0.23183728272E+01  0.23183728272E+01  0.00000000000E+00 0.  1.
          1    1    1    2  502    0  0.16060806725E+02  0.12290794280E+02  0.49714294322E+02  0.53670515151E+02  0.00000000000E+00 0.  1.
         -1    1    1    2    0  501 -0.16060806725E+02 -0.12290794280E+02  0.30017275463E+03  0.30085327945E+03  0.00000000000E+00 0. -1.
</event>
<event>
 4    1  0.6729064E+001  0.2774574E+02  0.7546771E-02  0.1440257E+00
          2   -1    0    0  502    0  0.00000000000E+00  0.00000000000E+00  0.65304786043E+03  0.65304786043E+03  0.00000000000E+00 0. -1.
         -2   -1    0    0    0  501 -0.00000000000E+00 -0.00000000000E+00 -0.12414915335E+01  0.12414915335E+01  0.00000000000E+00 0.  1.
          1    1    1    2  502    0  0.12712520876E+02 -0.24662078299E+02  0.25240088277E+03  0.25392131048E+03  0.00000000000E+00 0.  1.
         -1    1    1    2    0  501 -0.12712520876E+02  0.24662078299E+02  0.39940548613E+03  0.40036804148E+03  0.00000000000E+00 0. -1.
</event>
<event>
 4    1  0.6729064E+001  0.2833840E+02  0.7546771E-02  0.1434608E+00
          2   -1    0    0  502    0  0.00000000000E+00  0.00000000000E+00  0.23104990953E+04  0.23104990953E+04  0.00000000000E+00 0.  1.
         -2   -1    0    0    0  501 -0.00000000000E+00 -0.00000000000E+00 -0.34795178922E+00  0.34795178922E+00  0.00000000000E+00 0. -1.
          1    1    1    2  502    0 -0.69517410894E+01  0.27472496507E+02  0.11932487828E+04  0.11935852389E+04  0.00000000000E+00 0.  1.
         -1    1    1    2    0  501  0.69517410894E+01 -0.27472496507E+02  0.11169023607E+04  0.11172618082E+04  0.00000000000E+00 0. -1.
</event>
<event>
 4    1  0.6729064E+001  0.2047202E+02  0.7546771E-02  0.1526938E+00
          2   -1    0    0  502    0  0.00000000000E+00  0.00000000000E+00  0.10971782669E+03  0.10971782669E+03  0.00000000000E+00 0. -1.
         -2   -1    0    0    0  501 -0.00000000000E+00 -0.00000000000E+00 -0.42204840781E+01  0.42204840781E+01  0.00000000000E+00 0.  1.
          1    1    1    2  502    0 -0.16445275930E+02  0.12192483260E+02  0.35196051865E+02  0.40716898400E+02  0.00000000000E+00 0.  1.
         -1    1    1    2    0  501  0.16445275930E+02 -0.12192483260E+02  0.70301290742E+02  0.73221412363E+02  0.00000000000E+00 0. -1.
</event>
<event>
 4    1  0.6729064E+001  0.2416582E+02  0.7546771E-02  0.1478356E+00
          2   -1    0    0  502    0  0.00000000000E+00  0.00000000000E+00  0.31340975803E+03  0.31340975803E+03  0.00000000000E+00 0. -1.
         -2   -1    0    0    0  501 -0.00000000000E+00 -0.00000000000E+00 -0.19215816024E+01  0.19215816024E+01  0.00000000000E+00 0.  1.
          1    1    1    2  502    0 -0.23389249223E+02 -0.60770012000E+01  0.12829370827E+03  0.13054984682E+03  0.00000000000E+00 0.  1.
         -1    1    1    2    0  501  0.23389249223E+02  0.60770012000E+01  0.18319446816E+03  0.18478149281E+03  0.00000000000E+00 0. -1.
</event>
<event>
 4    1  0.6729064E+001  0.4349603E+02  0.7546771E-02  0.1329133E+00
          2   -1    0    0  502    0  0.00000000000E+00  0.00000000000E+00  0.89504683938E+02  0.89504683938E+02  0.00000000000E+00 0. -1.
         -2   -1    0    0    0  501 -0.00000000000E+00 -0.00000000000E+00 -0.31530609549E+02  0.31530609549E+02  0.00000000000E+00 0.  1.
          1    1    1    2  502    0  0.29293873140E+02  0.32152356026E+02 -0.57576703707E+01  0.43875457486E+02  0.00000000000E+00 0.  1.
         -1    1    1    2    0  501 -0.29293873140E+02 -0.32152356026E+02  0.63731744760E+02  0.77159836001E+02  0.00000000000E+00 0. -1.
</event>
<event>
 4    1  0.6729064E+001  0.2201295E+02  0.7546771E-02  0.1505279E+00
          2   -1    0    0  502    0  0.00000000000E+00  0.00000000000E+00  0.85397857644E+03  0.85397857644E+03  0.00000000000E+00 0.  1.
         -2   -1    0    0    0  501 -0.00000000000E+00 -0.00000000000E+00 -0.30964169209E+01  0.30964169209E+01  0.00000000000E+00 0. -1.
          1    1    1    2  502    0  0.22375055747E+01 -0.21898940379E+02  0.81272789298E+03  0.81302595165E+03  0.00000000000E+00 0.  1.
         -1    1    1    2    0  501 -0.22375055747E+01  0.21898940379E+02  0.38154266537E+02  0.44049041714E+02  0.00000000000E+00 0. -1.
</event>
<event>
 4    1  0.6729064E+001  0.3087138E+02  0.7546771E-02  0.1412172E+00
          2   -1    0    0  502    0  0.00000000000E+00  0.00000000000E+00  0.78062009386E+02  0.78062009386E+02  0.00000000000E+00 0.  1.
         -2   -1    0    0    0  501 -0.00000000000E+00 -0.00000000000E+00 -0.15848278852E+02  0.15848278852E+02  0.00000000000E+00 0. -1.
          1    1    1    2  502    0  0.54407274273E+01 -0.30388160214E+02  0.53608444418E+02  0.61862000526E+02  0.00000000000E+00 0.  1.
         -1    1    1    2    0  501 -0.54407274273E+01  0.30388160214E+02  0.86052861155E+01  0.32048287712E+02  0.00000000000E+00 0. -1.
</event>
<event>
 4    1  0.6729064E+001  0.2495068E+02  0.7546771E-02  0.1469356E+00
          2   -1    0    0  502    0  0.00000000000E+00  0.00000000000E+00  0.58431878018E+03  0.58431878018E+03  0.00000000000E+00 0. -1.
         -2   -1    0    0    0  501 -0.00000000000E+00 -0.00000000000E+00 -0.11198296416E+01  0.11198296416E+01  0.00000000000E+00 0.  1.
          1    1    1    2  502    0 -0.24436715413E+02 -0.50382030585E+01  0.35613077937E+03  0.35700373747E+03  0.00000000000E+00 0.  1.
         -1    1    1    2    0  501  0.24436715413E+02  0.50382030585E+01  0.22706817116E+03  0.22843487235E+03  0.00000000000E+00 0. -1.
</event>
<event>
 4    1  0.6729064E+001  0.2516192E+02  0.7546771E-02  0.1467000E+00
          2   -1    0    0  502    0  0.00000000000E+00  0.00000000000E+00  0.15646781776E+04  0.15646781776E+04  0.00000000000E+00 0. -1.
         -2   -1    0    0    0  501 -0.00000000000E+00 -0.00000000000E+00 -0.41383676888E+00  0.41383676888E+00  0.00000000000E+00 0.  1.
          1    1    1    2  502    0 -0.15736729066E+02  0.19633584580E+02  0.66543773576E+03  0.66591328449E+03  0.00000000000E+00 0. -1.
         -1    1    1    2    0  501  0.15736729066E+02 -0.19633584580E+02  0.89882660502E+03  0.89917872983E+03  0.00000000000E+00 0.  1.
</event>
<event>
 4    1  0.6729064E+001  0.3759847E+02  0.7546771E-02  0.1363164E+00
          2   -1    0    0  502    0  0.00000000000E+00  0.00000000000E+00  0.12589158034E+03  0.12589158034E+03  0.00000000000E+00 0.  1.
         -2   -1    0    0    0  501 -0.00000000000E+00 -0.00000000000E+00 -0.11247587232E+02  0.11247587232E+02  0.00000000000E+00 0. -1.
          1    1    1    2  502    0  0.73326644689E+01  0.36876507010E+02  0.54539410557E+02  0.66243430175E+02  0.00000000000E+00 0. -1.
         -1    1    1    2    0  501 -0.73326644689E+01 -0.36876507010E+02  0.60104582553E+02  0.70895737399E+02  0.00000000000E+00 0.  1.
</event>
<event>
 4    1  0.6729064E+001  0.2094956E+02  0.7546771E-02  0.1519986E+00
          2   -1    0    0  502    0  0.00000000000E+00  0.00000000000E+00  0.18870603855E+04  0.18870603855E+04  0.00000000000E+00 0. -1.
         -2   -1    0    0    0  501 -0.00000000000E+00 -0.00000000000E+00 -0.23401270862E+00  0.23401270862E+00  0.00000000000E+00 0.  1.
          1    1    1    2  502    0 -0.58677724885E+01 -0.20111027605E+02  0.86946355395E+03  0.86971590524E+03  0.00000000000E+00 0.  1.
         -1    1    1    2    0  501  0.58677724885E+01  0.20111027605E+02  0.10173628189E+04  0.10175784930E+04  0.00000000000E+00 0. -1.
</event>
<event>
 4    1  0.6729064E+001  0.3309662E+02  0.7546771E-02  0.1394462E+00
          2   -1    0    0  502    0  0.00000000000E+00  0.00000000000E+00  0.19876731497E+03  0.19876731497E+03  0.00000000000E+00 0.  1.
         -2   -1    0    0    0  501 -0.00000000000E+00 -0.00000000000E+00 -0.61188785857E+01  0.61188785857E+01  0.00000000000E+00 0. -1.
          1    1    1    2  502    0 -0.31979946985E+02 -0.85246078610E+01  0.12861603241E+03  0.13280613594E+03  0.00000000000E+00 0.  1.
         -1    1    1    2    0  501  0.31979946985E+02  0.85246078610E+01  0.64032403975E+02  0.72080057624E+02  0.00000000000E+00 0. -1.
</event>
<event>
 4    1  0.6729064E+001  0.2377220E+02  0.7546771E-02  0.1483023E+00
          2   -1    0    0  502    0  0.00000000000E+00  0.00000000000E+00  0.10247986125E+04  0.10247986125E+04  0.00000000000E+00 0. -1.
         -2   -1    0    0    0  501 -0.00000000000E+00 -0.00000000000E+00 -0.55215237425E+00  0.55215237425E+00  0.00000000000E+00 0.  1.
          1    1    1    2  502    0  0.22995747101E+02 -0.60260300431E+01  0.53050678028E+03  0.53103913353E+03  0.00000000000E+00 0. -1.
         -1    1    1    2    0  501 -0.22995747101E+02  0.60260300431E+01  0.49373967981E+03  0.49431163130E+03  0.00000000000E+00 0.  1.
</event>
<event>
 4    1  0.6729064E+001  0.2408541E+02  0.7546771E-02  0.1479300E+00
          2   -1    0    0  502    0  0.00000000000E+00  0.00000000000E+00  0.21583071060E+01  0.21583071060E+01  0.00000000000E+00 0.  1.
         -2   -1    0    0    0  501 -0.00000000000E+00 -0.00000000000E+00 -0.33630657457E+03  0.33630657457E+03  0.00000000000E+00 0. -1.
          1    1    1    2  502    0  0.65767264030E+01 -0.23170105874E+02 -0.24290696031E+03  0.24409813294E+03  0.00000000000E+00 0. -1.
         -1    1    1    2    0  501 -0.65767264030E+01  0.23170105874E+02 -0.91241307154E+02  0.94366748738E+02  0.00000000000E+00 0.  1.
</event>
<event>
 4    1  0.6729064E+001  0.2970460E+02  0.7546771E-02  0.1422181E+00
          2   -1    0    0  502    0  0.00000000000E+00  0.00000000000E+00  0.11701155595E+03  0.11701155595E+03  0.00000000000E+00 0.  1.
         -2   -1    0    0    0  501 -0.00000000000E+00 -0.00000000000E+00 -0.95036539127E+01  0.95036539127E+01  0.00000000000E+00 0. -1.
          1    1    1    2  502    0  0.47236196195E+01 -0.29326622039E+02  0.82502039160E+02  0.87686656956E+02  0.00000000000E+00 0.  1.
         -1    1    1    2    0  501 -0.47236196195E+01  0.29326622039E+02  0.25005862874E+02  0.38828552904E+02  0.00000000000E+00 0. -1.
</event>
<event>
 4    1  0.6729064E+001  0.4053759E+02  0.7546771E-02  0.1345364E+00
          2   -1    0    0  502    0  0.00000000000E+00  0.00000000000E+00  0.15908552873E+02  0.15908552873E+02  0.00000000000E+00 0. -1.
         -2   -1    0    0    0  501 -0.00000000000E+00 -0.00000000000E+00 -0.10440325530E+03  0.10440325530E+03  0.00000000000E+00 0.  1.
          1    1    1    2  502    0  0.69700741490E+01  0.39933873153E+02 -0.50441300966E+02  0.64711830462E+02  0.00000000000E+00 0.  1.
         -1    1    1    2    0  501 -0.69700741490E+01 -0.39933873153E+02 -0.38053401459E+02  0.55599977709E+02  0.00000000000E+00 0. -1.
</event>
<event>
 4    1  0.6729064E+001  0.4317791E+02  0.7546771E-02  0.1330806E+00
          2   -1    0    0  502    0  0.00000000000E+00  0.00000000000E+00  0.10099059467E+03  0.10099059467E+03  0.00000000000E+00 0. -1.
         -2   -1    0    0    0  501 -0.00000000000E+00 -0.00000000000E+00 -0.19160887148E+02  0.19160887148E+02  0.00000000000E+00 0.  1.
          1    1    1    2  502    0  0.23756028828E+02 -0.36055281945E+02  0.29428701513E+02  0.52253045218E+02  0.00000000000E+00 0.  1.
         -1    1    1    2    0  501 -0.23756028828E+02  0.36055281945E+02  0.52401006006E+02  0.67898436597E+02  0.00000000000E+00 0. -1.
</event>
<event>
 4    1  0.6729064E+001  0.5842294E+02  0.7546771E-02  0.1265287E+00
          2   -1    0    0  502    0  0.00000000000E+00  0.00000000000E+00  0.60042395817E+03  0.60042395817E+03  0.00000000000E+00 0. -1.
         -2   -1    0    0    0  501 -0.00000000000E+00 -0.00000000000E+00 -0.85751479912E+01  0.85751479912E+01  0.00000000000E+00 0.  1.
          1    1    1    2  502    0 -0.51354868392E+02  0.27855286472E+02  0.11913865766E+03  0.13269234809E+03  0.00000000000E+00 0.  1.
         -1    1    1    2    0  501  0.51354868392E+02 -0.27855286472E+02  0.47271015252E+03  0.47630675808E+03  0.00000000000E+00 0. -1.
</event>
<event>
 4    1  0.6729064E+001  0.2922945E+02  0.7546771E-02  0.1426413E+00
          2   -1    0    0  502    0  0.00000000000E+00  0.00000000000E+00  0.26633541937E+03  0.26633541937E+03  0.00000000000E+00 0. -1.
         -2   -1    0    0    0  501 -0.00000000000E+00 -0.00000000000E+00 -0.32133603310E+01  0.32133603310E+01  0.00000000000E+00 0.  1.
          1    1    1    2  502    0  0.21865456759E+02  0.19397481655E+02  0.13714889235E+03  0.14022902398E+03  0.00000000000E+00 0.  1.
         -1    1    1    2    0  501 -0.21865456759E+02 -0.19397481655E+02  0.12597316669E+03  0.12931975573E+03  0.00000000000E+00 0. -1.
</event>
<event>
 4    1  0.6729064E+001  0.3533002E+02  0.7546771E-02  0.1378258E+00
          2   -1    0    0  502    0  0.00000000000E+00  0.00000000000E+00  0.45425120332E+03  0.45425120332E+03  0.00000000000E+00 0. -1.
         -2   -1    0    0    0  501 -0.00000000000E+00 -0.00000000000E+00 -0.27910077843E+01  0.27910077843E+01  0.00000000000E+00 0.  1.
          1    1    1    2  502    0  0.25983921266E+02 -0.23938376816E+02  0.25414989620E+03  0.25659380310E+03  0.00000000000E+00 0. -1.
         -1    1    1    2    0  501 -0.25983921266E+02  0.23938376816E+02  0.19731029934E+03  0.20044840801E+03  0.00000000000E+00 0.  1.
</event>
<event>
 4    1  0.6729064E+001  0.3350146E+02  0.7546771E-02  0.1391416E+00
          2   -1    0    0  502    0  0.00000000000E+00  0.00000000000E+00  0.79050398441E+03  0.79050398441E+03  0.00000000000E+00 0.  1.
         -2   -1    0    0    0  501 -0.00000000000E+00 -0.00000000000E+00 -0.24281687466E+01  0.24281687466E+01  0.00000000000E+00 0. -1.
          1    1    1    2  502    0 -0.30241666493E+02 -0.14414912036E+02  0.64953082808E+03  0.65039422254E+03  0.00000000000E+00 0.  1.
         -1    1    1    2    0  501  0.30241666493E+02  0.14414912036E+02  0.13854498758E+03  0.14253793062E+03  0.00000000000E+00 0. -1.
</event>
<event>
 4    1  0.6729064E+001  0.3114446E+02  0.7546771E-02  0.1409905E+00
          2   -1    0    0  502    0  0.00000000000E+00  0.00000000000E+00  0.20298117468E+04  0.20298117468E+04  0.00000000000E+00 0. -1.
         -2   -1    0    0    0  501 -0.00000000000E+00 -0.00000000000E+00 -0.58007790053E+00  0.58007790053E+00  0.00000000000E+00 0.  1.
          1    1    1    2  502    0 -0.23108145360E+02  0.20880400349E+02  0.14407614023E+04  0.14410979827E+04  0.00000000000E+00 0. -1.
         -1    1    1    2    0  501  0.23108145360E+02 -0.20880400349E+02  0.58847026666E+03  0.58929384202E+03  0.00000000000E+00 0.  1.
</event>
<event>
 4    1  0.6729064E+001  0.2049800E+02  0.7546771E-02  0.1526554E+00
          2   -1    0    0  502    0  0.00000000000E+00  0.00000000000E+00  0.24696852112E+03  0.24696852112E+03  0.00000000000E+00 0. -1.
         -2   -1    0    0    0  501 -0.00000000000E+00 -0.00000000000E+00 -0.26240026115E+01  0.26240026115E+01  0.00000000000E+00 0.  1.
          1    1    1    2  502    0 -0.20292052460E+02 -0.28983573326E+01  0.48169142331E+02  0.52349156069E+02  0.00000000000E+00 0.  1.
         -1    1    1    2    0  501  0.20292052460E+02  0.28983573326E+01  0.19617537618E+03  0.19724336766E+03  0.00000000000E+00 0. -1.
</event>
<event>
 4    1  0.6729064E+001  0.6317890E+02  0.7546771E-02  0.1249398E+00
          2   -1    0    0  502    0  0.00000000000E+00  0.00000000000E+00  0.10003877194E+04  0.10003877194E+04  0.00000000000E+00 0. -1.
         -2   -1    0    0    0  501 -0.00000000000E+00 -0.00000000000E+00 -0.46237670229E+01  0.46237670229E+01  0.00000000000E+00 0.  1.
          1    1    1    2  502    0  0.60054352677E+02 -0.19622637853E+02  0.68391879579E+03  0.68683075966E+03  0.00000000000E+00 0. -1.
         -1    1    1    2    0  501 -0.60054352677E+02  0.19622637853E+02  0.31184515663E+03  0.31818072680E+03  0.00000000000E+00 0.  1.
</event>
<event>
 4    1  0.6729064E+001  0.2288495E+02  0.7546771E-02  0.1493948E+00
          2   -1    0    0  502    0  0.00000000000E+00  0.00000000000E+00  0.46357401046E+03  0.46357401046E+03  0.00000000000E+00 0.  1.
         -2   -1    0    0    0  501 -0.00000000000E+00 -0.00000000000E+00 -0.25020088641E+01  0.25020088641E+01  0.00000000000E+00 0. -1.
          1    1    1    2  502    0  0.22884905492E+02 -0.44893511124E-01  0.40312018153E+03  0.40376924309E+03  0.00000000000E+00 0.  1.
         -1    1    1    2    0  501 -0.22884905492E+02  0.44893511124E-01  0.57951820069E+02  0.62306776229E+02  0.00000000000E+00 0. -1.
</event>
<event>
 4    1  0.6729064E+001  0.2239113E+02  0.7546771E-02  0.1500289E+00
          2   -1    0    0  502    0  0.00000000000E+00  0.00000000000E+00  0.25472855564E+03  0.25472855564E+03  0.00000000000E+00 0. -1.
         -2   -1    0    0    0  501 -0.00000000000E+00 -0.00000000000E+00 -0.19683224106E+01  0.19683224106E+01  0.00000000000E+00 0.  1.
          1    1    1    2  502    0 -0.33799342646E+00 -0.22388574551E+02  0.12546632734E+03  0.12744866341E+03  0.00000000000E+00 0. -1.
         -1    1    1    2    0  501  0.33799342646E+00  0.22388574551E+02  0.12729390589E+03  0.12924821463E+03  0.00000000000E+00 0.  1.
</event>
<event>
 4    1  0.6729064E+001  0.4940807E+02  0.7546771E-02  0.1300759E+00
          2   -1    0    0  502    0  0.00000000000E+00  0.00000000000E+00  0.75208802594E+03  0.75208802594E+03  0.00000000000E+00 0. -1.
         -2   -1    0    0    0  501 -0.00000000000E+00 -0.00000000000E+00 -0.32458476911E+01  0.32458476911E+01  0.00000000000E+00 0.  1.
          1    1    1    2  502    0 -0.31322266773E+02 -0.38210899164E+02  0.37383039426E+03  0.37708131866E+03  0.00000000000E+00 0.  1.
         -1    1    1    2    0  501  0.31322266773E+02  0.38210899164E+02  0.37501178398E+03  0.37825255496E+03  0.00000000000E+00 0. -1.
</event>
<event>
 4    1  0.6729064E+001  0.2274312E+02  0.7546771E-02  0.1495749E+00
          2   -1    0    0  502    0  0.00000000000E+00  0.00000000000E+00  0.98857483570E+00  0.98857483570E+00  0.00000000000E+00 0. -1.
         -2   -1    0    0    0  501 -0.00000000000E+00 -0.00000000000E+00 -0.56011770876E+03  0.56011770876E+03  0.00000000000E+00 0.  1.
          1    1    1    2  502    0 -0.22283581121E+02  0.45488021868E+01 -0.20756485667E+03  0.20880713425E+03  0.00000000000E+00 0. -1.
         -1    1    1    2    0  501  0.22283581121E+02 -0.45488021868E+01 -0.35156427726E+03  0.35229914935E+03  0.00000000000E+00 0.  1.
</event>
<event>
 4    1  0.6729064E+001  0.2265720E+02  0.7546771E-02  0.1496848E+00
          2   -1    0    0  502    0  0.00000000000E+00  0.00000000000E+00  0.11165593613E+03  0.11165593613E+03  0.00000000000E+00 0.  1.
         -2   -1    0    0    0  501 -0.00000000000E+00 -0.00000000000E+00 -0.86066409331E+01  0.86066409331E+01  0.00000000000E+00 0. -1.
          1    1    1    2  502    0  0.22344224198E+02 -0.37529323516E+01  0.10484950760E+02  0.24965637357E+02  0.00000000000E+00 0. -1.
         -1    1    1    2    0  501 -0.22344224198E+02  0.37529323516E+01  0.92564344441E+02  0.95296939710E+02  0.00000000000E+00 0.  1.
</event>
<event>
 4    1  0.6729064E+001  0.2955145E+02  0.7546771E-02  0.1423535E+00
          2   -1    0    0  502    0  0.00000000000E+00  0.00000000000E+00  0.26404234547E+04  0.26404234547E+04  0.00000000000E+00 0.  1.
         -2   -1    0    0    0  501 -0.00000000000E+00 -0.00000000000E+00 -0.33814101016E+00  0.33814101016E+00  0.00000000000E+00 0. -1.
          1    1    1    2  502    0 -0.29095085065E+02  0.51733902263E+01  0.15154132699E+04  0.15157013778E+04  0.00000000000E+00 0. -1.
         -1    1    1    2    0  501  0.29095085065E+02 -0.51733902263E+01  0.11246720438E+04  0.11250602179E+04  0.00000000000E+00 0.  1.
</event>
<event>
 4    1  0.6729064E+001  0.2374794E+02  0.7546771E-02  0.1483314E+00
          2   -1    0    0  502    0  0.00000000000E+00  0.00000000000E+00  0.14061507366E+04  0.14061507366E+04  0.00000000000E+00 0.  1.
         -2   -1    0    0    0  501 -0.00000000000E+00 -0.00000000000E+00 -0.48404984369E+00  0.48404984369E+00  0.00000000000E+00 0. -1.
          1    1    1    2  502    0  0.17389761056E+02 -0.16172848770E+02  0.99403424349E+03  0.99431787778E+03  0.00000000000E+00 0. -1.
         -1    1    1    2    0  501 -0.17389761056E+02  0.16172848770E+02  0.41163244327E+03  0.41231690867E+03  0.00000000000E+00 0.  1.
</event>
<event>
 4    1  0.6729064E+001  0.2757050E+02  0.7546771E-02  0.1441960E+00
          2   -1    0    0  502    0  0.00000000000E+00  0.00000000000E+00  0.91726280205E+03  0.91726280205E+03  0.00000000000E+00 0.  1.
         -2   -1    0    0    0  501 -0.00000000000E+00 -0.00000000000E+00 -0.85199414629E+00  0.85199414629E+00  0.00000000000E+00 0. -1.
          1    1    1    2  502    0 -0.12257557425E+02 -0.24695844185E+02  0.38229433423E+03  0.38328721662E+03  0.00000000000E+00 0. -1.
         -1    1    1    2    0  501  0.12257557425E+02  0.24695844185E+02  0.53411647367E+03  0.53482757958E+03  0.00000000000E+00 0.  1.
</event>
<event>
 4    1  0.6729064E+001  0.2036320E+02  0.7546771E-02  0.1528554E+00
          2   -1    0    0  502    0  0.00000000000E+00  0.00000000000E+00  0.15450043587E+02  0.15450043587E+02  0.00000000000E+00 0. -1.
         -2   -1    0    0    0  501 -0.00000000000E+00 -0.00000000000E+00 -0.39730224656E+02  0.39730224656E+02  0.00000000000E+00 0.  1.
          1    1    1    2  502    0 -0.20120726072E+02  0.31331242283E+01  0.35759938698E+01  0.20674811178E+02  0.00000000000E+00 0. -1.
         -1    1    1    2    0  501  0.20120726072E+02 -0.31331242283E+01 -0.27856174939E+02  0.34505457065E+02  0.00000000000E+00 0.  1.
</event>
<event>
 4    1  0.6729064E+001  0.2267978E+02  0.7546771E-02  0.1496559E+00
          2   -1    0    0  502    0  0.00000000000E+00  0.00000000000E+00  0.73719239899E+03  0.73719239899E+03  0.00000000000E+00 0. -1.
         -2   -1    0    0    0  501 -0.00000000000E+00 -0.00000000000E+00 -0.70266457241E+00  0.70266457241E+00  0.00000000000E+00 0.  1.
          1    1    1    2  502    0  0.22679770731E+02  0.21481523570E-01  0.33737425848E+03  0.33813571646E+03  0.00000000000E+00 0.  1.
         -1    1    1    2    0  501 -0.22679770731E+02 -0.21481523570E-01  0.39911547594E+03  0.39975934710E+03  0.00000000000E+00 0. -1.
</event>
<event>
 4    1  0.6729064E+001  0.2764193E+02  0.7546771E-02  0.1441264E+00
          2   -1    0    0  502    0  0.00000000000E+00  0.00000000000E+00  0.85093257875E+02  0.85093257875E+02  0.00000000000E+00 0.  1.
         -2   -1    0    0    0  501 -0.00000000000E+00 -0.00000000000E+00 -0.91829836303E+01  0.91829836303E+01  0.00000000000E+00 0. -1.
          1    1    1    2  502    0  0.17232110000E+02  0.21613211896E+02  0.44975754384E+02  0.52791050623E+02  0.00000000000E+00 0.  1.
         -1    1    1    2    0  501 -0.17232110000E+02 -0.21613211896E+02  0.30934519860E+02  0.41485190882E+02  0.00000000000E+00 0. -1.
</event>
<event>
 4    1  0.6729064E+001  0.2567941E+02  0.7546771E-02  0.1461344E+00
          2   -1    0    0  502    0  0.00000000000E+00  0.00000000000E+00  0.47504785197E+02  0.47504785197E+02  0.00000000000E+00 0. -1.
         -2   -1    0    0    0  501 -0.00000000000E+00 -0.00000000000E+00 -0.18510679063E+02  0.18510679063E+02  0.00000000000E+00 0.  1.
          1    1    1    2  502    0 -0.21216315240E+01 -0.25591620368E+02 -0.20097038645E+01  0.25757935923E+02  0.00000000000E+00 0. -1.
         -1    1    1    2    0  501  0.21216315240E+01  0.25591620368E+02  0.31003809999E+02  0.40257528337E+02  0.00000000000E+00 0.  1.
</event>
<event>
 4    1  0.6729064E+001  0.4244983E+02  0.7546771E-02  0.1334698E+00
          2   -1    0    0  502    0  0.00000000000E+00  0.00000000000E+00  0.87836913764E+02  0.87836913764E+02  0.00000000000E+00 0. -1.
         -2   -1    0    0    0  501 -0.00000000000E+00 -0.00000000000E+00 -0.43492161372E+02  0.43492161372E+02  0.00000000000E+00 0.  1.
          1    1    1    2  502    0  0.27443869714E+02 -0.32385520087E+02  0.69900253284E+02  0.81780396828E+02  0.00000000000E+00 0. -1.
         -1    1    1    2    0  501 -0.27443869714E+02  0.32385520087E+02 -0.25555500892E+02  0.49548678307E+02  0.00000000000E+00 0.  1.
</event>
<event>
 4    1  0.6729064E+001  0.4541925E+02  0.7546771E-02  0.1319356E+00
          2   -1    0    0  502    0  0.00000000000E+00  0.00000000000E+00  0.24224226114E+03  0.24224226114E+03  0.00000000000E+00 0.  1.
         -2   -1    0    0    0  501 -0.00000000000E+00 -0.00000000000E+00 -0.50739893231E+02  0.50739893231E+02  0.00000000000E+00 0. -1.
          1    1    1    2  502    0  0.98242759992E+01 -0.44344018512E+02  0.22938491763E+03  0.23383829629E+03  0.00000000000E+00 0.  1.
         -1    1    1    2    0  501 -0.98242759992E+01  0.44344018512E+02 -0.37882549713E+02  0.59143858088E+02  0.00000000000E+00 0. -1.
</event>
<event>
 4    1  0.6729064E+001  0.2057317E+02  0.7546771E-02  0.1525447E+00
          2   -1    0    0  502    0  0.00000000000E+00  0.00000000000E+00  0.13699282754E+04  0.13699282754E+04  0.00000000000E+00 0.  1.
         -2   -1    0    0    0  501 -0.00000000000E+00 -0.00000000000E+00 -0.50113250384E+00  0.50113250384E+00  0.00000000000E+00 0. -1.
          1    1    1    2  502    0 -0.18008946138E+02  0.99465246999E+01  0.26039309760E+03  0.26120455734E+03  0.00000000000E+00 0. -1.
         -1    1    1    2    0  501  0.18008946138E+02 -0.99465246999E+01  0.11090340453E+04  0.11092248506E+04  0.00000000000E+00 0.  1.
</event>
<event>
 4    1  0.6729064E+001  0.2025584E+02  0.7546771E-02  0.1530160E+00
          2   -1    0    0  502    0  0.00000000000E+00  0.00000000000E+00  0.94001366382E+01  0.94001366382E+01  0.00000000000E+00 0.  1.
         -2   -1    0    0    0  501 -0.00000000000E+00 -0.00000000000E+00 -0.43654138307E+02  0.43654138307E+02  0.00000000000E+00 0. -1.
          1    1    1    2  502    0 -0.65210301120E+01  0.19177471743E+02 -0.17435804263E+02  0.26726513549E+02  0.00000000000E+00 0.  1.
         -1    1    1    2    0  501  0.65210301120E+01 -0.19177471743E+02 -0.16818197407E+02  0.26327761397E+02  0.00000000000E+00 0. -1.
</event>
<event>
 4    1  0.6729064E+001  0.4299537E+02  0.7546771E-02  0.1331774E+00
          2   -1    0    0  502    0  0.00000000000E+00  0.00000000000E+00  0.13782097525E+04  0.13782097525E+04  0.00000000000E+00 0.  1.
         -2   -1    0    0    0  501 -0.00000000000E+00 -0.00000000000E+00 -0.17575530182E+01  0.17575530182E+01  0.00000000000E+00 0. -1.
          1    1    1    2  502    0  0.31514606167E+02 -0.29247752903E+02  0.35244211026E+03  0.35505498523E+03  0.00000000000E+00 0.  1.
         -1    1    1    2    0  501 -0.31514606167E+02  0.29247752903E+02  0.10240100892E+04  0.10249123202E+04  0.00000000000E+00 0. -1.
</event>
<event>
 4    1  0.6729064E+001  0.2029208E+02  0.7546771E-02  0.1529617E+00
          2   -1    0    0  502    0  0.00000000000E+00  0.00000000000E+00  0.16711730814E+03  0.16711730814E+03  0.00000000000E+00 0. -1.
         -2   -1    0    0    0  501 -0.00000000000E+00 -0.00000000000E+00 -0.30380929441E+01  0.30380929441E+01  0.00000000000E+00 0.  1.
          1    1    1    2  502    0  0.10130505178E+02 -0.17582418658E+02  0.11902459551E+03  0.12074196834E+03  0.00000000000E+00 0.  1.
         -1    1    1    2    0  501 -0.10130505178E+02  0.17582418658E+02  0.45054619687E+02  0.49413432750E+02  0.00000000000E+00 0. -1.
</event>
<event>
 4    1  0.6729064E+001  0.2253372E+02  0.7546771E-02  0.1498438E+00
          2   -1    0    0  502    0  0.00000000000E+00  0.00000000000E+00  0.28293538398E+03  0.28293538398E+03  0.00000000000E+00 0.  1.
         -2   -1    0    0    0  501 -0.00000000000E+00 -0.00000000000E+00 -0.22750193635E+01  0.22750193635E+01  0.00000000000E+00 0. -1.
          1    1    1    2  502    0  0.22331413467E+02  0.30126949396E+01  0.74801253111E+02  0.78121673210E+02  0.00000000000E+00 0. -1.
         -1    1    1    2    0  501 -0.22331413467E+02 -0.30126949396E+01  0.20585911151E+03  0.20708873013E+03  0.00000000000E+00 0.  1.
</event>
<event>
 4    1  0.6729064E+001  0.2662000E+02  0.7546771E-02  0.1451463E+00
          2   -1    0    0  502    0  0.00000000000E+00  0.00000000000E+00  0.54825557064E+03  0.54825557064E+03  0.00000000000E+00 0.  1.
         -2   -1    0    0    0  501 -0.00000000000E+00 -0.00000000000E+00 -0.24296392231E+01  0.24296392231E+01  0.00000000000E+00 0. -1.
          1    1    1    2  502    0  0.20193597605E+02  0.17344821787E+02  0.46128133696E+03  0.46204880268E+03  0.00000000000E+00 0.  1.
         -1    1    1    2    0  501 -0.20193597605E+02 -0.17344821787E+02  0.84544594454E+02  0.88636407183E+02  0.00000000000E+00 0. -1.
</event>
<event>
 4    1  0.6729064E+001  0.2309341E+02  0.7546771E-02  0.1491328E+00
          2   -1    0    0  502    0  0.00000000000E+00  0.00000000000E+00  0.72307613251E+03  0.72307613251E+03  0.00000000000E+00 0. -1.
         -2   -1    0    0    0  501 -0.00000000000E+00 -0.00000000000E+00 -0.83219625517E+00  0.83219625517E+00  0.00000000000E+00 0.  1.
          1    1    1    2  502    0  0.18416790323E+02  0.13932965465E+02  0.23905740820E+03  0.24017025233E+03  0.00000000000E+00 0.  1.
         -1    1    1    2    0  501 -0.18416790323E+02 -0.13932965465E+02  0.48318652806E+03  0.48373807643E+03  0.00000000000E+00 0. -1.
</event>
<event>
 4    1  0.6729064E+001  0.2446745E+02  0.7546771E-02  0.1474850E+00
          2   -1    0    0  502    0  0.00000000000E+00  0.00000000000E+00  0.16366818183E+02  0.16366818183E+02  0.00000000000E+00 0. -1.
         -2   -1    0    0    0  501 -0.00000000000E+00 -0.00000000000E+00 -0.43985337248E+02  0.43985337248E+02  0.00000000000E+00 0.  1.
          1    1    1    2  502    0  0.21947635822E+02  0.10814688196E+02 -0.26193132840E+02  0.35843219818E+02  0.00000000000E+00 0.  1.
         -1    1    1    2    0  501 -0.21947635822E+02 -0.10814688196E+02 -0.14253862246E+01  0.24508935612E+02  0.00000000000E+00 0. -1.
</event>
<event>
 4    1  0.6729064E+001  0.2557257E+02  0.7546771E-02  0.1462499E+00
          2   -1    0    0  502    0  0.00000000000E+00  0.00000000000E+00  0.10731576103E+04  0.10731576103E+04  0.00000000000E+00 0.  1.
         -2   -1    0    0    0  501 -0.00000000000E+00 -0.00000000000E+00 -0.10638149162E+01  0.10638149162E+01  0.00000000000E+00 0. -1.
          1    1    1    2  502    0  0.20632774192E+02  0.15107780893E+02  0.88709656757E+03  0.88746508473E+03  0.00000000000E+00 0.  1.
         -1    1    1    2    0  501 -0.20632774192E+02 -0.15107780893E+02  0.18499722785E+03  0.18675634052E+03  0.00000000000E+00 0. -1.
</event>
<event>
 4    1  0.6729064E+001  0.2685285E+02  0.7546771E-02  0.1449092E+00
          2   -1    0    0  502    0  0.00000000000E+00  0.00000000000E+00  0.43971518698E+03  0.43971518698E+03  0.00000000000E+00 0.  1.
         -2   -1    0    0    0  501 -0.00000000000E+00 -0.00000000000E+00 -0.22342439599E+01  0.22342439599E+01  0.00000000000E+00 0. -1.
          1    1    1    2  502    0  0.14429834133E+02 -0.22646313056E+02  0.33271486423E+03  0.33379672929E+03  0.00000000000E+00 0.  1.
         -1    1    1    2    0  501 -0.14429834133E+02  0.22646313056E+02  0.10476607879E+03  0.10815270165E+03  0.00000000000E+00 0. -1.
</event>
<event>
 4    1  0.6729064E+001  0.2139630E+02  0.7546771E-02  0.1513681E+00
          2   -1    0    0  502    0  0.00000000000E+00  0.00000000000E+00  0.17710558770E+01  0.17710558770E+01  0.00000000000E+00 0. -1.
         -2   -1    0    0    0  501 -0.00000000000E+00 -0.00000000000E+00 -0.27706784915E+03  0.27706784915E+03  0.00000000000E+00 0.  1.
          1    1    1    2  502    0  0.11412489751E+02  0.18098532309E+02 -0.10154752201E+03  0.10377717004E+03  0.00000000000E+00 0. -1.
         -1    1    1    2    0  501 -0.11412489751E+02 -0.18098532309E+02 -0.17374927126E+03  0.17506173499E+03  0.00000000000E+00 0.  1.
</event>
<event>
 4    1  0.6729064E+001  0.2305704E+02  0.7546771E-02  0.1491783E+00
          2   -1    0    0  502    0  0.00000000000E+00  0.00000000000E+00  0.62190323717E+02  0.62190323717E+02  0.00000000000E+00 0. -1.
         -2   -1    0    0    0  501 -0.00000000000E+00 -0.00000000000E+00 -0.11672567905E+02  0.11672567905E+02  0.00000000000E+00 0.  1.
          1    1    1    2  502    0 -0.12220589952E+02  0.19552086851E+02  0.61523737897E+01  0.23863751220E+02  0.00000000000E+00 0.  1.
         -1    1    1    2    0  501  0.12220589952E+02 -0.19552086851E+02  0.44365382022E+02  0.49999140403E+02  0.00000000000E+00 0. -1.
</event>
<event>
 4    1  0.6729064E+001  0.2007831E+02  0.7546771E-02  0.1532842E+00
          2   -1    0    0  502    0  0.00000000000E+00  0.00000000000E+00  0.13374076168E+03  0.13374076168E+03  0.00000000000E+00 0.  1.
         -2   -1    0    0    0  501 -0.00000000000E+00 -0.00000000000E+00 -0.53425992919E+01  0.53425992919E+01  0.00000000000E+00 0. -1.
          1    1    1    2  502    0  0.19133829871E+02 -0.60856425695E+01  0.18291364397E+02  0.27160863435E+02  0.00000000000E+00 0. -1.
         -1    1    1    2    0  501 -0.19133829871E+02  0.60856425695E+01  0.11010679799E+03  0.11192249754E+03  0.00000000000E+00 0.  1.
</event>
<event>
 4    1  0.6729064E+001  0.4890843E+02  0.7546771E-02  0.1302976E+00
          2   -1    0    0  502    0  0.00000000000E+00  0.00000000000E+00  0.11255427685E+04  0.11255427685E+04  0.00000000000E+00 0. -1.
         -2   -1    0    0    0  501 -0.00000000000E+00 -0.00000000000E+00 -0.22875621523E+01  0.22875621523E+01  0.00000000000E+00 0.  1.
          1    1    1    2  502    0 -0.44433093183E+02 -0.20438552347E+02  0.41140570678E+03  0.41430265478E+03  0.00000000000E+00 0.  1.
         -1    1    1    2    0  501  0.44433093183E+02  0.20438552347E+02  0.71184949957E+03  0.71352767587E+03  0.00000000000E+00 0. -1.
</event>
<event>
 4    1  0.6729064E+001  0.3062693E+02  0.7546771E-02  0.1414225E+00
          2   -1    0    0  502    0  0.00000000000E+00  0.00000000000E+00  0.14789631886E+04  0.14789631886E+04  0.00000000000E+00 0.  1.
         -2   -1    0    0    0  501 -0.00000000000E+00 -0.00000000000E+00 -0.65738318781E+00  0.65738318781E+00  0.00000000000E+00 0. -1.
          1    1    1    2  502    0 -0.95179448567E+01  0.29110437804E+02  0.60032455392E+03  0.60110529769E+03  0.00000000000E+00 0. -1.
         -1    1    1    2    0  501  0.95179448567E+01 -0.29110437804E+02  0.87798125146E+03  0.87851527407E+03  0.00000000000E+00 0.  1.
</event>
<event>
 4    1  0.6729064E+001  0.2415910E+02  0.7546771E-02  0.1478435E+00
          2   -1    0    0  502    0  0.00000000000E+00  0.00000000000E+00  0.20986889559E+03  0.20986889559E+03  0.00000000000E+00 0.  1.
         -2   -1    0    0    0  501 -0.00000000000E+00 -0.00000000000E+00 -0.27880640258E+01  0.27880640258E+01  0.00000000000E+00 0. -1.
          1    1    1    2  502    0  0.21182407561E+01  0.24066055369E+02  0.10886253031E+03  0.11151104192E+03  0.00000000000E+00 0.  1.
         -1    1    1    2    0  501 -0.21182407561E+01 -0.24066055369E+02  0.98218301258E+02  0.10114591770E+03  0.00000000000E+00 0. -1.
</event>
<event>
 4    1  0.6729064E+001  0.3576536E+02  0.7546771E-02  0.1375261E+00
          2   -1    0    0  502    0  0.00000000000E+00  0.00000000000E+00  0.31606643684E+02  0.31606643684E+02  0.00000000000E+00 0. -1.
         -2   -1    0    0    0  501 -0.00000000000E+00 -0.00000000000E+00 -0.59528788699E+02  0.59528788699E+02  0.00000000000E+00 0.  1.
          1    1    1    2  502    0 -0.34559047675E+02 -0.92105096075E+01  0.11821534326E+02  0.37668420955E+02  0.00000000000E+00 0. -1.
         -1    1    1    2    0  501  0.34559047675E+02  0.92105096075E+01 -0.39743679342E+02  0.53467011428E+02  0.00000000000E+00 0.  1.
</event>
<event>
 4    1  0.6729064E+001  0.2050896E+02  0.7546771E-02  0.1526392E+00
          2   -1    0    0  502    0  0.00000000000E+00  0.00000000000E+00  0.11177542599E+01  0.11177542599E+01  0.00000000000E+00 0. -1.
         -2   -1    0    0    0  501 -0.00000000000E+00 -0.00000000000E+00 -0.41184607809E+03  0.41184607809E+03  0.00000000000E+00 0.  1.
          1    1    1    2  502    0 -0.15879285842E+02  0.12979438262E+02 -0.26602023350E+03  0.26680963657E+03  0.00000000000E+00 0. -1.
         -1    1    1    2    0  501  0.15879285842E+02 -0.12979438262E+02 -0.14470809033E+03  0.14615419578E+03  0.00000000000E+00 0.  1.
</event>
<event>
 4    1  0.6729064E+001  0.2291340E+02  0.7546771E-02  0.1493588E+00
          2   -1    0    0  502    0  0.00000000000E+00  0.00000000000E+00  0.38307870863E+03  0.38307870863E+03  0.00000000000E+00 0. -1.
         -2   -1    0    0    0  501 -0.00000000000E+00 -0.00000000000E+00 -0.14723572349E+01  0.14723572349E+01  0.00000000000E+00 0.  1.
          1    1    1    2  502    0  0.89959492871E+01 -0.21073604582E+02  0.14024022427E+03  0.14209976923E+03  0.00000000000E+00 0.  1.
         -1    1    1    2    0  501 -0.89959492871E+01  0.21073604582E+02  0.24136612712E+03  0.24245129663E+03  0.00000000000E+00 0. -1.
</event>
<event>
 4    1  0.6729064E+001  0.3123192E+02  0.7546771E-02  0.1409185E+00
          2   -1    0    0  502    0  0.00000000000E+00  0.00000000000E+00  0.21345494581E+04  0.21345494581E+04  0.00000000000E+00 0.  1.
         -2   -1    0    0    0  501 -0.00000000000E+00 -0.00000000000E+00 -0.45716156126E+00  0.45716156126E+00  0.00000000000E+00 0. -1.
          1    1    1    2  502    0  0.26771662349E+02  0.16084489744E+02  0.10453996579E+04  0.10458660896E+04  0.00000000000E+00 0.  1.
         -1    1    1    2    0  501 -0.26771662349E+02 -0.16084489744E+02  0.10886926386E+04  0.10891405300E+04  0.00000000000E+00 0. -1.
</event>
<event>
 4    1  0.6729064E+001  0.3338528E+02  0.7546771E-02  0.1392285E+00
          2   -1    0    0  502    0  0.00000000000E+00  0.00000000000E+00  0.31103880757E+01  0.31103880757E+01  0.00000000000E+00 0.  1.
         -2   -1    0    0    0  501 -0.00000000000E+00 -0.00000000000E+00 -0.41231811500E+03  0.41231811500E+03  0.00000000000E+00 0. -1.
          1    1    1    2  502    0  0.30862997254E+01  0.33242313351E+02 -0.12944871939E+03  0.13368450768E+03  0.00000000000E+00 0.  1.
         -1    1    1    2    0  501 -0.30862997254E+01 -0.33242313351E+02 -0.27975900754E+03  0.28174399540E+03  0.00000000000E+00 0. -1.
</event>
<event>
 4    1  0.6729064E+001  0.5343117E+02  0.7546771E-02  0.1283944E+00
          2   -1    0    0  502    0  0.00000000000E+00  0.00000000000E+00  0.22745573036E+02  0.22745573036E+02  0.00000000000E+00 0.  1.
         -2   -1    0    0    0  501 -0.00000000000E+00 -0.00000000000E+00 -0.20910612094E+03  0.20910612094E+03  0.00000000000E+00 0. -1.
          1    1    1    2  502    0  0.48018929335E+02  0.23432302534E+02 -0.19884440263E+02  0.57011238727E+02  0.00000000000E+00 0. -1.
         -1    1    1    2    0  501 -0.48018929335E+02 -0.23432302534E+02 -0.16647610764E+03  0.17484045525E+03  0.00000000000E+00 0.  1.
</event>
<event>
 4    1  0.6729064E+001  0.5363504E+02  0.7546771E-02  0.1283137E+00
          2   -1    0    0  502    0  0.00000000000E+00  0.00000000000E+00  0.39911110238E+03  0.39911110238E+03  0.00000000000E+00 0. -1.
         -2   -1    0    0    0  501 -0.00000000000E+00 -0.00000000000E+00 -0.10990960033E+02  0.10990960033E+02  0.00000000000E+00 0.  1.
          1    1    1    2  502    0  0.11876195212E+02 -0.52303665600E+02  0.73758621510E+02  0.91197871110E+02  0.00000000000E+00 0.  1.
         -1    1    1    2    0  501 -0.11876195212E+02  0.52303665600E+02  0.31436152084E+03  0.31890419131E+03  0.00000000000E+00 0. -1.
</event>
<event>
 4    1  0.6729064E+001  0.2152363E+02  0.7546771E-02  0.1511918E+00
          2   -1    0    0  502    0  0.00000000000E+00  0.00000000000E+00  0.19330932558E+04  0.19330932558E+04  0.00000000000E+00 0. -1.
         -2   -1    0    0    0  501 -0.00000000000E+00 -0.00000000000E+00 -0.26026247463E+00  0.26026247463E+00  0.00000000000E+00 0.  1.
          1    1    1    2  502    0 -0.57613458209E+01  0.20738217815E+02  0.12384580204E+04  0.12386450400E+04  0.00000000000E+00 0. -1.
         -1    1    1    2    0  501  0.57613458209E+01 -0.20738217815E+02  0.69437497290E+03  0.69470847827E+03  0.00000000000E+00 0.  1.
</event>
<event>
 4    1  0.6729064E+001  0.3046563E+02  0.7546771E-02  0.1415592E+00
          2   -1    0    0  502    0  0.00000000000E+00  0.00000000000E+00  0.17646520700E+03  0.17646520700E+03  0.00000000000E+00 0. -1.
         -2   -1    0    0    0  501 -0.00000000000E+00 -0.00000000000E+00 -0.30332550353E+02  0.30332550353E+02  0.00000000000E+00 0.  1.
          1    1    1    2  502    0  0.13667174014E+02  0.27227986306E+02 -0.20941317868E+02  0.36968820347E+02  0.00000000000E+00 0.  1.
         -1    1    1    2    0  501 -0.13667174014E+02 -0.27227986306E+02  0.16707397451E+03  0.16982893700E+03  0.00000000000E+00 0. -1.
</event>
<event>
 4    1  0.6729064E+001  0.4300381E+02  0.7546771E-02  0.1331729E+00
          2   -1    0    0  502    0  0.00000000000E+00  0.00000000000E+00  0.17720460323E+03  0.17720460323E+03  0.00000000000E+00 0.  1.
         -2   -1    0    0    0  501 -0.00000000000E+00 -0.00000000000E+00 -0.11038285705E+02  0.11038285705E+02  0.00000000000E+00 0. -1.
          1    1    1    2  502    0  0.28430531676E+02 -0.32265037355E+02  0.61099636546E+02  0.74716084968E+02  0.00000000000E+00 0. -1.
         -1    1    1    2    0  501 -0.28430531676E+02  0.32265037355E+02  0.10506668098E+03  0.11352680397E+03  0.00000000000E+00 0.  1.
</event>
<event>
 4    1  0.6729064E+001  0.2709720E+02  0.7546771E-02  0.1446634E+00
          2   -1    0    0  502    0  0.00000000000E+00  0.00000000000E+00  0.53504728014E+03  0.53504728014E+03  0.00000000000E+00 0.  1.
         -2   -1    0    0    0  501 -0.00000000000E+00 -0.00000000000E+00 -0.18530975928E+01  0.18530975928E+01  0.00000000000E+00 0. -1.
          1    1    1    2  502    0  0.14255606393E+02  0.23044216310E+02  0.12986046051E+03  0.13265744391E+03  0.00000000000E+00 0. -1.
         -1    1    1    2    0  501 -0.14255606393E+02 -0.23044216310E+02  0.40333372204E+03  0.40424293383E+03  0.00000000000E+00 0.  1.
</event>
<event>
 4    1  0.6729064E+001  0.3494817E+02  0.7546771E-02  0.1380928E+00
          2   -1    0    0  502    0  0.00000000000E+00  0.00000000000E+00  0.78988073837E+02  0.78988073837E+02  0.00000000000E+00 0. -1.
         -2   -1    0    0    0  501 -0.00000000000E+00 -0.00000000000E+00 -0.19574313781E+02  0.19574313781E+02  0.00000000000E+00 0.  1.
          1    1    1    2  502    0 -0.25249520215E+02  0.24162702792E+02  0.71208257706E+01  0.35666239457E+02  0.00000000000E+00 0.  1.
         -1    1    1    2    0  501  0.25249520215E+02 -0.24162702792E+02  0.52292934285E+02  0.62896148161E+02  0.00000000000E+00 0. -1.
</event>
<event>
 4    1  0.6729064E+001  0.2128283E+02  0.7546771E-02  0.1515265E+00
          2   -1    0    0  502    0  0.00000000000E+00  0.00000000000E+00  0.35987997407E+01  0.35987997407E+01  0.00000000000E+00 0.  1.
         -2   -1    0    0    0  501 -0.00000000000E+00 -0.00000000000E+00 -0.15344756339E+03  0.15344756339E+03  0.00000000000E+00 0. -1.
          1    1    1    2  502    0  0.20981370537E+02 -0.35694265810E+01 -0.41632034297E+02  0.46756657231E+02  0.00000000000E+00 0.  1.
         -1    1    1    2    0  501 -0.20981370537E+02  0.35694265810E+01 -0.10821672935E+03  0.11028970589E+03  0.00000000000E+00 0. -1.
</event>
<event>
 4    1  0.6729064E+001  0.2062162E+02  0.7546771E-02  0.1524736E+00
          2   -1    0    0  502    0  0.00000000000E+00  0.00000000000E+00  0.19066798292E+01  0.19066798292E+01  0.00000000000E+00 0. -1.
         -2   -1    0    0    0  501 -0.00000000000E+00 -0.00000000000E+00 -0.27482920769E+03  0.27482920769E+03  0.00000000000E+00 0.  1.
          1    1    1    2  502    0  0.17334565497E+02 -0.11169784468E+02 -0.76391512859E+02  0.79125940645E+02  0.00000000000E+00 0. -1.
         -1    1    1    2    0  501 -0.17334565497E+02  0.11169784468E+02 -0.19653101500E+03  0.19760994687E+03  0.00000000000E+00 0.  1.
</event>
<event>
 4    1  0.6729064E+001  0.2386334E+02  0.7546771E-02  0.1481933E+00
          2   -1    0    0  502    0  0.00000000000E+00  0.00000000000E+00  0.33273731683E+02  0.33273731683E+02  0.00000000000E+00 0.  1.
         -2   -1    0    0    0  501 -0.00000000000E+00 -0.00000000000E+00 -0.17133862281E+02  0.17133862281E+02  0.00000000000E+00 0. -1.
          1    1    1    2  502    0  0.12067282064E+02  0.20587364151E+02  0.72197723274E+01  0.24931585821E+02  0.00000000000E+00 0. -1.
         -1    1    1    2    0  501 -0.12067282064E+02 -0.20587364151E+02  0.89200970740E+01  0.25476008143E+02  0.00000000000E+00 0.  1.
</event>
<event>
 4    1  0.6729064E+001  0.2120397E+02  0.7546771E-02  0.1516372E+00
          2   -1    0    0  502    0  0.00000000000E+00  0.00000000000E+00  0.89350003499E+00  0.89350003499E+00  0.00000000000E+00 0. -1.
         -2   -1    0    0    0  501 -0.00000000000E+00 -0.00000000000E+00 -0.50434698049E+03  0.50434698049E+03  0.00000000000E+00 0.  1.
          1    1    1    2  502    0  0.15633407812E+02  0.14324975958E+02 -0.26377875615E+03  0.26462962905E+03  0.00000000000E+00 0.  1.
         -1    1    1    2    0  501 -0.15633407812E+02 -0.14324975958E+02 -0.23967472431E+03  0.24061085147E+03  0.00000000000E+00 0. -1.
</event>
<event>
 4    1  0.6729064E+001  0.2374611E+02  0.7546771E-02  0.1483336E+00
          2   -1    0    0  502    0  0.00000000000E+00  0.00000000000E+00  0.22496294269E+04  0.22496294269E+04  0.00000000000E+00 0. -1.
         -2   -1    0    0    0  501 -0.00000000000E+00 -0.00000000000E+00 -0.25344080001E+00  0.25344080001E+00  0.00000000000E+00 0.  1.
          1    1    1    2  502    0 -0.17256118920E+02 -0.16312697468E+02  0.10067170987E+04  0.10069971175E+04  0.00000000000E+00 0. -1.
         -1    1    1    2    0  501  0.17256118920E+02  0.16312697468E+02  0.12426588874E+04  0.12428857502E+04  0.00000000000E+00 0.  1.
</event>
<event>
 4    1  0.6729064E+001  0.2111364E+02  0.7546771E-02  0.1517648E+00
          2   -1    0    0  502    0  0.00000000000E+00  0.00000000000E+00  0.83763450382E+02  0.83763450382E+02  0.00000000000E+00 0. -1.
         -2   -1    0    0    0  501 -0.00000000000E+00 -0.00000000000E+00 -0.53221678118E+01  0.53221678118E+01  0.00000000000E+00 0.  1.
          1    1    1    2  502    0 -0.57274492856E+01 -0.20321966395E+02  0.38944401194E+02  0.44299575368E+02  0.00000000000E+00 0.  1.
         -1    1    1    2    0  501  0.57274492856E+01  0.20321966395E+02  0.39496881377E+02  0.44786042825E+02  0.00000000000E+00 0. -1.
</event>
<event>
 4    1  0.6729064E+001  0.2128488E+02  0.7546771E-02  0.1515236E+00
          2   -1    0    0  502    0  0.00000000000E+00  0.00000000000E+00  0.47491931516E+02  0.47491931516E+02  0.00000000000E+00 0. -1.
         -2   -1    0    0    0  501 -0.00000000000E+00 -0.00000000000E+00 -0.10607191060E+02  0.10607191060E+02  0.00000000000E+00 0.  1.
          1    1    1    2  502    0  0.70238846683E+01 -0.20092565165E+02  0.92256654978E+01  0.23198254990E+02  0.00000000000E+00 0.  1.
         -1    1    1    2    0  501 -0.70238846683E+01  0.20092565165E+02  0.27659074958E+02  0.34900867586E+02  0.00000000000E+00 0. -1.
</event>
<event>
 4    1  0.6729064E+001  0.2053205E+02  0.7546771E-02  0.1526052E+00
          2   -1    0    0  502    0  0.00000000000E+00  0.00000000000E+00  0.13980958514E+04  0.13980958514E+04  0.00000000000E+00 0. -1.
         -2   -1    0    0    0  501 -0.00000000000E+00 -0.00000000000E+00 -0.17779838074E+01  0.17779838074E+01  0.00000000000E+00 0.  1.
          1    1    1    2  502    0 -0.12756657469E+02 -0.16088278699E+02  0.13359893546E+04  0.13361471179E+04  0.00000000000E+00 0. -1.
         -1    1    1    2    0  501  0.12756657469E+02  0.16088278699E+02  0.60328513020E+02  0.63726717352E+02  0.00000000000E+00 0.  1.
</event>
<event>
 4    1  0.6729064E+001  0.2648718E+02  0.7546771E-02  0.1452829E+00
          2   -1    0    0  502    0  0.00000000000E+00  0.00000000000E+00  0.48043711716E+03  0.48043711716E+03  0.00000000000E+00 0.  1.
         -2   -1    0    0    0  501 -0.00000000000E+00 -0.00000000000E+00 -0.14659407200E+01  0.14659407200E+01  0.00000000000E+00 0. -1.
          1    1    1    2  502    0 -0.25465457122E+02 -0.72856842134E+01  0.25446407535E+03  0.25583888748E+03  0.00000000000E+00 0.  1.
         -1    1    1    2    0  501  0.25465457122E+02  0.72856842134E+01  0.22450710109E+03  0.22606417041E+03  0.00000000000E+00 0. -1.
</event>
<event>
 4    1  0.6729064E+001  0.2195031E+02  0.7546771E-02  0.1506117E+00
          2   -1    0    0  502    0  0.00000000000E+00  0.00000000000E+00  0.46847093927E+03  0.46847093927E+03  0.00000000000E+00 0. -1.
         -2   -1    0    0    0  501 -0.00000000000E+00 -0.00000000000E+00 -0.10430400521E+01  0.10430400521E+01  0.00000000000E+00 0.  1.
          1    1    1    2  502    0  0.15421701602E+02 -0.15620093991E+02  0.26144375432E+03  0.26236358911E+03  0.00000000000E+00 0. -1.
         -1    1    1    2    0  501 -0.15421701602E+02  0.15620093991E+02  0.20598414490E+03  0.20715039021E+03  0.00000000000E+00 0.  1.
</event>
<event>
 4    1  0.6729064E+001  0.2220314E+02  0.7546771E-02  0.1502754E+00
          2   -1    0    0  502    0  0.00000000000E+00  0.00000000000E+00  0.21946858203E+02  0.21946858203E+02  0.00000000000E+00 0. -1.
         -2   -1    0    0    0  501 -0.00000000000E+00 -0.00000000000E+00 -0.42204621917E+02  0.42204621917E+02  0.00000000000E+00 0.  1.
          1    1    1    2  502    0 -0.10098589111E+02  0.19773672184E+02 -0.32066750886E+02  0.39003283530E+02  0.00000000000E+00 0.  1.
         -1    1    1    2    0  501  0.10098589111E+02 -0.19773672184E+02  0.11808987172E+02  0.25148196590E+02  0.00000000000E+00 0. -1.
</event>
<event>
 4    1  0.6729064E+001  0.2273019E+02  0.7546771E-02  0.1495914E+00
          2   -1    0    0  502    0  0.00000000000E+00  0.00000000000E+00  0.11059703414E+04  0.11059703414E+04  0.00000000000E+00 0. -1.
         -2   -1    0    0    0  501 -0.00000000000E+00 -0.00000000000E+00 -0.46860192403E+00  0.46860192403E+00  0.00000000000E+00 0.  1.
          1    1    1    2  502    0 -0.94296886977E+01 -0.20681934093E+02  0.52202764172E+03  0.52252226760E+03  0.00000000000E+00 0.  1.
         -1    1    1    2    0  501  0.94296886977E+01  0.20681934093E+02  0.58347409775E+03  0.58391667571E+03  0.00000000000E+00 0. -1.
</event>
<event>
 4    1  0.6729064E+001  0.7409469E+02  0.7546771E-02  0.1218263E+00
          2   -1    0    0  502    0  0.00000000000E+00  0.00000000000E+00  0.10559553141E+04  0.10559553141E+04  0.00000000000E+00 0. -1.
         -2   -1    0    0    0  501 -0.00000000000E+00 -0.00000000000E+00 -0.61071999041E+01  0.61071999041E+01  0.00000000000E+00 0.  1.
          1    1    1    2  502    0 -0.71581750648E+02  0.19133097010E+02  0.32015484236E+03  0.32861701951E+03  0.00000000000E+00 0.  1.
         -1    1    1    2    0  501  0.71581750648E+02 -0.19133097010E+02  0.72969327186E+03  0.73344549451E+03  0.00000000000E+00 0. -1.
</event>
<event>
 4    1  0.6729064E+001  0.2667013E+02  0.7546771E-02  0.1450950E+00
          2   -1    0    0  502    0  0.00000000000E+00  0.00000000000E+00  0.17088732587E+01  0.17088732587E+01  0.00000000000E+00 0. -1.
         -2   -1    0    0    0  501 -0.00000000000E+00 -0.00000000000E+00 -0.50870294022E+03  0.50870294022E+03  0.00000000000E+00 0.  1.
          1    1    1    2  502    0  0.23033896860E+02  0.13443779459E+02 -0.36230242371E+03  0.36328272989E+03  0.00000000000E+00 0. -1.
         -1    1    1    2    0  501 -0.23033896860E+02 -0.13443779459E+02 -0.14469164325E+03  0.14712908358E+03  0.00000000000E+00 0.  1.
</event>
<event>
 4    1  0.6729064E+001  0.2389677E+02  0.7546771E-02  0.1481534E+00
          2   -1    0    0  502    0  0.00000000000E+00  0.00000000000E+00  0.47701617636E+00  0.47701617636E+00  0.00000000000E+00 0. -1.
         -2   -1    0    0    0  501 -0.00000000000E+00 -0.00000000000E+00 -0.14782619053E+04  0.14782619053E+04  0.00000000000E+00 0.  1.
          1    1    1    2  502    0 -0.25712259856E+01  0.23758035917E+02 -0.41646453484E+03  0.41714957061E+03  0.00000000000E+00 0.  1.
         -1    1    1    2    0  501  0.25712259856E+01 -0.23758035917E+02 -0.10613203543E+04  0.10615893509E+04  0.00000000000E+00 0. -1.
</event>
<event>
 4    1  0.6729064E+001  0.3167008E+02  0.7546771E-02  0.1405618E+00
          2   -1    0    0  502    0  0.00000000000E+00  0.00000000000E+00  0.10840646911E+01  0.10840646911E+01  0.00000000000E+00 0.  1.
         -2   -1    0    0    0  501 -0.00000000000E+00 -0.00000000000E+00 -0.10561132100E+04  0.10561132100E+04  0.00000000000E+00 0. -1.
          1    1    1    2  502    0  0.25642442456E+02  0.18586538673E+02 -0.71360994422E+03  0.71431235938E+03  0.00000000000E+00 0.  1.
         -1    1    1    2    0  501 -0.25642442456E+02 -0.18586538673E+02 -0.34141920107E+03  0.34288491529E+03  0.00000000000E+00 0. -1.
</event>
<event>
 4    1  0.6729064E+001  0.2018741E+02  0.7546771E-02  0.1531190E+00
          2   -1    0    0  502    0  0.00000000000E+00  0.00000000000E+00  0.24974360985E+03  0.24974360985E+03  0.00000000000E+00 0.  1.
         -2   -1    0    0    0  501 -0.00000000000E+00 -0.00000000000E+00 -0.34885901421E+01  0.34885901421E+01  0.00000000000E+00 0. -1.
          1    1    1    2  502    0 -0.92482128845E+01  0.17944421834E+02  0.21550056859E+03  0.21644404999E+03  0.00000000000E+00 0.  1.
         -1    1    1    2    0  501  0.92482128845E+01 -0.17944421834E+02  0.30754451119E+02  0.36788149996E+02  0.00000000000E+00 0. -1.
</event>
<event>
 4    1  0.6729064E+001  0.2324921E+02  0.7546771E-02  0.1489392E+00
          2   -1    0    0  502    0  0.00000000000E+00  0.00000000000E+00  0.66675325774E+03  0.66675325774E+03  0.00000000000E+00 0.  1.
         -2   -1    0    0    0  501 -0.00000000000E+00 -0.00000000000E+00 -0.13054252728E+01  0.13054252728E+01  0.00000000000E+00 0. -1.
          1    1    1    2  502    0 -0.15011738809E+02  0.17753125657E+02  0.12708847837E+03  0.12919755070E+03  0.00000000000E+00 0. -1.
         -1    1    1    2    0  501  0.15011738809E+02 -0.17753125657E+02  0.53835935410E+03  0.53886113231E+03  0.00000000000E+00 0.  1.
</event>
<event>
 4    1  0.6729064E+001  0.2084199E+02  0.7546771E-02  0.1521533E+00
          2   -1    0    0  502    0  0.00000000000E+00  0.00000000000E+00  0.33247966247E+01  0.33247966247E+01  0.00000000000E+00 0. -1.
         -2   -1    0    0    0  501 -0.00000000000E+00 -0.00000000000E+00 -0.42194520344E+03  0.42194520344E+03  0.00000000000E+00 0.  1.
          1    1    1    2  502    0  0.24485878757E+01  0.20697658310E+02 -0.32636260049E+02  0.38723560168E+02  0.00000000000E+00 0. -1.
         -1    1    1    2    0  501 -0.24485878757E+01 -0.20697658310E+02 -0.38598414677E+03  0.38654643990E+03  0.00000000000E+00 0.  1.
</event>
<event>
 4    1  0.6729064E+001  0.2759113E+02  0.7546771E-02  0.1441759E+00
          2   -1    0    0  502    0  0.00000000000E+00  0.00000000000E+00  0.13387561994E+03  0.13387561994E+03  0.00000000000E+00 0. -1.
         -2   -1    0    0    0  501 -0.00000000000E+00 -0.00000000000E+00 -0.65535682342E+01  0.65535682342E+01  0.00000000000E+00 0.  1.
          1    1    1    2  502    0 -0.33437362740E+01  0.27387767137E+02  0.89202154822E+02  0.93371809375E+02  0.00000000000E+00 0. -1.
         -1    1    1    2    0  501  0.33437362740E+01 -0.27387767137E+02  0.38119896882E+02  0.47057378798E+02  0.00000000000E+00 0.  1.
</event>
<event>
 4    1  0.6729064E+001  0.2653246E+02  0.7546771E-02  0.1452362E+00
          2   -1    0    0  502    0  0.00000000000E+00  0.00000000000E+00  0.10532195416E+04  0.10532195416E+04  0.00000000000E+00 0.  1.
         -2   -1    0    0    0  501 -0.00000000000E+00 -0.00000000000E+00 -0.22313371031E+01  0.22313371031E+01  0.00000000000E+00 0. -1.
          1    1    1    2  502    0 -0.20439237291E+02  0.16917709018E+02  0.96716244528E+03  0.96752631327E+03  0.00000000000E+00 0.  1.
         -1    1    1    2    0  501  0.20439237291E+02 -0.16917709018E+02  0.83825759242E+02  0.87924565463E+02  0.00000000000E+00 0. -1.
</event>
<event>
 4    1  0.6729064E+001  0.4090993E+02  0.7546771E-02  0.1343235E+00
          2   -1    0    0  502    0  0.00000000000E+00  0.00000000000E+00  0.30477047756E+03  0.30477047756E+03  0.00000000000E+00 0.  1.
         -2   -1    0    0    0  501 -0.00000000000E+00 -0.00000000000E+00 -0.60269499123E+01  0.60269499123E+01  0.00000000000E+00 0. -1.
          1    1    1    2  502    0  0.36598044127E+02 -0.18281291062E+02  0.19569414118E+03  0.19992453409E+03  0.00000000000E+00 0. -1.
         -1    1    1    2    0  501 -0.36598044127E+02  0.18281291062E+02  0.10304938647E+03  0.11087289339E+03  0.00000000000E+00 0.  1.
</event>
<event>
 4    1  0.6729064E+001  0.2687256E+02  0.7546771E-02  0.1448893E+00
          2   -1    0    0  502    0  0.00000000000E+00  0.00000000000E+00  0.64572077162E+03  0.64572077162E+03  0.00000000000E+00 0.  1.
         -2   -1    0    0    0  501 -0.00000000000E+00 -0.00000000000E+00 -0.15655602761E+01  0.15655602761E+01  0.00000000000E+00 0. -1.
          1    1    1    2  502    0 -0.21306576698E+02  0.16375713942E+02  0.49505651392E+03  0.49578532268E+03  0.00000000000E+00 0. -1.
         -1    1    1    2    0  501  0.21306576698E+02 -0.16375713942E+02  0.14909869742E+03  0.15150100921E+03  0.00000000000E+00 0.  1.
</event>
<event>
 4    1  0.6729064E+001  0.2079029E+02  0.7546771E-02  0.1522280E+00
          2   -1    0    0  502    0  0.00000000000E+00  0.00000000000E+00  0.36534095807E+03  0.36534095807E+03  0.00000000000E+00 0. -1.
         -2   -1    0    0    0  501 -0.00000000000E+00 -0.00000000000E+00 -0.12656037702E+01  0.12656037702E+01  0.00000000000E+00 0.  1.
          1    1    1    2  502    0 -0.18423819326E+02  0.96332309499E+01  0.13523740387E+03  0.13682613662E+03  0.00000000000E+00 0.  1.
         -1    1    1    2    0  501  0.18423819326E+02 -0.96332309499E+01  0.22883795043E+03  0.22978042522E+03  0.00000000000E+00 0. -1.
</event>
<event>
 4    1  0.6729064E+001  0.2455219E+02  0.7546771E-02  0.1473876E+00
          2   -1    0    0  502    0  0.00000000000E+00  0.00000000000E+00  0.38688717030E+01  0.38688717030E+01  0.00000000000E+00 0. -1.
         -2   -1    0    0    0  501 -0.00000000000E+00 -0.00000000000E+00 -0.21368536551E+03  0.21368536551E+03  0.00000000000E+00 0.  1.
          1    1    1    2  502    0  0.24521750265E+02 -0.12221512515E+01 -0.48297866372E+02  0.54180197359E+02  0.00000000000E+00 0. -1.
         -1    1    1    2    0  501 -0.24521750265E+02  0.12221512515E+01 -0.16151862744E+03  0.16337403985E+03  0.00000000000E+00 0.  1.
</event>
<event>
 4    1  0.6729064E+001  0.2113539E+02  0.7546771E-02  0.1517341E+00
          2   -1    0    0  502    0  0.00000000000E+00  0.00000000000E+00  0.50094786373E+03  0.50094786373E+03  0.00000000000E+00 0.  1.
         -2   -1    0    0    0  501 -0.00000000000E+00 -0.00000000000E+00 -0.23319332650E+01  0.23319332650E+01  0.00000000000E+00 0. -1.
          1    1    1    2  502    0  0.14146045993E+02  0.15703308123E+02  0.44706642196E+03  0.44756573835E+03  0.00000000000E+00 0.  1.
         -1    1    1    2    0  501 -0.14146045993E+02 -0.15703308123E+02  0.51549508501E+02  0.55714058638E+02  0.00000000000E+00 0. -1.
</event>
<event>
 4    1  0.6729064E+001  0.3077031E+02  0.7546771E-02  0.1413018E+00
          2   -1    0    0  502    0  0.00000000000E+00  0.00000000000E+00  0.20014136513E+02  0.20014136513E+02  0.00000000000E+00 0.  1.
         -2   -1    0    0    0  501 -0.00000000000E+00 -0.00000000000E+00 -0.52242144711E+02  0.52242144711E+02  0.00000000000E+00 0. -1.
          1    1    1    2  502    0  0.42767582277E+01 -0.30471651722E+02 -0.27217952703E+02  0.41080763977E+02  0.00000000000E+00 0. -1.
         -1    1    1    2    0  501 -0.42767582277E+01  0.30471651722E+02 -0.50100554955E+01  0.31175517248E+02  0.00000000000E+00 0.  1.
</event>
<event>
 4    1  0.6729064E+001  0.3605297E+02  0.7546771E-02  0.1373308E+00
          2   -1    0    0  502    0  0.00000000000E+00  0.00000000000E+00  0.55744892874E+03  0.55744892874E+03  0.00000000000E+00 0. -1.
         -2   -1    0    0    0  501 -0.00000000000E+00 -0.00000000000E+00 -0.30717900124E+01  0.30717900124E+01  0.00000000000E+00 0.  1.
          1    1    1    2  502    0  0.30583641296E+02  0.19090765775E+02  0.41475151114E+03  0.41631554432E+03  0.00000000000E+00 0. -1.
         -1    1    1    2    0  501 -0.30583641296E+02 -0.19090765775E+02  0.13962562759E+03  0.14420517443E+03  0.00000000000E+00 0.  1.
</event>
<event>
 4    1  0.6729064E+001  0.2549136E+02  0.7546771E-02  0.1463381E+00
          2   -1    0    0  502    0  0.00000000000E+00  0.00000000000E+00  0.97447985253E+01  0.97447985253E+01  0.00000000000E+00 0.  1.
         -2   -1    0    0    0  501 -0.00000000000E+00 -0.00000000000E+00 -0.88800671858E+02  0.88800671858E+02  0.00000000000E+00 0. -1.
          1    1    1    2  502    0  0.22960035882E+02  0.11074582149E+02 -0.14937227466E+02  0.29545395273E+02  0.00000000000E+00 0.  1.
         -1    1    1    2    0  501 -0.22960035882E+02 -0.11074582149E+02 -0.64118645866E+02  0.69000075110E+02  0.00000000000E+00 0. -1.
</event>
<event>
 4    1  0.6729064E+001  0.2066974E+02  0.7546771E-02  0.1524033E+00
          2   -1    0    0  502    0  0.00000000000E+00  0.00000000000E+00  0.83340022505E+03  0.83340022505E+03  0.00000000000E+00 0. -1.
         -2   -1    0    0    0  501 -0.00000000000E+00 -0.00000000000E+00 -0.62740411632E+00  0.62740411632E+00  0.00000000000E+00 0.  1.
          1    1    1    2  502    0 -0.16669032093E+02  0.12222169976E+02  0.23803717982E+03  0.23893291328E+03  0.00000000000E+00 0.  1.
         -1    1    1    2    0  501  0.16669032093E+02 -0.12222169976E+02  0.59473564111E+03  0.59509471589E+03  0.00000000000E+00 0. -1.
</event>
<event>
 4    1  0.6729064E+001  0.3918694E+02  0.7546771E-02  0.1353317E+00
          2   -1    0    0  502    0  0.00000000000E+00  0.00000000000E+00  0.14963491659E+02  0.14963491659E+02  0.00000000000E+00 0. -1.
         -2   -1    0    0    0  501 -0.00000000000E+00 -0.00000000000E+00 -0.24858585105E+03  0.24858585105E+03  0.00000000000E+00 0.  1.
          1    1    1    2  502    0  0.32405469761E+02  0.22034103681E+02 -0.15836347793E+02  0.42265897682E+02  0.00000000000E+00 0. -1.
         -1    1    1    2    0  501 -0.32405469761E+02 -0.22034103681E+02 -0.21778601160E+03  0.22128344503E+03  0.00000000000E+00 0.  1.
</event>
<event>
 4    1  0.6729064E+001  0.2382333E+02  0.7546771E-02  0.1482410E+00
          2   -1    0    0  502    0  0.00000000000E+00  0.00000000000E+00  0.10436123104E+04  0.10436123104E+04  0.00000000000E+00 0. -1.
         -2   -1    0    0    0  501 -0.00000000000E+00 -0.00000000000E+00 -0.57176212597E+00  0.57176212597E+00  0.00000000000E+00 0.  1.
          1    1    1    2  502    0 -0.13406414901E+02 -0.19693124197E+02  0.63690967193E+03  0.63735506690E+03  0.00000000000E+00 0. -1.
         -1    1    1    2    0  501  0.13406414901E+02  0.19693124197E+02  0.40613087630E+03  0.40682900558E+03  0.00000000000E+00 0.  1.
</event>
<event>
 4    1  0.6729064E+001  0.2364487E+02  0.7546771E-02  0.1484555E+00
          2   -1    0    0  502    0  0.00000000000E+00  0.00000000000E+00  0.15829425740E+04  0.15829425740E+04  0.00000000000E+00 0. -1.
         -2   -1    0    0    0  501 -0.00000000000E+00 -0.00000000000E+00 -0.37927092422E+00  0.37927092422E+00  0.00000000000E+00 0.  1.
          1    1    1    2  502    0  0.16791162516E+02  0.16647419334E+02  0.58368289060E+03  0.58416161847E+03  0.00000000000E+00 0. -1.
         -1    1    1    2    0  501 -0.16791162516E+02 -0.16647419334E+02  0.99888041250E+03  0.99916022648E+03  0.00000000000E+00 0.  1.
</event>
<event>
 4    1  0.6729064E+001  0.3395311E+02  0.7546771E-02  0.1388076E+00
          2   -1    0    0  502    0  0.00000000000E+00  0.00000000000E+00  0.10145314178E+03  0.10145314178E+03  0.00000000000E+00 0. -1.
         -2   -1    0    0    0  501 -0.00000000000E+00 -0.00000000000E+00 -0.21107177212E+02  0.21107177212E+02  0.00000000000E+00 0.  1.
          1    1    1    2  502    0 -0.32534823085E+02 -0.97107677227E+01  0.81809751962E+02  0.88575669565E+02  0.00000000000E+00 0. -1.
         -1    1    1    2    0  501  0.32534823085E+02  0.97107677227E+01 -0.14637873957E+01  0.33984649424E+02  0.00000000000E+00 0.  1.
</event>
<event>
 4    1  0.6729064E+001  0.2016982E+02  0.7546771E-02  0.1531455E+00
          2   -1    0    0  502    0  0.00000000000E+00  0.00000000000E+00  0.35500527605E+02  0.35500527605E+02  0.00000000000E+00 0.  1.
         -2   -1    0    0    0  501 -0.00000000000E+00 -0.00000000000E+00 -0.11508031340E+02  0.11508031340E+02  0.00000000000E+00 0. -1.
          1    1    1    2  502    0  0.19619773509E+02 -0.46782742041E+01  0.13521074124E+02  0.24282528853E+02  0.00000000000E+00 0. -1.
         -1    1    1    2    0  501 -0.19619773509E+02  0.46782742041E+01  0.10471422141E+02  0.22726030092E+02  0.00000000000E+00 0.  1.
</event>
<event>
 4    1  0.6729064E+001  0.2028266E+02  0.7546771E-02  0.1529758E+00
          2   -1    0    0  502    0  0.00000000000E+00  0.00000000000E+00  0.36756385404E+01  0.36756385404E+01  0.00000000000E+00 0.  1.
         -2   -1    0    0    0  501 -0.00000000000E+00 -0.00000000000E+00 -0.11487257528E+03  0.11487257528E+03  0.00000000000E+00 0. -1.
          1    1    1    2  502    0  0.17057038986E+02  0.10974692834E+02 -0.46099482321E+02  0.50364161186E+02  0.00000000000E+00 0.  1.
         -1    1    1    2    0  501 -0.17057038986E+02 -0.10974692834E+02 -0.65097454419E+02  0.68184052634E+02  0.00000000000E+00 0. -1.
</event>
<event>
 4    1  0.6729064E+001  0.2980551E+02  0.7546771E-02  0.1421294E+00
          2   -1    0    0  502    0  0.00000000000E+00  0.00000000000E+00  0.19392918729E+04  0.19392918729E+04  0.00000000000E+00 0.  1.
         -2   -1    0    0    0  501 -0.00000000000E+00 -0.00000000000E+00 -0.47571234862E+00  0.47571234862E+00  0.00000000000E+00 0. -1.
          1    1    1    2  502    0 -0.15798323719E+02 -0.25274120411E+02  0.11560856822E+04  0.11564698322E+04  0.00000000000E+00 0.  1.
         -1    1    1    2    0  501  0.15798323719E+02  0.25274120411E+02  0.78273047836E+03  0.78329775306E+03  0.00000000000E+00 0. -1.
</event>
<event>
 4    1  0.6729064E+001  0.2434599E+02  0.7546771E-02  0.1476254E+00
          2   -1    0    0  502    0  0.00000000000E+00  0.00000000000E+00  0.45174844009E+01  0.45174844009E+01  0.00000000000E+00 0.  1.
         -2   -1    0    0    0  501 -0.00000000000E+00 -0.00000000000E+00 -0.13454307559E+03  0.13454307559E+03  0.00000000000E+00 0. -1.
          1    1    1    2  502    0  0.17714298931E+02 -0.16701221113E+02 -0.75960882220E+02  0.79767053355E+02  0.00000000000E+00 0. -1.
         -1    1    1    2    0  501 -0.17714298931E+02  0.16701221113E+02 -0.54064708971E+02  0.59293506637E+02  0.00000000000E+00 0.  1.
</event>
<event>
 4    1  0.6729064E+001  0.2979985E+02  0.7546771E-02  0.1421344E+00
          2   -1    0    0  502    0  0.00000000000E+00  0.00000000000E+00  0.31118576537E+02  0.31118576537E+02  0.00000000000E+00 0.  1.
         -2   -1    0    0    0  501 -0.00000000000E+00 -0.00000000000E+00 -0.30179993716E+02  0.30179993716E+02  0.00000000000E+00 0. -1.
          1    1    1    2  502    0 -0.26512267388E+02  0.13606278120E+02  0.76204666627E+01  0.30758781486E+02  0.00000000000E+00 0.  1.
         -1    1    1    2    0  501  0.26512267388E+02 -0.13606278120E+02 -0.66818838413E+01  0.30539788768E+02  0.00000000000E+00 0. -1.
</event>
<event>
 4    1  0.6729064E+001  0.3179582E+02  0.7546771E-02  0.1404607E+00
          2   -1    0    0  502    0  0.00000000000E+00  0.00000000000E+00  0.49515066408E+03  0.49515066408E+03  0.00000000000E+00 0. -1.
         -2   -1    0    0    0  501 -0.00000000000E+00 -0.00000000000E+00 -0.20512566817E+01  0.20512566817E+01  0.00000000000E+00 0.  1.
          1    1    1    2  502    0  0.64919239475E+01 -0.31126016528E+02  0.26347366641E+03  0.26538528006E+03  0.00000000000E+00 0.  1.
         -1    1    1    2    0  501 -0.64919239475E+01  0.31126016528E+02  0.22962574099E+03  0.23181664070E+03  0.00000000000E+00 0. -1.
</event>
<event>
 4    1  0.6729064E+001  0.2726420E+02  0.7546771E-02  0.1444972E+00
          2   -1    0    0  502    0  0.00000000000E+00  0.00000000000E+00  0.78697907058E+03  0.78697907058E+03  0.00000000000E+00 0. -1.
         -2   -1    0    0    0  501 -0.00000000000E+00 -0.00000000000E+00 -0.36871788811E+01  0.36871788811E+01  0.00000000000E+00 0.  1.
          1    1    1    2  502    0  0.25141575211E+02 -0.10546944416E+02  0.73260329076E+03  0.73311044084E+03  0.00000000000E+00 0. -1.
         -1    1    1    2    0  501 -0.25141575211E+02  0.10546944416E+02  0.50688600943E+02  0.57555808622E+02  0.00000000000E+00 0.  1.
</event>
<event>
 4    1  0.6729064E+001  0.2615498E+02  0.7546771E-02  0.1456286E+00
          2   -1    0    0  502    0  0.00000000000E+00  0.00000000000E+00  0.19662342045E+02  0.19662342045E+02  0.00000000000E+00 0.  1.
         -2   -1    0    0    0  501 -0.00000000000E+00 -0.00000000000E+00 -0.14036460958E+03  0.14036460958E+03  0.00000000000E+00 0. -1.
          1    1    1    2  502    0  0.10823849853E+02 -0.23810238642E+02 -0.12974337220E+03  0.13235341258E+03  0.00000000000E+00 0. -1.
         -1    1    1    2    0  501 -0.10823849853E+02  0.23810238642E+02  0.90411046686E+01  0.27673539048E+02  0.00000000000E+00 0.  1.
</event>
<event>
 4    1  0.6729064E+001  0.2028415E+02  0.7546771E-02  0.1529735E+00
          2   -1    0    0  502    0  0.00000000000E+00  0.00000000000E+00  0.26206356160E+03  0.26206356160E+03  0.00000000000E+00 0.  1.
         -2   -1    0    0    0  501 -0.00000000000E+00 -0.00000000000E+00 -0.22178542232E+01  0.22178542232E+01  0.00000000000E+00 0. -1.
          1    1    1    2  502    0  0.10337252067E+02 -0.17452453785E+02  0.58506173844E+02  0.61922688098E+02  0.00000000000E+00 0. -1.
         -1    1    1    2    0  501 -0.10337252067E+02  0.17452453785E+02  0.20133953353E+03  0.20235872773E+03  0.00000000000E+00 0.  1.
</event>
<event>
 4    1  0.6729064E+001  0.2858509E+02  0.7546771E-02  0.1432304E+00
          2   -1    0    0  502    0  0.00000000000E+00  0.00000000000E+00  0.33473965275E+02  0.33473965275E+02  0.00000000000E+00 0. -1.
         -2   -1    0    0    0  501 -0.00000000000E+00 -0.00000000000E+00 -0.29371521339E+02  0.29371521339E+02  0.00000000000E+00 0.  1.
          1    1    1    2  502    0 -0.27192040485E+02 -0.88147658777E+01 -0.10863298319E+02  0.30579705911E+02  0.00000000000E+00 0.  1.
         -1    1    1    2    0  501  0.27192040485E+02  0.88147658777E+01  0.14965742255E+02  0.32265780704E+02  0.00000000000E+00 0. -1.
</event>
<event>
 4    1  0.6729064E+001  0.2081559E+02  0.7546771E-02  0.1521914E+00
          2   -1    0    0  502    0  0.00000000000E+00  0.00000000000E+00  0.36339243589E+03  0.36339243589E+03  0.00000000000E+00 0. -1.
         -2   -1    0    0    0  501 -0.00000000000E+00 -0.00000000000E+00 -0.15695481997E+01  0.15695481997E+01  0.00000000000E+00 0.  1.
          1    1    1    2  502    0  0.16315911510E+02 -0.12925937303E+02  0.27036930537E+03  0.27116941219E+03  0.00000000000E+00 0. -1.
         -1    1    1    2    0  501 -0.16315911510E+02  0.12925937303E+02  0.91453582327E+02  0.93792571902E+02  0.00000000000E+00 0.  1.
</event>
<event>
 4    1  0.6729064E+001  0.2872342E+02  0.7546771E-02  0.1431024E+00
          2   -1    0    0  502    0  0.00000000000E+00  0.00000000000E+00  0.58734220729E+03  0.58734220729E+03  0.00000000000E+00 0. -1.
         -2   -1    0    0    0  501 -0.00000000000E+00 -0.00000000000E+00 -0.14892727366E+01  0.14892727366E+01  0.00000000000E+00 0.  1.
          1    1    1    2  502    0 -0.25501448075E+02  0.13217835597E+02  0.22276332034E+03  0.22460750638E+03  0.00000000000E+00 0.  1.
         -1    1    1    2    0  501  0.25501448075E+02 -0.13217835597E+02  0.36308961421E+03  0.36422397365E+03  0.00000000000E+00 0. -1.
</event>
<event>
 4    1  0.6729064E+001  0.2623909E+02  0.7546771E-02  0.1455405E+00
          2   -1    0    0  502    0  0.00000000000E+00  0.00000000000E+00  0.46574782552E+01  0.46574782552E+01  0.00000000000E+00 0.  1.
         -2   -1    0    0    0  501 -0.00000000000E+00 -0.00000000000E+00 -0.14879360183E+03  0.14879360183E+03  0.00000000000E+00 0. -1.
          1    1    1    2  502    0 -0.90107776482E+01 -0.24643371564E+02 -0.78259754080E+02  0.82541377409E+02  0.00000000000E+00 0.  1.
         -1    1    1    2    0  501  0.90107776482E+01  0.24643371564E+02 -0.65876369496E+02  0.70909702678E+02  0.00000000000E+00 0. -1.
</event>
<event>
 4    1  0.6729064E+001  0.4744207E+02  0.7546771E-02  0.1309661E+00
          2   -1    0    0  502    0  0.00000000000E+00  0.00000000000E+00  0.20320326545E+03  0.20320326545E+03  0.00000000000E+00 0. -1.
         -2   -1    0    0    0  501 -0.00000000000E+00 -0.00000000000E+00 -0.11857548235E+02  0.11857548235E+02  0.00000000000E+00 0.  1.
          1    1    1    2  502    0  0.16182324871E+02 -0.44596888746E+02  0.68072484715E+02  0.82973569884E+02  0.00000000000E+00 0. -1.
         -1    1    1    2    0  501 -0.16182324871E+02  0.44596888746E+02  0.12327323250E+03  0.13208724381E+03  0.00000000000E+00 0.  1.
</event>
<event>
 4    1  0.6729064E+001  0.2017308E+02  0.7546771E-02  0.1531406E+00
          2   -1    0    0  502    0  0.00000000000E+00  0.00000000000E+00  0.58261625540E+01  0.58261625540E+01  0.00000000000E+00 0.  1.
         -2   -1    0    0    0  501 -0.00000000000E+00 -0.00000000000E+00 -0.10375024386E+03  0.10375024386E+03  0.00000000000E+00 0. -1.
          1    1    1    2  502    0  0.18685494596E+02  0.76029959711E+01 -0.17643716005E+02  0.26800260642E+02  0.00000000000E+00 0.  1.
         -1    1    1    2    0  501 -0.18685494596E+02 -0.76029959711E+01 -0.80280365304E+02  0.82776145775E+02  0.00000000000E+00 0. -1.
</event>
<event>
 4    1  0.6729064E+001  0.2565563E+02  0.7546771E-02  0.1461601E+00
          2   -1    0    0  502    0  0.00000000000E+00  0.00000000000E+00  0.25632163672E+03  0.25632163672E+03  0.00000000000E+00 0.  1.
         -2   -1    0    0    0  501 -0.00000000000E+00 -0.00000000000E+00 -0.26767207856E+01  0.26767207856E+01  0.00000000000E+00 0. -1.
          1    1    1    2  502    0 -0.25126693268E+01 -0.25532289592E+02  0.10071298267E+03  0.10392938082E+03  0.00000000000E+00 0. -1.
         -1    1    1    2    0  501  0.25126693268E+01  0.25532289592E+02  0.15293193326E+03  0.15506897669E+03  0.00000000000E+00 0.  1.
</event>
<event>
 4    1  0.6729064E+001  0.4683163E+02  0.7546771E-02  0.1312526E+00
          2   -1    0    0  502    0  0.00000000000E+00  0.00000000000E+00  0.81411020552E+03  0.81411020552E+03  0.00000000000E+00 0. -1.
         -2   -1    0    0    0  501 -0.00000000000E+00 -0.00000000000E+00 -0.27738401880E+01  0.27738401880E+01  0.00000000000E+00 0.  1.
          1    1    1    2  502    0  0.25448164016E+01 -0.46762438375E+02  0.33636746101E+03  0.33961194113E+03  0.00000000000E+00 0.  1.
         -1    1    1    2    0  501 -0.25448164016E+01  0.46762438375E+02  0.47496890432E+03  0.47727210457E+03  0.00000000000E+00 0. -1.
</event>
<event>
 4    1  0.6729064E+001  0.2788673E+02  0.7546771E-02  0.1438899E+00
          2   -1    0    0  502    0  0.00000000000E+00  0.00000000000E+00  0.10049070575E+04  0.10049070575E+04  0.00000000000E+00 0. -1.
         -2   -1    0    0    0  501 -0.00000000000E+00 -0.00000000000E+00 -0.78785430927E+00  0.78785430927E+00  0.00000000000E+00 0.  1.
          1    1    1    2  502    0  0.27460369001E+02 -0.48577344521E+01  0.56904845063E+03  0.56973134775E+03  0.00000000000E+00 0.  1.
         -1    1    1    2    0  501 -0.27460369001E+02  0.48577344521E+01  0.43507075260E+03  0.43596356409E+03  0.00000000000E+00 0. -1.
</event>
<event>
 4    1  0.6729064E+001  0.2017259E+02  0.7546771E-02  0.1531414E+00
          2   -1    0    0  502    0  0.00000000000E+00  0.00000000000E+00  0.31558647957E+03  0.31558647957E+03  0.00000000000E+00 0. -1.
         -2   -1    0    0    0  501 -0.00000000000E+00 -0.00000000000E+00 -0.13027393969E+01  0.13027393969E+01  0.00000000000E+00 0.  1.
          1    1    1    2  502    0  0.17671081350E+02  0.97296636496E+01  0.17314394251E+03  0.17431511208E+03  0.00000000000E+00 0. -1.
         -1    1    1    2    0  501 -0.17671081350E+02 -0.97296636496E+01  0.14113979767E+03  0.14257410689E+03  0.00000000000E+00 0.  1.
</event>
<event>
 4    1  0.6729064E+001  0.2245106E+02  0.7546771E-02  0.1499509E+00
          2   -1    0    0  502    0  0.00000000000E+00  0.00000000000E+00  0.25264624728E+02  0.25264624728E+02  0.00000000000E+00 0. -1.
         -2   -1    0    0    0  501 -0.00000000000E+00 -0.00000000000E+00 -0.20096813383E+02  0.20096813383E+02  0.00000000000E+00 0.  1.
          1    1    1    2  502    0  0.19186898136E+02 -0.11658178708E+02  0.65083643546E+00  0.22460493738E+02  0.00000000000E+00 0. -1.
         -1    1    1    2    0  501 -0.19186898136E+02  0.11658178708E+02  0.45169749089E+01  0.22900944374E+02  0.00000000000E+00 0.  1.
</event>
<event>
 4    1  0.6729064E+001  0.2013248E+02  0.7546771E-02  0.1532020E+00
          2   -1    0    0  502    0  0.00000000000E+00  0.00000000000E+00  0.14528431398E+02  0.14528431398E+02  0.00000000000E+00 0.  1.
         -2   -1    0    0    0  501 -0.00000000000E+00 -0.00000000000E+00 -0.42947107720E+02  0.42947107720E+02  0.00000000000E+00 0. -1.
          1    1    1    2  502    0  0.17043177437E+02 -0.10716663468E+02 -0.31220692719E+02  0.37149003040E+02  0.00000000000E+00 0. -1.
         -1    1    1    2    0  501 -0.17043177437E+02  0.10716663468E+02  0.28020163976E+01  0.20326536078E+02  0.00000000000E+00 0.  1.
</event>
<event>
 4    1  0.6729064E+001  0.2495746E+02  0.7546771E-02  0.1469280E+00
          2   -1    0    0  502    0  0.00000000000E+00  0.00000000000E+00  0.12033952177E+04  0.12033952177E+04  0.00000000000E+00 0.  1.
         -2   -1    0    0    0  501 -0.00000000000E+00 -0.00000000000E+00 -0.70880729235E+00  0.70880729235E+00  0.00000000000E+00 0. -1.
          1    1    1    2  502    0 -0.24196707123E+02  0.61150773151E+01  0.91404081691E+03  0.91438147935E+03  0.00000000000E+00 0.  1.
         -1    1    1    2    0  501  0.24196707123E+02 -0.61150773151E+01  0.28864559351E+03  0.28972254565E+03  0.00000000000E+00 0. -1.
</event>
<event>
 4    1  0.6729064E+001  0.2844664E+02  0.7546771E-02  0.1433594E+00
          2   -1    0    0  502    0  0.00000000000E+00  0.00000000000E+00  0.82059942334E+03  0.82059942334E+03  0.00000000000E+00 0. -1.
         -2   -1    0    0    0  501 -0.00000000000E+00 -0.00000000000E+00 -0.10456983720E+01  0.10456983720E+01  0.00000000000E+00 0.  1.
          1    1    1    2  502    0 -0.15615941864E+02 -0.23777172526E+02  0.31171814927E+03  0.31301344405E+03  0.00000000000E+00 0.  1.
         -1    1    1    2    0  501  0.15615941864E+02  0.23777172526E+02  0.50783557570E+03  0.50863167766E+03  0.00000000000E+00 0. -1.
</event>
<event>
 4    1  0.6729064E+001  0.2814671E+02  0.7546771E-02  0.1436417E+00
          2   -1    0    0  502    0  0.00000000000E+00  0.00000000000E+00  0.21228030425E+04  0.21228030425E+04  0.00000000000E+00 0.  1.
         -2   -1    0    0    0  501 -0.00000000000E+00 -0.00000000000E+00 -0.48869342805E+00  0.48869342805E+00  0.00000000000E+00 0. -1.
          1    1    1    2  502    0  0.27295155260E+02  0.68710678702E+01  0.54505715059E+03  0.54578341353E+03  0.00000000000E+00 0. -1.
         -1    1    1    2    0  501 -0.27295155260E+02 -0.68710678702E+01  0.15772571984E+04  0.15775083224E+04  0.00000000000E+00 0.  1.
</event>
<event>
 4    1  0.6729064E+001  0.4089266E+02  0.7546771E-02  0.1343333E+00
          2   -1    0    0  502    0  0.00000000000E+00  0.00000000000E+00  0.62046494553E+03  0.62046494553E+03  0.00000000000E+00 0.  1.
         -2   -1    0    0    0  501 -0.00000000000E+00 -0.00000000000E+00 -0.37978210626E+01  0.37978210626E+01  0.00000000000E+00 0. -1.
          1    1    1    2  502    0 -0.40411929442E+02 -0.62518385487E+01  0.14014177576E+03  0.14598605015E+03  0.00000000000E+00 0. -1.
         -1    1    1    2    0  501  0.40411929442E+02  0.62518385487E+01  0.47652534871E+03  0.47827671644E+03  0.00000000000E+00 0.  1.
</event>
<event>
 4    1  0.6729064E+001  0.4013291E+02  0.7546771E-02  0.1347709E+00
          2   -1    0    0  502    0  0.00000000000E+00  0.00000000000E+00  0.24622705113E+03  0.24622705113E+03  0.00000000000E+00 0.  1.
         -2   -1    0    0    0  501 -0.00000000000E+00 -0.00000000000E+00 -0.66156351854E+01  0.66156351854E+01  0.00000000000E+00 0. -1.
          1    1    1    2  502    0 -0.13771343959E+02 -0.37696162451E+02  0.13320450376E+03  0.13911897929E+03  0.00000000000E+00 0. -1.
         -1    1    1    2    0  501  0.13771343959E+02  0.37696162451E+02  0.10640691219E+03  0.11372370703E+03  0.00000000000E+00 0.  1.
</event>
<event>
 4    1  0.6729064E+001  0.2659288E+02  0.7546771E-02  0.1451741E+00
          2   -1    0    0  502    0  0.00000000000E+00  0.00000000000E+00  0.40340882871E+03  0.40340882871E+03  0.00000000000E+00 0. -1.
         -2   -1    0    0    0  501 -0.00000000000E+00 -0.00000000000E+00 -0.17761756658E+01  0.17761756658E+01  0.00000000000E+00 0.  1.
          1    1    1    2  502    0  0.12402401928E+02 -0.23523640532E+02  0.17768144244E+03  0.17966044702E+03  0.00000000000E+00 0.  1.
         -1    1    1    2    0  501 -0.12402401928E+02  0.23523640532E+02  0.22395121061E+03  0.22552455736E+03  0.00000000000E+00 0. -1.
</event>
<event>
 4    1  0.6729064E+001  0.5393115E+02  0.7546771E-02  0.1281972E+00
          2   -1    0    0  502    0  0.00000000000E+00  0.00000000000E+00  0.26472676943E+03  0.26472676943E+03  0.00000000000E+00 0. -1.
         -2   -1    0    0    0  501 -0.00000000000E+00 -0.00000000000E+00 -0.11298397950E+02  0.11298397950E+02  0.00000000000E+00 0.  1.
          1    1    1    2  502    0  0.11132181998E+01  0.53919661075E+02  0.14962422014E+03  0.15904708850E+03  0.00000000000E+00 0.  1.
         -1    1    1    2    0  501 -0.11132181998E+01 -0.53919661075E+02  0.10380415134E+03  0.11697807889E+03  0.00000000000E+00 0. -1.
</event>
<event>
 4    1  0.6729064E+001  0.2297569E+02  0.7546771E-02  0.1492804E+00
          2   -1    0    0  502    0  0.00000000000E+00  0.00000000000E+00  0.22774709268E+02  0.22774709268E+02  0.00000000000E+00 0. -1.
         -2   -1    0    0    0  501 -0.00000000000E+00 -0.00000000000E+00 -0.24891988290E+02  0.24891988290E+02  0.00000000000E+00 0.  1.
          1    1    1    2  502    0 -0.92327037165E+01 -0.21039005131E+02 -0.73118299301E+01  0.24111105569E+02  0.00000000000E+00 0.  1.
         -1    1    1    2    0  501  0.92327037165E+01  0.21039005131E+02  0.51945509089E+01  0.23555591989E+02  0.00000000000E+00 0. -1.
</event>
<event>
 4    1  0.6729064E+001  0.2139622E+02  0.7546771E-02  0.1513682E+00
          2   -1    0    0  502    0  0.00000000000E+00  0.00000000000E+00  0.98835807879E+02  0.98835807879E+02  0.00000000000E+00 0. -1.
         -2   -1    0    0    0  501 -0.00000000000E+00 -0.00000000000E+00 -0.99537287715E+01  0.99537287715E+01  0.00000000000E+00 0.  1.
          1    1    1    2  502    0  0.67449785530E+01  0.20305253506E+02  0.46674780214E+01  0.21899392838E+02  0.00000000000E+00 0.  1.
         -1    1    1    2    0  501 -0.67449785530E+01 -0.20305253506E+02  0.84214601086E+02  0.86890143812E+02  0.00000000000E+00 0. -1.
</event>
<event>
 4    1  0.6729064E+001  0.2108447E+02  0.7546771E-02  0.1518062E+00
          2   -1    0    0  502    0  0.00000000000E+00  0.00000000000E+00  0.78824913367E+02  0.78824913367E+02  0.00000000000E+00 0. -1.
         -2   -1    0    0    0  501 -0.00000000000E+00 -0.00000000000E+00 -0.60422798193E+01  0.60422798193E+01  0.00000000000E+00 0.  1.
          1    1    1    2  502    0 -0.18620757789E+02 -0.98905168229E+01  0.25439307071E+02  0.33041084848E+02  0.00000000000E+00 0.  1.
         -1    1    1    2    0  501  0.18620757789E+02  0.98905168229E+01  0.47343326477E+02  0.51826108339E+02  0.00000000000E+00 0. -1.
</event>
<event>
 4    1  0.6729064E+001  0.2785037E+02  0.7546771E-02  0.1439248E+00
          2   -1    0    0  502    0  0.00000000000E+00  0.00000000000E+00  0.78267229697E+03  0.78267229697E+03  0.00000000000E+00 0. -1.
         -2   -1    0    0    0  501 -0.00000000000E+00 -0.00000000000E+00 -0.11608427341E+01  0.11608427341E+01  0.00000000000E+00 0.  1.
          1    1    1    2  502    0  0.33346731293E+00 -0.27848368988E+02  0.54065742489E+03  0.54137426421E+03  0.00000000000E+00 0. -1.
         -1    1    1    2    0  501 -0.33346731293E+00  0.27848368988E+02  0.24085402934E+03  0.24245887549E+03  0.00000000000E+00 0.  1.
</event>
<event>
 4    1  0.6729064E+001  0.2369766E+02  0.7546771E-02  0.1483919E+00
          2   -1    0    0  502    0  0.00000000000E+00  0.00000000000E+00  0.11515943837E+03  0.11515943837E+03  0.00000000000E+00 0.  1.
         -2   -1    0    0    0  501 -0.00000000000E+00 -0.00000000000E+00 -0.87152821122E+01  0.87152821122E+01  0.00000000000E+00 0. -1.
          1    1    1    2  502    0  0.14314636627E+02 -0.18885717394E+02  0.12115941291E+02  0.26615318458E+02  0.00000000000E+00 0. -1.
         -1    1    1    2    0  501 -0.14314636627E+02  0.18885717394E+02  0.94328214967E+02  0.97259402025E+02  0.00000000000E+00 0.  1.
</event>
<event>
 4    1  0.6729064E+001  0.2080295E+02  0.7546771E-02  0.1522097E+00
          2   -1    0    0  502    0  0.00000000000E+00  0.00000000000E+00  0.67251222203E+02  0.67251222203E+02  0.00000000000E+00 0. -1.
         -2   -1    0    0    0  501 -0.00000000000E+00 -0.00000000000E+00 -0.15318105482E+02  0.15318105482E+02  0.00000000000E+00 0.  1.
          1    1    1    2  502    0 -0.93079744411E+01  0.18604420844E+02 -0.54724023281E+01  0.21510696186E+02  0.00000000000E+00 0.  1.
         -1    1    1    2    0  501  0.93079744411E+01 -0.18604420844E+02  0.57405519050E+02  0.61058631499E+02  0.00000000000E+00 0. -1.
</event>
<event>
 4    1  0.6729064E+001  0.2173139E+02  0.7546771E-02  0.1509074E+00
          2   -1    0    0  502    0  0.00000000000E+00  0.00000000000E+00  0.71375436635E+03  0.71375436635E+03  0.00000000000E+00 0. -1.
         -2   -1    0    0    0  501 -0.00000000000E+00 -0.00000000000E+00 -0.90676813755E+00  0.90676813755E+00  0.00000000000E+00 0.  1.
          1    1    1    2  502    0  0.13670352886E+02  0.16893037287E+02  0.17063794374E+03  0.17201616523E+03  0.00000000000E+00 0.  1.
         -1    1    1    2    0  501 -0.13670352886E+02 -0.16893037287E+02  0.54220965447E+03  0.54264496926E+03  0.00000000000E+00 0. -1.
</event>
<event>
 4    1  0.6729064E+001  0.2594943E+02  0.7546771E-02  0.1458457E+00
          2   -1    0    0  502    0  0.00000000000E+00  0.00000000000E+00  0.67378068150E+03  0.67378068150E+03  0.00000000000E+00 0. -1.
         -2   -1    0    0    0  501 -0.00000000000E+00 -0.00000000000E+00 -0.12363633886E+01  0.12363633886E+01  0.00000000000E+00 0.  1.
          1    1    1    2  502    0 -0.22294527900E+02 -0.13278812353E+02  0.48403225762E+03  0.48472734526E+03  0.00000000000E+00 0. -1.
         -1    1    1    2    0  501  0.22294527900E+02  0.13278812353E+02  0.18851206050E+03  0.19028969963E+03  0.00000000000E+00 0.  1.
</event>
<event>
 4    1  0.6729064E+001  0.2919694E+02  0.7546771E-02  0.1426706E+00
          2   -1    0    0  502    0  0.00000000000E+00  0.00000000000E+00  0.12081050188E+02  0.12081050188E+02  0.00000000000E+00 0.  1.
         -2   -1    0    0    0  501 -0.00000000000E+00 -0.00000000000E+00 -0.92415012016E+02  0.92415012016E+02  0.00000000000E+00 0. -1.
          1    1    1    2  502    0  0.29191788793E+02  0.54817363038E+00 -0.14759828429E+02  0.32715647059E+02  0.00000000000E+00 0.  1.
         -1    1    1    2    0  501 -0.29191788793E+02 -0.54817363038E+00 -0.65574133399E+02  0.71780415145E+02  0.00000000000E+00 0. -1.
</event>
<event>
 4    1  0.6729064E+001  0.4262292E+02  0.7546771E-02  0.1333765E+00
          2   -1    0    0  502    0  0.00000000000E+00  0.00000000000E+00  0.26289303558E+03  0.26289303558E+03  0.00000000000E+00 0. -1.
         -2   -1    0    0    0  501 -0.00000000000E+00 -0.00000000000E+00 -0.84747580234E+01  0.84747580234E+01  0.00000000000E+00 0.  1.
          1    1    1    2  502    0  0.42416589449E+02 -0.41887921331E+01  0.68915152887E+02  0.81030928278E+02  0.00000000000E+00 0.  1.
         -1    1    1    2    0  501 -0.42416589449E+02  0.41887921331E+01  0.18550312467E+03  0.19033686533E+03  0.00000000000E+00 0. -1.
</event>
<event>
 4    1  0.6729064E+001  0.2719758E+02  0.7546771E-02  0.1445633E+00
          2   -1    0    0  502    0  0.00000000000E+00  0.00000000000E+00  0.81607347980E+02  0.81607347980E+02  0.00000000000E+00 0.  1.
         -2   -1    0    0    0  501 -0.00000000000E+00 -0.00000000000E+00 -0.90774735076E+01  0.90774735076E+01  0.00000000000E+00 0. -1.
          1    1    1    2  502    0 -0.27134754512E+02 -0.18475302937E+01  0.37996440730E+02  0.46727270183E+02  0.00000000000E+00 0. -1.
         -1    1    1    2    0  501  0.27134754512E+02  0.18475302937E+01  0.34533433743E+02  0.43957551305E+02  0.00000000000E+00 0.  1.
</event>
<event>
 4    1  0.6729064E+001  0.5562639E+02  0.7546771E-02  0.1275463E+00
          2   -1    0    0  502    0  0.00000000000E+00  0.00000000000E+00  0.21381231899E+04  0.21381231899E+04  0.00000000000E+00 0.  1.
         -2   -1    0    0    0  501 -0.00000000000E+00 -0.00000000000E+00 -0.14985538375E+01  0.14985538375E+01  0.00000000000E+00 0. -1.
          1    1    1    2  502    0  0.44689655587E+02 -0.33122953543E+02  0.12663511635E+04  0.12675723114E+04  0.00000000000E+00 0.  1.
         -1    1    1    2    0  501 -0.44689655587E+02  0.33122953543E+02  0.87027347253E+03  0.87204943229E+03  0.00000000000E+00 0. -1.
</event>
<event>
 4    1  0.6729064E+001  0.2958557E+02  0.7546771E-02  0.1423232E+00
          2   -1    0    0  502    0  0.00000000000E+00  0.00000000000E+00  0.55249607239E+03  0.55249607239E+03  0.00000000000E+00 0. -1.
         -2   -1    0    0    0  501 -0.00000000000E+00 -0.00000000000E+00 -0.19639082989E+01  0.19639082989E+01  0.00000000000E+00 0.  1.
          1    1    1    2  502    0  0.19345765784E+02  0.22384088626E+02  0.15337796122E+03  0.15620532982E+03  0.00000000000E+00 0.  1.
         -1    1    1    2    0  501 -0.19345765784E+02 -0.22384088626E+02  0.39715420287E+03  0.39825465086E+03  0.00000000000E+00 0. -1.
</event>
<event>
 4    1  0.6729064E+001  0.3657659E+02  0.7546771E-02  0.1369806E+00
          2   -1    0    0  502    0  0.00000000000E+00  0.00000000000E+00  0.12322713508E+04  0.12322713508E+04  0.00000000000E+00 0.  1.
         -2   -1    0    0    0  501 -0.00000000000E+00 -0.00000000000E+00 -0.14851785417E+01  0.14851785417E+01  0.00000000000E+00 0. -1.
          1    1    1    2  502    0  0.93669289131E+01 -0.35356863695E+02  0.93533417980E+03  0.93604907727E+03  0.00000000000E+00 0. -1.
         -1    1    1    2    0  501 -0.93669289131E+01  0.35356863695E+02  0.29545199243E+03  0.29770745204E+03  0.00000000000E+00 0.  1.
</event>
<event>
 4    1  0.6729064E+001  0.2136747E+02  0.7546771E-02  0.1514083E+00
          2   -1    0    0  502    0  0.00000000000E+00  0.00000000000E+00  0.59732651511E+02  0.59732651511E+02  0.00000000000E+00 0. -1.
         -2   -1    0    0    0  501 -0.00000000000E+00 -0.00000000000E+00 -0.81153282109E+01  0.81153282109E+01  0.00000000000E+00 0.  1.
          1    1    1    2  502    0 -0.58784668148E+01 -0.20542939580E+02  0.17629124083E+02  0.27701168831E+02  0.00000000000E+00 0. -1.
         -1    1    1    2    0  501  0.58784668148E+01  0.20542939580E+02  0.33988199217E+02  0.40146810891E+02  0.00000000000E+00 0.  1.
</event>
<event>
 4    1  0.6729064E+001  0.6160810E+02  0.7546771E-02  0.1254465E+00
          2   -1    0    0  502    0  0.00000000000E+00  0.00000000000E+00  0.19091179976E+03  0.19091179976E+03  0.00000000000E+00 0. -1.
         -2   -1    0    0    0  501 -0.00000000000E+00 -0.00000000000E+00 -0.19900176327E+02  0.19900176327E+02  0.00000000000E+00 0.  1.
          1    1    1    2  502    0 -0.56251314347E+02 -0.25126627080E+02  0.82251807290E+02  0.10276632501E+03  0.00000000000E+00 0.  1.
         -1    1    1    2    0  501  0.56251314347E+02  0.25126627080E+02  0.88759816140E+02  0.10804565107E+03  0.00000000000E+00 0. -1.
</event>
<event>
 4    1  0.6729064E+001  0.6037179E+02  0.7546771E-02  0.1258575E+00
          2   -1    0    0  502    0  0.00000000000E+00  0.00000000000E+00  0.53118546525E+02  0.53118546525E+02  0.00000000000E+00 0.  1.
         -2   -1    0    0    0  501 -0.00000000000E+00 -0.00000000000E+00 -0.68988262302E+02  0.68988262302E+02  0.00000000000E+00 0. -1.
          1    1    1    2  502    0  0.58063904944E+02 -0.16532887005E+02 -0.12422958757E+02  0.61636704279E+02  0.00000000000E+00 0. -1.
         -1    1    1    2    0  501 -0.58063904944E+02  0.16532887005E+02 -0.34467570203E+01  0.60470104548E+02  0.00000000000E+00 0.  1.
</event>
<event>
 4    1  0.6729064E+001  0.2025004E+02  0.7546771E-02  0.1530247E+00
          2   -1    0    0  502    0  0.00000000000E+00  0.00000000000E+00  0.34481819464E+01  0.34481819464E+01  0.00000000000E+00 0. -1.
         -2   -1    0    0    0  501 -0.00000000000E+00 -0.00000000000E+00 -0.13128361960E+03  0.13128361960E+03  0.00000000000E+00 0.  1.
          1    1    1    2  502    0  0.12640094050E+02 -0.15820622320E+02 -0.84589396431E+02  0.86979480665E+02  0.00000000000E+00 0.  1.
         -1    1    1    2    0  501 -0.12640094050E+02  0.15820622320E+02 -0.43246041227E+02  0.47752320886E+02  0.00000000000E+00 0. -1.
</event>
<event>
 4    1  0.6729064E+001  0.2442828E+02  0.7546771E-02  0.1475302E+00
          2   -1    0    0  502    0  0.00000000000E+00  0.00000000000E+00  0.30760328693E+02  0.30760328693E+02  0.00000000000E+00 0.  1.
         -2   -1    0    0    0  501 -0.00000000000E+00 -0.00000000000E+00 -0.31088202211E+02  0.31088202211E+02  0.00000000000E+00 0. -1.
          1    1    1    2  502    0 -0.22248783144E+02  0.10086261539E+02 -0.19125803751E+02  0.31024786741E+02  0.00000000000E+00 0. -1.
         -1    1    1    2    0  501  0.22248783144E+02 -0.10086261539E+02  0.18797930233E+02  0.30823744163E+02  0.00000000000E+00 0.  1.
</event>
<event>
 4    1  0.6729064E+001  0.3266140E+02  0.7546771E-02  0.1397794E+00
          2   -1    0    0  502    0  0.00000000000E+00  0.00000000000E+00  0.28938241410E+04  0.28938241410E+04  0.00000000000E+00 0.  1.
         -2   -1    0    0    0  501 -0.00000000000E+00 -0.00000000000E+00 -0.38125752680E+00  0.38125752680E+00  0.00000000000E+00 0. -1.
          1    1    1    2  502    0  0.28282065658E+02  0.16336826679E+02  0.17100207555E+04  0.17103326435E+04  0.00000000000E+00 0.  1.
         -1    1    1    2    0  501 -0.28282065658E+02 -0.16336826679E+02  0.11834221280E+04  0.11838727551E+04  0.00000000000E+00 0. -1.
</event>
<event>
 4    1  0.6729064E+001  0.4321706E+02  0.7546771E-02  0.1330600E+00
          2   -1    0    0  502    0  0.00000000000E+00  0.00000000000E+00  0.69466941971E+01  0.69466941971E+01  0.00000000000E+00 0.  1.
         -2   -1    0    0    0  501 -0.00000000000E+00 -0.00000000000E+00 -0.32203812996E+03  0.32203812996E+03  0.00000000000E+00 0. -1.
          1    1    1    2  502    0  0.30183694271E+02 -0.30929899995E+02 -0.90704628478E+02  0.10047409487E+03  0.00000000000E+00 0.  1.
         -1    1    1    2    0  501 -0.30183694271E+02  0.30929899995E+02 -0.22438680728E+03  0.22851072928E+03  0.00000000000E+00 0. -1.
</event>
<event>
 4    1  0.6729064E+001  0.2128137E+02  0.7546771E-02  0.1515285E+00
          2   -1    0    0  502    0  0.00000000000E+00  0.00000000000E+00  0.17078563367E+03  0.17078563367E+03  0.00000000000E+00 0. -1.
         -2   -1    0    0    0  501 -0.00000000000E+00 -0.00000000000E+00 -0.52800272134E+01  0.52800272134E+01  0.00000000000E+00 0.  1.
          1    1    1    2  502    0 -0.12970864214E+02 -0.16871676933E+02  0.14486178812E+03  0.14641664679E+03  0.00000000000E+00 0. -1.
         -1    1    1    2    0  501  0.12970864214E+02  0.16871676933E+02  0.20643818337E+02  0.29649014091E+02  0.00000000000E+00 0.  1.
</event>
<event>
 4    1  0.6729064E+001  0.2129985E+02  0.7546771E-02  0.1515027E+00
          2   -1    0    0  502    0  0.00000000000E+00  0.00000000000E+00  0.19802429719E+03  0.19802429719E+03  0.00000000000E+00 0.  1.
         -2   -1    0    0    0  501 -0.00000000000E+00 -0.00000000000E+00 -0.23077446604E+01  0.23077446604E+01  0.00000000000E+00 0. -1.
          1    1    1    2  502    0 -0.34980708753E+01  0.21010640054E+02  0.89338660968E+02  0.91842690721E+02  0.00000000000E+00 0. -1.
         -1    1    1    2    0  501  0.34980708753E+01 -0.21010640054E+02  0.10637789156E+03  0.10848935112E+03  0.00000000000E+00 0.  1.
</event>
<event>
 4    1  0.6729064E+001  0.3630391E+02  0.7546771E-02  0.1371621E+00
          2   -1    0    0  502    0  0.00000000000E+00  0.00000000000E+00  0.96627457976E+03  0.96627457976E+03  0.00000000000E+00 0.  1.
         -2   -1    0    0    0  501 -0.00000000000E+00 -0.00000000000E+00 -0.13725200484E+01  0.13725200484E+01  0.00000000000E+00 0. -1.
          1    1    1    2  502    0 -0.34838979938E+02  0.10208796378E+02  0.44427476610E+03  0.44575558532E+03  0.00000000000E+00 0. -1.
         -1    1    1    2    0  501  0.34838979938E+02 -0.10208796378E+02  0.52062729361E+03  0.52189151449E+03  0.00000000000E+00 0.  1.
</event>
<event>
 4    1  0.6729064E+001  0.2551550E+02  0.7546771E-02  0.1463118E+00
          2   -1    0    0  502    0  0.00000000000E+00  0.00000000000E+00  0.31565186734E+03  0.31565186734E+03  0.00000000000E+00 0.  1.
         -2   -1    0    0    0  501 -0.00000000000E+00 -0.00000000000E+00 -0.32827948795E+01  0.32827948795E+01  0.00000000000E+00 0. -1.
          1    1    1    2  502    0  0.24740483688E+02 -0.62409411499E+01  0.58959698395E+02  0.64243964030E+02  0.00000000000E+00 0. -1.
         -1    1    1    2    0  501 -0.24740483688E+02  0.62409411499E+01  0.25340937406E+03  0.25469069818E+03  0.00000000000E+00 0.  1.
</event>
<event>
 4    1  0.6729064E+001  0.2134430E+02  0.7546771E-02  0.1514405E+00
          2   -1    0    0  502    0  0.00000000000E+00  0.00000000000E+00  0.56796176489E+03  0.56796176489E+03  0.00000000000E+00 0. -1.
         -2   -1    0    0    0  501 -0.00000000000E+00 -0.00000000000E+00 -0.23256786792E+01  0.23256786792E+01  0.00000000000E+00 0.  1.
          1    1    1    2  502    0 -0.21248890321E+02 -0.20159327252E+01  0.52027990082E+02  0.56236030058E+02  0.00000000000E+00 0.  1.
         -1    1    1    2    0  501  0.21248890321E+02  0.20159327252E+01  0.51360809613E+03  0.51405141352E+03  0.00000000000E+00 0. -1.
</event>
<event>
 4    1  0.6729064E+001  0.2147910E+02  0.7546771E-02  0.1512533E+00
          2   -1    0    0  502    0  0.00000000000E+00  0.00000000000E+00  0.17746281978E+01  0.17746281978E+01  0.00000000000E+00 0. -1.
         -2   -1    0    0    0  501 -0.00000000000E+00 -0.00000000000E+00 -0.33542355168E+03  0.33542355168E+03  0.00000000000E+00 0.  1.
          1    1    1    2  502    0 -0.21461142036E+02  0.87806704567E+00 -0.86860221112E+02  0.89476531173E+02  0.00000000000E+00 0. -1.
         -1    1    1    2    0  501  0.21461142036E+02 -0.87806704567E+00 -0.24678870237E+03  0.24772164871E+03  0.00000000000E+00 0.  1.
</event>
<event>
 4    1  0.6729064E+001  0.2337878E+02  0.7546771E-02  0.1487796E+00
          2   -1    0    0  502    0  0.00000000000E+00  0.00000000000E+00  0.23216939820E+01  0.23216939820E+01  0.00000000000E+00 0.  1.
         -2   -1    0    0    0  501 -0.00000000000E+00 -0.00000000000E+00 -0.30726676284E+03  0.30726676284E+03  0.00000000000E+00 0. -1.
          1    1    1    2  502    0 -0.19242181400E+02  0.13278018086E+02 -0.77619702027E+02  0.81064082380E+02  0.00000000000E+00 0.  1.
         -1    1    1    2    0  501  0.19242181400E+02 -0.13278018086E+02 -0.22732536684E+03  0.22852437445E+03  0.00000000000E+00 0. -1.
</event>
<event>
 4    1  0.6729064E+001  0.2231426E+02  0.7546771E-02  0.1501293E+00
          2   -1    0    0  502    0  0.00000000000E+00  0.00000000000E+00  0.76082114356E+03  0.76082114356E+03  0.00000000000E+00 0.  1.
         -2   -1    0    0    0  501 -0.00000000000E+00 -0.00000000000E+00 -0.92005590198E+00  0.92005590198E+00  0.00000000000E+00 0. -1.
          1    1    1    2  502    0 -0.10566972026E+02  0.19653631794E+02  0.17531458227E+03  0.17672897017E+03  0.00000000000E+00 0. -1.
         -1    1    1    2    0  501  0.10566972026E+02 -0.19653631794E+02  0.58458650538E+03  0.58501222929E+03  0.00000000000E+00 0.  1.
</event>
<event>
 4    1  0.6729064E+001  0.2330560E+02  0.7546771E-02  0.1488696E+00
          2   -1    0    0  502    0  0.00000000000E+00  0.00000000000E+00  0.26595321108E+04  0.26595321108E+04  0.00000000000E+00 0. -1.
         -2   -1    0    0    0  501 -0.00000000000E+00 -0.00000000000E+00 -0.21225508941E+00  0.21225508941E+00  0.00000000000E+00 0.  1.
          1    1    1    2  502    0 -0.21295745570E+02 -0.94679661133E+01  0.15882771705E+04  0.15884481488E+04  0.00000000000E+00 0. -1.
         -1    1    1    2    0  501  0.21295745570E+02  0.94679661133E+01  0.10710426852E+04  0.10712962171E+04  0.00000000000E+00 0.  1.
</event>
<event>
 4    1  0.6729064E+001  0.2025168E+02  0.7546771E-02  0.1530222E+00
          2   -1    0    0  502    0  0.00000000000E+00  0.00000000000E+00  0.38695356798E+01  0.38695356798E+01  0.00000000000E+00 0.  1.
         -2   -1    0    0    0  501 -0.00000000000E+00 -0.00000000000E+00 -0.11974502720E+03  0.11974502720E+03  0.00000000000E+00 0. -1.
          1    1    1    2  502    0 -0.12244625772E+01 -0.20214633291E+02 -0.36989519738E+02  0.42170549891E+02  0.00000000000E+00 0. -1.
         -1    1    1    2    0  501  0.12244625772E+01  0.20214633291E+02 -0.78885971784E+02  0.81444012990E+02  0.00000000000E+00 0.  1.
</event>
<event>
 4    1  0.6729064E+001  0.2963385E+02  0.7546771E-02  0.1422805E+00
          2   -1    0    0  502    0  0.00000000000E+00  0.00000000000E+00  0.49499281280E+03  0.49499281280E+03  0.00000000000E+00 0. -1.
         -2   -1    0    0    0  501 -0.00000000000E+00 -0.00000000000E+00 -0.24403454721E+01  0.24403454721E+01  0.00000000000E+00 0.  1.
          1    1    1    2  502    0 -0.19286065523E+02 -0.22499177407E+02  0.37623248165E+03  0.37739772860E+03  0.00000000000E+00 0. -1.
         -1    1    1    2    0  501  0.19286065523E+02  0.22499177407E+02  0.11631998568E+03  0.12003542967E+03  0.00000000000E+00 0.  1.
</event>
<event>
 4    1  0.6729064E+001  0.3358495E+02  0.7546771E-02  0.1390794E+00
          2   -1    0    0  502    0  0.00000000000E+00  0.00000000000E+00  0.20669612062E+01  0.20669612062E+01  0.00000000000E+00 0. -1.
         -2   -1    0    0    0  501 -0.00000000000E+00 -0.00000000000E+00 -0.54946331990E+03  0.54946331990E+03  0.00000000000E+00 0.  1.
          1    1    1    2  502    0  0.77442749330E+01  0.32679889087E+02 -0.29650822415E+03  0.29840421568E+03  0.00000000000E+00 0.  1.
         -1    1    1    2    0  501 -0.77442749330E+01 -0.32679889087E+02 -0.25088813454E+03  0.25312606542E+03  0.00000000000E+00 0. -1.
</event>
<event>
 4    1  0.6729064E+001  0.3661010E+02  0.7546771E-02  0.1369584E+00
          2   -1    0    0  502    0  0.00000000000E+00  0.00000000000E+00  0.57281563449E+01  0.57281563449E+01  0.00000000000E+00 0. -1.
         -2   -1    0    0    0  501 -0.00000000000E+00 -0.00000000000E+00 -0.26516256900E+03  0.26516256900E+03  0.00000000000E+00 0.  1.
          1    1    1    2  502    0  0.28495628734E+02 -0.22984749092E+02 -0.17616156208E+03  0.17992552766E+03  0.00000000000E+00 0.  1.
         -1    1    1    2    0  501 -0.28495628734E+02  0.22984749092E+02 -0.83272850577E+02  0.90965197691E+02  0.00000000000E+00 0. -1.
</event>
<event>
 4    1  0.6729064E+001  0.3447623E+02  0.7546771E-02  0.1384283E+00
          2   -1    0    0  502    0  0.00000000000E+00  0.00000000000E+00  0.10957966001E+04  0.10957966001E+04  0.00000000000E+00 0. -1.
         -2   -1    0    0    0  501 -0.00000000000E+00 -0.00000000000E+00 -0.11654611426E+01  0.11654611426E+01  0.00000000000E+00 0.  1.
          1    1    1    2  502    0 -0.18619493928E+02 -0.29015939276E+02  0.40293304149E+03  0.40440529943E+03  0.00000000000E+00 0. -1.
         -1    1    1    2    0  501  0.18619493928E+02  0.29015939276E+02  0.69169809747E+03  0.69255676181E+03  0.00000000000E+00 0.  1.
</event>
<event>
 4    1  0.6729064E+001  0.2869884E+02  0.7546771E-02  0.1431251E+00
          2   -1    0    0  502    0  0.00000000000E+00  0.00000000000E+00  0.80794423397E+02  0.80794423397E+02  0.00000000000E+00 0.  1.
         -2   -1    0    0    0  501 -0.00000000000E+00 -0.00000000000E+00 -0.10195303351E+02  0.10195303351E+02  0.00000000000E+00 0. -1.
          1    1    1    2  502    0  0.23790632639E+02 -0.16050825818E+02  0.35801943517E+02  0.45884663783E+02  0.00000000000E+00 0.  1.
         -1    1    1    2    0  501 -0.23790632639E+02  0.16050825818E+02  0.34797176528E+02  0.45105062966E+02  0.00000000000E+00 0. -1.
</event>
<event>
 4    1  0.6729064E+001  0.2403335E+02  0.7546771E-02  0.1479915E+00
          2   -1    0    0  502    0  0.00000000000E+00  0.00000000000E+00  0.14453719135E+03  0.14453719135E+03  0.00000000000E+00 0. -1.
         -2   -1    0    0    0  501 -0.00000000000E+00 -0.00000000000E+00 -0.48817129678E+01  0.48817129678E+01  0.00000000000E+00 0.  1.
          1    1    1    2  502    0  0.10828117541E+02  0.21455860470E+02  0.38009029714E+02  0.44969861216E+02  0.00000000000E+00 0.  1.
         -1    1    1    2    0  501 -0.10828117541E+02 -0.21455860470E+02  0.10164644867E+03  0.10444904310E+03  0.00000000000E+00 0. -1.
</event>
<event>
 4    1  0.6729064E+001  0.2295335E+02  0.7546771E-02  0.1493085E+00
          2   -1    0    0  502    0  0.00000000000E+00  0.00000000000E+00  0.16802289136E+03  0.16802289136E+03  0.00000000000E+00 0.  1.
         -2   -1    0    0    0  501 -0.00000000000E+00 -0.00000000000E+00 -0.44171510536E+01  0.44171510536E+01  0.00000000000E+00 0. -1.
          1    1    1    2  502    0 -0.22835027333E+02  0.23276326082E+01  0.12824382658E+03  0.13028175391E+03  0.00000000000E+00 0.  1.
         -1    1    1    2    0  501  0.22835027333E+02 -0.23276326082E+01  0.35361913728E+02  0.42158288501E+02  0.00000000000E+00 0. -1.
</event>
<event>
 4    1  0.6729064E+001  0.2954308E+02  0.7546771E-02  0.1423609E+00
          2   -1    0    0  502    0  0.00000000000E+00  0.00000000000E+00  0.37920619395E+03  0.37920619395E+03  0.00000000000E+00 0. -1.
         -2   -1    0    0    0  501 -0.00000000000E+00 -0.00000000000E+00 -0.24665029638E+01  0.24665029638E+01  0.00000000000E+00 0.  1.
          1    1    1    2  502    0 -0.26716968060E+02  0.12609399273E+02  0.23770898778E+03  0.23953779702E+03  0.00000000000E+00 0.  1.
         -1    1    1    2    0  501  0.26716968060E+02 -0.12609399273E+02  0.13903070321E+03  0.14213489989E+03  0.00000000000E+00 0. -1.
</event>
<event>
 4    1  0.6729064E+001  0.2294202E+02  0.7546771E-02  0.1493227E+00
          2   -1    0    0  502    0  0.00000000000E+00  0.00000000000E+00  0.33729389754E+03  0.33729389754E+03  0.00000000000E+00 0. -1.
         -2   -1    0    0    0  501 -0.00000000000E+00 -0.00000000000E+00 -0.15657445712E+01  0.15657445712E+01  0.00000000000E+00 0.  1.
          1    1    1    2  502    0 -0.12691114714E+02  0.19112091852E+02  0.15802869074E+03  0.15968532664E+03  0.00000000000E+00 0.  1.
         -1    1    1    2    0  501  0.12691114714E+02 -0.19112091852E+02  0.17769946223E+03  0.17917431547E+03  0.00000000000E+00 0. -1.
</event>
<event>
 4    1  0.6729064E+001  0.2339052E+02  0.7546771E-02  0.1487652E+00
          2   -1    0    0  502    0  0.00000000000E+00  0.00000000000E+00  0.12926210619E+01  0.12926210619E+01  0.00000000000E+00 0.  1.
         -2   -1    0    0    0  501 -0.00000000000E+00 -0.00000000000E+00 -0.43822139649E+03  0.43822139649E+03  0.00000000000E+00 0. -1.
          1    1    1    2  502    0  0.80784740020E+01  0.21951187843E+02 -0.17786083318E+03  0.17939228626E+03  0.00000000000E+00 0. -1.
         -1    1    1    2    0  501 -0.80784740020E+01 -0.21951187843E+02 -0.25906794224E+03  0.26012173129E+03  0.00000000000E+00 0.  1.
</event>
<event>
 4    1  0.6729064E+001  0.2577646E+02  0.7546771E-02  0.1460302E+00
          2   -1    0    0  502    0  0.00000000000E+00  0.00000000000E+00  0.57666419968E+03  0.57666419968E+03  0.00000000000E+00 0. -1.
         -2   -1    0    0    0  501 -0.00000000000E+00 -0.00000000000E+00 -0.15404193051E+01  0.15404193051E+01  0.00000000000E+00 0.  1.
          1    1    1    2  502    0 -0.18061694875E+02  0.18390242306E+02  0.43269854386E+03  0.43346563380E+03  0.00000000000E+00 0. -1.
         -1    1    1    2    0  501  0.18061694875E+02 -0.18390242306E+02  0.14242523652E+03  0.14473898518E+03  0.00000000000E+00 0.  1.
</event>
<event>
 4    1  0.6729064E+001  0.3846491E+02  0.7546771E-02  0.1357724E+00
          2   -1    0    0  502    0  0.00000000000E+00  0.00000000000E+00  0.45915201849E+03  0.45915201849E+03  0.00000000000E+00 0.  1.
         -2   -1    0    0    0  501 -0.00000000000E+00 -0.00000000000E+00 -0.37737669318E+01  0.37737669318E+01  0.00000000000E+00 0. -1.
          1    1    1    2  502    0  0.34307704093E+02 -0.17393409185E+02  0.13921154156E+03  0.14442784547E+03  0.00000000000E+00 0. -1.
         -1    1    1    2    0  501 -0.34307704093E+02  0.17393409185E+02  0.31616671000E+03  0.31849793995E+03  0.00000000000E+00 0.  1.
</event>
<event>
 4    1  0.6729064E+001  0.2099783E+02  0.7546771E-02  0.1519296E+00
          2   -1    0    0  502    0  0.00000000000E+00  0.00000000000E+00  0.17249190218E+01  0.17249190218E+01  0.00000000000E+00 0. -1.
         -2   -1    0    0    0  501 -0.00000000000E+00 -0.00000000000E+00 -0.27032596131E+03  0.27032596131E+03  0.00000000000E+00 0.  1.
          1    1    1    2  502    0 -0.17165152948E+02  0.12094056325E+02 -0.16603653804E+03  0.16735901720E+03  0.00000000000E+00 0.  1.
         -1    1    1    2    0  501  0.17165152948E+02 -0.12094056325E+02 -0.10256450424E+03  0.10469186313E+03  0.00000000000E+00 0. -1.
</event>
<event>
 4    1  0.6729064E+001  0.2470606E+02  0.7546771E-02  0.1472119E+00
          2   -1    0    0  502    0  0.00000000000E+00  0.00000000000E+00  0.23340776696E+02  0.23340776696E+02  0.00000000000E+00 0.  1.
         -2   -1    0    0    0  501 -0.00000000000E+00 -0.00000000000E+00 -0.38132674624E+02  0.38132674624E+02  0.00000000000E+00 0. -1.
          1    1    1    2  502    0  0.14253330229E+02  0.20179990251E+02 -0.24625105547E+02  0.34882449059E+02  0.00000000000E+00 0. -1.
         -1    1    1    2    0  501 -0.14253330229E+02 -0.20179990251E+02  0.98332076194E+01  0.26591002260E+02  0.00000000000E+00 0.  1.
</event>
<event>
 4    1  0.6729064E+001  0.2035233E+02  0.7546771E-02  0.1528716E+00
          2   -1    0    0  502    0  0.00000000000E+00  0.00000000000E+00  0.18415329451E+04  0.18415329451E+04  0.00000000000E+00 0. -1.
         -2   -1    0    0    0  501 -0.00000000000E+00 -0.00000000000E+00 -0.27264764363E+00  0.27264764363E+00  0.00000000000E+00 0.  1.
          1    1    1    2  502    0 -0.10626926526E+02  0.17357589009E+02  0.13058856141E+04  0.13060442009E+04  0.00000000000E+00 0.  1.
         -1    1    1    2    0  501  0.10626926526E+02 -0.17357589009E+02  0.53537468333E+03  0.53576139186E+03  0.00000000000E+00 0. -1.
</event>
<event>
 4    1  0.6729064E+001  0.4746417E+02  0.7546771E-02  0.1309558E+00
          2   -1    0    0  502    0  0.00000000000E+00  0.00000000000E+00  0.19368235133E+04  0.19368235133E+04  0.00000000000E+00 0. -1.
         -2   -1    0    0    0  501 -0.00000000000E+00 -0.00000000000E+00 -0.12411711719E+01  0.12411711719E+01  0.00000000000E+00 0.  1.
          1    1    1    2  502    0  0.11443713533E+02  0.46063969835E+02  0.12107223261E+04  0.12116523423E+04  0.00000000000E+00 0. -1.
         -1    1    1    2    0  501 -0.11443713533E+02 -0.46063969835E+02  0.72486001612E+03  0.72641234217E+03  0.00000000000E+00 0.  1.
</event>
<event>
 4    1  0.6729064E+001  0.2384129E+02  0.7546771E-02  0.1482196E+00
          2   -1    0    0  502    0  0.00000000000E+00  0.00000000000E+00  0.77942190186E+02  0.77942190186E+02  0.00000000000E+00 0. -1.
         -2   -1    0    0    0  501 -0.00000000000E+00 -0.00000000000E+00 -0.80591770707E+01  0.80591770707E+01  0.00000000000E+00 0.  1.
          1    1    1    2  502    0  0.22317557458E+02 -0.83865070063E+01  0.48202845406E+02  0.53776585759E+02  0.00000000000E+00 0. -1.
         -1    1    1    2    0  501 -0.22317557458E+02  0.83865070063E+01  0.21680167709E+02  0.32224781497E+02  0.00000000000E+00 0.  1.
</event>
<event>
 4    1  0.6729064E+001  0.2079003E+02  0.7546771E-02  0.1522284E+00
          2   -1    0    0  502    0  0.00000000000E+00  0.00000000000E+00  0.57617633904E+03  0.57617633904E+03  0.00000000000E+00 0.  1.
         -2   -1    0    0    0  501 -0.00000000000E+00 -0.00000000000E+00 -0.11227792703E+01  0.11227792703E+01  0.00000000000E+00 0. -1.
          1    1    1    2  502    0 -0.18680102527E+02 -0.91257331227E+01  0.45381273113E+03  0.45428869695E+03  0.00000000000E+00 0.  1.
         -1    1    1    2    0  501  0.18680102527E+02  0.91257331227E+01  0.12124082863E+03  0.12301042136E+03  0.00000000000E+00 0. -1.
</event>
<event>
 4    1  0.6729064E+001  0.2351085E+02  0.7546771E-02  0.1486181E+00
          2   -1    0    0  502    0  0.00000000000E+00  0.00000000000E+00  0.15839427446E+03  0.15839427446E+03  0.00000000000E+00 0. -1.
         -2   -1    0    0    0  501 -0.00000000000E+00 -0.00000000000E+00 -0.55389822480E+01  0.55389822480E+01  0.00000000000E+00 0.  1.
          1    1    1    2  502    0  0.80183459386E+01 -0.22101267765E+02  0.12628340610E+03  0.12845333224E+03  0.00000000000E+00 0. -1.
         -1    1    1    2    0  501 -0.80183459386E+01  0.22101267765E+02  0.26571886111E+02  0.35479924463E+02  0.00000000000E+00 0.  1.
</event>
<event>
 4    1  0.6729064E+001  0.2069852E+02  0.7546771E-02  0.1523613E+00
          2   -1    0    0  502    0  0.00000000000E+00  0.00000000000E+00  0.11263165881E+04  0.11263165881E+04  0.00000000000E+00 0.  1.
         -2   -1    0    0    0  501 -0.00000000000E+00 -0.00000000000E+00 -0.99194124371E+00  0.99194124371E+00  0.00000000000E+00 0. -1.
          1    1    1    2  502    0  0.19837880284E+02 -0.59065300690E+01  0.10052402095E+04  0.10054532845E+04  0.00000000000E+00 0.  1.
         -1    1    1    2    0  501 -0.19837880284E+02  0.59065300690E+01  0.12008443736E+03  0.12185524481E+03  0.00000000000E+00 0. -1.
</event>
<event>
 4    1  0.6729064E+001  0.2211094E+02  0.7546771E-02  0.1503974E+00
          2   -1    0    0  502    0  0.00000000000E+00  0.00000000000E+00  0.14103775765E+03  0.14103775765E+03  0.00000000000E+00 0. -1.
         -2   -1    0    0    0  501 -0.00000000000E+00 -0.00000000000E+00 -0.39808924758E+01  0.39808924758E+01  0.00000000000E+00 0.  1.
          1    1    1    2  502    0 -0.20438678760E+02  0.84352892438E+01  0.42461380307E+02  0.47873400879E+02  0.00000000000E+00 0.  1.
         -1    1    1    2    0  501  0.20438678760E+02 -0.84352892438E+01  0.94595484871E+02  0.97145249251E+02  0.00000000000E+00 0. -1.
</event>
<event>
 4    1  0.6729064E+001  0.3249000E+02  0.7546771E-02  0.1399123E+00
          2   -1    0    0  502    0  0.00000000000E+00  0.00000000000E+00  0.74155580346E+03  0.74155580346E+03  0.00000000000E+00 0.  1.
         -2   -1    0    0    0  501 -0.00000000000E+00 -0.00000000000E+00 -0.38299494672E+01  0.38299494672E+01  0.00000000000E+00 0. -1.
          1    1    1    2  502    0 -0.30198735421E+02 -0.11984847580E+02  0.73440480789E+02  0.80306316134E+02  0.00000000000E+00 0. -1.
         -1    1    1    2    0  501  0.30198735421E+02  0.11984847580E+02  0.66428537320E+03  0.66507943679E+03  0.00000000000E+00 0.  1.
</event>
<event>
 4    1  0.6729064E+001  0.2162405E+02  0.7546771E-02  0.1510539E+00
          2   -1    0    0  502    0  0.00000000000E+00  0.00000000000E+00  0.15923306659E+01  0.15923306659E+01  0.00000000000E+00 0. -1.
         -2   -1    0    0    0  501 -0.00000000000E+00 -0.00000000000E+00 -0.30378913854E+03  0.30378913854E+03  0.00000000000E+00 0.  1.
          1    1    1    2  502    0 -0.93994634445E+01 -0.19474327911E+02 -0.17898354804E+03  0.18028507933E+03  0.00000000000E+00 0. -1.
         -1    1    1    2    0  501  0.93994634445E+01  0.19474327911E+02 -0.12321325984E+03  0.12509638988E+03  0.00000000000E+00 0.  1.
</event>
<event>
 4    1  0.6729064E+001  0.4699080E+02  0.7546771E-02  0.1311774E+00
          2   -1    0    0  502    0  0.00000000000E+00  0.00000000000E+00  0.12858009898E+04  0.12858009898E+04  0.00000000000E+00 0. -1.
         -2   -1    0    0    0  501 -0.00000000000E+00 -0.00000000000E+00 -0.17452891620E+01  0.17452891620E+01  0.00000000000E+00 0.  1.
          1    1    1    2  502    0  0.46331827891E+02  0.78419982019E+01  0.72352042088E+03  0.72504478113E+03  0.00000000000E+00 0. -1.
         -1    1    1    2    0  501 -0.46331827891E+02 -0.78419982019E+01  0.56053527981E+03  0.56250149788E+03  0.00000000000E+00 0.  1.
</event>
<event>
 4    1  0.6729064E+001  0.2259212E+02  0.7546771E-02  0.1497684E+00
          2   -1    0    0  502    0  0.00000000000E+00  0.00000000000E+00  0.81203957075E+01  0.81203957075E+01  0.00000000000E+00 0. -1.
         -2   -1    0    0    0  501 -0.00000000000E+00 -0.00000000000E+00 -0.13917137432E+03  0.13917137432E+03  0.00000000000E+00 0.  1.
          1    1    1    2  502    0 -0.19586376366E+02 -0.11259572175E+02 -0.10989452732E+02  0.25123140251E+02  0.00000000000E+00 0. -1.
         -1    1    1    2    0  501  0.19586376366E+02  0.11259572175E+02 -0.12006152589E+03  0.12216862978E+03  0.00000000000E+00 0.  1.
</event>
<event>
 4    1  0.6729064E+001  0.2534200E+02  0.7546771E-02  0.1465014E+00
          2   -1    0    0  502    0  0.00000000000E+00  0.00000000000E+00  0.16972538546E+04  0.16972538546E+04  0.00000000000E+00 0.  1.
         -2   -1    0    0    0  501 -0.00000000000E+00 -0.00000000000E+00 -0.37848471624E+00  0.37848471624E+00  0.00000000000E+00 0. -1.
          1    1    1    2  502    0  0.82374993584E+01 -0.23965821935E+02  0.86214927617E+03  0.86252164692E+03  0.00000000000E+00 0.  1.
         -1    1    1    2    0  501 -0.82374993584E+01  0.23965821935E+02  0.83472609375E+03  0.83511069243E+03  0.00000000000E+00 0. -1.
</event>
<event>
 4    1  0.6729064E+001  0.3344450E+02  0.7546771E-02  0.1391841E+00
          2   -1    0    0  502    0  0.00000000000E+00  0.00000000000E+00  0.20845160510E+03  0.20845160510E+03  0.00000000000E+00 0. -1.
         -2   -1    0    0    0  501 -0.00000000000E+00 -0.00000000000E+00 -0.70116500534E+01  0.70116500534E+01  0.00000000000E+00 0.  1.
          1    1    1    2  502    0 -0.56674388339E+01  0.32960802478E+02  0.15291301572E+03  0.15652771237E+03  0.00000000000E+00 0. -1.
         -1    1    1    2    0  501  0.56674388339E+01 -0.32960802478E+02  0.48526939330E+02  0.58935542788E+02  0.00000000000E+00 0.  1.
</event>
<event>
 4    1  0.6729064E+001  0.2061125E+02  0.7546771E-02  0.1524888E+00
          2   -1    0    0  502    0  0.00000000000E+00  0.00000000000E+00  0.14823485113E+03  0.14823485113E+03  0.00000000000E+00 0. -1.
         -2   -1    0    0    0  501 -0.00000000000E+00 -0.00000000000E+00 -0.28661204893E+01  0.28661204893E+01  0.00000000000E+00 0.  1.
          1    1    1    2  502    0  0.20185139293E+02  0.41693978523E+01  0.71996516662E+02  0.74888731717E+02  0.00000000000E+00 0.  1.
         -1    1    1    2    0  501 -0.20185139293E+02 -0.41693978523E+01  0.73372213975E+02  0.76212239899E+02  0.00000000000E+00 0. -1.
</event>
<event>
 4    1  0.6729064E+001  0.2317304E+02  0.7546771E-02  0.1490337E+00
          2   -1    0    0  502    0  0.00000000000E+00  0.00000000000E+00  0.91546268076E+01  0.91546268076E+01  0.00000000000E+00 0. -1.
         -2   -1    0    0    0  501 -0.00000000000E+00 -0.00000000000E+00 -0.59054268878E+02  0.59054268878E+02  0.00000000000E+00 0.  1.
          1    1    1    2  502    0 -0.17082636482E+02 -0.15658006918E+02 -0.22155174237E+02  0.32059965616E+02  0.00000000000E+00 0. -1.
         -1    1    1    2    0  501  0.17082636482E+02  0.15658006918E+02 -0.27744467834E+02  0.36148930070E+02  0.00000000000E+00 0.  1.
</event>
<event>
 4    1  0.6729064E+001  0.2895488E+02  0.7546771E-02  0.1428901E+00
          2   -1    0    0  502    0  0.00000000000E+00  0.00000000000E+00  0.10603969883E+04  0.10603969883E+04  0.00000000000E+00 0. -1.
         -2   -1    0    0    0  501 -0.00000000000E+00 -0.00000000000E+00 -0.95664071545E+00  0.95664071545E+00  0.00000000000E+00 0.  1.
          1    1    1    2  502    0  0.56601144439E+01  0.28396272605E+02  0.75078487350E+03  0.75134300520E+03  0.00000000000E+00 0. -1.
         -1    1    1    2    0  501 -0.56601144439E+01 -0.28396272605E+02  0.30865547412E+03  0.31001062384E+03  0.00000000000E+00 0.  1.
</event>
<event>
 4    1  0.6729064E+001  0.2002171E+02  0.7546771E-02  0.1533704E+00
          2   -1    0    0  502    0  0.00000000000E+00  0.00000000000E+00  0.11464695386E+04  0.11464695386E+04  0.00000000000E+00 0. -1.
         -2   -1    0    0    0  501 -0.00000000000E+00 -0.00000000000E+00 -0.90621633660E+00  0.90621633660E+00  0.00000000000E+00 0.  1.
          1    1    1    2  502    0  0.19889726422E+02  0.22951023333E+01  0.12319203855E+03  0.12480844152E+03  0.00000000000E+00 0.  1.
         -1    1    1    2    0  501 -0.19889726422E+02 -0.22951023333E+01  0.10223712837E+04  0.10225673134E+04  0.00000000000E+00 0. -1.
</event>
<event>
 4    1  0.6729064E+001  0.2221056E+02  0.7546771E-02  0.1502656E+00
          2   -1    0    0  502    0  0.00000000000E+00  0.00000000000E+00  0.16752357372E+02  0.16752357372E+02  0.00000000000E+00 0.  1.
         -2   -1    0    0    0  501 -0.00000000000E+00 -0.00000000000E+00 -0.49147216721E+02  0.49147216721E+02  0.00000000000E+00 0. -1.
          1    1    1    2  502    0  0.19426909923E+02  0.10765884415E+02  0.46636629724E+01  0.22694907991E+02  0.00000000000E+00 0.  1.
         -1    1    1    2    0  501 -0.19426909923E+02 -0.10765884415E+02 -0.37058522321E+02  0.43204666103E+02  0.00000000000E+00 0. -1.
</event>
<event>
 4    1  0.6729064E+001  0.2958590E+02  0.7546771E-02  0.1423230E+00
          2   -1    0    0  502    0  0.00000000000E+00  0.00000000000E+00  0.13232858853E+04  0.13232858853E+04  0.00000000000E+00 0.  1.
         -2   -1    0    0    0  501 -0.00000000000E+00 -0.00000000000E+00 -0.94956021678E+00  0.94956021678E+00  0.00000000000E+00 0. -1.
          1    1    1    2  502    0  0.23121740747E+02  0.18458350366E+02  0.29647169226E+03  0.29794427316E+03  0.00000000000E+00 0. -1.
         -1    1    1    2    0  501 -0.23121740747E+02 -0.18458350366E+02  0.10258646328E+04  0.10262911724E+04  0.00000000000E+00 0.  1.
</event>
<event>
 4    1  0.6729064E+001  0.9859954E+02  0.7546771E-02  0.1166257E+00
          2   -1    0    0  502    0  0.00000000000E+00  0.00000000000E+00  0.59194176390E+02  0.59194176390E+02  0.00000000000E+00 0.  1.
         -2   -1    0    0    0  501 -0.00000000000E+00 -0.00000000000E+00 -0.19186589789E+03  0.19186589789E+03  0.00000000000E+00 0. -1.
          1    1    1    2  502    0 -0.30466848358E+02 -0.93774407552E+02 -0.11397142179E+03  0.15070286442E+03  0.00000000000E+00 0. -1.
         -1    1    1    2    0  501  0.30466848358E+02  0.93774407552E+02 -0.18700299709E+02  0.10035720985E+03  0.00000000000E+00 0.  1.
</event>
<event>
 4    1  0.6729064E+001  0.2031164E+02  0.7546771E-02  0.1529324E+00
          2   -1    0    0  502    0  0.00000000000E+00  0.00000000000E+00  0.17917741868E+02  0.17917741868E+02  0.00000000000E+00 0. -1.
         -2   -1    0    0    0  501 -0.00000000000E+00 -0.00000000000E+00 -0.32226420802E+02  0.32226420802E+02  0.00000000000E+00 0.  1.
          1    1    1    2  502    0 -0.11502711509E+02 -0.16740684348E+02 -0.20551190808E+02  0.28894884117E+02  0.00000000000E+00 0.  1.
         -1    1    1    2    0  501  0.11502711509E+02  0.16740684348E+02  0.62425118743E+01  0.21249278552E+02  0.00000000000E+00 0. -1.
</event>
<event>
 4    1  0.6729064E+001  0.2094314E+02  0.7546771E-02  0.1520078E+00
          2   -1    0    0  502    0  0.00000000000E+00  0.00000000000E+00  0.22091638722E+04  0.22091638722E+04  0.00000000000E+00 0.  1.
         -2   -1    0    0    0  501 -0.00000000000E+00 -0.00000000000E+00 -0.21254306435E+00  0.21254306435E+00  0.00000000000E+00 0. -1.
          1    1    1    2  502    0  0.15490992793E+02  0.14094118860E+02  0.13879893929E+04  0.13881473877E+04  0.00000000000E+00 0. -1.
         -1    1    1    2    0  501 -0.15490992793E+02 -0.14094118860E+02  0.82096193621E+03  0.82122902758E+03  0.00000000000E+00 0.  1.
</event>
<event>
 4    1  0.6729064E+001  0.2581469E+02  0.7546771E-02  0.1459892E+00
          2   -1    0    0  502    0  0.00000000000E+00  0.00000000000E+00  0.82015133437E+03  0.82015133437E+03  0.00000000000E+00 0. -1.
         -2   -1    0    0    0  501 -0.00000000000E+00 -0.00000000000E+00 -0.81274250001E+00  0.81274250001E+00  0.00000000000E+00 0.  1.
          1    1    1    2  502    0 -0.22146113538E+02  0.13264543804E+02  0.41628945669E+03  0.41708909146E+03  0.00000000000E+00 0.  1.
         -1    1    1    2    0  501  0.22146113538E+02 -0.13264543804E+02  0.40304913518E+03  0.40387498541E+03  0.00000000000E+00 0. -1.
</event>
<event>
 4    1  0.6729064E+001  0.4752393E+02  0.7546771E-02  0.1309280E+00
          2   -1    0    0  502    0  0.00000000000E+00  0.00000000000E+00  0.12260085886E+03  0.12260085886E+03  0.00000000000E+00 0.  1.
         -2   -1    0    0    0  501 -0.00000000000E+00 -0.00000000000E+00 -0.19598974694E+02  0.19598974694E+02  0.00000000000E+00 0. -1.
          1    1    1    2  502    0 -0.19086604860E+02 -0.43522700814E+02  0.68926219111E+02  0.83721846922E+02  0.00000000000E+00 0. -1.
         -1    1    1    2    0  501  0.19086604860E+02  0.43522700814E+02  0.34075665052E+02  0.58477986627E+02  0.00000000000E+00 0.  1.
</event>
<event>
 4    1  0.6729064E+001  0.2179836E+02  0.7546771E-02  0.1508165E+00
          2   -1    0    0  502    0  0.00000000000E+00  0.00000000000E+00  0.20405843878E+03  0.20405843878E+03  0.00000000000E+00 0.  1.
         -2   -1    0    0    0  501 -0.00000000000E+00 -0.00000000000E+00 -0.35303588382E+01  0.35303588382E+01  0.00000000000E+00 0. -1.
          1    1    1    2  502    0  0.42210421934E+01 -0.21385768781E+02  0.39705543738E+02  0.45295678680E+02  0.00000000000E+00 0. -1.
         -1    1    1    2    0  501 -0.42210421934E+01  0.21385768781E+02  0.16082253620E+03  0.16229311893E+03  0.00000000000E+00 0.  1.
</event>
<event>
 4    1  0.6729064E+001  0.3786570E+02  0.7546771E-02  0.1361468E+00
          2   -1    0    0  502    0  0.00000000000E+00  0.00000000000E+00  0.13482992857E+03  0.13482992857E+03  0.00000000000E+00 0.  1.
         -2   -1    0    0    0  501 -0.00000000000E+00 -0.00000000000E+00 -0.14737280175E+02  0.14737280175E+02  0.00000000000E+00 0. -1.
          1    1    1    2  502    0  0.15649806950E+02  0.34480354728E+02  0.20586823185E+02  0.43100215876E+02  0.00000000000E+00 0. -1.
         -1    1    1    2    0  501 -0.15649806950E+02 -0.34480354728E+02  0.99505825206E+02  0.10646699286E+03  0.00000000000E+00 0.  1.
</event>
<event>
 4    1  0.6729064E+001  0.5244523E+02  0.7546771E-02  0.1287905E+00
          2   -1    0    0  502    0  0.00000000000E+00  0.00000000000E+00  0.46834196859E+02  0.46834196859E+02  0.00000000000E+00 0. -1.
         -2   -1    0    0    0  501 -0.00000000000E+00 -0.00000000000E+00 -0.80105472611E+02  0.80105472611E+02  0.00000000000E+00 0.  1.
          1    1    1    2  502    0 -0.13980679150E+02  0.50547428359E+02 -0.49423222433E+02  0.72063560964E+02  0.00000000000E+00 0.  1.
         -1    1    1    2    0  501  0.13980679150E+02 -0.50547428359E+02  0.16151946680E+02  0.54876108506E+02  0.00000000000E+00 0. -1.
</event>
<event>
 4    1  0.6729064E+001  0.2844545E+02  0.7546771E-02  0.1433605E+00
          2   -1    0    0  502    0  0.00000000000E+00  0.00000000000E+00  0.49841596340E+02  0.49841596340E+02  0.00000000000E+00 0. -1.
         -2   -1    0    0    0  501 -0.00000000000E+00 -0.00000000000E+00 -0.19387502680E+02  0.19387502680E+02  0.00000000000E+00 0.  1.
          1    1    1    2  502    0 -0.10368950950E+02  0.26488275367E+02  0.29186649996E+02  0.40755421893E+02  0.00000000000E+00 0. -1.
         -1    1    1    2    0  501  0.10368950950E+02 -0.26488275367E+02  0.12674436636E+01  0.28473677127E+02  0.00000000000E+00 0.  1.
</event>
<event>
 4    1  0.6729064E+001  0.3122443E+02  0.7546771E-02  0.1409246E+00
          2   -1    0    0  502    0  0.00000000000E+00  0.00000000000E+00  0.77526085763E+03  0.77526085763E+03  0.00000000000E+00 0.  1.
         -2   -1    0    0    0  501 -0.00000000000E+00 -0.00000000000E+00 -0.21795836891E+01  0.21795836891E+01  0.00000000000E+00 0. -1.
          1    1    1    2  502    0 -0.31206073161E+02 -0.10706467677E+01  0.13371982729E+03  0.13731699639E+03  0.00000000000E+00 0. -1.
         -1    1    1    2    0  501  0.31206073161E+02  0.10706467677E+01  0.63936144665E+03  0.64012344493E+03  0.00000000000E+00 0.  1.
</event>
<event>
 4    1  0.6729064E+001  0.5135015E+02  0.7546771E-02  0.1292422E+00
          2   -1    0    0  502    0  0.00000000000E+00  0.00000000000E+00  0.67101785782E+01  0.67101785782E+01  0.00000000000E+00 0. -1.
         -2   -1    0    0    0  501 -0.00000000000E+00 -0.00000000000E+00 -0.39826144011E+03  0.39826144011E+03  0.00000000000E+00 0.  1.
          1    1    1    2  502    0  0.26642150401E+02 -0.43897991020E+02 -0.17241574876E+03  0.17990005063E+03  0.00000000000E+00 0.  1.
         -1    1    1    2    0  501 -0.26642150401E+02  0.43897991020E+02 -0.21913551277E+03  0.22507156806E+03  0.00000000000E+00 0. -1.
</event>
<event>
 4    1  0.6729064E+001  0.2200745E+02  0.7546771E-02  0.1505352E+00
          2   -1    0    0  502    0  0.00000000000E+00  0.00000000000E+00  0.22053222538E+03  0.22053222538E+03  0.00000000000E+00 0. -1.
         -2   -1    0    0    0  501 -0.00000000000E+00 -0.00000000000E+00 -0.26978747106E+01  0.26978747106E+01  0.00000000000E+00 0.  1.
          1    1    1    2  502    0 -0.11397745269E+01 -0.21977919307E+02  0.15704901860E+03  0.15858348674E+03  0.00000000000E+00 0.  1.
         -1    1    1    2    0  501  0.11397745269E+01  0.21977919307E+02  0.60785332069E+02  0.64646613351E+02  0.00000000000E+00 0. -1.
</event>
<event>
 4    1  0.6729064E+001  0.5421764E+02  0.7546771E-02  0.1280854E+00
          2   -1    0    0  502    0  0.00000000000E+00  0.00000000000E+00  0.10616172196E+03  0.10616172196E+03  0.00000000000E+00 0. -1.
         -2   -1    0    0    0  501 -0.00000000000E+00 -0.00000000000E+00 -0.27892239735E+02  0.27892239735E+02  0.00000000000E+00 0.  1.
          1    1    1    2  502    0 -0.49638513346E+02  0.21807589473E+02  0.44850827465E+02  0.70364406415E+02  0.00000000000E+00 0. -1.
         -1    1    1    2    0  501  0.49638513346E+02 -0.21807589473E+02  0.33418654761E+02  0.63689555280E+02  0.00000000000E+00 0.  1.
</event>
<event>
 4    1  0.6729064E+001  0.5588227E+02  0.7546771E-02  0.1274504E+00
          2   -1    0    0  502    0  0.00000000000E+00  0.00000000000E+00  0.80975790209E+03  0.80975790209E+03  0.00000000000E+00 0.  1.
         -2   -1    0    0    0  501 -0.00000000000E+00 -0.00000000000E+00 -0.44292170287E+01  0.44292170287E+01  0.00000000000E+00 0. -1.
          1    1    1    2  502    0 -0.49702331650E+02  0.25544207714E+02  0.25627744111E+03  0.26229936169E+03  0.00000000000E+00 0. -1.
         -1    1    1    2    0  501  0.49702331650E+02 -0.25544207714E+02  0.54905124395E+03  0.55188775743E+03  0.00000000000E+00 0.  1.
</event>
<event>
 4    1  0.6729064E+001  0.2618901E+02  0.7546771E-02  0.1455929E+00
          2   -1    0    0  502    0  0.00000000000E+00  0.00000000000E+00  0.39305188592E+03  0.39305188592E+03  0.00000000000E+00 0.  1.
         -2   -1    0    0    0  501 -0.00000000000E+00 -0.00000000000E+00 -0.18542071773E+01  0.18542071773E+01  0.00000000000E+00 0. -1.
          1    1    1    2  502    0 -0.22831022621E+02  0.12830000086E+02  0.24352428590E+03  0.24492844326E+03  0.00000000000E+00 0. -1.
         -1    1    1    2    0  501  0.22831022621E+02 -0.12830000086E+02  0.14767339284E+03  0.14997764983E+03  0.00000000000E+00 0.  1.
</event>
<event>
 4    1  0.6729064E+001  0.2238439E+02  0.7546771E-02  0.1500376E+00
          2   -1    0    0  502    0  0.00000000000E+00  0.00000000000E+00  0.13234940683E+03  0.13234940683E+03  0.00000000000E+00 0. -1.
         -2   -1    0    0    0  501 -0.00000000000E+00 -0.00000000000E+00 -0.23025468559E+02  0.23025468559E+02  0.00000000000E+00 0.  1.
          1    1    1    2  502    0  0.18411479486E+02  0.12731004962E+02  0.12567601743E+03  0.12765391659E+03  0.00000000000E+00 0. -1.
         -1    1    1    2    0  501 -0.18411479486E+02 -0.12731004962E+02 -0.16352079155E+02  0.27720958802E+02  0.00000000000E+00 0.  1.
</event>
<event>
 4    1  0.6729064E+001  0.2193171E+02  0.7546771E-02  0.1506367E+00
          2   -1    0    0  502    0  0.00000000000E+00  0.00000000000E+00  0.51809334009E+03  0.51809334009E+03  0.00000000000E+00 0. -1.
         -2   -1    0    0    0  501 -0.00000000000E+00 -0.00000000000E+00 -0.93293047518E+00  0.93293047518E+00  0.00000000000E+00 0.  1.
          1    1    1    2  502    0 -0.37848555404E+01 -0.21602659935E+02  0.27665626641E+03  0.27752421478E+03  0.00000000000E+00 0. -1.
         -1    1    1    2    0  501  0.37848555404E+01  0.21602659935E+02  0.24050414321E+03  0.24150205578E+03  0.00000000000E+00 0.  1.
</event>
<event>
 4    1  0.6729064E+001  0.2171595E+02  0.7546771E-02  0.1509284E+00
          2   -1    0    0  502    0  0.00000000000E+00  0.00000000000E+00  0.35852674541E+03  0.35852674541E+03  0.00000000000E+00 0. -1.
         -2   -1    0    0    0  501 -0.00000000000E+00 -0.00000000000E+00 -0.14586463607E+01  0.14586463607E+01  0.00000000000E+00 0.  1.
          1    1    1    2  502    0  0.15870751718E+02 -0.14822342199E+02  0.12211562153E+03  0.12403147830E+03  0.00000000000E+00 0.  1.
         -1    1    1    2    0  501 -0.15870751718E+02  0.14822342199E+02  0.23495247752E+03  0.23595391347E+03  0.00000000000E+00 0. -1.
</event>
<event>
 4    1  0.6729064E+001  0.2497670E+02  0.7546771E-02  0.1469064E+00
          2   -1    0    0  502    0  0.00000000000E+00  0.00000000000E+00  0.80259618439E+03  0.80259618439E+03  0.00000000000E+00 0.  1.
         -2   -1    0    0    0  501 -0.00000000000E+00 -0.00000000000E+00 -0.26558396296E+01  0.26558396296E+01  0.00000000000E+00 0. -1.
          1    1    1    2  502    0 -0.22588886144E+02  0.10657286529E+02  0.61348832080E+02  0.66238317694E+02  0.00000000000E+00 0. -1.
         -1    1    1    2    0  501  0.22588886144E+02 -0.10657286529E+02  0.73859151268E+03  0.73901370632E+03  0.00000000000E+00 0.  1.
</event>
<event>
 4    1  0.6729064E+001  0.2230084E+02  0.7546771E-02  0.1501469E+00
          2   -1    0    0  502    0  0.00000000000E+00  0.00000000000E+00  0.14923175651E+03  0.14923175651E+03  0.00000000000E+00 0. -1.
         -2   -1    0    0    0  501 -0.00000000000E+00 -0.00000000000E+00 -0.41821708996E+01  0.41821708996E+01  0.00000000000E+00 0.  1.
          1    1    1    2  502    0 -0.91098810529E+01  0.20355281868E+02  0.37951743113E+02  0.44018885015E+02  0.00000000000E+00 0. -1.
         -1    1    1    2    0  501  0.91098810529E+01 -0.20355281868E+02  0.10709784250E+03  0.10939504239E+03  0.00000000000E+00 0.  1.
</event>
<event>
 4    1  0.6729064E+001  0.2742583E+02  0.7546771E-02  0.1443377E+00
          2   -1    0    0  502    0  0.00000000000E+00  0.00000000000E+00  0.34445566134E+03  0.34445566134E+03  0.00000000000E+00 0. -1.
         -2   -1    0    0    0  501 -0.00000000000E+00 -0.00000000000E+00 -0.27164243380E+01  0.27164243380E+01  0.00000000000E+00 0.  1.
          1    1    1    2  502    0 -0.27421654269E+02  0.47849245319E+00  0.24774391766E+03  0.24925734656E+03  0.00000000000E+00 0.  1.
         -1    1    1    2    0  501  0.27421654269E+02 -0.47849245319E+00  0.93995319345E+02  0.97914739119E+02  0.00000000000E+00 0. -1.
</event>
<event>
 4    1  0.6729064E+001  0.3262372E+02  0.7546771E-02  0.1398086E+00
          2   -1    0    0  502    0  0.00000000000E+00  0.00000000000E+00  0.10734415361E+04  0.10734415361E+04  0.00000000000E+00 0.  1.
         -2   -1    0    0    0  501 -0.00000000000E+00 -0.00000000000E+00 -0.10643602537E+01  0.10643602537E+01  0.00000000000E+00 0. -1.
          1    1    1    2  502    0  0.32616729272E+02  0.67511460824E+00  0.67676385051E+03  0.67754971491E+03  0.00000000000E+00 0.  1.
         -1    1    1    2    0  501 -0.32616729272E+02 -0.67511460824E+00  0.39561332531E+03  0.39695618143E+03  0.00000000000E+00 0. -1.
</event>
<event>
 4    1  0.6729064E+001  0.3089457E+02  0.7546771E-02  0.1411978E+00
          2   -1    0    0  502    0  0.00000000000E+00  0.00000000000E+00  0.19883530343E+02  0.19883530343E+02  0.00000000000E+00 0.  1.
         -2   -1    0    0    0  501 -0.00000000000E+00 -0.00000000000E+00 -0.60758226960E+02  0.60758226960E+02  0.00000000000E+00 0. -1.
          1    1    1    2  502    0 -0.22970488422E+01  0.30809054555E+02 -0.38911610851E+02  0.49684884371E+02  0.00000000000E+00 0. -1.
         -1    1    1    2    0  501  0.22970488422E+01 -0.30809054555E+02 -0.19630857673E+01  0.30956872932E+02  0.00000000000E+00 0.  1.
</event>
<event>
 4    1  0.6729064E+001  0.2176491E+02  0.7546771E-02  0.1508618E+00
          2   -1    0    0  502    0  0.00000000000E+00  0.00000000000E+00  0.63259553270E+01  0.63259553270E+01  0.00000000000E+00 0. -1.
         -2   -1    0    0    0  501 -0.00000000000E+00 -0.00000000000E+00 -0.79759895891E+02  0.79759895891E+02  0.00000000000E+00 0.  1.
          1    1    1    2  502    0 -0.19686383701E+02 -0.92821061254E+01 -0.26074357525E+02  0.33964441960E+02  0.00000000000E+00 0. -1.
         -1    1    1    2    0  501  0.19686383701E+02  0.92821061254E+01 -0.47359583039E+02  0.52121409257E+02  0.00000000000E+00 0.  1.
</event>
<event>
 4    1  0.6729064E+001  0.2681125E+02  0.7546771E-02  0.1449513E+00
          2   -1    0    0  502    0  0.00000000000E+00  0.00000000000E+00  0.67510838953E+03  0.67510838953E+03  0.00000000000E+00 0.  1.
         -2   -1    0    0    0  501 -0.00000000000E+00 -0.00000000000E+00 -0.10746518454E+01  0.10746518454E+01  0.00000000000E+00 0. -1.
          1    1    1    2  502    0  0.26790030568E+02 -0.10664110461E+01  0.30461537465E+03  0.30579301732E+03  0.00000000000E+00 0. -1.
         -1    1    1    2    0  501 -0.26790030568E+02  0.10664110461E+01  0.36941836303E+03  0.37039002405E+03  0.00000000000E+00 0.  1.
</event>
<event>
 4    1  0.6729064E+001  0.2785129E+02  0.7546771E-02  0.1439239E+00
          2   -1    0    0  502    0  0.00000000000E+00  0.00000000000E+00  0.23849748388E+03  0.23849748388E+03  0.00000000000E+00 0.  1.
         -2   -1    0    0    0  501 -0.00000000000E+00 -0.00000000000E+00 -0.49495098337E+01  0.49495098337E+01  0.00000000000E+00 0. -1.
          1    1    1    2  502    0 -0.15590378013E+02  0.23078875746E+02  0.18805034867E+03  0.19010162553E+03  0.00000000000E+00 0.  1.
         -1    1    1    2    0  501  0.15590378013E+02 -0.23078875746E+02  0.45497625374E+02  0.53345368187E+02  0.00000000000E+00 0. -1.
</event>
<event>
 4    1  0.6729064E+001  0.3050994E+02  0.7546771E-02  0.1415216E+00
          2   -1    0    0  502    0  0.00000000000E+00  0.00000000000E+00  0.18078902434E+04  0.18078902434E+04  0.00000000000E+00 0.  1.
         -2   -1    0    0    0  501 -0.00000000000E+00 -0.00000000000E+00 -0.52674486706E+00  0.52674486706E+00  0.00000000000E+00 0. -1.
          1    1    1    2  502    0 -0.78761825126E+01  0.29475788349E+02  0.10393569333E+04  0.10398046408E+04  0.00000000000E+00 0.  1.
         -1    1    1    2    0  501  0.78761825126E+01 -0.29475788349E+02  0.76800656529E+03  0.76861234746E+03  0.00000000000E+00 0. -1.
</event>
<event>
 4    1  0.6729064E+001  0.4916359E+02  0.7546771E-02  0.1301840E+00
          2   -1    0    0  502    0  0.00000000000E+00  0.00000000000E+00  0.27924428920E+03  0.27924428920E+03  0.00000000000E+00 0. -1.
         -2   -1    0    0    0  501 -0.00000000000E+00 -0.00000000000E+00 -0.90574823799E+01  0.90574823799E+01  0.00000000000E+00 0.  1.
          1    1    1    2  502    0 -0.27311048804E+02  0.40879882587E+02  0.10473335618E+03  0.11569846189E+03  0.00000000000E+00 0.  1.
         -1    1    1    2    0  501  0.27311048804E+02 -0.40879882587E+02  0.16545345063E+03  0.17260330968E+03  0.00000000000E+00 0. -1.
</event>
<event>
 4    1  0.6729064E+001  0.4654385E+02  0.7546771E-02  0.1313895E+00
          2   -1    0    0  502    0  0.00000000000E+00  0.00000000000E+00  0.38146792078E+02  0.38146792078E+02  0.00000000000E+00 0.  1.
         -2   -1    0    0    0  501 -0.00000000000E+00 -0.00000000000E+00 -0.57754927044E+02  0.57754927044E+02  0.00000000000E+00 0. -1.
          1    1    1    2  502    0  0.46265980475E+02  0.50782746733E+01 -0.36038719306E+01  0.46683163087E+02  0.00000000000E+00 0. -1.
         -1    1    1    2    0  501 -0.46265980475E+02 -0.50782746733E+01 -0.16004263035E+02  0.49218556036E+02  0.00000000000E+00 0.  1.
</event>
<event>
 4    1  0.6729064E+001  0.3053848E+02  0.7546771E-02  0.1414974E+00
          2   -1    0    0  502    0  0.00000000000E+00  0.00000000000E+00  0.48946883910E+01  0.48946883910E+01  0.00000000000E+00 0.  1.
         -2   -1    0    0    0  501 -0.00000000000E+00 -0.00000000000E+00 -0.22348324705E+03  0.22348324705E+03  0.00000000000E+00 0. -1.
          1    1    1    2  502    0  0.21214198803E+02 -0.21967166356E+02 -0.15314052281E+03  0.15615575031E+03  0.00000000000E+00 0. -1.
         -1    1    1    2    0  501 -0.21214198803E+02  0.21967166356E+02 -0.65448035853E+02  0.72222185135E+02  0.00000000000E+00 0.  1.
</event>
<event>
 4    1  0.6729064E+001  0.2434384E+02  0.7546771E-02  0.1476279E+00
          2   -1    0    0  502    0  0.00000000000E+00  0.00000000000E+00  0.21299488468E+03  0.21299488468E+03  0.00000000000E+00 0. -1.
         -2   -1    0    0    0  501 -0.00000000000E+00 -0.00000000000E+00 -0.27840511787E+01  0.27840511787E+01  0.00000000000E+00 0.  1.
          1    1    1    2  502    0  0.22824623074E+02  0.84651582498E+01  0.10778703091E+03  0.11050188395E+03  0.00000000000E+00 0. -1.
         -1    1    1    2    0  501 -0.22824623074E+02 -0.84651582498E+01  0.10242380259E+03  0.10527705191E+03  0.00000000000E+00 0.  1.
</event>
<event>
 4    1  0.6729064E+001  0.2365010E+02  0.7546771E-02  0.1484492E+00
          2   -1    0    0  502    0  0.00000000000E+00  0.00000000000E+00  0.37246473198E+02  0.37246473198E+02  0.00000000000E+00 0.  1.
         -2   -1    0    0    0  501 -0.00000000000E+00 -0.00000000000E+00 -0.15021681573E+02  0.15021681573E+02  0.00000000000E+00 0. -1.
          1    1    1    2  502    0  0.19354632708E+02 -0.13591379485E+02  0.10647231459E+02  0.25936286190E+02  0.00000000000E+00 0. -1.
         -1    1    1    2    0  501 -0.19354632708E+02  0.13591379485E+02  0.11577560166E+02  0.26331868581E+02  0.00000000000E+00 0.  1.
</event>
<event>
 4    1  0.6729064E+001  0.2110744E+02  0.7546771E-02  0.1517736E+00
          2   -1    0    0  502    0  0.00000000000E+00  0.00000000000E+00  0.25142265265E+02  0.25142265265E+02  0.00000000000E+00 0. -1.
         -2   -1    0    0    0  501 -0.00000000000E+00 -0.00000000000E+00 -0.30459476159E+02  0.30459476159E+02  0.00000000000E+00 0.  1.
          1    1    1    2  502    0  0.10021924720E+02 -0.18576460309E+02 -0.20637831542E+02  0.29520229394E+02  0.00000000000E+00 0.  1.
         -1    1    1    2    0  501 -0.10021924720E+02  0.18576460309E+02  0.15320620648E+02  0.26081512029E+02  0.00000000000E+00 0. -1.
</event>
<event>
 4    1  0.6729064E+001  0.2037850E+02  0.7546771E-02  0.1528326E+00
          2   -1    0    0  502    0  0.00000000000E+00  0.00000000000E+00  0.14471671154E+03  0.14471671154E+03  0.00000000000E+00 0.  1.
         -2   -1    0    0    0  501 -0.00000000000E+00 -0.00000000000E+00 -0.46867932991E+01  0.46867932991E+01  0.00000000000E+00 0. -1.
          1    1    1    2  502    0  0.21827322339E+01  0.20261264140E+02  0.23500273163E+02  0.31105401192E+02  0.00000000000E+00 0. -1.
         -1    1    1    2    0  501 -0.21827322339E+01 -0.20261264140E+02  0.11652964508E+03  0.11829810364E+03  0.00000000000E+00 0.  1.
</event>
<event>
 4    1  0.6729064E+001  0.2975472E+02  0.7546771E-02  0.1421740E+00
          2   -1    0    0  502    0  0.00000000000E+00  0.00000000000E+00  0.17814792913E+04  0.17814792913E+04  0.00000000000E+00 0.  1.
         -2   -1    0    0    0  501 -0.00000000000E+00 -0.00000000000E+00 -0.54987540559E+00  0.54987540559E+00  0.00000000000E+00 0. -1.
          1    1    1    2  502    0  0.86802376303E+01  0.28460447176E+02  0.61408986672E+03  0.61481030244E+03  0.00000000000E+00 0. -1.
         -1    1    1    2    0  501 -0.86802376303E+01 -0.28460447176E+02  0.11668395492E+04  0.11672188643E+04  0.00000000000E+00 0.  1.
</event>
<event>
 4    1  0.6729064E+001  0.2157347E+02  0.7546771E-02  0.1511232E+00
          2   -1    0    0  502    0  0.00000000000E+00  0.00000000000E+00  0.63241048120E+02  0.63241048120E+02  0.00000000000E+00 0. -1.
         -2   -1    0    0    0  501 -0.00000000000E+00 -0.00000000000E+00 -0.73834708644E+01  0.73834708644E+01  0.00000000000E+00 0.  1.
          1    1    1    2  502    0  0.21344607903E+02  0.31340912425E+01  0.25911656813E+02  0.33716891512E+02  0.00000000000E+00 0. -1.
         -1    1    1    2    0  501 -0.21344607903E+02 -0.31340912425E+01  0.29945920443E+02  0.36907627472E+02  0.00000000000E+00 0.  1.
</event>
<event>
 4    1  0.6729064E+001  0.2366177E+02  0.7546771E-02  0.1484351E+00
          2   -1    0    0  502    0  0.00000000000E+00  0.00000000000E+00  0.55575816191E+03  0.55575816191E+03  0.00000000000E+00 0. -1.
         -2   -1    0    0    0  501 -0.00000000000E+00 -0.00000000000E+00 -0.13739169249E+01  0.13739169249E+01  0.00000000000E+00 0.  1.
          1    1    1    2  502    0  0.51538028156E+01 -0.23093675508E+02  0.13331703142E+03  0.13540055538E+03  0.00000000000E+00 0.  1.
         -1    1    1    2    0  501 -0.51538028156E+01  0.23093675508E+02  0.42106721356E+03  0.42173152345E+03  0.00000000000E+00 0. -1.
</event>
<event>
 4    1  0.6729064E+001  0.2154835E+02  0.7546771E-02  0.1511578E+00
          2   -1    0    0  502    0  0.00000000000E+00  0.00000000000E+00  0.36904375912E+01  0.36904375912E+01  0.00000000000E+00 0. -1.
         -2   -1    0    0    0  501 -0.00000000000E+00 -0.00000000000E+00 -0.70043393120E+03  0.70043393120E+03  0.00000000000E+00 0.  1.
          1    1    1    2  502    0 -0.63498453541E+01  0.20591524755E+02 -0.66724919662E+03  0.66759705048E+03  0.00000000000E+00 0.  1.
         -1    1    1    2    0  501  0.63498453541E+01 -0.20591524755E+02 -0.29494296994E+02  0.36527318310E+02  0.00000000000E+00 0. -1.
</event>
<event>
 4    1  0.6729064E+001  0.2995251E+02  0.7546771E-02  0.1420010E+00
          2   -1    0    0  502    0  0.00000000000E+00  0.00000000000E+00  0.63846664667E+01  0.63846664667E+01  0.00000000000E+00 0. -1.
         -2   -1    0    0    0  501 -0.00000000000E+00 -0.00000000000E+00 -0.14702214678E+03  0.14702214678E+03  0.00000000000E+00 0.  1.
          1    1    1    2  502    0 -0.99477827676E+01  0.28252330607E+02 -0.86453416072E+02  0.91495058431E+02  0.00000000000E+00 0. -1.
         -1    1    1    2    0  501  0.99477827676E+01 -0.28252330607E+02 -0.54184064245E+02  0.61911754819E+02  0.00000000000E+00 0.  1.
</event>
<event>
 4    1  0.6729064E+001  0.2196136E+02  0.7546771E-02  0.1505969E+00
          2   -1    0    0  502    0  0.00000000000E+00  0.00000000000E+00  0.87003222871E+01  0.87003222871E+01  0.00000000000E+00 0. -1.
         -2   -1    0    0    0  501 -0.00000000000E+00 -0.00000000000E+00 -0.63515344778E+02  0.63515344778E+02  0.00000000000E+00 0.  1.
          1    1    1    2  502    0 -0.62201619343E+01 -0.21062074468E+02 -0.40286449041E+02  0.45883541404E+02  0.00000000000E+00 0.  1.
         -1    1    1    2    0  501  0.62201619343E+01  0.21062074468E+02 -0.14528573450E+02  0.26332125662E+02  0.00000000000E+00 0. -1.
</event>
<event>
 4    1  0.6729064E+001  0.4476398E+02  0.7546771E-02  0.1322624E+00
          2   -1    0    0  502    0  0.00000000000E+00  0.00000000000E+00  0.33957955666E+04  0.33957955666E+04  0.00000000000E+00 0.  1.
         -2   -1    0    0    0  501 -0.00000000000E+00 -0.00000000000E+00 -0.15210807520E+01  0.15210807520E+01  0.00000000000E+00 0. -1.
          1    1    1    2  502    0  0.31862213665E+02  0.31442214589E+02  0.30260711083E+04  0.30264021818E+04  0.00000000000E+00 0.  1.
         -1    1    1    2    0  501 -0.31862213665E+02 -0.31442214589E+02  0.36820337759E+03  0.37091446559E+03  0.00000000000E+00 0. -1.
</event>
<event>
 4    1  0.6729064E+001  0.2095978E+02  0.7546771E-02  0.1519840E+00
          2   -1    0    0  502    0  0.00000000000E+00  0.00000000000E+00  0.46053521291E+01  0.46053521291E+01  0.00000000000E+00 0. -1.
         -2   -1    0    0    0  501 -0.00000000000E+00 -0.00000000000E+00 -0.11089019056E+03  0.11089019056E+03  0.00000000000E+00 0.  1.
          1    1    1    2  502    0  0.17343835140E+02 -0.11768768927E+02 -0.31553403353E+02  0.37880467297E+02  0.00000000000E+00 0. -1.
         -1    1    1    2    0  501 -0.17343835140E+02  0.11768768927E+02 -0.74731435076E+02  0.77615075391E+02  0.00000000000E+00 0.  1.
</event>
<event>
 4    1  0.6729064E+001  0.5217149E+02  0.7546771E-02  0.1289023E+00
          2   -1    0    0  502    0  0.00000000000E+00  0.00000000000E+00  0.36913283427E+03  0.36913283427E+03  0.00000000000E+00 0. -1.
         -2   -1    0    0    0  501 -0.00000000000E+00 -0.00000000000E+00 -0.82081230982E+01  0.82081230982E+01  0.00000000000E+00 0.  1.
          1    1    1    2  502    0  0.13001985935E+02 -0.50525364767E+02  0.24061887390E+03  0.24620988323E+03  0.00000000000E+00 0. -1.
         -1    1    1    2    0  501 -0.13001985935E+02  0.50525364767E+02  0.12030583727E+03  0.13113107414E+03  0.00000000000E+00 0.  1.
</event>
<event>
 4    1  0.6729064E+001  0.2096257E+02  0.7546771E-02  0.1519800E+00
          2   -1    0    0  502    0  0.00000000000E+00  0.00000000000E+00  0.62904902218E+03  0.62904902218E+03  0.00000000000E+00 0. -1.
         -2   -1    0    0    0  501 -0.00000000000E+00 -0.00000000000E+00 -0.78341249705E+00  0.78341249705E+00  0.00000000000E+00 0.  1.
          1    1    1    2  502    0  0.12834161404E+02  0.16574490598E+02  0.41777299876E+03  0.41829858705E+03  0.00000000000E+00 0. -1.
         -1    1    1    2    0  501 -0.12834161404E+02 -0.16574490598E+02  0.21049261092E+03  0.21153384762E+03  0.00000000000E+00 0.  1.
</event>
<event>
 4    1  0.6729064E+001  0.3737679E+02  0.7546771E-02  0.1364583E+00
          2   -1    0    0  502    0  0.00000000000E+00  0.00000000000E+00  0.73027832723E+03  0.73027832723E+03  0.00000000000E+00 0. -1.
         -2   -1    0    0    0  501 -0.00000000000E+00 -0.00000000000E+00 -0.28122030973E+01  0.28122030973E+01  0.00000000000E+00 0.  1.
          1    1    1    2  502    0 -0.36788740930E+02  0.66039940737E+01  0.57100122057E+03  0.57222322400E+03  0.00000000000E+00 0.  1.
         -1    1    1    2    0  501  0.36788740930E+02 -0.66039940737E+01  0.15646490357E+03  0.16086730633E+03  0.00000000000E+00 0. -1.
</event>
<event>
 4    1  0.6729064E+001  0.3623736E+02  0.7546771E-02  0.1372067E+00
          2   -1    0    0  502    0  0.00000000000E+00  0.00000000000E+00  0.16526322621E+03  0.16526322621E+03  0.00000000000E+00 0.  1.
         -2   -1    0    0    0  501 -0.00000000000E+00 -0.00000000000E+00 -0.99624619104E+01  0.99624619104E+01  0.00000000000E+00 0. -1.
          1    1    1    2  502    0 -0.29575739392E+02 -0.20938524207E+02  0.38231659763E+02  0.52676427031E+02  0.00000000000E+00 0. -1.
         -1    1    1    2    0  501  0.29575739392E+02  0.20938524207E+02  0.11706910454E+03  0.12254926109E+03  0.00000000000E+00 0.  1.
</event>
<event>
 4    1  0.6729064E+001  0.2234360E+02  0.7546771E-02  0.1500909E+00
          2   -1    0    0  502    0  0.00000000000E+00  0.00000000000E+00  0.22961862051E+03  0.22961862051E+03  0.00000000000E+00 0. -1.
         -2   -1    0    0    0  501 -0.00000000000E+00 -0.00000000000E+00 -0.22762091198E+01  0.22762091198E+01  0.00000000000E+00 0.  1.
          1    1    1    2  502    0  0.78478120632E+01 -0.20920049954E+02  0.13821693713E+03  0.14001127938E+03  0.00000000000E+00 0. -1.
         -1    1    1    2    0  501 -0.78478120632E+01  0.20920049954E+02  0.89125474259E+02  0.91883550248E+02  0.00000000000E+00 0.  1.
</event>
<event>
 4    1  0.6729064E+001  0.5180518E+02  0.7546771E-02  0.1290530E+00
          2   -1    0    0  502    0  0.00000000000E+00  0.00000000000E+00  0.11872759736E+04  0.11872759736E+04  0.00000000000E+00 0.  1.
         -2   -1    0    0    0  501 -0.00000000000E+00 -0.00000000000E+00 -0.22739202062E+01  0.22739202062E+01  0.00000000000E+00 0. -1.
          1    1    1    2  502    0 -0.93071021442E+01  0.50962285380E+02  0.54672166488E+03  0.54917060694E+03  0.00000000000E+00 0. -1.
         -1    1    1    2    0  501  0.93071021442E+01 -0.50962285380E+02  0.63828038850E+03  0.64037928685E+03  0.00000000000E+00 0.  1.
</event>
<event>
 4    1  0.6729064E+001  0.2125030E+02  0.7546771E-02  0.1515721E+00
          2   -1    0    0  502    0  0.00000000000E+00  0.00000000000E+00  0.48512251619E+03  0.48512251619E+03  0.00000000000E+00 0. -1.
         -2   -1    0    0    0  501 -0.00000000000E+00 -0.00000000000E+00 -0.95988030446E+00  0.95988030446E+00  0.00000000000E+00 0.  1.
          1    1    1    2  502    0  0.29850752236E+00  0.21248205086E+02  0.28434935493E+03  0.28514229952E+03  0.00000000000E+00 0.  1.
         -1    1    1    2    0  501 -0.29850752236E+00 -0.21248205086E+02  0.19981328095E+03  0.20094009697E+03  0.00000000000E+00 0. -1.
</event>
<event>
 4    1  0.6729064E+001  0.2305027E+02  0.7546771E-02  0.1491868E+00
          2   -1    0    0  502    0  0.00000000000E+00  0.00000000000E+00  0.15248504855E+04  0.15248504855E+04  0.00000000000E+00 0.  1.
         -2   -1    0    0    0  501 -0.00000000000E+00 -0.00000000000E+00 -0.39977003369E+00  0.39977003369E+00  0.00000000000E+00 0. -1.
          1    1    1    2  502    0  0.18648869781E+02  0.13547500986E+02  0.48894888540E+03  0.48949190765E+03  0.00000000000E+00 0.  1.
         -1    1    1    2    0  501 -0.18648869781E+02 -0.13547500986E+02  0.10355018301E+04  0.10357583479E+04  0.00000000000E+00 0. -1.
</event>
<event>
 4    1  0.6729064E+001  0.2363108E+02  0.7546771E-02  0.1484722E+00
          2   -1    0    0  502    0  0.00000000000E+00  0.00000000000E+00  0.54370022086E+03  0.54370022086E+03  0.00000000000E+00 0.  1.
         -2   -1    0    0    0  501 -0.00000000000E+00 -0.00000000000E+00 -0.20848749757E+01  0.20848749757E+01  0.00000000000E+00 0. -1.
          1    1    1    2  502    0  0.23552080304E+02  0.19306283803E+01  0.46518734090E+03  0.46578717237E+03  0.00000000000E+00 0.  1.
         -1    1    1    2    0  501 -0.23552080304E+02 -0.19306283803E+01  0.76428004982E+02  0.79997923462E+02  0.00000000000E+00 0. -1.
</event>
<event>
 4    1  0.6729064E+001  0.2804481E+02  0.7546771E-02  0.1437386E+00
          2   -1    0    0  502    0  0.00000000000E+00  0.00000000000E+00  0.10926459855E+03  0.10926459855E+03  0.00000000000E+00 0.  1.
         -2   -1    0    0    0  501 -0.00000000000E+00 -0.00000000000E+00 -0.72081108352E+01  0.72081108352E+01  0.00000000000E+00 0. -1.
          1    1    1    2  502    0  0.26874285563E+02 -0.80177479712E+01  0.48871883452E+02  0.56346894317E+02  0.00000000000E+00 0. -1.
         -1    1    1    2    0  501 -0.26874285563E+02  0.80177479712E+01  0.53184604267E+02  0.60125815072E+02  0.00000000000E+00 0.  1.
</event>
<event>
 4    1  0.6729064E+001  0.2109022E+02  0.7546771E-02  0.1517981E+00
          2   -1    0    0  502    0  0.00000000000E+00  0.00000000000E+00  0.48266977392E+01  0.48266977392E+01  0.00000000000E+00 0. -1.
         -2   -1    0    0    0  501 -0.00000000000E+00 -0.00000000000E+00 -0.96156027847E+02  0.96156027847E+02  0.00000000000E+00 0.  1.
          1    1    1    2  502    0  0.11389101877E+02 -0.17750657874E+02 -0.35363378973E+02  0.41174823241E+02  0.00000000000E+00 0. -1.
         -1    1    1    2    0  501 -0.11389101877E+02  0.17750657874E+02 -0.55965951135E+02  0.59807902345E+02  0.00000000000E+00 0.  1.
</event>
<event>
 4    1  0.6729064E+001  0.3143500E+02  0.7546771E-02  0.1407523E+00
          2   -1    0    0  502    0  0.00000000000E+00  0.00000000000E+00  0.45501438415E+02  0.45501438415E+02  0.00000000000E+00 0.  1.
         -2   -1    0    0    0  501 -0.00000000000E+00 -0.00000000000E+00 -0.22244756240E+02  0.22244756240E+02  0.00000000000E+00 0. -1.
          1    1    1    2  502    0 -0.27100951828E+02  0.15927891523E+02  0.16845287207E+02  0.35664029770E+02  0.00000000000E+00 0.  1.
         -1    1    1    2    0  501  0.27100951828E+02 -0.15927891523E+02  0.64113949673E+01  0.32082164886E+02  0.00000000000E+00 0. -1.
</event>
<event>
 4    1  0.6729064E+001  0.2785622E+02  0.7546771E-02  0.1439192E+00
          2   -1    0    0  502    0  0.00000000000E+00  0.00000000000E+00  0.10838559149E+02  0.10838559149E+02  0.00000000000E+00 0.  1.
         -2   -1    0    0    0  501 -0.00000000000E+00 -0.00000000000E+00 -0.74757843005E+02  0.74757843005E+02  0.00000000000E+00 0. -1.
          1    1    1    2  502    0  0.25709192418E+02  0.10724092116E+02 -0.23154235484E+02  0.36222746270E+02  0.00000000000E+00 0.  1.
         -1    1    1    2    0  501 -0.25709192418E+02 -0.10724092116E+02 -0.40765048373E+02  0.49373655884E+02  0.00000000000E+00 0. -1.
</event>
<event>
 4    1  0.6729064E+001  0.3509301E+02  0.7546771E-02  0.1379910E+00
          2   -1    0    0  502    0  0.00000000000E+00  0.00000000000E+00  0.60059361194E+03  0.60059361194E+03  0.00000000000E+00 0.  1.
         -2   -1    0    0    0  501 -0.00000000000E+00 -0.00000000000E+00 -0.39321196632E+01  0.39321196632E+01  0.00000000000E+00 0. -1.
          1    1    1    2  502    0 -0.34302939297E+02  0.74045760976E+01  0.50742251336E+03  0.50863457065E+03  0.00000000000E+00 0.  1.
         -1    1    1    2    0  501  0.34302939297E+02 -0.74045760976E+01  0.89238978914E+02  0.95891160955E+02  0.00000000000E+00 0. -1.
</event>
<event>
 4    1  0.6729064E+001  0.2225419E+02  0.7546771E-02  0.1502082E+00
          2   -1    0    0  502    0  0.00000000000E+00  0.00000000000E+00  0.96716198316E+02  0.96716198316E+02  0.00000000000E+00 0.  1.
         -2   -1    0    0    0  501 -0.00000000000E+00 -0.00000000000E+00 -0.55340016077E+01  0.55340016077E+01  0.00000000000E+00 0. -1.
          1    1    1    2  502    0 -0.15144098618E+02 -0.16306605648E+02  0.31618470439E+02  0.38664929635E+02  0.00000000000E+00 0. -1.
         -1    1    1    2    0  501  0.15144098618E+02  0.16306605648E+02  0.59563726268E+02  0.63585270289E+02  0.00000000000E+00 0.  1.
</event>
<event>
 4    1  0.6729064E+001  0.2157088E+02  0.7546771E-02  0.1511268E+00
          2   -1    0    0  502    0  0.00000000000E+00  0.00000000000E+00  0.18881870724E+01  0.18881870724E+01  0.00000000000E+00 0. -1.
         -2   -1    0    0    0  501 -0.00000000000E+00 -0.00000000000E+00 -0.29532818805E+03  0.29532818805E+03  0.00000000000E+00 0.  1.
          1    1    1    2  502    0 -0.19005772117E+02  0.10202126876E+02 -0.20719058053E+03  0.20831044003E+03  0.00000000000E+00 0.  1.
         -1    1    1    2    0  501  0.19005772117E+02 -0.10202126876E+02 -0.86249420453E+02  0.88905935095E+02  0.00000000000E+00 0. -1.
</event>
<event>
 4    1  0.6729064E+001  0.2379596E+02  0.7546771E-02  0.1482738E+00
          2   -1    0    0  502    0  0.00000000000E+00  0.00000000000E+00  0.33598482219E+03  0.33598482219E+03  0.00000000000E+00 0. -1.
         -2   -1    0    0    0  501 -0.00000000000E+00 -0.00000000000E+00 -0.17424310604E+01  0.17424310604E+01  0.00000000000E+00 0.  1.
          1    1    1    2  502    0  0.54913393544E+01  0.23153675046E+02  0.13655398768E+03  0.13861182860E+03  0.00000000000E+00 0.  1.
         -1    1    1    2    0  501 -0.54913393544E+01 -0.23153675046E+02  0.19768840345E+03  0.19911542465E+03  0.00000000000E+00 0. -1.
</event>
<event>
 4    1  0.6729064E+001  0.3183895E+02  0.7546771E-02  0.1404262E+00
          2   -1    0    0  502    0  0.00000000000E+00  0.00000000000E+00  0.78384213405E+03  0.78384213405E+03  0.00000000000E+00 0. -1.
         -2   -1    0    0    0  501 -0.00000000000E+00 -0.00000000000E+00 -0.17520646958E+01  0.17520646958E+01  0.00000000000E+00 0.  1.
          1    1    1    2  502    0  0.31130215300E+02 -0.66804465104E+01  0.59204820529E+03  0.59290369881E+03  0.00000000000E+00 0.  1.
         -1    1    1    2    0  501 -0.31130215300E+02  0.66804465104E+01  0.19004186406E+03  0.19269049994E+03  0.00000000000E+00 0. -1.
</event>
<event>
 4    1  0.6729064E+001  0.2155267E+02  0.7546771E-02  0.1511518E+00
          2   -1    0    0  502    0  0.00000000000E+00  0.00000000000E+00  0.13448217388E+02  0.13448217388E+02  0.00000000000E+00 0. -1.
         -2   -1    0    0    0  501 -0.00000000000E+00 -0.00000000000E+00 -0.43566190036E+02  0.43566190036E+02  0.00000000000E+00 0.  1.
          1    1    1    2  502    0 -0.10348106030E+02 -0.18905934273E+02 -0.20841154019E+01  0.21653202676E+02  0.00000000000E+00 0. -1.
         -1    1    1    2    0  501  0.10348106030E+02  0.18905934273E+02 -0.28033857246E+02  0.35361204748E+02  0.00000000000E+00 0.  1.
</event>
<event>
 4    1  0.6729064E+001  0.2377245E+02  0.7546771E-02  0.1483020E+00
          2   -1    0    0  502    0  0.00000000000E+00  0.00000000000E+00  0.73721198400E+03  0.73721198400E+03  0.00000000000E+00 0. -1.
         -2   -1    0    0    0  501 -0.00000000000E+00 -0.00000000000E+00 -0.97417186793E+00  0.97417186793E+00  0.00000000000E+00 0.  1.
          1    1    1    2  502    0  0.76323246129E+01 -0.22513930921E+02  0.53850212604E+03  0.53902659417E+03  0.00000000000E+00 0. -1.
         -1    1    1    2    0  501 -0.76323246129E+01  0.22513930921E+02  0.19773568609E+03  0.19915956170E+03  0.00000000000E+00 0.  1.
</event>
<event>
 4    1  0.6729064E+001  0.2015629E+02  0.7546771E-02  0.1531660E+00
          2   -1    0    0  502    0  0.00000000000E+00  0.00000000000E+00  0.29384069191E+03  0.29384069191E+03  0.00000000000E+00 0.  1.
         -2   -1    0    0    0  501 -0.00000000000E+00 -0.00000000000E+00 -0.15439301907E+01  0.15439301907E+01  0.00000000000E+00 0. -1.
          1    1    1    2  502    0 -0.20126760912E+02 -0.10907315093E+01  0.19388444773E+03  0.19492935969E+03  0.00000000000E+00 0.  1.
         -1    1    1    2    0  501  0.20126760912E+02  0.10907315093E+01  0.98412313995E+02  0.10045526241E+03  0.00000000000E+00 0. -1.
</event>
<event>
 4    1  0.6729064E+001  0.2784136E+02  0.7546771E-02  0.1439335E+00
          2   -1    0    0  502    0  0.00000000000E+00  0.00000000000E+00  0.25864158070E+03  0.25864158070E+03  0.00000000000E+00 0.  1.
         -2   -1    0    0    0  501 -0.00000000000E+00 -0.00000000000E+00 -0.29969767479E+01  0.29969767479E+01  0.00000000000E+00 0. -1.
          1    1    1    2  502    0 -0.27339442815E+02 -0.52627202371E+01  0.12764364919E+03  0.13064471875E+03  0.00000000000E+00 0.  1.
         -1    1    1    2    0  501  0.27339442815E+02  0.52627202371E+01  0.12800095476E+03  0.13099383870E+03  0.00000000000E+00 0. -1.
</event>
<event>
 4    1  0.6729064E+001  0.2228500E+02  0.7546771E-02  0.1501677E+00
          2   -1    0    0  502    0  0.00000000000E+00  0.00000000000E+00  0.45018395379E+01  0.45018395379E+01  0.00000000000E+00 0.  1.
         -2   -1    0    0    0  501 -0.00000000000E+00 -0.00000000000E+00 -0.11317553316E+03  0.11317553316E+03  0.00000000000E+00 0. -1.
          1    1    1    2  502    0 -0.22276492802E+02  0.61569747968E+00 -0.44982856251E+02  0.50200384176E+02  0.00000000000E+00 0.  1.
         -1    1    1    2    0  501  0.22276492802E+02 -0.61569747968E+00 -0.63690837373E+02  0.67476988524E+02  0.00000000000E+00 0. -1.
</event>
<event>
 4    1  0.6729064E+001  0.3081960E+02  0.7546771E-02  0.1412605E+00
          2   -1    0    0  502    0  0.00000000000E+00  0.00000000000E+00  0.17890967975E+02  0.17890967975E+02  0.00000000000E+00 0.  1.
         -2   -1    0    0    0  501 -0.00000000000E+00 -0.00000000000E+00 -0.14267352675E+03  0.14267352675E+03  0.00000000000E+00 0. -1.
          1    1    1    2  502    0  0.27287529123E+02 -0.14326145947E+02 -0.12600630468E+03  0.12972060947E+03  0.00000000000E+00 0. -1.
         -1    1    1    2    0  501 -0.27287529123E+02  0.14326145947E+02  0.12237459042E+01  0.30843885251E+02  0.00000000000E+00 0.  1.
</event>
<event>
 4    1  0.6729064E+001  0.2075633E+02  0.7546771E-02  0.1522772E+00
          2   -1    0    0  502    0  0.00000000000E+00  0.00000000000E+00  0.87394144342E+03  0.87394144342E+03  0.00000000000E+00 0.  1.
         -2   -1    0    0    0  501 -0.00000000000E+00 -0.00000000000E+00 -0.66156736091E+00  0.66156736091E+00  0.00000000000E+00 0. -1.
          1    1    1    2  502    0  0.18708328291E+02 -0.89902065956E+01  0.65740056018E+03  0.65772815197E+03  0.00000000000E+00 0.  1.
         -1    1    1    2    0  501 -0.18708328291E+02  0.89902065956E+01  0.21587931588E+03  0.21687485882E+03  0.00000000000E+00 0. -1.
</event>
<event>
 4    1  0.6729064E+001  0.2092880E+02  0.7546771E-02  0.1520284E+00
          2   -1    0    0  502    0  0.00000000000E+00  0.00000000000E+00  0.25998482591E+04  0.25998482591E+04  0.00000000000E+00 0.  1.
         -2   -1    0    0    0  501 -0.00000000000E+00 -0.00000000000E+00 -0.16938683177E+00  0.16938683177E+00  0.00000000000E+00 0. -1.
          1    1    1    2  502    0  0.20235132537E+02  0.53436097604E+01  0.12045650606E+04  0.12047468614E+04  0.00000000000E+00 0. -1.
         -1    1    1    2    0  501 -0.20235132537E+02 -0.53436097604E+01  0.13951138116E+04  0.13952707845E+04  0.00000000000E+00 0.  1.
</event>
<event>
 4    1  0.6729064E+001  0.2695966E+02  0.7546771E-02  0.1448014E+00
          2   -1    0    0  502    0  0.00000000000E+00  0.00000000000E+00  0.25545477411E+02  0.25545477411E+02  0.00000000000E+00 0.  1.
         -2   -1    0    0    0  501 -0.00000000000E+00 -0.00000000000E+00 -0.28504596385E+02  0.28504596385E+02  0.00000000000E+00 0. -1.
          1    1    1    2  502    0 -0.92740544532E+01 -0.25314327592E+02 -0.32012649987E+00  0.26961560571E+02  0.00000000000E+00 0. -1.
         -1    1    1    2    0  501  0.92740544532E+01  0.25314327592E+02 -0.26389924740E+01  0.27088513225E+02  0.00000000000E+00 0.  1.
</event>
<event>
 4    1  0.6729064E+001  0.4877339E+02  0.7546771E-02  0.1303580E+00
          2   -1    0    0  502    0  0.00000000000E+00  0.00000000000E+00  0.37545742540E+03  0.37545742540E+03  0.00000000000E+00 0.  1.
         -2   -1    0    0    0  501 -0.00000000000E+00 -0.00000000000E+00 -0.69894297419E+01  0.69894297419E+01  0.00000000000E+00 0. -1.
          1    1    1    2  502    0  0.48741648655E+02 -0.17592251974E+01  0.24270875196E+03  0.24756086417E+03  0.00000000000E+00 0.  1.
         -1    1    1    2    0  501 -0.48741648655E+02  0.17592251974E+01  0.12575924370E+03  0.13488599098E+03  0.00000000000E+00 0. -1.
</event>
<event>
 4    1  0.6729064E+001  0.2244052E+02  0.7546771E-02  0.1499646E+00
          2   -1    0    0  502    0  0.00000000000E+00  0.00000000000E+00  0.14341031894E+04  0.14341031894E+04  0.00000000000E+00 0. -1.
         -2   -1    0    0    0  501 -0.00000000000E+00 -0.00000000000E+00 -0.46075043288E+00  0.46075043288E+00  0.00000000000E+00 0.  1.
          1    1    1    2  502    0 -0.12144549689E+02  0.18870263394E+02  0.10666655076E+04  0.10669015334E+04  0.00000000000E+00 0. -1.
         -1    1    1    2    0  501  0.12144549689E+02 -0.18870263394E+02  0.36697693138E+03  0.36766240642E+03  0.00000000000E+00 0.  1.
</event>
<event>
 4    1  0.6729064E+001  0.2721829E+02  0.7546771E-02  0.1445428E+00
          2   -1    0    0  502    0  0.00000000000E+00  0.00000000000E+00  0.67052233829E+03  0.67052233829E+03  0.00000000000E+00 0. -1.
         -2   -1    0    0    0  501 -0.00000000000E+00 -0.00000000000E+00 -0.11050589704E+01  0.11050589704E+01  0.00000000000E+00 0.  1.
          1    1    1    2  502    0 -0.25936417911E+02  0.82545589589E+01  0.33917730484E+03  0.34026765881E+03  0.00000000000E+00 0.  1.
         -1    1    1    2    0  501  0.25936417911E+02 -0.82545589589E+01  0.33023997449E+03  0.33135973845E+03  0.00000000000E+00 0. -1.
</event>
<event>
 4    1  0.6729064E+001  0.2160028E+02  0.7546771E-02  0.1510864E+00
          2   -1    0    0  502    0  0.00000000000E+00  0.00000000000E+00  0.11641005047E+04  0.11641005047E+04  0.00000000000E+00 0.  1.
         -2   -1    0    0    0  501 -0.00000000000E+00 -0.00000000000E+00 -0.48003047266E+00  0.48003047266E+00  0.00000000000E+00 0. -1.
          1    1    1    2  502    0  0.15865816887E+02  0.14657691562E+02  0.81837490076E+03  0.81865991123E+03  0.00000000000E+00 0.  1.
         -1    1    1    2    0  501 -0.15865816887E+02 -0.14657691562E+02  0.34524557342E+03  0.34592062390E+03  0.00000000000E+00 0. -1.
</event>
<event>
 4    1  0.6729064E+001  0.6145646E+02  0.7546771E-02  0.1254963E+00
          2   -1    0    0  502    0  0.00000000000E+00  0.00000000000E+00  0.19813941927E+03  0.19813941927E+03  0.00000000000E+00 0.  1.
         -2   -1    0    0    0  501 -0.00000000000E+00 -0.00000000000E+00 -0.19158272808E+02  0.19158272808E+02  0.00000000000E+00 0. -1.
          1    1    1    2  502    0 -0.61348284356E+02 -0.36448512550E+01  0.97199889563E+02  0.11499876289E+03  0.00000000000E+00 0.  1.
         -1    1    1    2    0  501  0.61348284356E+02  0.36448512550E+01  0.81781256895E+02  0.10229892919E+03  0.00000000000E+00 0. -1.
</event>
<event>
 4    1  0.6729064E+001  0.2138743E+02  0.7546771E-02  0.1513805E+00
          2   -1    0    0  502    0  0.00000000000E+00  0.00000000000E+00  0.11220306939E+04  0.11220306939E+04  0.00000000000E+00 0. -1.
         -2   -1    0    0    0  501 -0.00000000000E+00 -0.00000000000E+00 -0.40979823927E+00  0.40979823927E+00  0.00000000000E+00 0.  1.
          1    1    1    2  502    0 -0.31945248239E+01 -0.21147507238E+02  0.60122268035E+03  0.60160296992E+03  0.00000000000E+00 0. -1.
         -1    1    1    2    0  501  0.31945248239E+01  0.21147507238E+02  0.52039821527E+03  0.52083752218E+03  0.00000000000E+00 0.  1.
</event>
<event>
 4    1  0.6729064E+001  0.2067507E+02  0.7546771E-02  0.1523955E+00
          2   -1    0    0  502    0  0.00000000000E+00  0.00000000000E+00  0.20454766141E+02  0.20454766141E+02  0.00000000000E+00 0.  1.
         -2   -1    0    0    0  501 -0.00000000000E+00 -0.00000000000E+00 -0.29648576290E+02  0.29648576290E+02  0.00000000000E+00 0. -1.
          1    1    1    2  502    0  0.16974923048E+02 -0.11802979939E+02  0.90131413158E+01  0.22554269315E+02  0.00000000000E+00 0.  1.
         -1    1    1    2    0  501 -0.16974923048E+02  0.11802979939E+02 -0.18206951464E+02  0.27549073116E+02  0.00000000000E+00 0. -1.
</event>
<event>
 4    1  0.6729064E+001  0.5717880E+02  0.7546771E-02  0.1269731E+00
          2   -1    0    0  502    0  0.00000000000E+00  0.00000000000E+00  0.47481186863E+02  0.47481186863E+02  0.00000000000E+00 0. -1.
         -2   -1    0    0    0  501 -0.00000000000E+00 -0.00000000000E+00 -0.78133374258E+02  0.78133374258E+02  0.00000000000E+00 0.  1.
          1    1    1    2  502    0 -0.72059278293E+01 -0.56722923623E+02 -0.36967185435E+02  0.68088091905E+02  0.00000000000E+00 0. -1.
         -1    1    1    2    0  501  0.72059278293E+01  0.56722923623E+02  0.63149980399E+01  0.57526469216E+02  0.00000000000E+00 0.  1.
</event>
<event>
 4    1  0.6729064E+001  0.7399496E+02  0.7546771E-02  0.1218520E+00
          2   -1    0    0  502    0  0.00000000000E+00  0.00000000000E+00  0.18882633409E+02  0.18882633409E+02  0.00000000000E+00 0. -1.
         -2   -1    0    0    0  501 -0.00000000000E+00 -0.00000000000E+00 -0.29418043752E+03  0.29418043752E+03  0.00000000000E+00 0.  1.
          1    1    1    2  502    0 -0.10857961359E+02 -0.73193976054E+02 -0.11890539557E+03  0.14004908622E+03  0.00000000000E+00 0.  1.
         -1    1    1    2    0  501  0.10857961359E+02  0.73193976054E+02 -0.15639240853E+03  0.17301398470E+03  0.00000000000E+00 0. -1.
</event>
<event>
 4    1  0.6729064E+001  0.3816240E+02  0.7546771E-02  0.1359604E+00
          2   -1    0    0  502    0  0.00000000000E+00  0.00000000000E+00  0.16385962456E+04  0.16385962456E+04  0.00000000000E+00 0.  1.
         -2   -1    0    0    0  501 -0.00000000000E+00 -0.00000000000E+00 -0.11761210956E+01  0.11761210956E+01  0.00000000000E+00 0. -1.
          1    1    1    2  502    0 -0.31504002486E+02  0.21537571014E+02  0.41346445328E+03  0.41522189642E+03  0.00000000000E+00 0. -1.
         -1    1    1    2    0  501  0.31504002486E+02 -0.21537571014E+02  0.12239556712E+04  0.12245504702E+04  0.00000000000E+00 0.  1.
</event>
<event>
 4    1  0.6729064E+001  0.3182233E+02  0.7546771E-02  0.1404395E+00
          2   -1    0    0  502    0  0.00000000000E+00  0.00000000000E+00  0.20096935378E+04  0.20096935378E+04  0.00000000000E+00 0.  1.
         -2   -1    0    0    0  501 -0.00000000000E+00 -0.00000000000E+00 -0.52913764682E+00  0.52913764682E+00  0.00000000000E+00 0. -1.
          1    1    1    2  502    0 -0.30177843201E+02  0.10097437221E+02  0.78502004282E+03  0.78566476826E+03  0.00000000000E+00 0. -1.
         -1    1    1    2    0  501  0.30177843201E+02 -0.10097437221E+02  0.12241443573E+04  0.12245579072E+04  0.00000000000E+00 0.  1.
</event>
<event>
 4    1  0.6729064E+001  0.2548887E+02  0.7546771E-02  0.1463408E+00
          2   -1    0    0  502    0  0.00000000000E+00  0.00000000000E+00  0.16195994763E+04  0.16195994763E+04  0.00000000000E+00 0. -1.
         -2   -1    0    0    0  501 -0.00000000000E+00 -0.00000000000E+00 -0.44188854031E+00  0.44188854031E+00  0.00000000000E+00 0.  1.
          1    1    1    2  502    0 -0.13218083570E+02 -0.21793684408E+02  0.10555634445E+04  0.10558711416E+04  0.00000000000E+00 0. -1.
         -1    1    1    2    0  501  0.13218083570E+02  0.21793684408E+02  0.56359414328E+03  0.56417022320E+03  0.00000000000E+00 0.  1.
</event>
<event>
 4    1  0.6729064E+001  0.3270668E+02  0.7546771E-02  0.1397445E+00
          2   -1    0    0  502    0  0.00000000000E+00  0.00000000000E+00  0.17079548732E+03  0.17079548732E+03  0.00000000000E+00 0. -1.
         -2   -1    0    0    0  501 -0.00000000000E+00 -0.00000000000E+00 -0.30942677161E+02  0.30942677161E+02  0.00000000000E+00 0.  1.
          1    1    1    2  502    0  0.28761826786E+02  0.15571898622E+02 -0.20157474757E+02  0.38419402590E+02  0.00000000000E+00 0.  1.
         -1    1    1    2    0  501 -0.28761826786E+02 -0.15571898622E+02  0.16001028492E+03  0.16331876190E+03  0.00000000000E+00 0. -1.
</event>
<event>
 4    1  0.6729064E+001  0.2047975E+02  0.7546771E-02  0.1526824E+00
          2   -1    0    0  502    0  0.00000000000E+00  0.00000000000E+00  0.30479653866E+03  0.30479653866E+03  0.00000000000E+00 0.  1.
         -2   -1    0    0    0  501 -0.00000000000E+00 -0.00000000000E+00 -0.15293788130E+01  0.15293788130E+01  0.00000000000E+00 0. -1.
          1    1    1    2  502    0  0.52534185365E+01  0.19794490660E+02  0.10313992550E+03  0.10515352823E+03  0.00000000000E+00 0. -1.
         -1    1    1    2    0  501 -0.52534185365E+01 -0.19794490660E+02  0.20012723434E+03  0.20117238924E+03  0.00000000000E+00 0.  1.
</event>
<event>
 4    1  0.6729064E+001  0.2133613E+02  0.7546771E-02  0.1514519E+00
          2   -1    0    0  502    0  0.00000000000E+00  0.00000000000E+00  0.89974979200E+02  0.89974979200E+02  0.00000000000E+00 0.  1.
         -2   -1    0    0    0  501 -0.00000000000E+00 -0.00000000000E+00 -0.62690768238E+01  0.62690768238E+01  0.00000000000E+00 0. -1.
          1    1    1    2  502    0 -0.45851086119E+01  0.20837642821E+02  0.20715407405E+02  0.29738168795E+02  0.00000000000E+00 0. -1.
         -1    1    1    2    0  501  0.45851086119E+01 -0.20837642821E+02  0.62990494972E+02  0.66505887229E+02  0.00000000000E+00 0.  1.
</event>
<event>
 4    1  0.6729064E+001  0.3382644E+02  0.7546771E-02  0.1389007E+00
          2   -1    0    0  502    0  0.00000000000E+00  0.00000000000E+00  0.35599764588E+04  0.35599764588E+04  0.00000000000E+00 0.  1.
         -2   -1    0    0    0  501 -0.00000000000E+00 -0.00000000000E+00 -0.33283853328E+00  0.33283853328E+00  0.00000000000E+00 0. -1.
          1    1    1    2  502    0  0.33752060357E+02 -0.22420237708E+01  0.14500225937E+04  0.14504170953E+04  0.00000000000E+00 0. -1.
         -1    1    1    2    0  501 -0.33752060357E+02  0.22420237708E+01  0.21096210266E+04  0.21098922020E+04  0.00000000000E+00 0.  1.
</event>
<event>
 4    1  0.6729064E+001  0.2203516E+02  0.7546771E-02  0.1504983E+00
          2   -1    0    0  502    0  0.00000000000E+00  0.00000000000E+00  0.14197163540E+04  0.14197163540E+04  0.00000000000E+00 0.  1.
         -2   -1    0    0    0  501 -0.00000000000E+00 -0.00000000000E+00 -0.34217369372E+00  0.34217369372E+00  0.00000000000E+00 0. -1.
          1    1    1    2  502    0  0.21228041378E+02  0.59091981383E+01  0.69386500304E+03  0.69421480163E+03  0.00000000000E+00 0. -1.
         -1    1    1    2    0  501 -0.21228041378E+02 -0.59091981383E+01  0.72550917729E+03  0.72584372609E+03  0.00000000000E+00 0.  1.
</event>
<event>
 4    1  0.6729064E+001  0.2157875E+02  0.7546771E-02  0.1511160E+00
          2   -1    0    0  502    0  0.00000000000E+00  0.00000000000E+00  0.23179692331E+03  0.23179692331E+03  0.00000000000E+00 0.  1.
         -2   -1    0    0    0  501 -0.00000000000E+00 -0.00000000000E+00 -0.20517713319E+01  0.20517713319E+01  0.00000000000E+00 0. -1.
          1    1    1    2  502    0 -0.19438778391E+02  0.93689079454E+01  0.97958971675E+02  0.10030754046E+03  0.00000000000E+00 0.  1.
         -1    1    1    2    0  501  0.19438778391E+02 -0.93689079454E+01  0.13178618030E+03  0.13354115418E+03  0.00000000000E+00 0. -1.
</event>
<event>
 4    1  0.6729064E+001  0.2193775E+02  0.7546771E-02  0.1506286E+00
          2   -1    0    0  502    0  0.00000000000E+00  0.00000000000E+00  0.39939095919E+02  0.39939095919E+02  0.00000000000E+00 0.  1.
         -2   -1    0    0    0  501 -0.00000000000E+00 -0.00000000000E+00 -0.12065595182E+02  0.12065595182E+02  0.00000000000E+00 0. -1.
          1    1    1    2  502    0  0.15255010371E+02  0.15765459795E+02  0.14872363459E+02  0.26503815930E+02  0.00000000000E+00 0.  1.
         -1    1    1    2    0  501 -0.15255010371E+02 -0.15765459795E+02  0.13001137278E+02  0.25500875171E+02  0.00000000000E+00 0. -1.
</event>
<event>
 4    1  0.6729064E+001  0.2201937E+02  0.7546771E-02  0.1505193E+00
          2   -1    0    0  502    0  0.00000000000E+00  0.00000000000E+00  0.23744376849E+01  0.23744376849E+01  0.00000000000E+00 0. -1.
         -2   -1    0    0    0  501 -0.00000000000E+00 -0.00000000000E+00 -0.21295177837E+03  0.21295177837E+03  0.00000000000E+00 0.  1.
          1    1    1    2  502    0  0.12757330845E+02  0.17947228396E+02 -0.12711871621E+03  0.12901170686E+03  0.00000000000E+00 0.  1.
         -1    1    1    2    0  501 -0.12757330845E+02 -0.17947228396E+02 -0.83458624476E+02  0.86314509191E+02  0.00000000000E+00 0. -1.
</event>
<event>
 4    1  0.6729064E+001  0.2392915E+02  0.7546771E-02  0.1481149E+00
          2   -1    0    0  502    0  0.00000000000E+00  0.00000000000E+00  0.20746182022E+04  0.20746182022E+04  0.00000000000E+00 0. -1.
         -2   -1    0    0    0  501 -0.00000000000E+00 -0.00000000000E+00 -0.40053699706E+00  0.40053699706E+00  0.00000000000E+00 0.  1.
          1    1    1    2  502    0  0.22590406810E+02 -0.78916394673E+01  0.16156198603E+04  0.16157970595E+04  0.00000000000E+00 0. -1.
         -1    1    1    2    0  501 -0.22590406810E+02  0.78916394673E+01  0.45859780494E+03  0.45922167974E+03  0.00000000000E+00 0.  1.
</event>
<event>
 4    1  0.6729064E+001  0.2817744E+02  0.7546771E-02  0.1436126E+00
          2   -1    0    0  502    0  0.00000000000E+00  0.00000000000E+00  0.22752287238E+03  0.22752287238E+03  0.00000000000E+00 0. -1.
         -2   -1    0    0    0  501 -0.00000000000E+00 -0.00000000000E+00 -0.40624333891E+01  0.40624333891E+01  0.00000000000E+00 0.  1.
          1    1    1    2  502    0 -0.16481663535E+02 -0.22854385374E+02  0.68249692945E+02  0.73837583593E+02  0.00000000000E+00 0.  1.
         -1    1    1    2    0  501  0.16481663535E+02  0.22854385374E+02  0.15521074604E+03  0.15774772217E+03  0.00000000000E+00 0. -1.
</event>
<event>
 4    1  0.6729064E+001  0.2011240E+02  0.7546771E-02  0.1532324E+00
          2   -1    0    0  502    0  0.00000000000E+00  0.00000000000E+00  0.12272981736E+01  0.12272981736E+01  0.00000000000E+00 0. -1.
         -2   -1    0    0    0  501 -0.00000000000E+00 -0.00000000000E+00 -0.34235551817E+03  0.34235551817E+03  0.00000000000E+00 0.  1.
          1    1    1    2  502    0  0.17954667016E+02 -0.90630301813E+01 -0.20373332273E+03  0.20472365612E+03  0.00000000000E+00 0. -1.
         -1    1    1    2    0  501 -0.17954667016E+02  0.90630301813E+01 -0.13739489727E+03  0.13885916022E+03  0.00000000000E+00 0.  1.
</event>
<event>
 4    1  0.6729064E+001  0.2189492E+02  0.7546771E-02  0.1506861E+00
          2   -1    0    0  502    0  0.00000000000E+00  0.00000000000E+00  0.40201325400E+03  0.40201325400E+03  0.00000000000E+00 0. -1.
         -2   -1    0    0    0  501 -0.00000000000E+00 -0.00000000000E+00 -0.14606672046E+01  0.14606672046E+01  0.00000000000E+00 0.  1.
          1    1    1    2  502    0 -0.21892155663E+02 -0.34784761920E+00  0.11383136672E+03  0.11591793444E+03  0.00000000000E+00 0.  1.
         -1    1    1    2    0  501  0.21892155663E+02  0.34784761920E+00  0.28672122008E+03  0.28755598676E+03  0.00000000000E+00 0. -1.
</event>
<event>
 4    1  0.6729064E+001  0.2771359E+02  0.7546771E-02  0.1440569E+00
          2   -1    0    0  502    0  0.00000000000E+00  0.00000000000E+00  0.12930342108E+04  0.12930342108E+04  0.00000000000E+00 0. -1.
         -2   -1    0    0    0  501 -0.00000000000E+00 -0.00000000000E+00 -0.79231764597E+00  0.79231764597E+00  0.00000000000E+00 0.  1.
          1    1    1    2  502    0 -0.15062470925E+02 -0.23262950463E+02  0.96978429372E+03  0.97018019937E+03  0.00000000000E+00 0. -1.
         -1    1    1    2    0  501  0.15062470925E+02  0.23262950463E+02  0.32245759944E+03  0.32364632908E+03  0.00000000000E+00 0.  1.
</event>
<event>
 4    1  0.6729064E+001  0.2735330E+02  0.7546771E-02  0.1444091E+00
          2   -1    0    0  502    0  0.00000000000E+00  0.00000000000E+00  0.13326978986E+03  0.13326978986E+03  0.00000000000E+00 0.  1.
         -2   -1    0    0    0  501 -0.00000000000E+00 -0.00000000000E+00 -0.57480401292E+01  0.57480401292E+01  0.00000000000E+00 0. -1.
          1    1    1    2  502    0 -0.10236758253E+02  0.25365560184E+02  0.53154217247E+02  0.59779374990E+02  0.00000000000E+00 0.  1.
         -1    1    1    2    0  501  0.10236758253E+02 -0.25365560184E+02  0.74367532482E+02  0.79238454998E+02  0.00000000000E+00 0. -1.
</event>
<event>
 4    1  0.6729064E+001  0.2098667E+02  0.7546771E-02  0.1519455E+00
          2   -1    0    0  502    0  0.00000000000E+00  0.00000000000E+00  0.20867754262E+02  0.20867754262E+02  0.00000000000E+00 0. -1.
         -2   -1    0    0    0  501 -0.00000000000E+00 -0.00000000000E+00 -0.21221365743E+02  0.21221365743E+02  0.00000000000E+00 0.  1.
          1    1    1    2  502    0 -0.97572663793E+01 -0.18580530901E+02  0.13730456125E+01  0.21031538936E+02  0.00000000000E+00 0. -1.
         -1    1    1    2    0  501  0.97572663793E+01  0.18580530901E+02 -0.17266570937E+01  0.21057581069E+02  0.00000000000E+00 0.  1.
</event>
<event>
 4    1  0.6729064E+001  0.2607206E+02  0.7546771E-02  0.1457159E+00
          2   -1    0    0  502    0  0.00000000000E+00  0.00000000000E+00  0.22136198217E+03  0.22136198217E+03  0.00000000000E+00 0.  1.
         -2   -1    0    0    0  501 -0.00000000000E+00 -0.00000000000E+00 -0.42879857078E+01  0.42879857078E+01  0.00000000000E+00 0. -1.
          1    1    1    2  502    0 -0.62690198100E+01  0.25307143357E+02  0.48424872874E+02  0.54997458370E+02  0.00000000000E+00 0. -1.
         -1    1    1    2    0  501  0.62690198100E+01 -0.25307143357E+02  0.16864912359E+03  0.17065250951E+03  0.00000000000E+00 0.  1.
</event>
<event>
 4    1  0.6729064E+001  0.3303439E+02  0.7546771E-02  0.1394935E+00
          2   -1    0    0  502    0  0.00000000000E+00  0.00000000000E+00  0.73505650888E+02  0.73505650888E+02  0.00000000000E+00 0.  1.
         -2   -1    0    0    0  501 -0.00000000000E+00 -0.00000000000E+00 -0.48813346056E+02  0.48813346056E+02  0.00000000000E+00 0. -1.
          1    1    1    2  502    0  0.14094879019E+01 -0.33004305454E+02  0.63364327187E+02  0.71458441031E+02  0.00000000000E+00 0.  1.
         -1    1    1    2    0  501 -0.14094879019E+01  0.33004305454E+02 -0.38672022356E+02  0.50860555913E+02  0.00000000000E+00 0. -1.
</event>
<event>
 4    1  0.6729064E+001  0.2022818E+02  0.7546771E-02  0.1530576E+00
          2   -1    0    0  502    0  0.00000000000E+00  0.00000000000E+00  0.11992818224E+02  0.11992818224E+02  0.00000000000E+00 0. -1.
         -2   -1    0    0    0  501 -0.00000000000E+00 -0.00000000000E+00 -0.34700195179E+02  0.34700195179E+02  0.00000000000E+00 0.  1.
          1    1    1    2  502    0 -0.12353907824E+02  0.16017497826E+02 -0.83314281343E+01  0.21876744956E+02  0.00000000000E+00 0.  1.
         -1    1    1    2    0  501  0.12353907824E+02 -0.16017497826E+02 -0.14375948821E+02  0.24816268447E+02  0.00000000000E+00 0. -1.
</event>
<event>
 4    1  0.6729064E+001  0.2193037E+02  0.7546771E-02  0.1506385E+00
          2   -1    0    0  502    0  0.00000000000E+00  0.00000000000E+00  0.52027901995E+03  0.52027901995E+03  0.00000000000E+00 0. -1.
         -2   -1    0    0    0  501 -0.00000000000E+00 -0.00000000000E+00 -0.95098852638E+00  0.95098852638E+00  0.00000000000E+00 0.  1.
          1    1    1    2  502    0  0.21898612605E+02 -0.11798229035E+01  0.30324859229E+03  0.30404053996E+03  0.00000000000E+00 0.  1.
         -1    1    1    2    0  501 -0.21898612605E+02  0.11798229035E+01  0.21607943914E+03  0.21718946852E+03  0.00000000000E+00 0. -1.
</event>
<event>
 4    1  0.6729064E+001  0.3345731E+02  0.7546771E-02  0.1391746E+00
          2   -1    0    0  502    0  0.00000000000E+00  0.00000000000E+00  0.69846331878E+02  0.69846331878E+02  0.00000000000E+00 0.  1.
         -2   -1    0    0    0  501 -0.00000000000E+00 -0.00000000000E+00 -0.39030740884E+02  0.39030740884E+02  0.00000000000E+00 0. -1.
          1    1    1    2  502    0 -0.10089654250E+02  0.31899689812E+02 -0.26385548189E+02  0.42609722907E+02  0.00000000000E+00 0. -1.
         -1    1    1    2    0  501  0.10089654250E+02 -0.31899689812E+02  0.57201139183E+02  0.66267349855E+02  0.00000000000E+00 0.  1.
</event>
<event>
 4    1  0.6729064E+001  0.2824260E+02  0.7546771E-02  0.1435510E+00
          2   -1    0    0  502    0  0.00000000000E+00  0.00000000000E+00  0.74987474352E+03  0.74987474352E+03  0.00000000000E+00 0.  1.
         -2   -1    0    0    0  501 -0.00000000000E+00 -0.00000000000E+00 -0.11960661443E+01  0.11960661443E+01  0.00000000000E+00 0. -1.
          1    1    1    2  502    0  0.11558701357E+02  0.25768988508E+02  0.24941239893E+03  0.25100635268E+03  0.00000000000E+00 0.  1.
         -1    1    1    2    0  501 -0.11558701357E+02 -0.25768988508E+02  0.49926627844E+03  0.50006445698E+03  0.00000000000E+00 0. -1.
</event>
<event>
 4    1  0.6729064E+001  0.2056414E+02  0.7546771E-02  0.1525580E+00
          2   -1    0    0  502    0  0.00000000000E+00  0.00000000000E+00  0.49486948851E+03  0.49486948851E+03  0.00000000000E+00 0.  1.
         -2   -1    0    0    0  501 -0.00000000000E+00 -0.00000000000E+00 -0.12134011884E+01  0.12134011884E+01  0.00000000000E+00 0. -1.
          1    1    1    2  502    0 -0.18904484246E+02  0.80934619278E+01  0.38172056886E+03  0.38227408537E+03  0.00000000000E+00 0.  1.
         -1    1    1    2    0  501  0.18904484246E+02 -0.80934619278E+01  0.11193551846E+03  0.11380880433E+03  0.00000000000E+00 0. -1.
</event>
<event>
 4    1  0.6729064E+001  0.3963780E+02  0.7546771E-02  0.1350621E+00
          2   -1    0    0  502    0  0.00000000000E+00  0.00000000000E+00  0.10756794319E+02  0.10756794319E+02  0.00000000000E+00 0. -1.
         -2   -1    0    0    0  501 -0.00000000000E+00 -0.00000000000E+00 -0.14611307090E+03  0.14611307090E+03  0.00000000000E+00 0.  1.
          1    1    1    2  502    0 -0.34469731965E+02  0.19570196004E+02 -0.69149729751E+02  0.79704705746E+02  0.00000000000E+00 0. -1.
         -1    1    1    2    0  501  0.34469731965E+02 -0.19570196004E+02 -0.66206546834E+02  0.77165159476E+02  0.00000000000E+00 0.  1.
</event>
<event>
 4    1  0.6729064E+001  0.2338946E+02  0.7546771E-02  0.1487665E+00
          2   -1    0    0  502    0  0.00000000000E+00  0.00000000000E+00  0.25191532137E+03  0.25191532137E+03  0.00000000000E+00 0.  1.
         -2   -1    0    0    0  501 -0.00000000000E+00 -0.00000000000E+00 -0.23530029469E+01  0.23530029469E+01  0.00000000000E+00 0. -1.
          1    1    1    2  502    0 -0.20579362450E+02  0.11115597137E+02  0.16007819913E+03  0.16177792339E+03  0.00000000000E+00 0.  1.
         -1    1    1    2    0  501  0.20579362450E+02 -0.11115597137E+02  0.89484119292E+02  0.92490400929E+02  0.00000000000E+00 0. -1.
</event>
<event>
 4    1  0.6729064E+001  0.2609680E+02  0.7546771E-02  0.1456898E+00
          2   -1    0    0  502    0  0.00000000000E+00  0.00000000000E+00  0.93235735858E+02  0.93235735858E+02  0.00000000000E+00 0.  1.
         -2   -1    0    0    0  501 -0.00000000000E+00 -0.00000000000E+00 -0.11284844415E+02  0.11284844415E+02  0.00000000000E+00 0. -1.
          1    1    1    2  502    0 -0.42309250681E+01 -0.25751552237E+02  0.72012661352E+02  0.76595473525E+02  0.00000000000E+00 0.  1.
         -1    1    1    2    0  501  0.42309250681E+01  0.25751552237E+02  0.99382300911E+01  0.27925106748E+02  0.00000000000E+00 0. -1.
</event>
<event>
 4    1  0.6729064E+001  0.2948319E+02  0.7546771E-02  0.1424141E+00
          2   -1    0    0  502    0  0.00000000000E+00  0.00000000000E+00  0.17792316033E+04  0.17792316033E+04  0.00000000000E+00 0. -1.
         -2   -1    0    0    0  501 -0.00000000000E+00 -0.00000000000E+00 -0.84276394590E+00  0.84276394590E+00  0.00000000000E+00 0.  1.
          1    1    1    2  502    0  0.27550183077E+02 -0.10499811966E+02  0.31218510634E+03  0.31357423246E+03  0.00000000000E+00 0.  1.
         -1    1    1    2    0  501 -0.27550183077E+02  0.10499811966E+02  0.14662037330E+04  0.14665001348E+04  0.00000000000E+00 0. -1.
</event>
<event>
 4    1  0.6729064E+001  0.2756817E+02  0.7546771E-02  0.1441983E+00
          2   -1    0    0  502    0  0.00000000000E+00  0.00000000000E+00  0.36664489889E+01  0.36664489889E+01  0.00000000000E+00 0. -1.
         -2   -1    0    0    0  501 -0.00000000000E+00 -0.00000000000E+00 -0.21479400588E+03  0.21479400588E+03  0.00000000000E+00 0.  1.
          1    1    1    2  502    0 -0.27333420310E+02 -0.35900093006E+01 -0.85142157273E+02  0.89494083479E+02  0.00000000000E+00 0. -1.
         -1    1    1    2    0  501  0.27333420310E+02  0.35900093006E+01 -0.12598539962E+03  0.12896637139E+03  0.00000000000E+00 0.  1.
</event>
<event>
 4    1  0.6729064E+001  0.3338702E+02  0.7546771E-02  0.1392272E+00
          2   -1    0    0  502    0  0.00000000000E+00  0.00000000000E+00  0.53893193809E+01  0.53893193809E+01  0.00000000000E+00 0. -1.
         -2   -1    0    0    0  501 -0.00000000000E+00 -0.00000000000E+00 -0.20767237267E+03  0.20767237267E+03  0.00000000000E+00 0.  1.
          1    1    1    2  502    0 -0.29397287738E+02  0.15826966484E+02 -0.10791103251E+03  0.11295788743E+03  0.00000000000E+00 0. -1.
         -1    1    1    2    0  501  0.29397287738E+02 -0.15826966484E+02 -0.94372020778E+02  0.10010380462E+03  0.00000000000E+00 0.  1.
</event>
<event>
 4    1  0.6729064E+001  0.2160911E+02  0.7546771E-02  0.1510743E+00
          2   -1    0    0  502    0  0.00000000000E+00  0.00000000000E+00  0.97097042905E+03  0.97097042905E+03  0.00000000000E+00 0. -1.
         -2   -1    0    0    0  501 -0.00000000000E+00 -0.00000000000E+00 -0.52684570036E+00  0.52684570036E+00  0.00000000000E+00 0.  1.
          1    1    1    2  502    0  0.17683984481E+02  0.12418952150E+02  0.34179702497E+03  0.34247942998E+03  0.00000000000E+00 0. -1.
         -1    1    1    2    0  501 -0.17683984481E+02 -0.12418952150E+02  0.62864655838E+03  0.62901784477E+03  0.00000000000E+00 0.  1.
</event>
<event>
 4    1  0.6729064E+001  0.4121992E+02  0.7546771E-02  0.1341482E+00
          2   -1    0    0  502    0  0.00000000000E+00  0.00000000000E+00  0.26013840364E+03  0.26013840364E+03  0.00000000000E+00 0.  1.
         -2   -1    0    0    0  501 -0.00000000000E+00 -0.00000000000E+00 -0.65314926018E+01  0.65314926018E+01  0.00000000000E+00 0. -1.
          1    1    1    2  502    0  0.33382551700E+02 -0.24180310958E+02  0.12648221088E+03  0.13302943984E+03  0.00000000000E+00 0. -1.
         -1    1    1    2    0  501 -0.33382551700E+02  0.24180310958E+02  0.12712470016E+03  0.13364045640E+03  0.00000000000E+00 0.  1.
</event>
<event>
 4    1  0.6729064E+001  0.2385316E+02  0.7546771E-02  0.1482054E+00
          2   -1    0    0  502    0  0.00000000000E+00  0.00000000000E+00  0.94679790227E+02  0.94679790227E+02  0.00000000000E+00 0. -1.
         -2   -1    0    0    0  501 -0.00000000000E+00 -0.00000000000E+00 -0.60722760459E+01  0.60722760459E+01  0.00000000000E+00 0.  1.
          1    1    1    2  502    0  0.19942768187E+02  0.13086606538E+02  0.49427945332E+02  0.54882556914E+02  0.00000000000E+00 0.  1.
         -1    1    1    2    0  501 -0.19942768187E+02 -0.13086606538E+02  0.39179568849E+02  0.45869509359E+02  0.00000000000E+00 0. -1.
</event>
<event>
 4    1  0.6729064E+001  0.2647812E+02  0.7546771E-02  0.1452922E+00
          2   -1    0    0  502    0  0.00000000000E+00  0.00000000000E+00  0.40035617292E+03  0.40035617292E+03  0.00000000000E+00 0.  1.
         -2   -1    0    0    0  501 -0.00000000000E+00 -0.00000000000E+00 -0.19551123005E+01  0.19551123005E+01  0.00000000000E+00 0. -1.
          1    1    1    2  502    0 -0.22691314997E+02 -0.13645332944E+02  0.26416893979E+03  0.26549259808E+03  0.00000000000E+00 0.  1.
         -1    1    1    2    0  501  0.22691314997E+02  0.13645332944E+02  0.13423212083E+03  0.13681868714E+03  0.00000000000E+00 0. -1.
</event>
<event>
 4    1  0.6729064E+001  0.2661838E+02  0.7546771E-02  0.1451480E+00
          2   -1    0    0  502    0  0.00000000000E+00  0.00000000000E+00  0.11967366162E+03  0.11967366162E+03  0.00000000000E+00 0. -1.
         -2   -1    0    0    0  501 -0.00000000000E+00 -0.00000000000E+00 -0.17741395582E+02  0.17741395582E+02  0.00000000000E+00 0.  1.
          1    1    1    2  502    0 -0.48368887252E+01  0.26175225755E+02 -0.51172353771E+01  0.27105793362E+02  0.00000000000E+00 0.  1.
         -1    1    1    2    0  501  0.48368887252E+01 -0.26175225755E+02  0.10704950142E+03  0.11030926384E+03  0.00000000000E+00 0. -1.
</event>
<event>
 4    1  0.6729064E+001  0.2165386E+02  0.7546771E-02  0.1510131E+00
          2   -1    0    0  502    0  0.00000000000E+00  0.00000000000E+00  0.13641947638E+01  0.13641947638E+01  0.00000000000E+00 0.  1.
         -2   -1    0    0    0  501 -0.00000000000E+00 -0.00000000000E+00 -0.43866784664E+03  0.43866784664E+03  0.00000000000E+00 0. -1.
          1    1    1    2  502    0  0.94411598108E+01 -0.19487280192E+02 -0.32101603516E+03  0.32174552742E+03  0.00000000000E+00 0.  1.
         -1    1    1    2    0  501 -0.94411598108E+01  0.19487280192E+02 -0.11628761672E+03  0.11828651399E+03  0.00000000000E+00 0. -1.
</event>
<event>
 4    1  0.6729064E+001  0.2902794E+02  0.7546771E-02  0.1428236E+00
          2   -1    0    0  502    0  0.00000000000E+00  0.00000000000E+00  0.15001961431E+04  0.15001961431E+04  0.00000000000E+00 0. -1.
         -2   -1    0    0    0  501 -0.00000000000E+00 -0.00000000000E+00 -0.57643447699E+00  0.57643447699E+00  0.00000000000E+00 0.  1.
          1    1    1    2  502    0 -0.29018181920E+02 -0.75264194537E+00  0.86988643526E+03  0.87037062887E+03  0.00000000000E+00 0. -1.
         -1    1    1    2    0  501  0.29018181920E+02  0.75264194537E+00  0.62973327332E+03  0.63040194866E+03  0.00000000000E+00 0.  1.
</event>
<event>
 4    1  0.6729064E+001  0.2116039E+02  0.7546771E-02  0.1516987E+00
          2   -1    0    0  502    0  0.00000000000E+00  0.00000000000E+00  0.11177965850E+03  0.11177965850E+03  0.00000000000E+00 0.  1.
         -2   -1    0    0    0  501 -0.00000000000E+00 -0.00000000000E+00 -0.77964870054E+01  0.77964870054E+01  0.00000000000E+00 0. -1.
          1    1    1    2  502    0  0.14147516482E+02  0.15735619478E+02  0.93681078108E+02  0.96041170018E+02  0.00000000000E+00 0.  1.
         -1    1    1    2    0  501 -0.14147516482E+02 -0.15735619478E+02  0.10302093383E+02  0.23534975484E+02  0.00000000000E+00 0. -1.
</event>
<event>
 4    1  0.6729064E+001  0.2144616E+02  0.7546771E-02  0.1512989E+00
          2   -1    0    0  502    0  0.00000000000E+00  0.00000000000E+00  0.44920174822E+02  0.44920174822E+02  0.00000000000E+00 0. -1.
         -2   -1    0    0    0  501 -0.00000000000E+00 -0.00000000000E+00 -0.13153500075E+02  0.13153500075E+02  0.00000000000E+00 0.  1.
          1    1    1    2  502    0 -0.21446091491E+02 -0.54196188607E-01  0.22151631884E+01  0.21560258009E+02  0.00000000000E+00 0. -1.
         -1    1    1    2    0  501  0.21446091491E+02  0.54196188607E-01  0.29551511558E+02  0.36513416888E+02  0.00000000000E+00 0.  1.
</event>
<event>
 4    1  0.6729064E+001  0.5837383E+02  0.7546771E-02  0.1265460E+00
          2   -1    0    0  502    0  0.00000000000E+00  0.00000000000E+00  0.28431183159E+03  0.28431183159E+03  0.00000000000E+00 0. -1.
         -2   -1    0    0    0  501 -0.00000000000E+00 -0.00000000000E+00 -0.12033455512E+02  0.12033455512E+02  0.00000000000E+00 0.  1.
          1    1    1    2  502    0 -0.41183490506E+02  0.41369361558E+02  0.12674576788E+03  0.13954208555E+03  0.00000000000E+00 0. -1.
         -1    1    1    2    0  501  0.41183490506E+02 -0.41369361558E+02  0.14553260820E+03  0.15680320155E+03  0.00000000000E+00 0.  1.
</event>
<event>
 4    1  0.6729064E+001  0.2761215E+02  0.7546771E-02  0.1441554E+00
          2   -1    0    0  502    0  0.00000000000E+00  0.00000000000E+00  0.96768336955E+03  0.96768336955E+03  0.00000000000E+00 0.  1.
         -2   -1    0    0    0  501 -0.00000000000E+00 -0.00000000000E+00 -0.12716425087E+01  0.12716425087E+01  0.00000000000E+00 0. -1.
          1    1    1    2  502    0  0.34173456942E+01  0.27399861591E+02  0.18439147863E+03  0.18644744047E+03  0.00000000000E+00 0. -1.
         -1    1    1    2    0  501 -0.34173456942E+01 -0.27399861591E+02  0.78202024841E+03  0.78250757159E+03  0.00000000000E+00 0.  1.
</event>
<event>
 4    1  0.6729064E+001  0.2868154E+02  0.7546771E-02  0.1431411E+00
          2   -1    0    0  502    0  0.00000000000E+00  0.00000000000E+00  0.18682971318E+04  0.18682971318E+04  0.00000000000E+00 0. -1.
         -2   -1    0    0    0  501 -0.00000000000E+00 -0.00000000000E+00 -0.14601209183E+01  0.14601209183E+01  0.00000000000E+00 0.  1.
          1    1    1    2  502    0 -0.10854806864E+02 -0.26548143897E+02  0.15211360311E+03  0.15479398899E+03  0.00000000000E+00 0.  1.
         -1    1    1    2    0  501  0.10854806864E+02  0.26548143897E+02  0.17147234077E+04  0.17149632637E+04  0.00000000000E+00 0. -1.
</event>
<event>
 4    1  0.6729064E+001  0.2203919E+02  0.7546771E-02  0.1504929E+00
          2   -1    0    0  502    0  0.00000000000E+00  0.00000000000E+00  0.14249642414E+04  0.14249642414E+04  0.00000000000E+00 0. -1.
         -2   -1    0    0    0  501 -0.00000000000E+00 -0.00000000000E+00 -0.36428165145E+00  0.36428165145E+00  0.00000000000E+00 0.  1.
          1    1    1    2  502    0  0.54500948773E+01 -0.21354676217E+02  0.53162655747E+03  0.53208319118E+03  0.00000000000E+00 0.  1.
         -1    1    1    2    0  501 -0.54500948773E+01  0.21354676217E+02  0.89297340225E+03  0.89324533184E+03  0.00000000000E+00 0. -1.
</event>
<event>
 4    1  0.6729064E+001  0.7300760E+02  0.7546771E-02  0.1221083E+00
          2   -1    0    0  502    0  0.00000000000E+00  0.00000000000E+00  0.21464677832E+04  0.21464677832E+04  0.00000000000E+00 0.  1.
         -2   -1    0    0    0  501 -0.00000000000E+00 -0.00000000000E+00 -0.15021765477E+02  0.15021765477E+02  0.00000000000E+00 0. -1.
          1    1    1    2  502    0  0.59552424777E+02  0.42232905487E+02  0.20531081224E+04  0.20544057710E+04  0.00000000000E+00 0.  1.
         -1    1    1    2    0  501 -0.59552424777E+02 -0.42232905487E+02  0.78337895358E+02  0.10708377772E+03  0.00000000000E+00 0. -1.
</event>
<event>
 4    1  0.6729064E+001  0.2946338E+02  0.7546771E-02  0.1424318E+00
          2   -1    0    0  502    0  0.00000000000E+00  0.00000000000E+00  0.71142940967E+01  0.71142940967E+01  0.00000000000E+00 0.  1.
         -2   -1    0    0    0  501 -0.00000000000E+00 -0.00000000000E+00 -0.12494815788E+03  0.12494815788E+03  0.00000000000E+00 0. -1.
          1    1    1    2  502    0 -0.14480553215E+02 -0.25659387891E+02 -0.69024236662E+02  0.75049555996E+02  0.00000000000E+00 0.  1.
         -1    1    1    2    0  501  0.14480553215E+02  0.25659387891E+02 -0.48809627117E+02  0.57012895977E+02  0.00000000000E+00 0. -1.
</event>
<event>
 4    1  0.6729064E+001  0.3106693E+02  0.7546771E-02  0.1410546E+00
          2   -1    0    0  502    0  0.00000000000E+00  0.00000000000E+00  0.40290863820E+02  0.40290863820E+02  0.00000000000E+00 0.  1.
         -2   -1    0    0    0  501 -0.00000000000E+00 -0.00000000000E+00 -0.46602150270E+02  0.46602150270E+02  0.00000000000E+00 0. -1.
          1    1    1    2  502    0  0.18327731683E+02 -0.25084825660E+02 -0.33443034064E+02  0.45646366279E+02  0.00000000000E+00 0. -1.
         -1    1    1    2    0  501 -0.18327731683E+02  0.25084825660E+02  0.27131747614E+02  0.41246647811E+02  0.00000000000E+00 0.  1.
</event>
<event>
 4    1  0.6729064E+001  0.2159912E+02  0.7546771E-02  0.1510880E+00
          2   -1    0    0  502    0  0.00000000000E+00  0.00000000000E+00  0.64784318436E+01  0.64784318436E+01  0.00000000000E+00 0.  1.
         -2   -1    0    0    0  501 -0.00000000000E+00 -0.00000000000E+00 -0.14651633872E+03  0.14651633872E+03  0.00000000000E+00 0. -1.
          1    1    1    2  502    0  0.15941189627E+01  0.21540214027E+02 -0.15468846873E+02  0.26567033316E+02  0.00000000000E+00 0.  1.
         -1    1    1    2    0  501 -0.15941189627E+01 -0.21540214027E+02 -0.12456906000E+03  0.12642773725E+03  0.00000000000E+00 0. -1.
</event>
<event>
 4    1  0.6729064E+001  0.2671192E+02  0.7546771E-02  0.1450524E+00
          2   -1    0    0  502    0  0.00000000000E+00  0.00000000000E+00  0.21447605341E+03  0.21447605341E+03  0.00000000000E+00 0.  1.
         -2   -1    0    0    0  501 -0.00000000000E+00 -0.00000000000E+00 -0.33361545673E+01  0.33361545673E+01  0.00000000000E+00 0. -1.
          1    1    1    2  502    0  0.90792022268E+01 -0.25121599852E+02  0.99814228349E+02  0.10332669971E+03  0.00000000000E+00 0. -1.
         -1    1    1    2    0  501 -0.90792022268E+01  0.25121599852E+02  0.11132567050E+03  0.11448550827E+03  0.00000000000E+00 0.  1.
</event>
<event>
 4    1  0.6729064E+001  0.4358841E+02  0.7546771E-02  0.1328650E+00
          2   -1    0    0  502    0  0.00000000000E+00  0.00000000000E+00  0.10668639397E+03  0.10668639397E+03  0.00000000000E+00 0. -1.
         -2   -1    0    0    0  501 -0.00000000000E+00 -0.00000000000E+00 -0.23352609219E+02  0.23352609219E+02  0.00000000000E+00 0.  1.
          1    1    1    2  502    0 -0.34838930798E+02  0.26195392045E+02  0.73346707198E+02  0.85321094228E+02  0.00000000000E+00 0. -1.
         -1    1    1    2    0  501  0.34838930798E+02 -0.26195392045E+02  0.99870775489E+01  0.44717908957E+02  0.00000000000E+00 0.  1.
</event>
<event>
 4    1  0.6729064E+001  0.3514593E+02  0.7546771E-02  0.1379540E+00
          2   -1    0    0  502    0  0.00000000000E+00  0.00000000000E+00  0.53124745570E+02  0.53124745570E+02  0.00000000000E+00 0. -1.
         -2   -1    0    0    0  501 -0.00000000000E+00 -0.00000000000E+00 -0.31895719662E+02  0.31895719662E+02  0.00000000000E+00 0.  1.
          1    1    1    2  502    0  0.34124585901E+02 -0.84112294089E+01 -0.11515786024E+02  0.36984449040E+02  0.00000000000E+00 0.  1.
         -1    1    1    2    0  501 -0.34124585901E+02  0.84112294089E+01  0.32744811933E+02  0.48036016191E+02  0.00000000000E+00 0. -1.
</event>
<event>
 4    1  0.6729064E+001  0.2849851E+02  0.7546771E-02  0.1433109E+00
          2   -1    0    0  502    0  0.00000000000E+00  0.00000000000E+00  0.11884107726E+03  0.11884107726E+03  0.00000000000E+00 0.  1.
         -2   -1    0    0    0  501 -0.00000000000E+00 -0.00000000000E+00 -0.68345326198E+01  0.68345326198E+01  0.00000000000E+00 0. -1.
          1    1    1    2  502    0  0.19023247758E+02  0.21219833662E+02  0.56533924253E+02  0.63310740695E+02  0.00000000000E+00 0. -1.
         -1    1    1    2    0  501 -0.19023247758E+02 -0.21219833662E+02  0.55472620391E+02  0.62364869189E+02  0.00000000000E+00 0.  1.
</event>
<event>
 4    1  0.6729064E+001  0.2048092E+02  0.7546771E-02  0.1526807E+00
          2   -1    0    0  502    0  0.00000000000E+00  0.00000000000E+00  0.25740746466E+03  0.25740746466E+03  0.00000000000E+00 0. -1.
         -2   -1    0    0    0  501 -0.00000000000E+00 -0.00000000000E+00 -0.17114067706E+01  0.17114067706E+01  0.00000000000E+00 0.  1.
          1    1    1    2  502    0 -0.20337946637E+02 -0.24157878694E+01  0.15617623119E+03  0.15751343845E+03  0.00000000000E+00 0.  1.
         -1    1    1    2    0  501  0.20337946637E+02  0.24157878694E+01  0.99519826706E+02  0.10160543298E+03  0.00000000000E+00 0. -1.
</event>
<event>
 4    1  0.6729064E+001  0.2402222E+02  0.7546771E-02  0.1480046E+00
          2   -1    0    0  502    0  0.00000000000E+00  0.00000000000E+00  0.13608445079E+04  0.13608445079E+04  0.00000000000E+00 0.  1.
         -2   -1    0    0    0  501 -0.00000000000E+00 -0.00000000000E+00 -0.58735503751E+00  0.58735503751E+00  0.00000000000E+00 0. -1.
          1    1    1    2  502    0 -0.11491047384E+02  0.21095565364E+02  0.10390624483E+04  0.10393400976E+04  0.00000000000E+00 0.  1.
         -1    1    1    2    0  501  0.11491047384E+02 -0.21095565364E+02  0.32119470452E+03  0.32209176528E+03  0.00000000000E+00 0. -1.
</event>
<event>
 4    1  0.6729064E+001  0.3188075E+02  0.7546771E-02  0.1403927E+00
          2   -1    0    0  502    0  0.00000000000E+00  0.00000000000E+00  0.13288578590E+02  0.13288578590E+02  0.00000000000E+00 0.  1.
         -2   -1    0    0    0  501 -0.00000000000E+00 -0.00000000000E+00 -0.77612306374E+02  0.77612306374E+02  0.00000000000E+00 0. -1.
          1    1    1    2  502    0  0.78094163573E+01  0.30909465367E+02 -0.26685152354E+02  0.41574985139E+02  0.00000000000E+00 0. -1.
         -1    1    1    2    0  501 -0.78094163573E+01 -0.30909465367E+02 -0.37638575430E+02  0.49325899825E+02  0.00000000000E+00 0.  1.
</event>
<event>
 4    1  0.6729064E+001  0.2110801E+02  0.7546771E-02  0.1517728E+00
          2   -1    0    0  502    0  0.00000000000E+00  0.00000000000E+00  0.62095624463E+03  0.62095624463E+03  0.00000000000E+00 0.  1.
         -2   -1    0    0    0  501 -0.00000000000E+00 -0.00000000000E+00 -0.73223858896E+00  0.73223858896E+00  0.00000000000E+00 0. -1.
          1    1    1    2  502    0  0.85580459112E+01  0.19295283745E+02  0.35418363301E+03  0.35481205450E+03  0.00000000000E+00 0. -1.
         -1    1    1    2    0  501 -0.85580459112E+01 -0.19295283745E+02  0.26604037303E+03  0.26687642872E+03  0.00000000000E+00 0.  1.
</event>
<event>
 4    1  0.6729064E+001  0.2306432E+02  0.7546771E-02  0.1491692E+00
          2   -1    0    0  502    0  0.00000000000E+00  0.00000000000E+00  0.33412361071E+03  0.33412361071E+03  0.00000000000E+00 0.  1.
         -2   -1    0    0    0  501 -0.00000000000E+00 -0.00000000000E+00 -0.21532199784E+01  0.21532199784E+01  0.00000000000E+00 0. -1.
          1    1    1    2  502    0 -0.23064218675E+02  0.67155299340E-01  0.80153950303E+02  0.83406345335E+02  0.00000000000E+00 0. -1.
         -1    1    1    2    0  501  0.23064218675E+02 -0.67155299340E-01  0.25181644043E+03  0.25287048535E+03  0.00000000000E+00 0.  1.
</event>
<event>
 4    1  0.6729064E+001  0.2983327E+02  0.7546771E-02  0.1421051E+00
          2   -1    0    0  502    0  0.00000000000E+00  0.00000000000E+00  0.10331588105E+03  0.10331588105E+03  0.00000000000E+00 0. -1.
         -2   -1    0    0    0  501 -0.00000000000E+00 -0.00000000000E+00 -0.87186976850E+01  0.87186976850E+01  0.00000000000E+00 0.  1.
          1    1    1    2  502    0  0.27963998663E+02  0.10394170798E+02  0.41177390918E+02  0.50848810513E+02  0.00000000000E+00 0.  1.
         -1    1    1    2    0  501 -0.27963998663E+02 -0.10394170798E+02  0.53419792448E+02  0.61185768223E+02  0.00000000000E+00 0. -1.
</event>
<event>
 4    1  0.6729064E+001  0.2048312E+02  0.7546771E-02  0.1526774E+00
          2   -1    0    0  502    0  0.00000000000E+00  0.00000000000E+00  0.12017067768E+02  0.12017067768E+02  0.00000000000E+00 0.  1.
         -2   -1    0    0    0  501 -0.00000000000E+00 -0.00000000000E+00 -0.35757395062E+02  0.35757395062E+02  0.00000000000E+00 0. -1.
          1    1    1    2  502    0 -0.88278239831E+01  0.18483173564E+02 -0.82005445687E+01  0.22063705774E+02  0.00000000000E+00 0. -1.
         -1    1    1    2    0  501  0.88278239831E+01 -0.18483173564E+02 -0.15539782725E+02  0.25710757056E+02  0.00000000000E+00 0.  1.
</event>
<event>
 4    1  0.6729064E+001  0.6616411E+02  0.7546771E-02  0.1240214E+00
          2   -1    0    0  502    0  0.00000000000E+00  0.00000000000E+00  0.23556346203E+03  0.23556346203E+03  0.00000000000E+00 0. -1.
         -2   -1    0    0    0  501 -0.00000000000E+00 -0.00000000000E+00 -0.39221797998E+02  0.39221797998E+02  0.00000000000E+00 0.  1.
          1    1    1    2  502    0 -0.51059750157E+02 -0.42078387726E+02 -0.14918051557E+01  0.66180920834E+02  0.00000000000E+00 0.  1.
         -1    1    1    2    0  501  0.51059750157E+02  0.42078387726E+02  0.19783346919E+03  0.20860433920E+03  0.00000000000E+00 0. -1.
</event>
<event>
 4    1  0.6729064E+001  0.2474898E+02  0.7546771E-02  0.1471631E+00
          2   -1    0    0  502    0  0.00000000000E+00  0.00000000000E+00  0.20122106958E+01  0.20122106958E+01  0.00000000000E+00 0.  1.
         -2   -1    0    0    0  501 -0.00000000000E+00 -0.00000000000E+00 -0.30469700208E+03  0.30469700208E+03  0.00000000000E+00 0. -1.
          1    1    1    2  502    0  0.12079593815E+02  0.21600823402E+02 -0.14653542548E+03  0.14861070984E+03  0.00000000000E+00 0.  1.
         -1    1    1    2    0  501 -0.12079593815E+02 -0.21600823402E+02 -0.15614936590E+03  0.15809850294E+03  0.00000000000E+00 0. -1.
</event>
<event>
 4    1  0.6729064E+001  0.2636604E+02  0.7546771E-02  0.1454082E+00
          2   -1    0    0  502    0  0.00000000000E+00  0.00000000000E+00  0.22120425856E+03  0.22120425856E+03  0.00000000000E+00 0. -1.
         -2   -1    0    0    0  501 -0.00000000000E+00 -0.00000000000E+00 -0.31838944419E+01  0.31838944419E+01  0.00000000000E+00 0.  1.
          1    1    1    2  502    0 -0.45048700924E+01 -0.25978341540E+02  0.96241063390E+02  0.99787325679E+02  0.00000000000E+00 0.  1.
         -1    1    1    2    0  501  0.45048700924E+01  0.25978341540E+02  0.12177930073E+03  0.12460082732E+03  0.00000000000E+00 0. -1.
</event>
<event>
 4    1  0.6729064E+001  0.2814309E+02  0.7546771E-02  0.1436452E+00
          2   -1    0    0  502    0  0.00000000000E+00  0.00000000000E+00  0.20509888181E+04  0.20509888181E+04  0.00000000000E+00 0.  1.
         -2   -1    0    0    0  501 -0.00000000000E+00 -0.00000000000E+00 -0.93142213249E+00  0.93142213249E+00  0.00000000000E+00 0. -1.
          1    1    1    2  502    0 -0.26285139464E+02 -0.10056091863E+02  0.18100026946E+04  0.18102214748E+04  0.00000000000E+00 0.  1.
         -1    1    1    2    0  501  0.26285139464E+02  0.10056091863E+02  0.24005470144E+03  0.24169876546E+03  0.00000000000E+00 0. -1.
</event>
<event>
 4    1  0.6729064E+001  0.2274741E+02  0.7546771E-02  0.1495695E+00
          2   -1    0    0  502    0  0.00000000000E+00  0.00000000000E+00  0.17010606342E+03  0.17010606342E+03  0.00000000000E+00 0. -1.
         -2   -1    0    0    0  501 -0.00000000000E+00 -0.00000000000E+00 -0.39281348417E+01  0.39281348417E+01  0.00000000000E+00 0.  1.
          1    1    1    2  502    0 -0.16726605926E+02  0.15416392476E+02  0.41756866582E+02  0.47550819231E+02  0.00000000000E+00 0.  1.
         -1    1    1    2    0  501  0.16726605926E+02 -0.15416392476E+02  0.12442106200E+03  0.12648337903E+03  0.00000000000E+00 0. -1.
</event>
<event>
 4    1  0.6729064E+001  0.2870293E+02  0.7546771E-02  0.1431213E+00
          2   -1    0    0  502    0  0.00000000000E+00  0.00000000000E+00  0.19501194986E+04  0.19501194986E+04  0.00000000000E+00 0. -1.
         -2   -1    0    0    0  501 -0.00000000000E+00 -0.00000000000E+00 -0.47152252354E+00  0.47152252354E+00  0.00000000000E+00 0.  1.
          1    1    1    2  502    0  0.35860412743E+00 -0.28700691344E+02  0.66024085124E+03  0.66086446411E+03  0.00000000000E+00 0. -1.
         -1    1    1    2    0  501 -0.35860412743E+00  0.28700691344E+02  0.12894071248E+04  0.12897265570E+04  0.00000000000E+00 0.  1.
</event>
<event>
 4    1  0.6729064E+001  0.2349978E+02  0.7546771E-02  0.1486316E+00
          2   -1    0    0  502    0  0.00000000000E+00  0.00000000000E+00  0.83275436129E+00  0.83275436129E+00  0.00000000000E+00 0.  1.
         -2   -1    0    0    0  501 -0.00000000000E+00 -0.00000000000E+00 -0.68410418286E+03  0.68410418286E+03  0.00000000000E+00 0. -1.
          1    1    1    2  502    0  0.20249519960E+02  0.11924613464E+02 -0.40157542135E+03  0.40226242491E+03  0.00000000000E+00 0. -1.
         -1    1    1    2    0  501 -0.20249519960E+02 -0.11924613464E+02 -0.28169600714E+03  0.28267451230E+03  0.00000000000E+00 0.  1.
</event>
<event>
 4    1  0.6729064E+001  0.1626067E+03  0.7546771E-02  0.1085354E+00
          2   -1    0    0  502    0  0.00000000000E+00  0.00000000000E+00  0.46969680877E+03  0.46969680877E+03  0.00000000000E+00 0.  1.
         -2   -1    0    0    0  501 -0.00000000000E+00 -0.00000000000E+00 -0.56308615655E+02  0.56308615655E+02  0.00000000000E+00 0. -1.
          1    1    1    2  502    0 -0.15806853319E+03 -0.38148277786E+02  0.20240781294E+03  0.25963411760E+03  0.00000000000E+00 0.  1.
         -1    1    1    2    0  501  0.15806853319E+03  0.38148277786E+02  0.21098038017E+03  0.26637130682E+03  0.00000000000E+00 0. -1.
</event>
<event>
 4    1  0.6729064E+001  0.5419529E+02  0.7546771E-02  0.1280941E+00
          2   -1    0    0  502    0  0.00000000000E+00  0.00000000000E+00  0.38445710240E+02  0.38445710240E+02  0.00000000000E+00 0. -1.
         -2   -1    0    0    0  501 -0.00000000000E+00 -0.00000000000E+00 -0.15107738562E+03  0.15107738562E+03  0.00000000000E+00 0.  1.
          1    1    1    2  502    0 -0.46967498996E+02  0.27040395767E+02  0.10309019915E+02  0.55167063152E+02  0.00000000000E+00 0. -1.
         -1    1    1    2    0  501  0.46967498996E+02 -0.27040395767E+02 -0.12294069530E+03  0.13435603271E+03  0.00000000000E+00 0.  1.
</event>
<event>
 4    1  0.6729064E+001  0.2087497E+02  0.7546771E-02  0.1521057E+00
          2   -1    0    0  502    0  0.00000000000E+00  0.00000000000E+00  0.33469166704E+02  0.33469166704E+02  0.00000000000E+00 0. -1.
         -2   -1    0    0    0  501 -0.00000000000E+00 -0.00000000000E+00 -0.15923319383E+02  0.15923319383E+02  0.00000000000E+00 0.  1.
          1    1    1    2  502    0 -0.20409208117E+02 -0.43850407355E+01  0.19318513172E+02  0.28442385790E+02  0.00000000000E+00 0.  1.
         -1    1    1    2    0  501  0.20409208117E+02  0.43850407355E+01 -0.17726658508E+01  0.20950100297E+02  0.00000000000E+00 0. -1.
</event>
<event>
 4    1  0.6729064E+001  0.2604338E+02  0.7546771E-02  0.1457462E+00
          2   -1    0    0  502    0  0.00000000000E+00  0.00000000000E+00  0.58555505497E+02  0.58555505497E+02  0.00000000000E+00 0. -1.
         -2   -1    0    0    0  501 -0.00000000000E+00 -0.00000000000E+00 -0.11772427911E+02  0.11772427911E+02  0.00000000000E+00 0.  1.
          1    1    1    2  502    0  0.65171147646E+01 -0.25214774265E+02  0.27850221080E+02  0.38129941520E+02  0.00000000000E+00 0. -1.
         -1    1    1    2    0  501 -0.65171147646E+01  0.25214774265E+02  0.18932856506E+02  0.32197991888E+02  0.00000000000E+00 0.  1.
</event>
<event>
 4    1  0.6729064E+001  0.2072976E+02  0.7546771E-02  0.1523158E+00
          2   -1    0    0  502    0  0.00000000000E+00  0.00000000000E+00  0.10166735316E+02  0.10166735316E+02  0.00000000000E+00 0.  1.
         -2   -1    0    0    0  501 -0.00000000000E+00 -0.00000000000E+00 -0.11928907201E+03  0.11928907201E+03  0.00000000000E+00 0. -1.
          1    1    1    2  502    0  0.15655467381E+02  0.13587840958E+02 -0.10657241168E+03  0.10856980248E+03  0.00000000000E+00 0. -1.
         -1    1    1    2    0  501 -0.15655467381E+02 -0.13587840958E+02 -0.25499250221E+01  0.20886004846E+02  0.00000000000E+00 0.  1.
</event>
<event>
 4    1  0.6729064E+001  0.3284303E+02  0.7546771E-02  0.1396396E+00
          2   -1    0    0  502    0  0.00000000000E+00  0.00000000000E+00  0.81219126298E+03  0.81219126298E+03  0.00000000000E+00 0.  1.
         -2   -1    0    0    0  501 -0.00000000000E+00 -0.00000000000E+00 -0.14002926873E+01  0.14002926873E+01  0.00000000000E+00 0. -1.
          1    1    1    2  502    0  0.14172060127E+02 -0.29627984327E+02  0.49776690105E+03  0.49884922825E+03  0.00000000000E+00 0.  1.
         -1    1    1    2    0  501 -0.14172060127E+02  0.29627984327E+02  0.31302406924E+03  0.31474232742E+03  0.00000000000E+00 0. -1.
</event>
<event>
 4    1  0.6729064E+001  0.2098327E+02  0.7546771E-02  0.1519504E+00
          2   -1    0    0  502    0  0.00000000000E+00  0.00000000000E+00  0.17900456235E+04  0.17900456235E+04  0.00000000000E+00 0.  1.
         -2   -1    0    0    0  501 -0.00000000000E+00 -0.00000000000E+00 -0.34064312159E+00  0.34064312159E+00  0.00000000000E+00 0. -1.
          1    1    1    2  502    0 -0.20881440970E+02 -0.20646949355E+01  0.13667853886E+04  0.13669464496E+04  0.00000000000E+00 0.  1.
         -1    1    1    2    0  501  0.20881440970E+02  0.20646949355E+01  0.42291959185E+03  0.42343981711E+03  0.00000000000E+00 0. -1.
</event>
<event>
 4    1  0.6729064E+001  0.2125536E+02  0.7546771E-02  0.1515650E+00
          2   -1    0    0  502    0  0.00000000000E+00  0.00000000000E+00  0.77522432997E+03  0.77522432997E+03  0.00000000000E+00 0.  1.
         -2   -1    0    0    0  501 -0.00000000000E+00 -0.00000000000E+00 -0.11338430740E+01  0.11338430740E+01  0.00000000000E+00 0. -1.
          1    1    1    2  502    0  0.20966726018E+02 -0.34909683248E+01  0.65766135996E+03  0.65800475290E+03  0.00000000000E+00 0.  1.
         -1    1    1    2    0  501 -0.20966726018E+02  0.34909683248E+01  0.11642912694E+03  0.11835342014E+03  0.00000000000E+00 0. -1.
</event>
<event>
 4    1  0.6729064E+001  0.2354354E+02  0.7546771E-02  0.1485783E+00
          2   -1    0    0  502    0  0.00000000000E+00  0.00000000000E+00  0.24673433716E+03  0.24673433716E+03  0.00000000000E+00 0.  1.
         -2   -1    0    0    0  501 -0.00000000000E+00 -0.00000000000E+00 -0.42069020026E+01  0.42069020026E+01  0.00000000000E+00 0. -1.
          1    1    1    2  502    0 -0.37382630922E+01  0.23244858377E+02  0.20691408099E+03  0.20824921360E+03  0.00000000000E+00 0.  1.
         -1    1    1    2    0  501  0.37382630922E+01 -0.23244858377E+02  0.35613354173E+02  0.42692025571E+02  0.00000000000E+00 0. -1.
</event>
<event>
 4    1  0.6729064E+001  0.5494475E+02  0.7546771E-02  0.1278048E+00
          2   -1    0    0  502    0  0.00000000000E+00  0.00000000000E+00  0.11493147363E+04  0.11493147363E+04  0.00000000000E+00 0. -1.
         -2   -1    0    0    0  501 -0.00000000000E+00 -0.00000000000E+00 -0.27323488876E+01  0.27323488876E+01  0.00000000000E+00 0.  1.
          1    1    1    2  502    0 -0.26878689256E+02  0.47921410950E+02  0.68654892975E+03  0.68874404426E+03  0.00000000000E+00 0.  1.
         -1    1    1    2    0  501  0.26878689256E+02 -0.47921410950E+02  0.46003345770E+03  0.46330304097E+03  0.00000000000E+00 0. -1.
</event>
<event>
 4    1  0.6729064E+001  0.2674989E+02  0.7546771E-02  0.1450137E+00
          2   -1    0    0  502    0  0.00000000000E+00  0.00000000000E+00  0.21341589588E+01  0.21341589588E+01  0.00000000000E+00 0. -1.
         -2   -1    0    0    0  501 -0.00000000000E+00 -0.00000000000E+00 -0.42247315258E+03  0.42247315258E+03  0.00000000000E+00 0.  1.
          1    1    1    2  502    0  0.32391087127E+01  0.26553051609E+02 -0.11372422361E+03  0.11682788799E+03  0.00000000000E+00 0. -1.
         -1    1    1    2    0  501 -0.32391087127E+01 -0.26553051609E+02 -0.30661477000E+03  0.30777942355E+03  0.00000000000E+00 0.  1.
</event>
<event>
 4    1  0.6729064E+001  0.3584993E+02  0.7546771E-02  0.1374684E+00
          2   -1    0    0  502    0  0.00000000000E+00  0.00000000000E+00  0.28537258013E+04  0.28537258013E+04  0.00000000000E+00 0.  1.
         -2   -1    0    0    0  501 -0.00000000000E+00 -0.00000000000E+00 -0.51205198167E+00  0.51205198167E+00  0.00000000000E+00 0. -1.
          1    1    1    2  502    0  0.33557080748E+02  0.12615072125E+02  0.93127015170E+03  0.93195993109E+03  0.00000000000E+00 0. -1.
         -1    1    1    2    0  501 -0.33557080748E+02 -0.12615072125E+02  0.19219435976E+04  0.19222779222E+04  0.00000000000E+00 0.  1.
</event>
<event>
 4    1  0.6729064E+001  0.2615604E+02  0.7546771E-02  0.1456275E+00
          2   -1    0    0  502    0  0.00000000000E+00  0.00000000000E+00  0.11915884090E+02  0.11915884090E+02  0.00000000000E+00 0. -1.
         -2   -1    0    0    0  501 -0.00000000000E+00 -0.00000000000E+00 -0.61629078199E+02  0.61629078199E+02  0.00000000000E+00 0.  1.
          1    1    1    2  502    0 -0.24810068436E+02  0.82824352959E+01 -0.15239712971E+02  0.30271885995E+02  0.00000000000E+00 0. -1.
         -1    1    1    2    0  501  0.24810068436E+02 -0.82824352959E+01 -0.34473481138E+02  0.43273076294E+02  0.00000000000E+00 0.  1.
</event>
<event>
 4    1  0.6729064E+001  0.3439037E+02  0.7546771E-02  0.1384900E+00
          2   -1    0    0  502    0  0.00000000000E+00  0.00000000000E+00  0.21045047326E+04  0.21045047326E+04  0.00000000000E+00 0.  1.
         -2   -1    0    0    0  501 -0.00000000000E+00 -0.00000000000E+00 -0.60571193953E+00  0.60571193953E+00  0.00000000000E+00 0. -1.
          1    1    1    2  502    0  0.27542663148E+02 -0.20593676539E+02  0.76914146697E+03  0.76990992591E+03  0.00000000000E+00 0. -1.
         -1    1    1    2    0  501 -0.27542663148E+02  0.20593676539E+02  0.13347575537E+04  0.13352005186E+04  0.00000000000E+00 0.  1.
</event>
<event>
 4    1  0.6729064E+001  0.2174049E+02  0.7546771E-02  0.1508950E+00
          2   -1    0    0  502    0  0.00000000000E+00  0.00000000000E+00  0.40592753768E+02  0.40592753768E+02  0.00000000000E+00 0.  1.
         -2   -1    0    0    0  501 -0.00000000000E+00 -0.00000000000E+00 -0.11944030524E+02  0.11944030524E+02  0.00000000000E+00 0. -1.
          1    1    1    2  502    0  0.20011740719E+02 -0.84958288659E+01  0.18489937922E+02  0.28539913789E+02  0.00000000000E+00 0. -1.
         -1    1    1    2    0  501 -0.20011740719E+02  0.84958288659E+01  0.10158785322E+02  0.23996870503E+02  0.00000000000E+00 0.  1.
</event>
<event>
 4    1  0.6729064E+001  0.3021470E+02  0.7546771E-02  0.1417740E+00
          2   -1    0    0  502    0  0.00000000000E+00  0.00000000000E+00  0.44174127068E+02  0.44174127068E+02  0.00000000000E+00 0.  1.
         -2   -1    0    0    0  501 -0.00000000000E+00 -0.00000000000E+00 -0.26473311123E+02  0.26473311123E+02  0.00000000000E+00 0. -1.
          1    1    1    2  502    0 -0.30094030665E+02 -0.26977221409E+01 -0.76931124840E+01  0.31178716556E+02  0.00000000000E+00 0. -1.
         -1    1    1    2    0  501  0.30094030665E+02  0.26977221409E+01  0.25393928429E+02  0.39468721634E+02  0.00000000000E+00 0.  1.
</event>
<event>
 4    1  0.6729064E+001  0.2551507E+02  0.7546771E-02  0.1463123E+00
          2   -1    0    0  502    0  0.00000000000E+00  0.00000000000E+00  0.16548727370E+04  0.16548727370E+04  0.00000000000E+00 0.  1.
         -2   -1    0    0    0  501 -0.00000000000E+00 -0.00000000000E+00 -0.41635619814E+00  0.41635619814E+00  0.00000000000E+00 0. -1.
          1    1    1    2  502    0 -0.10453880717E+02  0.23275201779E+02  0.63286736685E+03  0.63338149852E+03  0.00000000000E+00 0. -1.
         -1    1    1    2    0  501  0.10453880717E+02 -0.23275201779E+02  0.10215890139E+04  0.10219075946E+04  0.00000000000E+00 0.  1.
</event>
<event>
 4    1  0.6729064E+001  0.4807561E+02  0.7546771E-02  0.1306739E+00
          2   -1    0    0  502    0  0.00000000000E+00  0.00000000000E+00  0.15146985883E+03  0.15146985883E+03  0.00000000000E+00 0. -1.
         -2   -1    0    0    0  501 -0.00000000000E+00 -0.00000000000E+00 -0.19829928080E+02  0.19829928080E+02  0.00000000000E+00 0.  1.
          1    1    1    2  502    0  0.48029392528E+02 -0.21074617265E+01  0.24698077808E+02  0.54048672407E+02  0.00000000000E+00 0.  1.
         -1    1    1    2    0  501 -0.48029392528E+02  0.21074617265E+01  0.10694185294E+03  0.11725111451E+03  0.00000000000E+00 0. -1.
</event>
<event>
 4    1  0.6729064E+001  0.2252478E+02  0.7546771E-02  0.1498553E+00
          2   -1    0    0  502    0  0.00000000000E+00  0.00000000000E+00  0.17443171322E+03  0.17443171322E+03  0.00000000000E+00 0.  1.
         -2   -1    0    0    0  501 -0.00000000000E+00 -0.00000000000E+00 -0.29099256244E+01  0.29099256244E+01  0.00000000000E+00 0. -1.
          1    1    1    2  502    0 -0.17079167979E+02 -0.14685624195E+02  0.83924223493E+02  0.86894423445E+02  0.00000000000E+00 0. -1.
         -1    1    1    2    0  501  0.17079167979E+02  0.14685624195E+02  0.87597564098E+02  0.90447215396E+02  0.00000000000E+00 0.  1.
</event>
<event>
 4    1  0.6729064E+001  0.2330424E+02  0.7546771E-02  0.1488713E+00
          2   -1    0    0  502    0  0.00000000000E+00  0.00000000000E+00  0.40727618607E+03  0.40727618607E+03  0.00000000000E+00 0. -1.
         -2   -1    0    0    0  501 -0.00000000000E+00 -0.00000000000E+00 -0.13556371896E+01  0.13556371896E+01  0.00000000000E+00 0.  1.
          1    1    1    2  502    0  0.17718385109E+02 -0.15137585228E+02  0.17682927900E+03  0.17835829549E+03  0.00000000000E+00 0. -1.
         -1    1    1    2    0  501 -0.17718385109E+02  0.15137585228E+02  0.22909126988E+03  0.23027352777E+03  0.00000000000E+00 0.  1.
</event>
<event>
 4    1  0.6729064E+001  0.4003955E+02  0.7546771E-02  0.1348254E+00
          2   -1    0    0  502    0  0.00000000000E+00  0.00000000000E+00  0.13142513543E+04  0.13142513543E+04  0.00000000000E+00 0. -1.
         -2   -1    0    0    0  501 -0.00000000000E+00 -0.00000000000E+00 -0.12430370166E+01  0.12430370166E+01  0.00000000000E+00 0.  1.
          1    1    1    2  502    0  0.19098753394E+02 -0.35190957941E+02  0.56663563601E+03  0.56804851016E+03  0.00000000000E+00 0.  1.
         -1    1    1    2    0  501 -0.19098753394E+02  0.35190957941E+02  0.74637268127E+03  0.74744588115E+03  0.00000000000E+00 0. -1.
</event>
<event>
 4    1  0.6729064E+001  0.2280002E+02  0.7546771E-02  0.1495025E+00
          2   -1    0    0  502    0  0.00000000000E+00  0.00000000000E+00  0.37292501640E+03  0.37292501640E+03  0.00000000000E+00 0.  1.
         -2   -1    0    0    0  501 -0.00000000000E+00 -0.00000000000E+00 -0.13996971666E+01  0.13996971666E+01  0.00000000000E+00 0. -1.
          1    1    1    2  502    0 -0.11894068757E+02  0.19451785234E+02  0.17377522468E+03  0.17526457010E+03  0.00000000000E+00 0.  1.
         -1    1    1    2    0  501  0.11894068757E+02 -0.19451785234E+02  0.19775009455E+03  0.19906014346E+03  0.00000000000E+00 0. -1.
</event>
<event>
 4    1  0.6729064E+001  0.2246853E+02  0.7546771E-02  0.1499282E+00
          2   -1    0    0  502    0  0.00000000000E+00  0.00000000000E+00  0.97430319670E+02  0.97430319670E+02  0.00000000000E+00 0.  1.
         -2   -1    0    0    0  501 -0.00000000000E+00 -0.00000000000E+00 -0.51858845005E+01  0.51858845005E+01  0.00000000000E+00 0. -1.
          1    1    1    2  502    0  0.13036608576E+02  0.18299773412E+02  0.47614678369E+02  0.52649714778E+02  0.00000000000E+00 0.  1.
         -1    1    1    2    0  501 -0.13036608576E+02 -0.18299773412E+02  0.44629756801E+02  0.49966489393E+02  0.00000000000E+00 0. -1.
</event>
<event>
 4    1  0.6729064E+001  0.3077396E+02  0.7546771E-02  0.1412988E+00
          2   -1    0    0  502    0  0.00000000000E+00  0.00000000000E+00  0.18379142719E+03  0.18379142719E+03  0.00000000000E+00 0. -1.
         -2   -1    0    0    0  501 -0.00000000000E+00 -0.00000000000E+00 -0.58664715160E+01  0.58664715160E+01  0.00000000000E+00 0.  1.
          1    1    1    2  502    0 -0.30058288299E+02 -0.65981896782E+01  0.55886880027E+02  0.63799531046E+02  0.00000000000E+00 0. -1.
         -1    1    1    2    0  501  0.30058288299E+02  0.65981896782E+01  0.12203807565E+03  0.12585836766E+03  0.00000000000E+00 0.  1.
</event>
<event>
 4    1  0.6729064E+001  0.2783141E+02  0.7546771E-02  0.1439431E+00
          2   -1    0    0  502    0  0.00000000000E+00  0.00000000000E+00  0.29062767626E+02  0.29062767626E+02  0.00000000000E+00 0. -1.
         -2   -1    0    0    0  501 -0.00000000000E+00 -0.00000000000E+00 -0.26811192401E+02  0.26811192401E+02  0.00000000000E+00 0.  1.
          1    1    1    2  502    0 -0.27808441796E+02 -0.11305316943E+01 -0.10253590357E+01  0.27850294400E+02  0.00000000000E+00 0.  1.
         -1    1    1    2    0  501  0.27808441796E+02  0.11305316943E+01  0.32769342612E+01  0.28023665627E+02  0.00000000000E+00 0. -1.
</event>
<event>
 4    1  0.6729064E+001  0.2174280E+02  0.7546771E-02  0.1508918E+00
          2   -1    0    0  502    0  0.00000000000E+00  0.00000000000E+00  0.13538537112E+03  0.13538537112E+03  0.00000000000E+00 0. -1.
         -2   -1    0    0    0  501 -0.00000000000E+00 -0.00000000000E+00 -0.35174177184E+01  0.35174177184E+01  0.00000000000E+00 0.  1.
          1    1    1    2  502    0 -0.76419522880E+00  0.21729370308E+02  0.60016230125E+02  0.63833356536E+02  0.00000000000E+00 0. -1.
         -1    1    1    2    0  501  0.76419522880E+00 -0.21729370308E+02  0.71851723277E+02  0.75069432302E+02  0.00000000000E+00 0.  1.
</event>
<event>
 4    1  0.6729064E+001  0.2497379E+02  0.7546771E-02  0.1469097E+00
          2   -1    0    0  502    0  0.00000000000E+00  0.00000000000E+00  0.20881519744E+03  0.20881519744E+03  0.00000000000E+00 0. -1.
         -2   -1    0    0    0  501 -0.00000000000E+00 -0.00000000000E+00 -0.31146158706E+01  0.31146158706E+01  0.00000000000E+00 0.  1.
          1    1    1    2  502    0  0.24147769720E+02  0.63698848614E+01  0.12431594852E+03  0.12679962647E+03  0.00000000000E+00 0.  1.
         -1    1    1    2    0  501 -0.24147769720E+02 -0.63698848614E+01  0.81384633054E+02  0.85130186849E+02  0.00000000000E+00 0. -1.
</event>
<event>
 4    1  0.6729064E+001  0.2041015E+02  0.7546771E-02  0.1527855E+00
          2   -1    0    0  502    0  0.00000000000E+00  0.00000000000E+00  0.22827363030E+03  0.22827363030E+03  0.00000000000E+00 0.  1.
         -2   -1    0    0    0  501 -0.00000000000E+00 -0.00000000000E+00 -0.30515222411E+01  0.30515222411E+01  0.00000000000E+00 0. -1.
          1    1    1    2  502    0 -0.19378332103E+02 -0.64073645844E+01  0.39279324789E+02  0.44265555818E+02  0.00000000000E+00 0. -1.
         -1    1    1    2    0  501  0.19378332103E+02  0.64073645844E+01  0.18594278327E+03  0.18705959672E+03  0.00000000000E+00 0.  1.
</event>
<event>
 4    1  0.6729064E+001  0.2617268E+02  0.7546771E-02  0.1456100E+00
          2   -1    0    0  502    0  0.00000000000E+00  0.00000000000E+00  0.12830259348E+02  0.12830259348E+02  0.00000000000E+00 0. -1.
         -2   -1    0    0    0  501 -0.00000000000E+00 -0.00000000000E+00 -0.56143821449E+02  0.56143821449E+02  0.00000000000E+00 0.  1.
          1    1    1    2  502    0  0.33571602365E+01 -0.25956471442E+02 -0.29294511014E+02  0.39283295561E+02  0.00000000000E+00 0.  1.
         -1    1    1    2    0  501 -0.33571602365E+01  0.25956471442E+02 -0.14019051087E+02  0.29690785236E+02  0.00000000000E+00 0. -1.
</event>
<event>
 4    1  0.6729064E+001  0.2765966E+02  0.7546771E-02  0.1441092E+00
          2   -1    0    0  502    0  0.00000000000E+00  0.00000000000E+00  0.11702300698E+04  0.11702300698E+04  0.00000000000E+00 0.  1.
         -2   -1    0    0    0  501 -0.00000000000E+00 -0.00000000000E+00 -0.66161976583E+00  0.66161976583E+00  0.00000000000E+00 0. -1.
          1    1    1    2  502    0  0.60800372334E+01 -0.26983138554E+02  0.64856969656E+03  0.64915923156E+03  0.00000000000E+00 0.  1.
         -1    1    1    2    0  501 -0.60800372334E+01  0.26983138554E+02  0.52099875349E+03  0.52173245803E+03  0.00000000000E+00 0. -1.
</event>
<event>
 4    1  0.6729064E+001  0.2085964E+02  0.7546771E-02  0.1521278E+00
          2   -1    0    0  502    0  0.00000000000E+00  0.00000000000E+00  0.48313970885E+02  0.48313970885E+02  0.00000000000E+00 0.  1.
         -2   -1    0    0    0  501 -0.00000000000E+00 -0.00000000000E+00 -0.14820491367E+02  0.14820491367E+02  0.00000000000E+00 0. -1.
          1    1    1    2  502    0 -0.20527462292E+02  0.37077989064E+01 -0.30254243143E+01  0.21077895368E+02  0.00000000000E+00 0. -1.
         -1    1    1    2    0  501  0.20527462292E+02 -0.37077989064E+01  0.36518903832E+02  0.42056566883E+02  0.00000000000E+00 0.  1.
</event>
<event>
 4    1  0.6729064E+001  0.8111566E+02  0.7546771E-02  0.1201281E+00
          2   -1    0    0  502    0  0.00000000000E+00  0.00000000000E+00  0.93274585400E+03  0.93274585400E+03  0.00000000000E+00 0.  1.
         -2   -1    0    0    0  501 -0.00000000000E+00 -0.00000000000E+00 -0.11689820161E+02  0.11689820161E+02  0.00000000000E+00 0. -1.
          1    1    1    2  502    0 -0.65610454592E+02 -0.47697149692E+02  0.75789565137E+03  0.76222409317E+03  0.00000000000E+00 0.  1.
         -1    1    1    2    0  501  0.65610454592E+02  0.47697149692E+02  0.16316038248E+03  0.18221158100E+03  0.00000000000E+00 0. -1.
</event>
<event>
 4    1  0.6729064E+001  0.2001925E+02  0.7546771E-02  0.1533742E+00
          2   -1    0    0  502    0  0.00000000000E+00  0.00000000000E+00  0.99709867570E+01  0.99709867570E+01  0.00000000000E+00 0.  1.
         -2   -1    0    0    0  501 -0.00000000000E+00 -0.00000000000E+00 -0.45981791205E+02  0.45981791205E+02  0.00000000000E+00 0. -1.
          1    1    1    2  502    0 -0.18891361761E+02 -0.66247205989E+01 -0.80795496336E+01  0.21588181824E+02  0.00000000000E+00 0.  1.
         -1    1    1    2    0  501  0.18891361761E+02  0.66247205989E+01 -0.27931254814E+02  0.34364596138E+02  0.00000000000E+00 0. -1.
</event>
<event>
 4    1  0.6729064E+001  0.3798408E+02  0.7546771E-02  0.1360722E+00
          2   -1    0    0  502    0  0.00000000000E+00  0.00000000000E+00  0.94277005534E+02  0.94277005534E+02  0.00000000000E+00 0.  1.
         -2   -1    0    0    0  501 -0.00000000000E+00 -0.00000000000E+00 -0.16617099855E+02  0.16617099855E+02  0.00000000000E+00 0. -1.
          1    1    1    2  502    0  0.29659311473E+02 -0.23730064310E+02  0.54418040707E+02  0.66363497976E+02  0.00000000000E+00 0. -1.
         -1    1    1    2    0  501 -0.29659311473E+02  0.23730064310E+02  0.23241864972E+02  0.44530607413E+02  0.00000000000E+00 0.  1.
</event>
<event>
 4    1  0.6729064E+001  0.2226881E+02  0.7546771E-02  0.1501890E+00
          2   -1    0    0  502    0  0.00000000000E+00  0.00000000000E+00  0.16218851183E+03  0.16218851183E+03  0.00000000000E+00 0. -1.
         -2   -1    0    0    0  501 -0.00000000000E+00 -0.00000000000E+00 -0.40036011590E+01  0.40036011590E+01  0.00000000000E+00 0.  1.
          1    1    1    2  502    0  0.18328472473E+02  0.12647802119E+02  0.11948599136E+03  0.12154341584E+03  0.00000000000E+00 0. -1.
         -1    1    1    2    0  501 -0.18328472473E+02 -0.12647802119E+02  0.38698919307E+02  0.44648697150E+02  0.00000000000E+00 0.  1.
</event>
<event>
 4    1  0.6729064E+001  0.3151328E+02  0.7546771E-02  0.1406887E+00
          2   -1    0    0  502    0  0.00000000000E+00  0.00000000000E+00  0.73052043781E+03  0.73052043781E+03  0.00000000000E+00 0. -1.
         -2   -1    0    0    0  501 -0.00000000000E+00 -0.00000000000E+00 -0.13776146681E+01  0.13776146681E+01  0.00000000000E+00 0.  1.
          1    1    1    2  502    0  0.34209169956E+01  0.31327049153E+02  0.32251942684E+03  0.32405534615E+03  0.00000000000E+00 0.  1.
         -1    1    1    2    0  501 -0.34209169956E+01 -0.31327049153E+02  0.40662339631E+03  0.40784270633E+03  0.00000000000E+00 0. -1.
</event>
<event>
 4    1  0.6729064E+001  0.2613719E+02  0.7546771E-02  0.1456473E+00
          2   -1    0    0  502    0  0.00000000000E+00  0.00000000000E+00  0.18681185069E+02  0.18681185069E+02  0.00000000000E+00 0.  1.
         -2   -1    0    0    0  501 -0.00000000000E+00 -0.00000000000E+00 -0.36922718236E+02  0.36922718236E+02  0.00000000000E+00 0. -1.
          1    1    1    2  502    0  0.26131691995E+02 -0.53626925324E+00 -0.63997219341E+01  0.26909280037E+02  0.00000000000E+00 0.  1.
         -1    1    1    2    0  501 -0.26131691995E+02  0.53626925324E+00 -0.11841811233E+02  0.28694623269E+02  0.00000000000E+00 0. -1.
</event>
<event>
 4    1  0.6729064E+001  0.3053533E+02  0.7546771E-02  0.1415000E+00
          2   -1    0    0  502    0  0.00000000000E+00  0.00000000000E+00  0.32227710651E+04  0.32227710651E+04  0.00000000000E+00 0.  1.
         -2   -1    0    0    0  501 -0.00000000000E+00 -0.00000000000E+00 -0.32347058672E+00  0.32347058672E+00  0.00000000000E+00 0. -1.
          1    1    1    2  502    0  0.19740225767E+02 -0.23296559378E+02  0.21348681679E+04  0.21350865323E+04  0.00000000000E+00 0.  1.
         -1    1    1    2    0  501 -0.19740225767E+02  0.23296559378E+02  0.10875794267E+04  0.10880080034E+04  0.00000000000E+00 0. -1.
</event>
<event>
 4    1  0.6729064E+001  0.2289334E+02  0.7546771E-02  0.1493842E+00
          2   -1    0    0  502    0  0.00000000000E+00  0.00000000000E+00  0.16885683080E+03  0.16885683080E+03  0.00000000000E+00 0. -1.
         -2   -1    0    0    0  501 -0.00000000000E+00 -0.00000000000E+00 -0.31046729626E+01  0.31046729626E+01  0.00000000000E+00 0.  1.
          1    1    1    2  502    0 -0.21933647040E+02 -0.65589663935E+01  0.81469381209E+02  0.84624848521E+02  0.00000000000E+00 0. -1.
         -1    1    1    2    0  501  0.21933647040E+02  0.65589663935E+01  0.84282776629E+02  0.87336655242E+02  0.00000000000E+00 0.  1.
</event>
<event>
 4    1  0.6729064E+001  0.3283158E+02  0.7546771E-02  0.1396484E+00
          2   -1    0    0  502    0  0.00000000000E+00  0.00000000000E+00  0.24821918017E+02  0.24821918017E+02  0.00000000000E+00 0. -1.
         -2   -1    0    0    0  501 -0.00000000000E+00 -0.00000000000E+00 -0.58368087268E+02  0.58368087268E+02  0.00000000000E+00 0.  1.
          1    1    1    2  502    0  0.21369999491E+02 -0.24924596242E+02  0.42725264139E+01  0.33108410684E+02  0.00000000000E+00 0. -1.
         -1    1    1    2    0  501 -0.21369999491E+02  0.24924596242E+02 -0.37818695665E+02  0.50081594602E+02  0.00000000000E+00 0.  1.
</event>
<event>
 4    1  0.6729064E+001  0.2469868E+02  0.7546771E-02  0.1472203E+00
          2   -1    0    0  502    0  0.00000000000E+00  0.00000000000E+00  0.60796593503E+01  0.60796593503E+01  0.00000000000E+00 0.  1.
         -2   -1    0    0    0  501 -0.00000000000E+00 -0.00000000000E+00 -0.11805085426E+03  0.11805085426E+03  0.00000000000E+00 0. -1.
          1    1    1    2  502    0  0.10468065217E+02  0.22370617430E+02 -0.80026462478E+02  0.83751176770E+02  0.00000000000E+00 0. -1.
         -1    1    1    2    0  501 -0.10468065217E+02 -0.22370617430E+02 -0.31944732434E+02  0.40379336843E+02  0.00000000000E+00 0.  1.
</event>
<event>
 4    1  0.6729064E+001  0.2085259E+02  0.7546771E-02  0.1521380E+00
          2   -1    0    0  502    0  0.00000000000E+00  0.00000000000E+00  0.14048086859E+03  0.14048086859E+03  0.00000000000E+00 0. -1.
         -2   -1    0    0    0  501 -0.00000000000E+00 -0.00000000000E+00 -0.66859344653E+01  0.66859344653E+01  0.00000000000E+00 0.  1.
          1    1    1    2  502    0 -0.17792084145E+02 -0.10875301681E+02  0.12082175198E+03  0.12260801848E+03  0.00000000000E+00 0. -1.
         -1    1    1    2    0  501  0.17792084145E+02  0.10875301681E+02  0.12973182153E+02  0.24558784581E+02  0.00000000000E+00 0.  1.
</event>
<event>
 4    1  0.6729064E+001  0.2214758E+02  0.7546771E-02  0.1503489E+00
          2   -1    0    0  502    0  0.00000000000E+00  0.00000000000E+00  0.26654847032E+01  0.26654847032E+01  0.00000000000E+00 0.  1.
         -2   -1    0    0    0  501 -0.00000000000E+00 -0.00000000000E+00 -0.18821920684E+03  0.18821920684E+03  0.00000000000E+00 0. -1.
          1    1    1    2  502    0  0.14159235468E+02 -0.17030303032E+02 -0.10702462541E+03  0.10929220289E+03  0.00000000000E+00 0.  1.
         -1    1    1    2    0  501 -0.14159235468E+02  0.17030303032E+02 -0.78529096736E+02  0.81592488653E+02  0.00000000000E+00 0. -1.
</event>
<event>
 4    1  0.6729064E+001  0.2924001E+02  0.7546771E-02  0.1426318E+00
          2   -1    0    0  502    0  0.00000000000E+00  0.00000000000E+00  0.22086657273E+03  0.22086657273E+03  0.00000000000E+00 0. -1.
         -2   -1    0    0    0  501 -0.00000000000E+00 -0.00000000000E+00 -0.47588682888E+01  0.47588682888E+01  0.00000000000E+00 0.  1.
          1    1    1    2  502    0  0.18316678324E+02 -0.22792052691E+02  0.15678158666E+03  0.15948493436E+03  0.00000000000E+00 0. -1.
         -1    1    1    2    0  501 -0.18316678324E+02  0.22792052691E+02  0.59326117775E+02  0.66140506658E+02  0.00000000000E+00 0.  1.
</event>
<event>
 4    1  0.6729064E+001  0.3709897E+02  0.7546771E-02  0.1366379E+00
          2   -1    0    0  502    0  0.00000000000E+00  0.00000000000E+00  0.29406241334E+02  0.29406241334E+02  0.00000000000E+00 0. -1.
         -2   -1    0    0    0  501 -0.00000000000E+00 -0.00000000000E+00 -0.47076819115E+02  0.47076819115E+02  0.00000000000E+00 0.  1.
          1    1    1    2  502    0 -0.36698789081E+02  0.54343726549E+01 -0.59247993483E+01  0.37569093327E+02  0.00000000000E+00 0. -1.
         -1    1    1    2    0  501  0.36698789081E+02 -0.54343726549E+01 -0.11745778432E+02  0.38913967121E+02  0.00000000000E+00 0.  1.
</event>
<event>
 4    1  0.6729064E+001  0.2539137E+02  0.7546771E-02  0.1464472E+00
          2   -1    0    0  502    0  0.00000000000E+00  0.00000000000E+00  0.30281819372E+03  0.30281819372E+03  0.00000000000E+00 0. -1.
         -2   -1    0    0    0  501 -0.00000000000E+00 -0.00000000000E+00 -0.26292720581E+01  0.26292720581E+01  0.00000000000E+00 0.  1.
          1    1    1    2  502    0  0.23299931261E+02 -0.10091324858E+02  0.21670773558E+03  0.21819020210E+03  0.00000000000E+00 0. -1.
         -1    1    1    2    0  501 -0.23299931261E+02  0.10091324858E+02  0.83481186081E+02  0.87257263672E+02  0.00000000000E+00 0.  1.
</event>
<event>
 4    1  0.6729064E+001  0.2760004E+02  0.7546771E-02  0.1441672E+00
          2   -1    0    0  502    0  0.00000000000E+00  0.00000000000E+00  0.12332427077E+04  0.12332427077E+04  0.00000000000E+00 0.  1.
         -2   -1    0    0    0  501 -0.00000000000E+00 -0.00000000000E+00 -0.61811742581E+00  0.61811742581E+00  0.00000000000E+00 0. -1.
          1    1    1    2  502    0  0.58286328870E+01  0.26977571008E+02  0.60009869992E+03  0.60073306213E+03  0.00000000000E+00 0.  1.
         -1    1    1    2    0  501 -0.58286328870E+01 -0.26977571008E+02  0.63252589033E+03  0.63312776297E+03  0.00000000000E+00 0. -1.
</event>
<event>
 4    1  0.6729064E+001  0.4586967E+02  0.7546771E-02  0.1317147E+00
          2   -1    0    0  502    0  0.00000000000E+00  0.00000000000E+00  0.66552681213E+03  0.66552681213E+03  0.00000000000E+00 0.  1.
         -2   -1    0    0    0  501 -0.00000000000E+00 -0.00000000000E+00 -0.31969535945E+01  0.31969535945E+01  0.00000000000E+00 0. -1.
          1    1    1    2  502    0  0.43903360564E+02 -0.13286126652E+02  0.36640339675E+03  0.36926342275E+03  0.00000000000E+00 0.  1.
         -1    1    1    2    0  501 -0.43903360564E+02  0.13286126652E+02  0.29592646179E+03  0.29946034298E+03  0.00000000000E+00 0. -1.
</event>
<event>
 4    1  0.6729064E+001  0.2305347E+02  0.7546771E-02  0.1491828E+00
          2   -1    0    0  502    0  0.00000000000E+00  0.00000000000E+00  0.25118852760E+01  0.25118852760E+01  0.00000000000E+00 0. -1.
         -2   -1    0    0    0  501 -0.00000000000E+00 -0.00000000000E+00 -0.26647534020E+03  0.26647534020E+03  0.00000000000E+00 0.  1.
          1    1    1    2  502    0  0.10996150121E+02  0.20261960959E+02 -0.19302594354E+03  0.19439772956E+03  0.00000000000E+00 0.  1.
         -1    1    1    2    0  501 -0.10996150121E+02 -0.20261960959E+02 -0.70937511388E+02  0.74589495918E+02  0.00000000000E+00 0. -1.
</event>
<event>
 4    1  0.6729064E+001  0.2092269E+02  0.7546771E-02  0.1520371E+00
          2   -1    0    0  502    0  0.00000000000E+00  0.00000000000E+00  0.11705599494E+02  0.11705599494E+02  0.00000000000E+00 0. -1.
         -2   -1    0    0    0  501 -0.00000000000E+00 -0.00000000000E+00 -0.98388016397E+02  0.98388016397E+02  0.00000000000E+00 0.  1.
          1    1    1    2  502    0  0.13003642400E+02 -0.16390983822E+02 -0.86681569484E+02  0.89170923257E+02  0.00000000000E+00 0.  1.
         -1    1    1    2    0  501 -0.13003642400E+02  0.16390983822E+02 -0.84741821649E-03  0.20922692634E+02  0.00000000000E+00 0. -1.
</event>
<event>
 4    1  0.6729064E+001  0.2257491E+02  0.7546771E-02  0.1497906E+00
          2   -1    0    0  502    0  0.00000000000E+00  0.00000000000E+00  0.83850233886E+02  0.83850233886E+02  0.00000000000E+00 0.  1.
         -2   -1    0    0    0  501 -0.00000000000E+00 -0.00000000000E+00 -0.75849083658E+01  0.75849083658E+01  0.00000000000E+00 0. -1.
          1    1    1    2  502    0 -0.15718002238E+02  0.16204035431E+02  0.17753900518E+02  0.28719807489E+02  0.00000000000E+00 0. -1.
         -1    1    1    2    0  501  0.15718002238E+02 -0.16204035431E+02  0.58511425002E+02  0.62715334762E+02  0.00000000000E+00 0.  1.
</event>
<event>
 4    1  0.6729064E+001  0.2216433E+02  0.7546771E-02  0.1503267E+00
          2   -1    0    0  502    0  0.00000000000E+00  0.00000000000E+00  0.46291796929E+03  0.46291796929E+03  0.00000000000E+00 0. -1.
         -2   -1    0    0    0  501 -0.00000000000E+00 -0.00000000000E+00 -0.11891712362E+01  0.11891712362E+01  0.00000000000E+00 0.  1.
          1    1    1    2  502    0 -0.22163970433E+02 -0.12674993199E+00  0.30698266276E+03  0.30778176178E+03  0.00000000000E+00 0.  1.
         -1    1    1    2    0  501  0.22163970433E+02  0.12674993199E+00  0.15474613530E+03  0.15632537875E+03  0.00000000000E+00 0. -1.
</event>
<event>
 4    1  0.6729064E+001  0.2259820E+02  0.7546771E-02  0.1497606E+00
          2   -1    0    0  502    0  0.00000000000E+00  0.00000000000E+00  0.41935890132E+02  0.41935890132E+02  0.00000000000E+00 0. -1.
         -2   -1    0    0    0  501 -0.00000000000E+00 -0.00000000000E+00 -0.20217408996E+02  0.20217408996E+02  0.00000000000E+00 0.  1.
          1    1    1    2  502    0  0.71684166102E+01 -0.21431114293E+02  0.30456442841E+02  0.37924579985E+02  0.00000000000E+00 0. -1.
         -1    1    1    2    0  501 -0.71684166102E+01  0.21431114293E+02 -0.87379617048E+01  0.24228719142E+02  0.00000000000E+00 0.  1.
</event>
<event>
 4    1  0.6729064E+001  0.2304382E+02  0.7546771E-02  0.1491949E+00
          2   -1    0    0  502    0  0.00000000000E+00  0.00000000000E+00  0.74931356116E+01  0.74931356116E+01  0.00000000000E+00 0. -1.
         -2   -1    0    0    0  501 -0.00000000000E+00 -0.00000000000E+00 -0.11349104586E+03  0.11349104586E+03  0.00000000000E+00 0.  1.
          1    1    1    2  502    0  0.18101418065E+02  0.14260309841E+02 -0.15927131185E+02  0.28012341575E+02  0.00000000000E+00 0. -1.
         -1    1    1    2    0  501 -0.18101418065E+02 -0.14260309841E+02 -0.90070779064E+02  0.92971839898E+02  0.00000000000E+00 0.  1.
</event>
<event>
 4    1  0.6729064E+001  0.3001900E+02  0.7546771E-02  0.1419431E+00
          2   -1    0    0  502    0  0.00000000000E+00  0.00000000000E+00  0.25070092423E+03  0.25070092423E+03  0.00000000000E+00 0. -1.
         -2   -1    0    0    0  501 -0.00000000000E+00 -0.00000000000E+00 -0.39220038339E+01  0.39220038339E+01  0.00000000000E+00 0.  1.
          1    1    1    2  502    0  0.26104545226E+02  0.14822049907E+02  0.16017967728E+03  0.16296830814E+03  0.00000000000E+00 0.  1.
         -1    1    1    2    0  501 -0.26104545226E+02 -0.14822049907E+02  0.86599243121E+02  0.91654619927E+02  0.00000000000E+00 0. -1.
</event>
<event>
 4    1  0.6729064E+001  0.2303173E+02  0.7546771E-02  0.1492100E+00
          2   -1    0    0  502    0  0.00000000000E+00  0.00000000000E+00  0.20061351490E+01  0.20061351490E+01  0.00000000000E+00 0.  1.
         -2   -1    0    0    0  501 -0.00000000000E+00 -0.00000000000E+00 -0.35779670978E+03  0.35779670978E+03  0.00000000000E+00 0. -1.
          1    1    1    2  502    0 -0.21422433968E+02 -0.84581330076E+01 -0.26979994540E+03  0.27078122393E+03  0.00000000000E+00 0. -1.
         -1    1    1    2    0  501  0.21422433968E+02  0.84581330076E+01 -0.85990629228E+02  0.89021621003E+02  0.00000000000E+00 0.  1.
</event>
<event>
 4    1  0.6729064E+001  0.3913983E+02  0.7546771E-02  0.1353601E+00
          2   -1    0    0  502    0  0.00000000000E+00  0.00000000000E+00  0.25152083684E+02  0.25152083684E+02  0.00000000000E+00 0. -1.
         -2   -1    0    0    0  501 -0.00000000000E+00 -0.00000000000E+00 -0.96301342959E+02  0.96301342959E+02  0.00000000000E+00 0.  1.
          1    1    1    2  502    0 -0.35338315737E+02  0.16826462647E+02 -0.72390354113E+02  0.82293923062E+02  0.00000000000E+00 0.  1.
         -1    1    1    2    0  501  0.35338315737E+02 -0.16826462647E+02  0.12410948387E+01  0.39159503581E+02  0.00000000000E+00 0. -1.
</event>
<event>
 4    1  0.6729064E+001  0.2306656E+02  0.7546771E-02  0.1491664E+00
          2   -1    0    0  502    0  0.00000000000E+00  0.00000000000E+00  0.54481569424E+02  0.54481569424E+02  0.00000000000E+00 0.  1.
         -2   -1    0    0    0  501 -0.00000000000E+00 -0.00000000000E+00 -0.97790715326E+01  0.97790715326E+01  0.00000000000E+00 0. -1.
          1    1    1    2  502    0 -0.22575064437E+02 -0.47363216185E+01  0.21175940012E+02  0.31312724445E+02  0.00000000000E+00 0. -1.
         -1    1    1    2    0  501  0.22575064437E+02  0.47363216185E+01  0.23526557879E+02  0.32947916511E+02  0.00000000000E+00 0.  1.
</event>
<event>
 4    1  0.6729064E+001  0.2341488E+02  0.7546771E-02  0.1487353E+00
          2   -1    0    0  502    0  0.00000000000E+00  0.00000000000E+00  0.10780424511E+04  0.10780424511E+04  0.00000000000E+00 0.  1.
         -2   -1    0    0    0  501 -0.00000000000E+00 -0.00000000000E+00 -0.56413962184E+00  0.56413962184E+00  0.00000000000E+00 0. -1.
          1    1    1    2  502    0  0.18334019683E+02  0.14564354974E+02  0.36947282326E+03  0.37021402437E+03  0.00000000000E+00 0. -1.
         -1    1    1    2    0  501 -0.18334019683E+02 -0.14564354974E+02  0.70800548826E+03  0.70839256639E+03  0.00000000000E+00 0.  1.
</event>
<event>
 4    1  0.6729064E+001  0.2010932E+02  0.7546771E-02  0.1532371E+00
          2   -1    0    0  502    0  0.00000000000E+00  0.00000000000E+00  0.15084979506E+03  0.15084979506E+03  0.00000000000E+00 0.  1.
         -2   -1    0    0    0  501 -0.00000000000E+00 -0.00000000000E+00 -0.28900654141E+01  0.28900654141E+01  0.00000000000E+00 0. -1.
          1    1    1    2  502    0 -0.29127020995E+01 -0.19897261907E+02  0.53290716566E+02  0.56958628293E+02  0.00000000000E+00 0. -1.
         -1    1    1    2    0  501  0.29127020995E+01  0.19897261907E+02  0.94669013083E+02  0.96781232184E+02  0.00000000000E+00 0.  1.
</event>
<event>
 4    1  0.6729064E+001  0.2352362E+02  0.7546771E-02  0.1486026E+00
          2   -1    0    0  502    0  0.00000000000E+00  0.00000000000E+00  0.16746837841E+04  0.16746837841E+04  0.00000000000E+00 0. -1.
         -2   -1    0    0    0  501 -0.00000000000E+00 -0.00000000000E+00 -0.54841247849E+00  0.54841247849E+00  0.00000000000E+00 0.  1.
          1    1    1    2  502    0  0.23506073866E+02 -0.90850625007E+00  0.30898121440E+03  0.30987538099E+03  0.00000000000E+00 0.  1.
         -1    1    1    2    0  501 -0.23506073866E+02  0.90850625007E+00  0.13651541572E+04  0.13653568156E+04  0.00000000000E+00 0. -1.
</event>
<event>
 4    1  0.6729064E+001  0.2199891E+02  0.7546771E-02  0.1505467E+00
          2   -1    0    0  502    0  0.00000000000E+00  0.00000000000E+00  0.79896930317E+02  0.79896930317E+02  0.00000000000E+00 0.  1.
         -2   -1    0    0    0  501 -0.00000000000E+00 -0.00000000000E+00 -0.77916774589E+01  0.77916774589E+01  0.00000000000E+00 0. -1.
          1    1    1    2  502    0 -0.27003047308E+01  0.21832552456E+02  0.56738865834E+02  0.60854341575E+02  0.00000000000E+00 0.  1.
         -1    1    1    2    0  501  0.27003047308E+01 -0.21832552456E+02  0.15366387024E+02  0.26834266201E+02  0.00000000000E+00 0. -1.
</event>
<event>
 4    1  0.6729064E+001  0.3487554E+02  0.7546771E-02  0.1381440E+00
          2   -1    0    0  502    0  0.00000000000E+00  0.00000000000E+00  0.37843214464E+03  0.37843214464E+03  0.00000000000E+00 0. -1.
         -2   -1    0    0    0  501 -0.00000000000E+00 -0.00000000000E+00 -0.54420684760E+01  0.54420684760E+01  0.00000000000E+00 0.  1.
          1    1    1    2  502    0  0.55201446480E+01 -0.34435900141E+02  0.63684547635E+02  0.72608710379E+02  0.00000000000E+00 0.  1.
         -1    1    1    2    0  501 -0.55201446480E+01  0.34435900141E+02  0.30930552853E+03  0.31126550274E+03  0.00000000000E+00 0. -1.
</event>
<event>
 4    1  0.6729064E+001  0.2409393E+02  0.7546771E-02  0.1479200E+00
          2   -1    0    0  502    0  0.00000000000E+00  0.00000000000E+00  0.10244025756E+04  0.10244025756E+04  0.00000000000E+00 0. -1.
         -2   -1    0    0    0  501 -0.00000000000E+00 -0.00000000000E+00 -0.98309878868E+00  0.98309878868E+00  0.00000000000E+00 0.  1.
          1    1    1    2  502    0  0.13262676285E+02 -0.20115139988E+02  0.84538134523E+03  0.84572462202E+03  0.00000000000E+00 0. -1.
         -1    1    1    2    0  501 -0.13262676285E+02  0.20115139988E+02  0.17803813159E+03  0.17966105237E+03  0.00000000000E+00 0.  1.
</event>
<event>
 4    1  0.6729064E+001  0.2828343E+02  0.7546771E-02  0.1435125E+00
          2   -1    0    0  502    0  0.00000000000E+00  0.00000000000E+00  0.10330357815E+04  0.10330357815E+04  0.00000000000E+00 0.  1.
         -2   -1    0    0    0  501 -0.00000000000E+00 -0.00000000000E+00 -0.91971904439E+00  0.91971904439E+00  0.00000000000E+00 0. -1.
          1    1    1    2  502    0  0.33712434287E+01 -0.28081792227E+02  0.31054008689E+03  0.31182542857E+03  0.00000000000E+00 0.  1.
         -1    1    1    2    0  501 -0.33712434287E+01  0.28081792227E+02  0.72157597559E+03  0.72213007200E+03  0.00000000000E+00 0. -1.
</event>
<event>
 4    1  0.6729064E+001  0.2071888E+02  0.7546771E-02  0.1523317E+00
          2   -1    0    0  502    0  0.00000000000E+00  0.00000000000E+00  0.81281214757E+02  0.81281214757E+02  0.00000000000E+00 0.  1.
         -2   -1    0    0    0  501 -0.00000000000E+00 -0.00000000000E+00 -0.11559799349E+02  0.11559799349E+02  0.00000000000E+00 0. -1.
          1    1    1    2  502    0  0.17887311392E+02 -0.10455436709E+02  0.69071409543E+02  0.72111938554E+02  0.00000000000E+00 0.  1.
         -1    1    1    2    0  501 -0.17887311392E+02  0.10455436709E+02  0.65000586408E+00  0.20729075552E+02  0.00000000000E+00 0. -1.
</event>
<event>
 4    1  0.6729064E+001  0.2347444E+02  0.7546771E-02  0.1486625E+00
          2   -1    0    0  502    0  0.00000000000E+00  0.00000000000E+00  0.51768056920E+02  0.51768056920E+02  0.00000000000E+00 0.  1.
         -2   -1    0    0    0  501 -0.00000000000E+00 -0.00000000000E+00 -0.12034464887E+02  0.12034464887E+02  0.00000000000E+00 0. -1.
          1    1    1    2  502    0  0.22148557293E+02 -0.77775797625E+01  0.90254419080E+01  0.25149710510E+02  0.00000000000E+00 0.  1.
         -1    1    1    2    0  501 -0.22148557293E+02  0.77775797625E+01  0.30708150125E+02  0.38652811297E+02  0.00000000000E+00 0. -1.
</event>
<event>
 4    1  0.6729064E+001  0.2698153E+02  0.7546771E-02  0.1447794E+00
          2   -1    0    0  502    0  0.00000000000E+00  0.00000000000E+00  0.57579161160E+01  0.57579161160E+01  0.00000000000E+00 0.  1.
         -2   -1    0    0    0  501 -0.00000000000E+00 -0.00000000000E+00 -0.13450981294E+03  0.13450981294E+03  0.00000000000E+00 0. -1.
          1    1    1    2  502    0 -0.19864958825E+02  0.18258867273E+02 -0.47192364187E+02  0.54361034398E+02  0.00000000000E+00 0.  1.
         -1    1    1    2    0  501  0.19864958825E+02 -0.18258867273E+02 -0.81559532636E+02  0.85906694658E+02  0.00000000000E+00 0. -1.
</event>
<event>
 4    1  0.6729064E+001  0.2013854E+02  0.7546771E-02  0.1531928E+00
          2   -1    0    0  502    0  0.00000000000E+00  0.00000000000E+00  0.34195767864E+03  0.34195767864E+03  0.00000000000E+00 0.  1.
         -2   -1    0    0    0  501 -0.00000000000E+00 -0.00000000000E+00 -0.12308984125E+01  0.12308984125E+01  0.00000000000E+00 0. -1.
          1    1    1    2  502    0 -0.13504579828E+02 -0.14939442492E+02  0.20313698076E+03  0.20413278417E+03  0.00000000000E+00 0.  1.
         -1    1    1    2    0  501  0.13504579828E+02  0.14939442492E+02  0.13758979947E+03  0.13905579289E+03  0.00000000000E+00 0. -1.
</event>
<event>
 4    1  0.6729064E+001  0.2602852E+02  0.7546771E-02  0.1457619E+00
          2   -1    0    0  502    0  0.00000000000E+00  0.00000000000E+00  0.16713742845E+03  0.16713742845E+03  0.00000000000E+00 0. -1.
         -2   -1    0    0    0  501 -0.00000000000E+00 -0.00000000000E+00 -0.45006243711E+01  0.45006243711E+01  0.00000000000E+00 0.  1.
          1    1    1    2  502    0  0.22225585628E+02  0.13546484169E+02  0.10836942387E+03  0.11145140609E+03  0.00000000000E+00 0. -1.
         -1    1    1    2    0  501 -0.22225585628E+02 -0.13546484169E+02  0.54267380212E+02  0.60186646733E+02  0.00000000000E+00 0.  1.
</event>
<event>
 4    1  0.6729064E+001  0.2042282E+02  0.7546771E-02  0.1527667E+00
          2   -1    0    0  502    0  0.00000000000E+00  0.00000000000E+00  0.37711048823E+03  0.37711048823E+03  0.00000000000E+00 0. -1.
         -2   -1    0    0    0  501 -0.00000000000E+00 -0.00000000000E+00 -0.11822892053E+01  0.11822892053E+01  0.00000000000E+00 0.  1.
          1    1    1    2  502    0  0.10678184847E+02 -0.17408840944E+02  0.23600526967E+03  0.23688727000E+03  0.00000000000E+00 0. -1.
         -1    1    1    2    0  501 -0.10678184847E+02  0.17408840944E+02  0.13992292935E+03  0.14140550743E+03  0.00000000000E+00 0.  1.
</event>
<event>
 4    1  0.6729064E+001  0.2060503E+02  0.7546771E-02  0.1524979E+00
          2   -1    0    0  502    0  0.00000000000E+00  0.00000000000E+00  0.13063782491E+02  0.13063782491E+02  0.00000000000E+00 0. -1.
         -2   -1    0    0    0  501 -0.00000000000E+00 -0.00000000000E+00 -0.51966868706E+02  0.51966868706E+02  0.00000000000E+00 0.  1.
          1    1    1    2  502    0  0.12608842173E+02  0.16296760688E+02 -0.39352670615E+02  0.44420715825E+02  0.00000000000E+00 0.  1.
         -1    1    1    2    0  501 -0.12608842173E+02 -0.16296760688E+02  0.44958440064E+00  0.20609935371E+02  0.00000000000E+00 0. -1.
</event>
<event>
 4    1  0.6729064E+001  0.2566911E+02  0.7546771E-02  0.1461455E+00
          2   -1    0    0  502    0  0.00000000000E+00  0.00000000000E+00  0.11524916825E+04  0.11524916825E+04  0.00000000000E+00 0. -1.
         -2   -1    0    0    0  501 -0.00000000000E+00 -0.00000000000E+00 -0.73705779425E+00  0.73705779425E+00  0.00000000000E+00 0.  1.
          1    1    1    2  502    0 -0.10397189391E+02  0.23469166878E+02  0.30277847451E+03  0.30386462111E+03  0.00000000000E+00 0.  1.
         -1    1    1    2    0  501  0.10397189391E+02 -0.23469166878E+02  0.84897615019E+03  0.84936411917E+03  0.00000000000E+00 0. -1.
</event>
<event>
 4    1  0.6729064E+001  0.3594364E+02  0.7546771E-02  0.1374048E+00
          2   -1    0    0  502    0  0.00000000000E+00  0.00000000000E+00  0.14198661719E+04  0.14198661719E+04  0.00000000000E+00 0.  1.
         -2   -1    0    0    0  501 -0.00000000000E+00 -0.00000000000E+00 -0.10151430221E+01  0.10151430221E+01  0.00000000000E+00 0. -1.
          1    1    1    2  502    0  0.33345176741E+02 -0.13418060766E+02  0.93816853890E+03  0.93885683282E+03  0.00000000000E+00 0. -1.
         -1    1    1    2    0  501 -0.33345176741E+02  0.13418060766E+02  0.48068249003E+03  0.48202448214E+03  0.00000000000E+00 0.  1.
</event>
<event>
 4    1  0.6729064E+001  0.2661137E+02  0.7546771E-02  0.1451552E+00
          2   -1    0    0  502    0  0.00000000000E+00  0.00000000000E+00  0.15131072751E+03  0.15131072751E+03  0.00000000000E+00 0. -1.
         -2   -1    0    0    0  501 -0.00000000000E+00 -0.00000000000E+00 -0.55844959923E+01  0.55844959923E+01  0.00000000000E+00 0.  1.
          1    1    1    2  502    0  0.17076588653E+02 -0.20409680346E+02  0.41295462335E+02  0.49127183324E+02  0.00000000000E+00 0.  1.
         -1    1    1    2    0  501 -0.17076588653E+02  0.20409680346E+02  0.10443076918E+03  0.10776804018E+03  0.00000000000E+00 0. -1.
</event>
<event>
 4    1  0.6729064E+001  0.2550759E+02  0.7546771E-02  0.1463204E+00
          2   -1    0    0  502    0  0.00000000000E+00  0.00000000000E+00  0.46659730559E+02  0.46659730559E+02  0.00000000000E+00 0. -1.
         -2   -1    0    0    0  501 -0.00000000000E+00 -0.00000000000E+00 -0.15144843756E+02  0.15144843756E+02  0.00000000000E+00 0.  1.
          1    1    1    2  502    0 -0.13662322072E+02 -0.21540153599E+02  0.70568815855E+01  0.26465767308E+02  0.00000000000E+00 0.  1.
         -1    1    1    2    0  501  0.13662322072E+02  0.21540153599E+02  0.24458005218E+02  0.35338807007E+02  0.00000000000E+00 0. -1.
</event>
<event>
 4    1  0.6729064E+001  0.2331863E+02  0.7546771E-02  0.1488535E+00
          2   -1    0    0  502    0  0.00000000000E+00  0.00000000000E+00  0.12361229752E+02  0.12361229752E+02  0.00000000000E+00 0.  1.
         -2   -1    0    0    0  501 -0.00000000000E+00 -0.00000000000E+00 -0.44044868727E+02  0.44044868727E+02  0.00000000000E+00 0. -1.
          1    1    1    2  502    0 -0.19492419430E+02  0.12798593300E+02 -0.16846083335E+02  0.28767150180E+02  0.00000000000E+00 0. -1.
         -1    1    1    2    0  501  0.19492419430E+02 -0.12798593300E+02 -0.14837555640E+02  0.27638948299E+02  0.00000000000E+00 0.  1.
</event>
<event>
 4    1  0.6729064E+001  0.3027798E+02  0.7546771E-02  0.1417196E+00
          2   -1    0    0  502    0  0.00000000000E+00  0.00000000000E+00  0.16907899404E+04  0.16907899404E+04  0.00000000000E+00 0.  1.
         -2   -1    0    0    0  501 -0.00000000000E+00 -0.00000000000E+00 -0.62205049052E+00  0.62205049052E+00  0.00000000000E+00 0. -1.
          1    1    1    2  502    0 -0.27864720761E+02  0.11845400848E+02  0.54209310716E+03  0.54293801950E+03  0.00000000000E+00 0. -1.
         -1    1    1    2    0  501  0.27864720761E+02 -0.11845400848E+02  0.11480747827E+04  0.11484739714E+04  0.00000000000E+00 0.  1.
</event>
<event>
 4    1  0.6729064E+001  0.2875342E+02  0.7546771E-02  0.1430747E+00
          2   -1    0    0  502    0  0.00000000000E+00  0.00000000000E+00  0.13170182760E+03  0.13170182760E+03  0.00000000000E+00 0.  1.
         -2   -1    0    0    0  501 -0.00000000000E+00 -0.00000000000E+00 -0.62818842255E+01  0.62818842255E+01  0.00000000000E+00 0. -1.
          1    1    1    2  502    0  0.10245280535E+02  0.26866215034E+02  0.64530930102E+02  0.70647011425E+02  0.00000000000E+00 0.  1.
         -1    1    1    2    0  501 -0.10245280535E+02 -0.26866215034E+02  0.60889013276E+02  0.67336700403E+02  0.00000000000E+00 0. -1.
</event>
<event>
 4    1  0.6729064E+001  0.2512547E+02  0.7546771E-02  0.1467405E+00
          2   -1    0    0  502    0  0.00000000000E+00  0.00000000000E+00  0.34248259609E+02  0.34248259609E+02  0.00000000000E+00 0. -1.
         -2   -1    0    0    0  501 -0.00000000000E+00 -0.00000000000E+00 -0.18446146020E+02  0.18446146020E+02  0.00000000000E+00 0.  1.
          1    1    1    2  502    0 -0.24325134854E+02  0.62910125930E+01  0.86115255121E+01  0.26560259727E+02  0.00000000000E+00 0.  1.
         -1    1    1    2    0  501  0.24325134854E+02 -0.62910125930E+01  0.71905880766E+01  0.26134145902E+02  0.00000000000E+00 0. -1.
</event>
<event>
 4    1  0.6729064E+001  0.2027515E+02  0.7546771E-02  0.1529870E+00
          2   -1    0    0  502    0  0.00000000000E+00  0.00000000000E+00  0.92189880011E+02  0.92189880011E+02  0.00000000000E+00 0. -1.
         -2   -1    0    0    0  501 -0.00000000000E+00 -0.00000000000E+00 -0.59542348174E+01  0.59542348174E+01  0.00000000000E+00 0.  1.
          1    1    1    2  502    0 -0.58306139225E+01 -0.19418697623E+02  0.67708168865E+02  0.70678695568E+02  0.00000000000E+00 0. -1.
         -1    1    1    2    0  501  0.58306139225E+01  0.19418697623E+02  0.18527476328E+02  0.27465419261E+02  0.00000000000E+00 0.  1.
</event>
<event>
 4    1  0.6729064E+001  0.2491722E+02  0.7546771E-02  0.1469732E+00
          2   -1    0    0  502    0  0.00000000000E+00  0.00000000000E+00  0.18204725910E+04  0.18204725910E+04  0.00000000000E+00 0.  1.
         -2   -1    0    0    0  501 -0.00000000000E+00 -0.00000000000E+00 -0.10305516552E+01  0.10305516552E+01  0.00000000000E+00 0. -1.
          1    1    1    2  502    0  0.24830677377E+02 -0.20749488628E+01  0.16546818428E+04  0.16548694416E+04  0.00000000000E+00 0.  1.
         -1    1    1    2    0  501 -0.24830677377E+02  0.20749488628E+01  0.16476019660E+03  0.16663370108E+03  0.00000000000E+00 0. -1.
</event>
<event>
 4    1  0.6729064E+001  0.3355723E+02  0.7546771E-02  0.1391000E+00
          2   -1    0    0  502    0  0.00000000000E+00  0.00000000000E+00  0.28358903718E+01  0.28358903718E+01  0.00000000000E+00 0. -1.
         -2   -1    0    0    0  501 -0.00000000000E+00 -0.00000000000E+00 -0.51291830591E+03  0.51291830591E+03  0.00000000000E+00 0.  1.
          1    1    1    2  502    0 -0.33423039502E+02  0.29979992979E+01 -0.37758933972E+03  0.37907756072E+03  0.00000000000E+00 0.  1.
         -1    1    1    2    0  501  0.33423039502E+02 -0.29979992979E+01 -0.13249307581E+03  0.13667663556E+03  0.00000000000E+00 0. -1.
</event>
<event>
 4    1  0.6729064E+001  0.2413283E+02  0.7546771E-02  0.1478743E+00
          2   -1    0    0  502    0  0.00000000000E+00  0.00000000000E+00  0.47689099236E+02  0.47689099236E+02  0.00000000000E+00 0. -1.
         -2   -1    0    0    0  501 -0.00000000000E+00 -0.00000000000E+00 -0.17676224804E+02  0.17676224804E+02  0.00000000000E+00 0.  1.
          1    1    1    2  502    0  0.67320917370E+01 -0.23174823056E+02 -0.31644071271E+01  0.24339411564E+02  0.00000000000E+00 0.  1.
         -1    1    1    2    0  501 -0.67320917370E+01  0.23174823056E+02  0.33177281559E+02  0.41025912476E+02  0.00000000000E+00 0. -1.
</event>
<event>
 4    1  0.6729064E+001  0.2287380E+02  0.7546771E-02  0.1494089E+00
          2   -1    0    0  502    0  0.00000000000E+00  0.00000000000E+00  0.13741506043E+02  0.13741506043E+02  0.00000000000E+00 0.  1.
         -2   -1    0    0    0  501 -0.00000000000E+00 -0.00000000000E+00 -0.50531693106E+02  0.50531693106E+02  0.00000000000E+00 0. -1.
          1    1    1    2  502    0  0.11845514137E+02  0.19567695546E+02 -0.24394074806E+01  0.23003513276E+02  0.00000000000E+00 0.  1.
         -1    1    1    2    0  501 -0.11845514137E+02 -0.19567695546E+02 -0.34350779582E+02  0.41269685873E+02  0.00000000000E+00 0. -1.
</event>
<event>
 4    1  0.6729064E+001  0.2434261E+02  0.7546771E-02  0.1476294E+00
          2   -1    0    0  502    0  0.00000000000E+00  0.00000000000E+00  0.11582863040E+04  0.11582863040E+04  0.00000000000E+00 0.  1.
         -2   -1    0    0    0  501 -0.00000000000E+00 -0.00000000000E+00 -0.10082986534E+01  0.10082986534E+01  0.00000000000E+00 0. -1.
          1    1    1    2  502    0  0.17613192592E+02  0.16802918666E+02  0.17180054616E+03  0.17351654183E+03  0.00000000000E+00 0. -1.
         -1    1    1    2    0  501 -0.17613192592E+02 -0.16802918666E+02  0.98547745915E+03  0.98577806079E+03  0.00000000000E+00 0.  1.
</event>
<event>
 4    1  0.6729064E+001  0.2045463E+02  0.7546771E-02  0.1527196E+00
          2   -1    0    0  502    0  0.00000000000E+00  0.00000000000E+00  0.85061439903E+02  0.85061439903E+02  0.00000000000E+00 0. -1.
         -2   -1    0    0    0  501 -0.00000000000E+00 -0.00000000000E+00 -0.52900030286E+01  0.52900030286E+01  0.00000000000E+00 0.  1.
          1    1    1    2  502    0  0.20018036581E+02  0.42035875557E+01  0.51854220096E+02  0.55742731173E+02  0.00000000000E+00 0.  1.
         -1    1    1    2    0  501 -0.20018036581E+02 -0.42035875557E+01  0.27917216779E+02  0.34608711759E+02  0.00000000000E+00 0. -1.
</event>
<event>
 4    1  0.6729064E+001  0.2516505E+02  0.7546771E-02  0.1466965E+00
          2   -1    0    0  502    0  0.00000000000E+00  0.00000000000E+00  0.18180654362E+04  0.18180654362E+04  0.00000000000E+00 0. -1.
         -2   -1    0    0    0  501 -0.00000000000E+00 -0.00000000000E+00 -0.43753696490E+00  0.43753696490E+00  0.00000000000E+00 0.  1.
          1    1    1    2  502    0 -0.14294915659E+01  0.25124418670E+02  0.49824582431E+03  0.49888092898E+03  0.00000000000E+00 0.  1.
         -1    1    1    2    0  501  0.14294915659E+01 -0.25124418670E+02  0.13193820750E+04  0.13196220442E+04  0.00000000000E+00 0. -1.
</event>
<event>
 4    1  0.6729064E+001  0.4176280E+02  0.7546771E-02  0.1338454E+00
          2   -1    0    0  502    0  0.00000000000E+00  0.00000000000E+00  0.18988438050E+03  0.18988438050E+03  0.00000000000E+00 0. -1.
         -2   -1    0    0    0  501 -0.00000000000E+00 -0.00000000000E+00 -0.13167412736E+02  0.13167412736E+02  0.00000000000E+00 0.  1.
          1    1    1    2  502    0  0.18495450708E+02 -0.37443956489E+02  0.14419100517E+03  0.15011721270E+03  0.00000000000E+00 0. -1.
         -1    1    1    2    0  501 -0.18495450708E+02  0.37443956489E+02  0.32525962586E+02  0.52934580536E+02  0.00000000000E+00 0.  1.
</event>
<event>
 4    1  0.6729064E+001  0.2016578E+02  0.7546771E-02  0.1531517E+00
          2   -1    0    0  502    0  0.00000000000E+00  0.00000000000E+00  0.56120291377E+02  0.56120291377E+02  0.00000000000E+00 0.  1.
         -2   -1    0    0    0  501 -0.00000000000E+00 -0.00000000000E+00 -0.82685873261E+01  0.82685873261E+01  0.00000000000E+00 0. -1.
          1    1    1    2  502    0 -0.80572560381E+01  0.18486187173E+02  0.12605125084E+02  0.23781246171E+02  0.00000000000E+00 0. -1.
         -1    1    1    2    0  501  0.80572560381E+01 -0.18486187173E+02  0.35246578967E+02  0.40607632533E+02  0.00000000000E+00 0.  1.
</event>
<event>
 4    1  0.6729064E+001  0.2221377E+02  0.7546771E-02  0.1502614E+00
          2   -1    0    0  502    0  0.00000000000E+00  0.00000000000E+00  0.14019289570E+02  0.14019289570E+02  0.00000000000E+00 0.  1.
         -2   -1    0    0    0  501 -0.00000000000E+00 -0.00000000000E+00 -0.72867189267E+02  0.72867189267E+02  0.00000000000E+00 0. -1.
          1    1    1    2  502    0  0.18670942379E+02  0.12035267097E+02 -0.60659488883E+02  0.64598957692E+02  0.00000000000E+00 0. -1.
         -1    1    1    2    0  501 -0.18670942379E+02 -0.12035267097E+02  0.18115891858E+01  0.22287521145E+02  0.00000000000E+00 0.  1.
</event>
<event>
 4    1  0.6729064E+001  0.2460038E+02  0.7546771E-02  0.1473324E+00
          2   -1    0    0  502    0  0.00000000000E+00  0.00000000000E+00  0.48819937269E+01  0.48819937269E+01  0.00000000000E+00 0. -1.
         -2   -1    0    0    0  501 -0.00000000000E+00 -0.00000000000E+00 -0.13314560040E+03  0.13314560040E+03  0.00000000000E+00 0.  1.
          1    1    1    2  502    0  0.24554809282E+02 -0.14967158611E+01 -0.46006178198E+02  0.52170367543E+02  0.00000000000E+00 0. -1.
         -1    1    1    2    0  501 -0.24554809282E+02  0.14967158611E+01 -0.82257428473E+02  0.85857226582E+02  0.00000000000E+00 0.  1.
</event>
<event>
 4    1  0.6729064E+001  0.2075527E+02  0.7546771E-02  0.1522788E+00
          2   -1    0    0  502    0  0.00000000000E+00  0.00000000000E+00  0.67105544283E+02  0.67105544283E+02  0.00000000000E+00 0.  1.
         -2   -1    0    0    0  501 -0.00000000000E+00 -0.00000000000E+00 -0.84354421453E+01  0.84354421453E+01  0.00000000000E+00 0. -1.
          1    1    1    2  502    0  0.15393777368E+02 -0.13921669937E+02  0.47799748793E+02  0.52111392806E+02  0.00000000000E+00 0.  1.
         -1    1    1    2    0  501 -0.15393777368E+02  0.13921669937E+02  0.10870353345E+02  0.23429593623E+02  0.00000000000E+00 0. -1.
</event>
<event>
 4    1  0.6729064E+001  0.3750016E+02  0.7546771E-02  0.1363792E+00
          2   -1    0    0  502    0  0.00000000000E+00  0.00000000000E+00  0.21193245184E+04  0.21193245184E+04  0.00000000000E+00 0. -1.
         -2   -1    0    0    0  501 -0.00000000000E+00 -0.00000000000E+00 -0.68208555655E+00  0.68208555655E+00  0.00000000000E+00 0.  1.
          1    1    1    2  502    0  0.19375684824E+02 -0.32106777720E+02  0.88454755943E+03  0.88534210745E+03  0.00000000000E+00 0.  1.
         -1    1    1    2    0  501 -0.19375684824E+02  0.32106777720E+02  0.12340948734E+04  0.12346644965E+04  0.00000000000E+00 0. -1.
</event>
<event>
 4    1  0.6729064E+001  0.2352284E+02  0.7546771E-02  0.1486035E+00
          2   -1    0    0  502    0  0.00000000000E+00  0.00000000000E+00  0.12211264709E+03  0.12211264709E+03  0.00000000000E+00 0.  1.
         -2   -1    0    0    0  501 -0.00000000000E+00 -0.00000000000E+00 -0.50272499283E+01  0.50272499283E+01  0.00000000000E+00 0. -1.
          1    1    1    2  502    0  0.12501743130E+01 -0.23489592556E+02  0.38575185443E+02  0.45181509783E+02  0.00000000000E+00 0. -1.
         -1    1    1    2    0  501 -0.12501743130E+01  0.23489592556E+02  0.78510211723E+02  0.81958387240E+02  0.00000000000E+00 0.  1.
</event>
<event>
 4    1  0.6729064E+001  0.2485697E+02  0.7546771E-02  0.1470410E+00
          2   -1    0    0  502    0  0.00000000000E+00  0.00000000000E+00  0.15703371422E+03  0.15703371422E+03  0.00000000000E+00 0. -1.
         -2   -1    0    0    0  501 -0.00000000000E+00 -0.00000000000E+00 -0.65568504395E+01  0.65568504395E+01  0.00000000000E+00 0.  1.
          1    1    1    2  502    0 -0.24621183258E+02  0.34156292809E+01  0.23511655548E+02  0.34215013299E+02  0.00000000000E+00 0.  1.
         -1    1    1    2    0  501  0.24621183258E+02 -0.34156292809E+01  0.12696520824E+03  0.12937555136E+03  0.00000000000E+00 0. -1.
</event>
<event>
 4    1  0.6729064E+001  0.2239835E+02  0.7546771E-02  0.1500194E+00
          2   -1    0    0  502    0  0.00000000000E+00  0.00000000000E+00  0.10759715100E+04  0.10759715100E+04  0.00000000000E+00 0.  1.
         -2   -1    0    0    0  501 -0.00000000000E+00 -0.00000000000E+00 -0.50016092247E+00  0.50016092247E+00  0.00000000000E+00 0. -1.
          1    1    1    2  502    0  0.20668626485E+02 -0.86309908329E+01  0.67785620574E+03  0.67822615828E+03  0.00000000000E+00 0. -1.
         -1    1    1    2    0  501 -0.20668626485E+02  0.86309908329E+01  0.39761514335E+03  0.39824551265E+03  0.00000000000E+00 0.  1.
</event>
<event>
 4    1  0.6729064E+001  0.2008528E+02  0.7546771E-02  0.1532736E+00
          2   -1    0    0  502    0  0.00000000000E+00  0.00000000000E+00  0.91637310220E+03  0.91637310220E+03  0.00000000000E+00 0. -1.
         -2   -1    0    0    0  501 -0.00000000000E+00 -0.00000000000E+00 -0.44023599213E+00  0.44023599213E+00  0.00000000000E+00 0.  1.
          1    1    1    2  502    0  0.13145723112E+02 -0.15185797801E+02  0.45896930435E+03  0.45940857723E+03  0.00000000000E+00 0. -1.
         -1    1    1    2    0  501 -0.13145723112E+02  0.15185797801E+02  0.45696356186E+03  0.45740476097E+03  0.00000000000E+00 0.  1.
</event>
<event>
 4    1  0.6729064E+001  0.3002061E+02  0.7546771E-02  0.1419417E+00
          2   -1    0    0  502    0  0.00000000000E+00  0.00000000000E+00  0.81359290158E+01  0.81359290158E+01  0.00000000000E+00 0. -1.
         -2   -1    0    0    0  501 -0.00000000000E+00 -0.00000000000E+00 -0.11348326006E+03  0.11348326006E+03  0.00000000000E+00 0.  1.
          1    1    1    2  502    0 -0.42224826455E+01  0.29722177268E+02 -0.62072021674E+02  0.68950511644E+02  0.00000000000E+00 0.  1.
         -1    1    1    2    0  501  0.42224826455E+01 -0.29722177268E+02 -0.43275309367E+02  0.52668677429E+02  0.00000000000E+00 0. -1.
</event>
<event>
 4    1  0.6729064E+001  0.2772769E+02  0.7546771E-02  0.1440432E+00
          2   -1    0    0  502    0  0.00000000000E+00  0.00000000000E+00  0.76604581502E+03  0.76604581502E+03  0.00000000000E+00 0.  1.
         -2   -1    0    0    0  501 -0.00000000000E+00 -0.00000000000E+00 -0.11679460310E+01  0.11679460310E+01  0.00000000000E+00 0. -1.
          1    1    1    2  502    0 -0.24955208450E+02  0.12085631661E+02  0.52632468875E+03  0.52705455401E+03  0.00000000000E+00 0. -1.
         -1    1    1    2    0  501  0.24955208450E+02 -0.12085631661E+02  0.23855318024E+03  0.24015920704E+03  0.00000000000E+00 0.  1.
</event>
<event>
 4    1  0.6729064E+001  0.2077817E+02  0.7546771E-02  0.1522456E+00
          2   -1    0    0  502    0  0.00000000000E+00  0.00000000000E+00  0.24542841983E+03  0.24542841983E+03  0.00000000000E+00 0.  1.
         -2   -1    0    0    0  501 -0.00000000000E+00 -0.00000000000E+00 -0.27074236240E+01  0.27074236240E+01  0.00000000000E+00 0. -1.
          1    1    1    2  502    0  0.89867707816E+01  0.18734206736E+02  0.47932746803E+02  0.52242518768E+02  0.00000000000E+00 0. -1.
         -1    1    1    2    0  501 -0.89867707816E+01 -0.18734206736E+02  0.19478824940E+03  0.19589332469E+03  0.00000000000E+00 0.  1.
</event>
<event>
 4    1  0.6729064E+001  0.2258382E+02  0.7546771E-02  0.1497791E+00
          2   -1    0    0  502    0  0.00000000000E+00  0.00000000000E+00  0.12947100409E+03  0.12947100409E+03  0.00000000000E+00 0.  1.
         -2   -1    0    0    0  501 -0.00000000000E+00 -0.00000000000E+00 -0.44803442744E+01  0.44803442744E+01  0.00000000000E+00 0. -1.
          1    1    1    2  502    0  0.22309411784E+02 -0.35098238872E+01  0.85769096240E+02  0.88692539640E+02  0.00000000000E+00 0. -1.
         -1    1    1    2    0  501 -0.22309411784E+02  0.35098238872E+01  0.39221563576E+02  0.45258808725E+02  0.00000000000E+00 0.  1.
</event>
<event>
 4    1  0.6729064E+001  0.2490071E+02  0.7546771E-02  0.1469917E+00
          2   -1    0    0  502    0  0.00000000000E+00  0.00000000000E+00  0.39404498333E+02  0.39404498333E+02  0.00000000000E+00 0.  1.
         -2   -1    0    0    0  501 -0.00000000000E+00 -0.00000000000E+00 -0.17109871824E+02  0.17109871824E+02  0.00000000000E+00 0. -1.
          1    1    1    2  502    0 -0.24258187582E+02  0.56200983800E+01  0.19156251268E+02  0.31416669671E+02  0.00000000000E+00 0.  1.
         -1    1    1    2    0  501  0.24258187582E+02 -0.56200983800E+01  0.31383752404E+01  0.25097700486E+02  0.00000000000E+00 0. -1.
</event>
<event>
 4    1  0.6729064E+001  0.2384661E+02  0.7546771E-02  0.1482132E+00
          2   -1    0    0  502    0  0.00000000000E+00  0.00000000000E+00  0.70040963308E+02  0.70040963308E+02  0.00000000000E+00 0. -1.
         -2   -1    0    0    0  501 -0.00000000000E+00 -0.00000000000E+00 -0.18494908678E+02  0.18494908678E+02  0.00000000000E+00 0.  1.
          1    1    1    2  502    0 -0.12744324797E+02 -0.20155467657E+02 -0.73840935826E+01  0.24963684204E+02  0.00000000000E+00 0.  1.
         -1    1    1    2    0  501  0.12744324797E+02  0.20155467657E+02  0.58930148213E+02  0.63572187782E+02  0.00000000000E+00 0. -1.
</event>
<event>
 4    1  0.6729064E+001  0.2158000E+02  0.7546771E-02  0.1511143E+00
          2   -1    0    0  502    0  0.00000000000E+00  0.00000000000E+00  0.13400289750E+03  0.13400289750E+03  0.00000000000E+00 0.  1.
         -2   -1    0    0    0  501 -0.00000000000E+00 -0.00000000000E+00 -0.35575593723E+01  0.35575593723E+01  0.00000000000E+00 0. -1.
          1    1    1    2  502    0 -0.15219535438E+01 -0.21526261889E+02  0.54762022082E+02  0.58860643523E+02  0.00000000000E+00 0. -1.
         -1    1    1    2    0  501  0.15219535438E+01  0.21526261889E+02  0.75683316049E+02  0.78699813352E+02  0.00000000000E+00 0.  1.
</event>
<event>
 4    1  0.6729064E+001  0.2771739E+02  0.7546771E-02  0.1440532E+00
          2   -1    0    0  502    0  0.00000000000E+00  0.00000000000E+00  0.52002157904E+03  0.52002157904E+03  0.00000000000E+00 0. -1.
         -2   -1    0    0    0  501 -0.00000000000E+00 -0.00000000000E+00 -0.20126082621E+01  0.20126082621E+01  0.00000000000E+00 0.  1.
          1    1    1    2  502    0  0.25566849464E+02 -0.10704668346E+02  0.39361256911E+03  0.39458726320E+03  0.00000000000E+00 0. -1.
         -1    1    1    2    0  501 -0.25566849464E+02  0.10704668346E+02  0.12439640166E+03  0.12744692410E+03  0.00000000000E+00 0.  1.
</event>
<event>
 4    1  0.6729064E+001  0.3377272E+02  0.7546771E-02  0.1389403E+00
          2   -1    0    0  502    0  0.00000000000E+00  0.00000000000E+00  0.81915572159E+03  0.81915572159E+03  0.00000000000E+00 0.  1.
         -2   -1    0    0    0  501 -0.00000000000E+00 -0.00000000000E+00 -0.15220730816E+01  0.15220730816E+01  0.00000000000E+00 0. -1.
          1    1    1    2  502    0  0.33009456288E+02 -0.71395055561E+01  0.52858488688E+03  0.52966270341E+03  0.00000000000E+00 0. -1.
         -1    1    1    2    0  501 -0.33009456288E+02  0.71395055561E+01  0.28904876163E+03  0.29101509126E+03  0.00000000000E+00 0.  1.
</event>
<event>
 4    1  0.6729064E+001  0.3070361E+02  0.7546771E-02  0.1413579E+00
          2   -1    0    0  502    0  0.00000000000E+00  0.00000000000E+00  0.32093315185E+02  0.32093315185E+02  0.00000000000E+00 0.  1.
         -2   -1    0    0    0  501 -0.00000000000E+00 -0.00000000000E+00 -0.52307261520E+02  0.52307261520E+02  0.00000000000E+00 0. -1.
          1    1    1    2  502    0  0.30675586245E+02 -0.13114736853E+01 -0.38049559188E+02  0.48892540424E+02  0.00000000000E+00 0. -1.
         -1    1    1    2    0  501 -0.30675586245E+02  0.13114736853E+01  0.17835612853E+02  0.35508036281E+02  0.00000000000E+00 0.  1.
</event>
<event>
 4    1  0.6729064E+001  0.5155445E+02  0.7546771E-02  0.1291570E+00
          2   -1    0    0  502    0  0.00000000000E+00  0.00000000000E+00  0.11141486546E+04  0.11141486546E+04  0.00000000000E+00 0.  1.
         -2   -1    0    0    0  501 -0.00000000000E+00 -0.00000000000E+00 -0.24243309546E+01  0.24243309546E+01  0.00000000000E+00 0. -1.
          1    1    1    2  502    0  0.10843327637E+02 -0.50401223552E+02  0.48525455634E+03  0.48798549727E+03  0.00000000000E+00 0.  1.
         -1    1    1    2    0  501 -0.10843327637E+02  0.50401223552E+02  0.62646976733E+03  0.62858748832E+03  0.00000000000E+00 0. -1.
</event>
<event>
 4    1  0.6729064E+001  0.3323085E+02  0.7546771E-02  0.1393446E+00
          2   -1    0    0  502    0  0.00000000000E+00  0.00000000000E+00  0.35924554851E+03  0.35924554851E+03  0.00000000000E+00 0.  1.
         -2   -1    0    0    0  501 -0.00000000000E+00 -0.00000000000E+00 -0.31681288047E+01  0.31681288047E+01  0.00000000000E+00 0. -1.
          1    1    1    2  502    0  0.32977628155E+02 -0.40945210488E+01  0.20928786354E+03  0.21190964793E+03  0.00000000000E+00 0.  1.
         -1    1    1    2    0  501 -0.32977628155E+02  0.40945210488E+01  0.14678955617E+03  0.15050402939E+03  0.00000000000E+00 0. -1.
</event>
<event>
 4    1  0.6729064E+001  0.2329755E+02  0.7546771E-02  0.1488795E+00
          2   -1    0    0  502    0  0.00000000000E+00  0.00000000000E+00  0.54065482157E+03  0.54065482157E+03  0.00000000000E+00 0. -1.
         -2   -1    0    0    0  501 -0.00000000000E+00 -0.00000000000E+00 -0.12747607364E+01  0.12747607364E+01  0.00000000000E+00 0.  1.
          1    1    1    2  502    0  0.22566481659E+02  0.57904838238E+01  0.14479270723E+03  0.14665505059E+03  0.00000000000E+00 0.  1.
         -1    1    1    2    0  501 -0.22566481659E+02 -0.57904838238E+01  0.39458735361E+03  0.39527453172E+03  0.00000000000E+00 0. -1.
</event>
<event>
 4    1  0.6729064E+001  0.2235468E+02  0.7546771E-02  0.1500764E+00
          2   -1    0    0  502    0  0.00000000000E+00  0.00000000000E+00  0.31525897646E+00  0.31525897646E+00  0.00000000000E+00 0.  1.
         -2   -1    0    0    0  501 -0.00000000000E+00 -0.00000000000E+00 -0.15851469938E+04  0.15851469938E+04  0.00000000000E+00 0. -1.
          1    1    1    2  502    0 -0.13910853195E+02 -0.17499141893E+02 -0.79255411886E+03  0.79286932286E+03  0.00000000000E+00 0. -1.
         -1    1    1    2    0  501  0.13910853195E+02  0.17499141893E+02 -0.79227761597E+03  0.79259292992E+03  0.00000000000E+00 0.  1.
</event>
<event>
 4    1  0.6729064E+001  0.2480186E+02  0.7546771E-02  0.1471032E+00
          2   -1    0    0  502    0  0.00000000000E+00  0.00000000000E+00  0.25924148896E+04  0.25924148896E+04  0.00000000000E+00 0.  1.
         -2   -1    0    0    0  501 -0.00000000000E+00 -0.00000000000E+00 -0.23778174049E+00  0.23778174049E+00  0.00000000000E+00 0. -1.
          1    1    1    2  502    0 -0.20778557855E+02 -0.13541930802E+02  0.13555411071E+04  0.13557679836E+04  0.00000000000E+00 0. -1.
         -1    1    1    2    0  501  0.20778557855E+02  0.13541930802E+02  0.12366360008E+04  0.12368846878E+04  0.00000000000E+00 0.  1.
</event>
<event>
 4    1  0.6729064E+001  0.5980366E+02  0.7546771E-02  0.1260501E+00
          2   -1    0    0  502    0  0.00000000000E+00  0.00000000000E+00  0.65461952069E+03  0.65461952069E+03  0.00000000000E+00 0. -1.
         -2   -1    0    0    0  501 -0.00000000000E+00 -0.00000000000E+00 -0.92283385817E+01  0.92283385817E+01  0.00000000000E+00 0.  1.
          1    1    1    2  502    0  0.25845707192E+02 -0.53930301686E+02  0.53470402197E+03  0.53803798113E+03  0.00000000000E+00 0.  1.
         -1    1    1    2    0  501 -0.25845707192E+02  0.53930301686E+02  0.11068716014E+03  0.12580987815E+03  0.00000000000E+00 0. -1.
</event>
<event>
 4    1  0.6729064E+001  0.1024485E+03  0.7546771E-02  0.1159632E+00
          2   -1    0    0  502    0  0.00000000000E+00  0.00000000000E+00  0.11688760817E+04  0.11688760817E+04  0.00000000000E+00 0. -1.
         -2   -1    0    0    0  501 -0.00000000000E+00 -0.00000000000E+00 -0.97958105639E+01  0.97958105639E+01  0.00000000000E+00 0.  1.
          1    1    1    2  502    0 -0.98847581513E+02  0.26922916991E+02  0.74968698537E+03  0.75665465297E+03  0.00000000000E+00 0. -1.
         -1    1    1    2    0  501  0.98847581513E+02 -0.26922916991E+02  0.40939328580E+03  0.42201723932E+03  0.00000000000E+00 0.  1.
</event>
<event>
 4    1  0.6729064E+001  0.2995411E+02  0.7546771E-02  0.1419996E+00
          2   -1    0    0  502    0  0.00000000000E+00  0.00000000000E+00  0.55448012977E+02  0.55448012977E+02  0.00000000000E+00 0.  1.
         -2   -1    0    0    0  501 -0.00000000000E+00 -0.00000000000E+00 -0.16340752823E+02  0.16340752823E+02  0.00000000000E+00 0. -1.
          1    1    1    2  502    0  0.45831190414E+01 -0.29601415022E+02  0.16013475364E+02  0.33965867347E+02  0.00000000000E+00 0. -1.
         -1    1    1    2    0  501 -0.45831190414E+01  0.29601415022E+02  0.23093784790E+02  0.37822898452E+02  0.00000000000E+00 0.  1.
</event>
<event>
 4    1  0.6729064E+001  0.5155448E+02  0.7546771E-02  0.1291570E+00
          2   -1    0    0  502    0  0.00000000000E+00  0.00000000000E+00  0.27117641585E+04  0.27117641585E+04  0.00000000000E+00 0. -1.
         -2   -1    0    0    0  501 -0.00000000000E+00 -0.00000000000E+00 -0.10821539409E+01  0.10821539409E+01  0.00000000000E+00 0.  1.
          1    1    1    2  502    0  0.15278585538E+01  0.51531839854E+02  0.17718407062E+04  0.17725905768E+04  0.00000000000E+00 0. -1.
         -1    1    1    2    0  501 -0.15278585538E+01 -0.51531839854E+02  0.93884129840E+03  0.94025573567E+03  0.00000000000E+00 0.  1.
</event>
<event>
 4    1  0.6729064E+001  0.2549269E+02  0.7546771E-02  0.1463366E+00
          2   -1    0    0  502    0  0.00000000000E+00  0.00000000000E+00  0.25483916949E+02  0.25483916949E+02  0.00000000000E+00 0.  1.
         -2   -1    0    0    0  501 -0.00000000000E+00 -0.00000000000E+00 -0.25644679598E+02  0.25644679598E+02  0.00000000000E+00 0. -1.
          1    1    1    2  502    0 -0.46151071583E+00  0.25488512549E+02  0.18300262305E+01  0.25558291416E+02  0.00000000000E+00 0. -1.
         -1    1    1    2    0  501  0.46151071583E+00 -0.25488512549E+02 -0.19907888788E+01  0.25570305131E+02  0.00000000000E+00 0.  1.
</event>
<event>
 4    1  0.6729064E+001  0.2670536E+02  0.7546771E-02  0.1450590E+00
          2   -1    0    0  502    0  0.00000000000E+00  0.00000000000E+00  0.12731838818E+04  0.12731838818E+04  0.00000000000E+00 0.  1.
         -2   -1    0    0    0  501 -0.00000000000E+00 -0.00000000000E+00 -0.61966508962E+00  0.61966508962E+00  0.00000000000E+00 0. -1.
          1    1    1    2  502    0  0.20723089850E+02 -0.16844280734E+02  0.43890312294E+03  0.43971482528E+03  0.00000000000E+00 0. -1.
         -1    1    1    2    0  501 -0.20723089850E+02  0.16844280734E+02  0.83366109373E+03  0.83408872157E+03  0.00000000000E+00 0.  1.
</event>
<event>
 4    1  0.6729064E+001  0.2121050E+02  0.7546771E-02  0.1516281E+00
          2   -1    0    0  502    0  0.00000000000E+00  0.00000000000E+00  0.17879545000E+02  0.17879545000E+02  0.00000000000E+00 0.  1.
         -2   -1    0    0    0  501 -0.00000000000E+00 -0.00000000000E+00 -0.25162349307E+02  0.25162349307E+02  0.00000000000E+00 0. -1.
          1    1    1    2  502    0  0.25138294914E+01 -0.21061007835E+02 -0.37197786616E+01  0.21534208670E+02  0.00000000000E+00 0.  1.
         -1    1    1    2    0  501 -0.25138294914E+01  0.21061007835E+02 -0.35630256455E+01  0.21507685638E+02  0.00000000000E+00 0. -1.
</event>
<event>
 4    1  0.6729064E+001  0.2526113E+02  0.7546771E-02  0.1465903E+00
          2   -1    0    0  502    0  0.00000000000E+00  0.00000000000E+00  0.26064500850E+01  0.26064500850E+01  0.00000000000E+00 0. -1.
         -2   -1    0    0    0  501 -0.00000000000E+00 -0.00000000000E+00 -0.27225827994E+03  0.27225827994E+03  0.00000000000E+00 0.  1.
          1    1    1    2  502    0  0.15990948843E+02 -0.19555417832E+02 -0.91200928325E+02  0.94634740655E+02  0.00000000000E+00 0. -1.
         -1    1    1    2    0  501 -0.15990948843E+02  0.19555417832E+02 -0.17845090153E+03  0.18022998937E+03  0.00000000000E+00 0.  1.
</event>
<event>
 4    1  0.6729064E+001  0.2413082E+02  0.7546771E-02  0.1478766E+00
          2   -1    0    0  502    0  0.00000000000E+00  0.00000000000E+00  0.24325183101E+02  0.24325183101E+02  0.00000000000E+00 0.  1.
         -2   -1    0    0    0  501 -0.00000000000E+00 -0.00000000000E+00 -0.23959334435E+02  0.23959334435E+02  0.00000000000E+00 0. -1.
          1    1    1    2  502    0 -0.99836450393E+01 -0.21968687064E+02  0.90323488564E+00  0.24147716514E+02  0.00000000000E+00 0.  1.
         -1    1    1    2    0  501  0.99836450393E+01  0.21968687064E+02 -0.53738621983E+00  0.24136801021E+02  0.00000000000E+00 0. -1.
</event>
<event>
 4    1  0.6729064E+001  0.2925778E+02  0.7546771E-02  0.1426158E+00
          2   -1    0    0  502    0  0.00000000000E+00  0.00000000000E+00  0.37064198776E+03  0.37064198776E+03  0.00000000000E+00 0.  1.
         -2   -1    0    0    0  501 -0.00000000000E+00 -0.00000000000E+00 -0.29894331572E+01  0.29894331572E+01  0.00000000000E+00 0. -1.
          1    1    1    2  502    0  0.29236298080E+02  0.11208855222E+01  0.27291751395E+03  0.27448130525E+03  0.00000000000E+00 0. -1.
         -1    1    1    2    0  501 -0.29236298080E+02 -0.11208855222E+01  0.94735040650E+02  0.99150115667E+02  0.00000000000E+00 0.  1.
</event>
<event>
 4    1  0.6729064E+001  0.2695284E+02  0.7546771E-02  0.1448082E+00
          2   -1    0    0  502    0  0.00000000000E+00  0.00000000000E+00  0.16802584639E+01  0.16802584639E+01  0.00000000000E+00 0.  1.
         -2   -1    0    0    0  501 -0.00000000000E+00 -0.00000000000E+00 -0.43337663431E+03  0.43337663431E+03  0.00000000000E+00 0. -1.
          1    1    1    2  502    0 -0.22558049290E+02  0.14750937896E+02 -0.22644787202E+03  0.22804625518E+03  0.00000000000E+00 0. -1.
         -1    1    1    2    0  501  0.22558049290E+02 -0.14750937896E+02 -0.20524850382E+03  0.20701063760E+03  0.00000000000E+00 0.  1.
</event>
<event>
 4    1  0.6729064E+001  0.2604212E+02  0.7546771E-02  0.1457475E+00
          2   -1    0    0  502    0  0.00000000000E+00  0.00000000000E+00  0.46826912516E+03  0.46826912516E+03  0.00000000000E+00 0.  1.
         -2   -1    0    0    0  501 -0.00000000000E+00 -0.00000000000E+00 -0.14490836598E+01  0.14490836598E+01  0.00000000000E+00 0. -1.
          1    1    1    2  502    0  0.25561927657E+02  0.49779302503E+01  0.22793172785E+03  0.22941461264E+03  0.00000000000E+00 0.  1.
         -1    1    1    2    0  501 -0.25561927657E+02 -0.49779302503E+01  0.23888831365E+03  0.24030359617E+03  0.00000000000E+00 0. -1.
</event>
<event>
 4    1  0.6729064E+001  0.2545445E+02  0.7546771E-02  0.1463783E+00
          2   -1    0    0  502    0  0.00000000000E+00  0.00000000000E+00  0.12633682601E+03  0.12633682601E+03  0.00000000000E+00 0.  1.
         -2   -1    0    0    0  501 -0.00000000000E+00 -0.00000000000E+00 -0.10496030731E+02  0.10496030731E+02  0.00000000000E+00 0. -1.
          1    1    1    2  502    0 -0.23128469422E+02 -0.10630280733E+02  0.10684549987E+03  0.10983574012E+03  0.00000000000E+00 0.  1.
         -1    1    1    2    0  501  0.23128469422E+02  0.10630280733E+02  0.89952954149E+01  0.26997116621E+02  0.00000000000E+00 0. -1.
</event>
<event>
 4    1  0.6729064E+001  0.3017128E+02  0.7546771E-02  0.1418114E+00
          2   -1    0    0  502    0  0.00000000000E+00  0.00000000000E+00  0.80177099283E+02  0.80177099283E+02  0.00000000000E+00 0.  1.
         -2   -1    0    0    0  501 -0.00000000000E+00 -0.00000000000E+00 -0.12175794255E+02  0.12175794255E+02  0.00000000000E+00 0. -1.
          1    1    1    2  502    0 -0.22209809809E+02 -0.20421317710E+02  0.45999388903E+02  0.55011359265E+02  0.00000000000E+00 0.  1.
         -1    1    1    2    0  501  0.22209809809E+02  0.20421317710E+02  0.22001916125E+02  0.37341534274E+02  0.00000000000E+00 0. -1.
</event>
<event>
 4    1  0.6729064E+001  0.2032763E+02  0.7546771E-02  0.1529085E+00
          2   -1    0    0  502    0  0.00000000000E+00  0.00000000000E+00  0.26000343528E+02  0.26000343528E+02  0.00000000000E+00 0. -1.
         -2   -1    0    0    0  501 -0.00000000000E+00 -0.00000000000E+00 -0.16024948331E+02  0.16024948331E+02  0.00000000000E+00 0.  1.
          1    1    1    2  502    0  0.16138186166E+02 -0.12360075906E+02  0.68974414826E+01  0.21465955095E+02  0.00000000000E+00 0. -1.
         -1    1    1    2    0  501 -0.16138186166E+02  0.12360075906E+02  0.30779537146E+01  0.20559336765E+02  0.00000000000E+00 0.  1.
</event>
<event>
 4    1  0.6729064E+001  0.2838149E+02  0.7546771E-02  0.1434203E+00
          2   -1    0    0  502    0  0.00000000000E+00  0.00000000000E+00  0.26501247312E+03  0.26501247312E+03  0.00000000000E+00 0.  1.
         -2   -1    0    0    0  501 -0.00000000000E+00 -0.00000000000E+00 -0.10073507807E+02  0.10073507807E+02  0.00000000000E+00 0. -1.
          1    1    1    2  502    0 -0.20073042870E+02  0.20064439019E+02  0.12535321231E+02  0.31026489354E+02  0.00000000000E+00 0. -1.
         -1    1    1    2    0  501  0.20073042870E+02 -0.20064439019E+02  0.24240364408E+03  0.24405949157E+03  0.00000000000E+00 0.  1.
</event>
<event>
 4    1  0.6729064E+001  0.2363025E+02  0.7546771E-02  0.1484732E+00
          2   -1    0    0  502    0  0.00000000000E+00  0.00000000000E+00  0.42281080967E+03  0.42281080967E+03  0.00000000000E+00 0. -1.
         -2   -1    0    0    0  501 -0.00000000000E+00 -0.00000000000E+00 -0.13976318657E+01  0.13976318657E+01  0.00000000000E+00 0.  1.
          1    1    1    2  502    0  0.15269681133E+02 -0.18034013102E+02  0.16093030396E+03  0.16265592987E+03  0.00000000000E+00 0. -1.
         -1    1    1    2    0  501 -0.15269681133E+02  0.18034013102E+02  0.26048287385E+03  0.26155251167E+03  0.00000000000E+00 0.  1.
</event>
<event>
 4    1  0.6729064E+001  0.2878225E+02  0.7546771E-02  0.1430482E+00
          2   -1    0    0  502    0  0.00000000000E+00  0.00000000000E+00  0.10874855087E+04  0.10874855087E+04  0.00000000000E+00 0. -1.
         -2   -1    0    0    0  501 -0.00000000000E+00 -0.00000000000E+00 -0.97706746362E+00  0.97706746362E+00  0.00000000000E+00 0.  1.
          1    1    1    2  502    0 -0.21412693250E+02 -0.19233155229E+02  0.28778586630E+03  0.28922158034E+03  0.00000000000E+00 0.  1.
         -1    1    1    2    0  501  0.21412693250E+02  0.19233155229E+02  0.79872257494E+03  0.79924099583E+03  0.00000000000E+00 0. -1.
</event>
<event>
 4    1  0.6729064E+001  0.4069498E+02  0.7546771E-02  0.1344461E+00
          2   -1    0    0  502    0  0.00000000000E+00  0.00000000000E+00  0.94311690910E+03  0.94311690910E+03  0.00000000000E+00 0. -1.
         -2   -1    0    0    0  501 -0.00000000000E+00 -0.00000000000E+00 -0.35904733104E+01  0.35904733104E+01  0.00000000000E+00 0.  1.
          1    1    1    2  502    0  0.39863903935E+02 -0.81823109859E+01  0.13141050561E+03  0.13756744540E+03  0.00000000000E+00 0.  1.
         -1    1    1    2    0  501 -0.39863903935E+02  0.81823109859E+01  0.80811593018E+03  0.80913993701E+03  0.00000000000E+00 0. -1.
</event>
<event>
 4    1  0.6729064E+001  0.3872564E+02  0.7546771E-02  0.1356120E+00
          2   -1    0    0  502    0  0.00000000000E+00  0.00000000000E+00  0.36027602138E+03  0.36027602138E+03  0.00000000000E+00 0.  1.
         -2   -1    0    0    0  501 -0.00000000000E+00 -0.00000000000E+00 -0.43035749047E+01  0.43035749047E+01  0.00000000000E+00 0. -1.
          1    1    1    2  502    0  0.37403316207E+02 -0.10033287940E+02  0.21098223813E+03  0.21450682911E+03  0.00000000000E+00 0.  1.
         -1    1    1    2    0  501 -0.37403316207E+02  0.10033287940E+02  0.14499020834E+03  0.15007276717E+03  0.00000000000E+00 0. -1.
</event>
<event>
 4    1  0.6729064E+001  0.2830934E+02  0.7546771E-02  0.1434881E+00
          2   -1    0    0  502    0  0.00000000000E+00  0.00000000000E+00  0.11242655583E+04  0.11242655583E+04  0.00000000000E+00 0.  1.
         -2   -1    0    0    0  501 -0.00000000000E+00 -0.00000000000E+00 -0.78527756776E+00  0.78527756776E+00  0.00000000000E+00 0. -1.
          1    1    1    2  502    0  0.87151727385E+01 -0.26934449675E+02  0.73259193248E+03  0.73313870335E+03  0.00000000000E+00 0.  1.
         -1    1    1    2    0  501 -0.87151727385E+01  0.26934449675E+02  0.39088834828E+03  0.39191213254E+03  0.00000000000E+00 0. -1.
</event>
<event>
 4    1  0.6729064E+001  0.2209654E+02  0.7546771E-02  0.1504166E+00
          2   -1    0    0  502    0  0.00000000000E+00  0.00000000000E+00  0.38900356368E+03  0.38900356368E+03  0.00000000000E+00 0.  1.
         -2   -1    0    0    0  501 -0.00000000000E+00 -0.00000000000E+00 -0.13808182986E+01  0.13808182986E+01  0.00000000000E+00 0. -1.
          1    1    1    2  502    0  0.19820784688E+02  0.97669681865E+01  0.13492566133E+03  0.13672304582E+03  0.00000000000E+00 0. -1.
         -1    1    1    2    0  501 -0.19820784688E+02 -0.97669681865E+01  0.25269708405E+03  0.25366133616E+03  0.00000000000E+00 0.  1.
</event>
<event>
 4    1  0.6729064E+001  0.2859346E+02  0.7546771E-02  0.1432226E+00
          2   -1    0    0  502    0  0.00000000000E+00  0.00000000000E+00  0.51120527532E+03  0.51120527532E+03  0.00000000000E+00 0. -1.
         -2   -1    0    0    0  501 -0.00000000000E+00 -0.00000000000E+00 -0.48953164898E+01  0.48953164898E+01  0.00000000000E+00 0.  1.
          1    1    1    2  502    0  0.24948059561E+02  0.13970694304E+02  0.41413140748E+02  0.50325283921E+02  0.00000000000E+00 0.  1.
         -1    1    1    2    0  501 -0.24948059561E+02 -0.13970694304E+02  0.46489681808E+03  0.46577530788E+03  0.00000000000E+00 0. -1.
</event>
<event>
 4    1  0.6729064E+001  0.3155264E+02  0.7546771E-02  0.1406567E+00
          2   -1    0    0  502    0  0.00000000000E+00  0.00000000000E+00  0.72263090711E+01  0.72263090711E+01  0.00000000000E+00 0. -1.
         -2   -1    0    0    0  501 -0.00000000000E+00 -0.00000000000E+00 -0.15601645013E+03  0.15601645013E+03  0.00000000000E+00 0.  1.
          1    1    1    2  502    0  0.21066312581E+02  0.23489990725E+02 -0.10230809888E+03  0.10706314159E+03  0.00000000000E+00 0.  1.
         -1    1    1    2    0  501 -0.21066312581E+02 -0.23489990725E+02 -0.46482042172E+02  0.56179617607E+02  0.00000000000E+00 0. -1.
</event>
<event>
 4    1  0.6729064E+001  0.2321471E+02  0.7546771E-02  0.1489820E+00
          2   -1    0    0  502    0  0.00000000000E+00  0.00000000000E+00  0.54610819732E+02  0.54610819732E+02  0.00000000000E+00 0. -1.
         -2   -1    0    0    0  501 -0.00000000000E+00 -0.00000000000E+00 -0.10156061372E+02  0.10156061372E+02  0.00000000000E+00 0.  1.
          1    1    1    2  502    0 -0.23213791812E+01  0.23098349647E+02  0.16777519937E+02  0.28642760568E+02  0.00000000000E+00 0.  1.
         -1    1    1    2    0  501  0.23213791812E+01 -0.23098349647E+02  0.27677238423E+02  0.36124120535E+02  0.00000000000E+00 0. -1.
</event>
<event>
 4    1  0.6729064E+001  0.3606568E+02  0.7546771E-02  0.1373222E+00
          2   -1    0    0  502    0  0.00000000000E+00  0.00000000000E+00  0.13837657356E+04  0.13837657356E+04  0.00000000000E+00 0.  1.
         -2   -1    0    0    0  501 -0.00000000000E+00 -0.00000000000E+00 -0.10398878673E+01  0.10398878673E+01  0.00000000000E+00 0. -1.
          1    1    1    2  502    0 -0.19403671927E+02 -0.30401161729E+02  0.47676158840E+03  0.47812377612E+03  0.00000000000E+00 0.  1.
         -1    1    1    2    0  501  0.19403671927E+02  0.30401161729E+02  0.90596425930E+03  0.90668184731E+03  0.00000000000E+00 0. -1.
</event>
<event>
 4    1  0.6729064E+001  0.2145962E+02  0.7546771E-02  0.1512803E+00
          2   -1    0    0  502    0  0.00000000000E+00  0.00000000000E+00  0.28315438116E+02  0.28315438116E+02  0.00000000000E+00 0. -1.
         -2   -1    0    0    0  501 -0.00000000000E+00 -0.00000000000E+00 -0.22826220887E+02  0.22826220887E+02  0.00000000000E+00 0.  1.
          1    1    1    2  502    0 -0.17651192060E+02 -0.12204531009E+02  0.16455369603E+02  0.27042454531E+02  0.00000000000E+00 0. -1.
         -1    1    1    2    0  501  0.17651192060E+02  0.12204531009E+02 -0.10966152374E+02  0.24099204472E+02  0.00000000000E+00 0.  1.
</event>
<event>
 4    1  0.6729064E+001  0.2449587E+02  0.7546771E-02  0.1474523E+00
          2   -1    0    0  502    0  0.00000000000E+00  0.00000000000E+00  0.10082992035E+04  0.10082992035E+04  0.00000000000E+00 0. -1.
         -2   -1    0    0    0  501 -0.00000000000E+00 -0.00000000000E+00 -0.59573881780E+00  0.59573881780E+00  0.00000000000E+00 0.  1.
          1    1    1    2  502    0  0.13146365921E+02 -0.20669319824E+02  0.48744704854E+03  0.48806216085E+03  0.00000000000E+00 0.  1.
         -1    1    1    2    0  501 -0.13146365921E+02  0.20669319824E+02  0.52025641616E+03  0.52083278149E+03  0.00000000000E+00 0. -1.
</event>
<event>
 4    1  0.6729064E+001  0.3314818E+02  0.7546771E-02  0.1394071E+00
          2   -1    0    0  502    0  0.00000000000E+00  0.00000000000E+00  0.10005111823E+02  0.10005111823E+02  0.00000000000E+00 0.  1.
         -2   -1    0    0    0  501 -0.00000000000E+00 -0.00000000000E+00 -0.11276367531E+03  0.11276367531E+03  0.00000000000E+00 0. -1.
          1    1    1    2  502    0  0.32580179169E+02 -0.61101232222E+01 -0.61290361619E+02  0.69680055309E+02  0.00000000000E+00 0.  1.
         -1    1    1    2    0  501 -0.32580179169E+02  0.61101232222E+01 -0.41468201870E+02  0.53088731825E+02  0.00000000000E+00 0. -1.
</event>
<event>
 4    1  0.6729064E+001  0.2698672E+02  0.7546771E-02  0.1447742E+00
          2   -1    0    0  502    0  0.00000000000E+00  0.00000000000E+00  0.27406181208E+03  0.27406181208E+03  0.00000000000E+00 0.  1.
         -2   -1    0    0    0  501 -0.00000000000E+00 -0.00000000000E+00 -0.30138634949E+01  0.30138634949E+01  0.00000000000E+00 0. -1.
          1    1    1    2  502    0 -0.16878691283E+02 -0.21056896426E+02  0.87877189353E+02  0.91927599311E+02  0.00000000000E+00 0. -1.
         -1    1    1    2    0  501  0.16878691283E+02  0.21056896426E+02  0.18317075924E+03  0.18514807627E+03  0.00000000000E+00 0.  1.
</event>
<event>
 4    1  0.6729064E+001  0.3688527E+02  0.7546771E-02  0.1367773E+00
          2   -1    0    0  502    0  0.00000000000E+00  0.00000000000E+00  0.19754289288E+03  0.19754289288E+03  0.00000000000E+00 0. -1.
         -2   -1    0    0    0  501 -0.00000000000E+00 -0.00000000000E+00 -0.78928714329E+01  0.78928714329E+01  0.00000000000E+00 0.  1.
          1    1    1    2  502    0  0.25189416102E+02 -0.26944693782E+02  0.13148989049E+03  0.13656542208E+03  0.00000000000E+00 0. -1.
         -1    1    1    2    0  501 -0.25189416102E+02  0.26944693782E+02  0.58160130961E+02  0.68870342237E+02  0.00000000000E+00 0.  1.
</event>
<event>
 4    1  0.6729064E+001  0.3684573E+02  0.7546771E-02  0.1368032E+00
          2   -1    0    0  502    0  0.00000000000E+00  0.00000000000E+00  0.23088516174E+03  0.23088516174E+03  0.00000000000E+00 0. -1.
         -2   -1    0    0    0  501 -0.00000000000E+00 -0.00000000000E+00 -0.58888401208E+01  0.58888401208E+01  0.00000000000E+00 0.  1.
          1    1    1    2  502    0 -0.11661175257E+02 -0.34951748633E+02  0.10791463250E+03  0.11403146779E+03  0.00000000000E+00 0. -1.
         -1    1    1    2    0  501  0.11661175257E+02  0.34951748633E+02  0.11708168913E+03  0.12274253407E+03  0.00000000000E+00 0.  1.
</event>
<event>
 4    1  0.6729064E+001  0.2096802E+02  0.7546771E-02  0.1519722E+00
          2   -1    0    0  502    0  0.00000000000E+00  0.00000000000E+00  0.86262447133E+02  0.86262447133E+02  0.00000000000E+00 0.  1.
         -2   -1    0    0    0  501 -0.00000000000E+00 -0.00000000000E+00 -0.50968789195E+01  0.50968789195E+01  0.00000000000E+00 0. -1.
          1    1    1    2  502    0 -0.20957529750E+02  0.66327148686E+00  0.40351553500E+02  0.45474232837E+02  0.00000000000E+00 0.  1.
         -1    1    1    2    0  501  0.20957529750E+02 -0.66327148686E+00  0.40814014714E+02  0.45885093216E+02  0.00000000000E+00 0. -1.
</event>
<event>
 4    1  0.6729064E+001  0.2444750E+02  0.7546771E-02  0.1475080E+00
          2   -1    0    0  502    0  0.00000000000E+00  0.00000000000E+00  0.10591393514E+03  0.10591393514E+03  0.00000000000E+00 0. -1.
         -2   -1    0    0    0  501 -0.00000000000E+00 -0.00000000000E+00 -0.69252692837E+01  0.69252692837E+01  0.00000000000E+00 0.  1.
          1    1    1    2  502    0  0.78091027448E+01 -0.23166744968E+02  0.25217680552E+02  0.35122806985E+02  0.00000000000E+00 0.  1.
         -1    1    1    2    0  501 -0.78091027448E+01  0.23166744968E+02  0.73770985309E+02  0.77716397443E+02  0.00000000000E+00 0. -1.
</event>
<event>
 4    1  0.6729064E+001  0.2236742E+02  0.7546771E-02  0.1500598E+00
          2   -1    0    0  502    0  0.00000000000E+00  0.00000000000E+00  0.16010089985E+03  0.16010089985E+03  0.00000000000E+00 0.  1.
         -2   -1    0    0    0  501 -0.00000000000E+00 -0.00000000000E+00 -0.57240577196E+01  0.57240577196E+01  0.00000000000E+00 0. -1.
          1    1    1    2  502    0 -0.21766580742E+02 -0.51495278475E+01  0.21317867302E+02  0.30899079931E+02  0.00000000000E+00 0. -1.
         -1    1    1    2    0  501  0.21766580742E+02  0.51495278475E+01  0.13305897483E+03  0.13492587764E+03  0.00000000000E+00 0.  1.
</event>
<event>
 4    1  0.6729064E+001  0.2382977E+02  0.7546771E-02  0.1482334E+00
          2   -1    0    0  502    0  0.00000000000E+00  0.00000000000E+00  0.72217916275E+02  0.72217916275E+02  0.00000000000E+00 0. -1.
         -2   -1    0    0    0  501 -0.00000000000E+00 -0.00000000000E+00 -0.13696585019E+02  0.13696585019E+02  0.00000000000E+00 0.  1.
          1    1    1    2  502    0 -0.21877425038E+02  0.94464803103E+01  0.57295232270E+02  0.62053213917E+02  0.00000000000E+00 0. -1.
         -1    1    1    2    0  501  0.21877425038E+02 -0.94464803103E+01  0.12260989861E+01  0.23861287376E+02  0.00000000000E+00 0.  1.
</event>
<event>
 4    1  0.6729064E+001  0.2878247E+02  0.7546771E-02  0.1430480E+00
          2   -1    0    0  502    0  0.00000000000E+00  0.00000000000E+00  0.28092722572E+03  0.28092722572E+03  0.00000000000E+00 0.  1.
         -2   -1    0    0    0  501 -0.00000000000E+00 -0.00000000000E+00 -0.35476681135E+01  0.35476681135E+01  0.00000000000E+00 0. -1.
          1    1    1    2  502    0 -0.16678016767E+02 -0.23457929135E+02  0.19712384732E+03  0.19921406041E+03  0.00000000000E+00 0.  1.
         -1    1    1    2    0  501  0.16678016767E+02  0.23457929135E+02  0.80255710291E+02  0.85260833428E+02  0.00000000000E+00 0. -1.
</event>
<event>
 4    1  0.6729064E+001  0.4020755E+02  0.7546771E-02  0.1347274E+00
          2   -1    0    0  502    0  0.00000000000E+00  0.00000000000E+00  0.12456411254E+03  0.12456411254E+03  0.00000000000E+00 0. -1.
         -2   -1    0    0    0  501 -0.00000000000E+00 -0.00000000000E+00 -0.12980507352E+02  0.12980507352E+02  0.00000000000E+00 0.  1.
          1    1    1    2  502    0  0.34902188270E+02  0.19962082120E+02  0.54923231309E+02  0.68067678130E+02  0.00000000000E+00 0.  1.
         -1    1    1    2    0  501 -0.34902188270E+02 -0.19962082120E+02  0.56660373880E+02  0.69476941764E+02  0.00000000000E+00 0. -1.
</event>
<event>
 4    1  0.6729064E+001  0.2118243E+02  0.7546771E-02  0.1516676E+00
          2   -1    0    0  502    0  0.00000000000E+00  0.00000000000E+00  0.15895944141E+03  0.15895944141E+03  0.00000000000E+00 0.  1.
         -2   -1    0    0    0  501 -0.00000000000E+00 -0.00000000000E+00 -0.30019483126E+01  0.30019483126E+01  0.00000000000E+00 0. -1.
          1    1    1    2  502    0  0.13519542808E+02 -0.16306966383E+02  0.58190624817E+02  0.61926117325E+02  0.00000000000E+00 0.  1.
         -1    1    1    2    0  501 -0.13519542808E+02  0.16306966383E+02  0.97766868277E+02  0.10003527239E+03  0.00000000000E+00 0. -1.
</event>
<event>
 4    1  0.6729064E+001  0.2241245E+02  0.7546771E-02  0.1500011E+00
          2   -1    0    0  502    0  0.00000000000E+00  0.00000000000E+00  0.33839344243E+03  0.33839344243E+03  0.00000000000E+00 0.  1.
         -2   -1    0    0    0  501 -0.00000000000E+00 -0.00000000000E+00 -0.18249720933E+01  0.18249720933E+01  0.00000000000E+00 0. -1.
          1    1    1    2  502    0 -0.15933526512E+01  0.22355738084E+02  0.94800393468E+02  0.97413717718E+02  0.00000000000E+00 0. -1.
         -1    1    1    2    0  501  0.15933526512E+01 -0.22355738084E+02  0.24176807687E+03  0.24280469681E+03  0.00000000000E+00 0.  1.
</event>
<event>
 4    1  0.6729064E+001  0.2208196E+02  0.7546771E-02  0.1504359E+00
          2   -1    0    0  502    0  0.00000000000E+00  0.00000000000E+00  0.77923084254E+02  0.77923084254E+02  0.00000000000E+00 0.  1.
         -2   -1    0    0    0  501 -0.00000000000E+00 -0.00000000000E+00 -0.63453742530E+01  0.63453742530E+01  0.00000000000E+00 0. -1.
          1    1    1    2  502    0  0.13463472340E+01  0.22040874847E+02  0.30833805454E+02  0.37925405386E+02  0.00000000000E+00 0. -1.
         -1    1    1    2    0  501 -0.13463472340E+01 -0.22040874847E+02  0.40743904547E+02  0.46343053121E+02  0.00000000000E+00 0.  1.
</event>
<event>
 4    1  0.6729064E+001  0.2093744E+02  0.7546771E-02  0.1520160E+00
          2   -1    0    0  502    0  0.00000000000E+00  0.00000000000E+00  0.35869233894E+02  0.35869233894E+02  0.00000000000E+00 0. -1.
         -2   -1    0    0    0  501 -0.00000000000E+00 -0.00000000000E+00 -0.26836819215E+02  0.26836819215E+02  0.00000000000E+00 0.  1.
          1    1    1    2  502    0  0.20634638267E+02 -0.35479596404E+01  0.27653785942E+02  0.34685850010E+02  0.00000000000E+00 0. -1.
         -1    1    1    2    0  501 -0.20634638267E+02  0.35479596404E+01 -0.18621371262E+02  0.28020203099E+02  0.00000000000E+00 0.  1.
</event>
<event>
 4    1  0.6729064E+001  0.2953343E+02  0.7546771E-02  0.1423695E+00
          2   -1    0    0  502    0  0.00000000000E+00  0.00000000000E+00  0.43028995012E+03  0.43028995012E+03  0.00000000000E+00 0.  1.
         -2   -1    0    0    0  501 -0.00000000000E+00 -0.00000000000E+00 -0.34096808674E+01  0.34096808674E+01  0.00000000000E+00 0. -1.
          1    1    1    2  502    0  0.24677127548E+02 -0.16225385457E+02  0.75352857117E+02  0.80933780543E+02  0.00000000000E+00 0. -1.
         -1    1    1    2    0  501 -0.24677127548E+02  0.16225385457E+02  0.35152741214E+03  0.35276585045E+03  0.00000000000E+00 0.  1.
</event>
<event>
 4    1  0.6729064E+001  0.2208503E+02  0.7546771E-02  0.1504319E+00
          2   -1    0    0  502    0  0.00000000000E+00  0.00000000000E+00  0.33205426784E+03  0.33205426784E+03  0.00000000000E+00 0.  1.
         -2   -1    0    0    0  501 -0.00000000000E+00 -0.00000000000E+00 -0.14696938409E+01  0.14696938409E+01  0.00000000000E+00 0. -1.
          1    1    1    2  502    0  0.21544580634E+02  0.48558821064E+01  0.16137295453E+03  0.16287718993E+03  0.00000000000E+00 0. -1.
         -1    1    1    2    0  501 -0.21544580634E+02 -0.48558821064E+01  0.16921161948E+03  0.17064677176E+03  0.00000000000E+00 0.  1.
</event>
<event>
 4    1  0.6729064E+001  0.3286628E+02  0.7546771E-02  0.1396218E+00
          2   -1    0    0  502    0  0.00000000000E+00  0.00000000000E+00  0.92618563675E+02  0.92618563675E+02  0.00000000000E+00 0. -1.
         -2   -1    0    0    0  501 -0.00000000000E+00 -0.00000000000E+00 -0.57186867196E+02  0.57186867196E+02  0.00000000000E+00 0.  1.
          1    1    1    2  502    0  0.32076701745E+02  0.71608378960E+01 -0.49113912452E+02  0.59096267146E+02  0.00000000000E+00 0.  1.
         -1    1    1    2    0  501 -0.32076701745E+02 -0.71608378960E+01  0.84545608931E+02  0.90709163725E+02  0.00000000000E+00 0. -1.
</event>
<event>
 4    1  0.6729064E+001  0.2172387E+02  0.7546771E-02  0.1509176E+00
          2   -1    0    0  502    0  0.00000000000E+00  0.00000000000E+00  0.17509307079E+03  0.17509307079E+03  0.00000000000E+00 0.  1.
         -2   -1    0    0    0  501 -0.00000000000E+00 -0.00000000000E+00 -0.54700380760E+01  0.54700380760E+01  0.00000000000E+00 0. -1.
          1    1    1    2  502    0 -0.17221303169E+02 -0.13242104357E+02  0.14911220576E+03  0.15068635146E+03  0.00000000000E+00 0.  1.
         -1    1    1    2    0  501  0.17221303169E+02  0.13242104357E+02  0.20510826957E+02  0.29876757406E+02  0.00000000000E+00 0. -1.
</event>
<event>
 4    1  0.6729064E+001  0.2276252E+02  0.7546771E-02  0.1495502E+00
          2   -1    0    0  502    0  0.00000000000E+00  0.00000000000E+00  0.69057447081E+03  0.69057447081E+03  0.00000000000E+00 0.  1.
         -2   -1    0    0    0  501 -0.00000000000E+00 -0.00000000000E+00 -0.13898800263E+01  0.13898800263E+01  0.00000000000E+00 0. -1.
          1    1    1    2  502    0  0.86553096943E+01  0.21052737613E+02  0.10989104436E+03  0.11222376655E+03  0.00000000000E+00 0. -1.
         -1    1    1    2    0  501 -0.86553096943E+01 -0.21052737613E+02  0.57929354642E+03  0.57974058429E+03  0.00000000000E+00 0.  1.
</event>
<event>
 4    1  0.6729064E+001  0.3587150E+02  0.7546771E-02  0.1374538E+00
          2   -1    0    0  502    0  0.00000000000E+00  0.00000000000E+00  0.23708955080E+03  0.23708955080E+03  0.00000000000E+00 0.  1.
         -2   -1    0    0    0  501 -0.00000000000E+00 -0.00000000000E+00 -0.56461480530E+01  0.56461480530E+01  0.00000000000E+00 0. -1.
          1    1    1    2  502    0 -0.12899905467E+02  0.33471738751E+02  0.91829162504E+02  0.98586814241E+02  0.00000000000E+00 0. -1.
         -1    1    1    2    0  501  0.12899905467E+02 -0.33471738751E+02  0.13961424024E+03  0.14414888461E+03  0.00000000000E+00 0.  1.
</event>
<event>
 4    1  0.6729064E+001  0.2311908E+02  0.7546771E-02  0.1491008E+00
          2   -1    0    0  502    0  0.00000000000E+00  0.00000000000E+00  0.57780561171E+01  0.57780561171E+01  0.00000000000E+00 0.  1.
         -2   -1    0    0    0  501 -0.00000000000E+00 -0.00000000000E+00 -0.18212906220E+03  0.18212906220E+03  0.00000000000E+00 0. -1.
          1    1    1    2  502    0  0.23118603096E+02 -0.14862960009E+00 -0.15408362467E+03  0.15580839288E+03  0.00000000000E+00 0. -1.
         -1    1    1    2    0  501 -0.23118603096E+02  0.14862960009E+00 -0.22267381415E+02  0.32098725441E+02  0.00000000000E+00 0.  1.
</event>
<event>
 4    1  0.6729064E+001  0.2151068E+02  0.7546771E-02  0.1512097E+00
          2   -1    0    0  502    0  0.00000000000E+00  0.00000000000E+00  0.18479429006E+04  0.18479429006E+04  0.00000000000E+00 0. -1.
         -2   -1    0    0    0  501 -0.00000000000E+00 -0.00000000000E+00 -0.25212731940E+00  0.25212731940E+00  0.00000000000E+00 0.  1.
          1    1    1    2  502    0  0.20666332816E+02 -0.59675698350E+01  0.84716935239E+03  0.84744239971E+03  0.00000000000E+00 0.  1.
         -1    1    1    2    0  501 -0.20666332816E+02  0.59675698350E+01  0.10005214209E+04  0.10007526282E+04  0.00000000000E+00 0. -1.
</event>
<event>
 4    1  0.6729064E+001  0.2454962E+02  0.7546771E-02  0.1473905E+00
          2   -1    0    0  502    0  0.00000000000E+00  0.00000000000E+00  0.22726506268E+03  0.22726506268E+03  0.00000000000E+00 0. -1.
         -2   -1    0    0    0  501 -0.00000000000E+00 -0.00000000000E+00 -0.33558895585E+01  0.33558895585E+01  0.00000000000E+00 0.  1.
          1    1    1    2  502    0 -0.16485013345E+02 -0.18191430799E+02  0.16476852896E+03  0.16658737034E+03  0.00000000000E+00 0.  1.
         -1    1    1    2    0  501  0.16485013345E+02  0.18191430799E+02  0.59140644158E+02  0.64033581899E+02  0.00000000000E+00 0. -1.
</event>
<event>
 4    1  0.6729064E+001  0.4141636E+02  0.7546771E-02  0.1340380E+00
          2   -1    0    0  502    0  0.00000000000E+00  0.00000000000E+00  0.36443180463E+03  0.36443180463E+03  0.00000000000E+00 0.  1.
         -2   -1    0    0    0  501 -0.00000000000E+00 -0.00000000000E+00 -0.47985160582E+01  0.47985160582E+01  0.00000000000E+00 0. -1.
          1    1    1    2  502    0 -0.40623727511E+02  0.80639721386E+01  0.15429613310E+03  0.15975797812E+03  0.00000000000E+00 0. -1.
         -1    1    1    2    0  501  0.40623727511E+02 -0.80639721386E+01  0.20533715547E+03  0.20947234257E+03  0.00000000000E+00 0.  1.
</event>
<event>
 4    1  0.6729064E+001  0.2275623E+02  0.7546771E-02  0.1495582E+00
          2   -1    0    0  502    0  0.00000000000E+00  0.00000000000E+00  0.11389635277E+03  0.11389635277E+03  0.00000000000E+00 0.  1.
         -2   -1    0    0    0  501 -0.00000000000E+00 -0.00000000000E+00 -0.54906798422E+01  0.54906798422E+01  0.00000000000E+00 0. -1.
          1    1    1    2  502    0 -0.12515409907E+02  0.19005543943E+02  0.29450949700E+02  0.37218337200E+02  0.00000000000E+00 0. -1.
         -1    1    1    2    0  501  0.12515409907E+02 -0.19005543943E+02  0.78954723232E+02  0.82168695416E+02  0.00000000000E+00 0.  1.
</event>
<event>
 4    1  0.6729064E+001  0.2088158E+02  0.7546771E-02  0.1520962E+00
          2   -1    0    0  502    0  0.00000000000E+00  0.00000000000E+00  0.19000922089E+03  0.19000922089E+03  0.00000000000E+00 0.  1.
         -2   -1    0    0    0  501 -0.00000000000E+00 -0.00000000000E+00 -0.25400332970E+01  0.25400332970E+01  0.00000000000E+00 0. -1.
          1    1    1    2  502    0 -0.14484723057E+02  0.15041056565E+02  0.63822469516E+02  0.67151680543E+02  0.00000000000E+00 0. -1.
         -1    1    1    2    0  501  0.14484723057E+02 -0.15041056565E+02  0.12364671808E+03  0.12539757365E+03  0.00000000000E+00 0.  1.
</event>
<event>
 4    1  0.6729064E+001  0.3109697E+02  0.7546771E-02  0.1410297E+00
          2   -1    0    0  502    0  0.00000000000E+00  0.00000000000E+00  0.32415210963E+04  0.32415210963E+04  0.00000000000E+00 0.  1.
         -2   -1    0    0    0  501 -0.00000000000E+00 -0.00000000000E+00 -0.36248045326E+00  0.36248045326E+00  0.00000000000E+00 0. -1.
          1    1    1    2  502    0 -0.10235027229E+02  0.29364360863E+02  0.93863728175E+03  0.93915226037E+03  0.00000000000E+00 0. -1.
         -1    1    1    2    0  501  0.10235027229E+02 -0.29364360863E+02  0.23025213341E+04  0.23027313163E+04  0.00000000000E+00 0.  1.
</event>
<event>
 4    1  0.6729064E+001  0.2770399E+02  0.7546771E-02  0.1440662E+00
          2   -1    0    0  502    0  0.00000000000E+00  0.00000000000E+00  0.33266277183E+02  0.33266277183E+02  0.00000000000E+00 0.  1.
         -2   -1    0    0    0  501 -0.00000000000E+00 -0.00000000000E+00 -0.24806933008E+02  0.24806933008E+02  0.00000000000E+00 0. -1.
          1    1    1    2  502    0  0.11384581760E+02  0.25256724922E+02  0.11909179340E+02  0.30155255068E+02  0.00000000000E+00 0.  1.
         -1    1    1    2    0  501 -0.11384581760E+02 -0.25256724922E+02 -0.34498351648E+01  0.27917955124E+02  0.00000000000E+00 0. -1.
</event>
<event>
 4    1  0.6729064E+001  0.2602145E+02  0.7546771E-02  0.1457693E+00
          2   -1    0    0  502    0  0.00000000000E+00  0.00000000000E+00  0.72119311713E+03  0.72119311713E+03  0.00000000000E+00 0.  1.
         -2   -1    0    0    0  501 -0.00000000000E+00 -0.00000000000E+00 -0.11820374652E+01  0.11820374652E+01  0.00000000000E+00 0. -1.
          1    1    1    2  502    0 -0.18156837352E+02  0.18639877487E+02  0.19618870378E+03  0.19790685503E+03  0.00000000000E+00 0.  1.
         -1    1    1    2    0  501  0.18156837352E+02 -0.18639877487E+02  0.52382237589E+03  0.52446829957E+03  0.00000000000E+00 0. -1.
</event>
<event>
 4    1  0.6729064E+001  0.3911913E+02  0.7546771E-02  0.1353726E+00
          2   -1    0    0  502    0  0.00000000000E+00  0.00000000000E+00  0.23084424764E+04  0.23084424764E+04  0.00000000000E+00 0.  1.
         -2   -1    0    0    0  501 -0.00000000000E+00 -0.00000000000E+00 -0.72205410284E+00  0.72205410284E+00  0.00000000000E+00 0. -1.
          1    1    1    2  502    0 -0.32144779746E+02 -0.22293929491E+02  0.82343786946E+03  0.82436656350E+03  0.00000000000E+00 0. -1.
         -1    1    1    2    0  501  0.32144779746E+02  0.22293929491E+02  0.14842825528E+04  0.14847979670E+04  0.00000000000E+00 0.  1.
</event>
<event>
 4    1  0.6729064E+001  0.2709867E+02  0.7546771E-02  0.1446620E+00
          2   -1    0    0  502    0  0.00000000000E+00  0.00000000000E+00  0.43369412765E+03  0.43369412765E+03  0.00000000000E+00 0. -1.
         -2   -1    0    0    0  501 -0.00000000000E+00 -0.00000000000E+00 -0.17311057360E+01  0.17311057360E+01  0.00000000000E+00 0.  1.
          1    1    1    2  502    0 -0.20958977708E+02 -0.17177279306E+02  0.18377195248E+03  0.18575916717E+03  0.00000000000E+00 0.  1.
         -1    1    1    2    0  501  0.20958977708E+02  0.17177279306E+02  0.24819106944E+03  0.24966606621E+03  0.00000000000E+00 0. -1.
</event>
<event>
 4    1  0.6729064E+001  0.2181507E+02  0.7546771E-02  0.1507939E+00
          2   -1    0    0  502    0  0.00000000000E+00  0.00000000000E+00  0.54941564309E+02  0.54941564309E+02  0.00000000000E+00 0.  1.
         -2   -1    0    0    0  501 -0.00000000000E+00 -0.00000000000E+00 -0.14253922699E+02  0.14253922699E+02  0.00000000000E+00 0. -1.
          1    1    1    2  502    0 -0.21150905189E+02 -0.53419665008E+01  0.42014159633E+02  0.47340120470E+02  0.00000000000E+00 0.  1.
         -1    1    1    2    0  501  0.21150905189E+02  0.53419665008E+01 -0.13265180230E+01  0.21855366538E+02  0.00000000000E+00 0. -1.
</event>
<event>
 4    1  0.6729064E+001  0.4523419E+02  0.7546771E-02  0.1320272E+00
          2   -1    0    0  502    0  0.00000000000E+00  0.00000000000E+00  0.38923532995E+01  0.38923532995E+01  0.00000000000E+00 0.  1.
         -2   -1    0    0    0  501 -0.00000000000E+00 -0.00000000000E+00 -0.55852764399E+03  0.55852764399E+03  0.00000000000E+00 0. -1.
          1    1    1    2  502    0 -0.79095807270E+01  0.44537295672E+02 -0.34551393083E+03  0.34846234886E+03  0.00000000000E+00 0. -1.
         -1    1    1    2    0  501  0.79095807270E+01 -0.44537295672E+02 -0.20912135986E+03  0.21395764843E+03  0.00000000000E+00 0.  1.
</event>
<event>
 4    1  0.6729064E+001  0.1249041E+03  0.7546771E-02  0.1126528E+00
          2   -1    0    0  502    0  0.00000000000E+00  0.00000000000E+00  0.76417494482E+03  0.76417494482E+03  0.00000000000E+00 0.  1.
         -2   -1    0    0    0  501 -0.00000000000E+00 -0.00000000000E+00 -0.21824452798E+02  0.21824452798E+02  0.00000000000E+00 0. -1.
          1    1    1    2  502    0 -0.12041918982E+03  0.33170075764E+02  0.27132149177E+03  0.29869112324E+03  0.00000000000E+00 0. -1.
         -1    1    1    2    0  501  0.12041918982E+03 -0.33170075764E+02  0.47102900025E+03  0.48730827438E+03  0.00000000000E+00 0.  1.
</event>
<event>
 4    1  0.6729064E+001  0.2338366E+02  0.7546771E-02  0.1487736E+00
          2   -1    0    0  502    0  0.00000000000E+00  0.00000000000E+00  0.41100341276E+02  0.41100341276E+02  0.00000000000E+00 0.  1.
         -2   -1    0    0    0  501 -0.00000000000E+00 -0.00000000000E+00 -0.73186834845E+02  0.73186834845E+02  0.00000000000E+00 0. -1.
          1    1    1    2  502    0  0.17514231511E+02  0.15493454136E+02 -0.67732768006E+02  0.71655587976E+02  0.00000000000E+00 0. -1.
         -1    1    1    2    0  501 -0.17514231511E+02 -0.15493454136E+02  0.35646274437E+02  0.42631588145E+02  0.00000000000E+00 0.  1.
</event>
<event>
 4    1  0.6729064E+001  0.2758792E+02  0.7546771E-02  0.1441790E+00
          2   -1    0    0  502    0  0.00000000000E+00  0.00000000000E+00  0.10401773420E+03  0.10401773420E+03  0.00000000000E+00 0.  1.
         -2   -1    0    0    0  501 -0.00000000000E+00 -0.00000000000E+00 -0.11487505525E+02  0.11487505525E+02  0.00000000000E+00 0. -1.
          1    1    1    2  502    0  0.27264288090E+02  0.42132912822E+01  0.81063207208E+02  0.85629065109E+02  0.00000000000E+00 0.  1.
         -1    1    1    2    0  501 -0.27264288090E+02 -0.42132912822E+01  0.11467021469E+02  0.29876174619E+02  0.00000000000E+00 0. -1.
</event>
<event>
 4    1  0.6729064E+001  0.2793336E+02  0.7546771E-02  0.1438451E+00
          2   -1    0    0  502    0  0.00000000000E+00  0.00000000000E+00  0.82116283347E+03  0.82116283347E+03  0.00000000000E+00 0.  1.
         -2   -1    0    0    0  501 -0.00000000000E+00 -0.00000000000E+00 -0.96866839418E+00  0.96866839418E+00  0.00000000000E+00 0. -1.
          1    1    1    2  502    0  0.14334555660E+02 -0.23974845004E+02  0.35334464355E+03  0.35444704796E+03  0.00000000000E+00 0.  1.
         -1    1    1    2    0  501 -0.14334555660E+02  0.23974845004E+02  0.46684952152E+03  0.46768445390E+03  0.00000000000E+00 0. -1.
</event>
<event>
 4    1  0.6729064E+001  0.2340250E+02  0.7546771E-02  0.1487505E+00
          2   -1    0    0  502    0  0.00000000000E+00  0.00000000000E+00  0.57311178655E+03  0.57311178655E+03  0.00000000000E+00 0.  1.
         -2   -1    0    0    0  501 -0.00000000000E+00 -0.00000000000E+00 -0.95929616072E+00  0.95929616072E+00  0.00000000000E+00 0. -1.
          1    1    1    2  502    0 -0.21184536768E+02  0.99444636085E+01  0.30384553454E+03  0.30474544429E+03  0.00000000000E+00 0.  1.
         -1    1    1    2    0  501  0.21184536768E+02 -0.99444636085E+01  0.26830695585E+03  0.26932563842E+03  0.00000000000E+00 0. -1.
</event>
<event>
 4    1  0.6729064E+001  0.3264130E+02  0.7546771E-02  0.1397950E+00
          2   -1    0    0  502    0  0.00000000000E+00  0.00000000000E+00  0.13866902614E+02  0.13866902614E+02  0.00000000000E+00 0. -1.
         -2   -1    0    0    0  501 -0.00000000000E+00 -0.00000000000E+00 -0.89029261576E+02  0.89029261576E+02  0.00000000000E+00 0.  1.
          1    1    1    2  502    0  0.26018675875E+02  0.19709975707E+02 -0.18540085763E+02  0.37539171764E+02  0.00000000000E+00 0. -1.
         -1    1    1    2    0  501 -0.26018675875E+02 -0.19709975707E+02 -0.56622273199E+02  0.65356992425E+02  0.00000000000E+00 0.  1.
</event>
<event>
 4    1  0.6729064E+001  0.3103228E+02  0.7546771E-02  0.1410833E+00
          2   -1    0    0  502    0  0.00000000000E+00  0.00000000000E+00  0.13157538944E+02  0.13157538944E+02  0.00000000000E+00 0.  1.
         -2   -1    0    0    0  501 -0.00000000000E+00 -0.00000000000E+00 -0.78327706610E+02  0.78327706610E+02  0.00000000000E+00 0. -1.
          1    1    1    2  502    0  0.25231785865E+02  0.18065426423E+02 -0.20870135444E+02  0.37397395674E+02  0.00000000000E+00 0. -1.
         -1    1    1    2    0  501 -0.25231785865E+02 -0.18065426423E+02 -0.44300032222E+02  0.54087849880E+02  0.00000000000E+00 0.  1.
</event>
<event>
 4    1  0.6729064E+001  0.2121222E+02  0.7546771E-02  0.1516256E+00
          2   -1    0    0  502    0  0.00000000000E+00  0.00000000000E+00  0.18543950303E+03  0.18543950303E+03  0.00000000000E+00 0. -1.
         -2   -1    0    0    0  501 -0.00000000000E+00 -0.00000000000E+00 -0.25648336950E+01  0.25648336950E+01  0.00000000000E+00 0.  1.
          1    1    1    2  502    0 -0.73673038317E+01 -0.19891731998E+02  0.11327285486E+03  0.11524190998E+03  0.00000000000E+00 0. -1.
         -1    1    1    2    0  501  0.73673038317E+01  0.19891731998E+02  0.69601814476E+02  0.72762426746E+02  0.00000000000E+00 0.  1.
</event>
<event>
 4    1  0.6729064E+001  0.2158167E+02  0.7546771E-02  0.1511120E+00
          2   -1    0    0  502    0  0.00000000000E+00  0.00000000000E+00  0.11215142397E+04  0.11215142397E+04  0.00000000000E+00 0.  1.
         -2   -1    0    0    0  501 -0.00000000000E+00 -0.00000000000E+00 -0.41892824922E+00  0.41892824922E+00  0.00000000000E+00 0. -1.
          1    1    1    2  502    0 -0.14733627759E+02  0.15769865251E+02  0.61273016484E+03  0.61311012334E+03  0.00000000000E+00 0.  1.
         -1    1    1    2    0  501  0.14733627759E+02 -0.15769865251E+02  0.50836514663E+03  0.50882304463E+03  0.00000000000E+00 0. -1.
</event>
<event>
 4    1  0.6729064E+001  0.3259874E+02  0.7546771E-02  0.1398279E+00
          2   -1    0    0  502    0  0.00000000000E+00  0.00000000000E+00  0.10673619557E+04  0.10673619557E+04  0.00000000000E+00 0.  1.
         -2   -1    0    0    0  501 -0.00000000000E+00 -0.00000000000E+00 -0.10144630488E+01  0.10144630488E+01  0.00000000000E+00 0. -1.
          1    1    1    2  502    0 -0.30838818136E+02 -0.10566224295E+02  0.60599365128E+03  0.60686982393E+03  0.00000000000E+00 0.  1.
         -1    1    1    2    0  501  0.30838818136E+02  0.10566224295E+02  0.46035384135E+03  0.46150659481E+03  0.00000000000E+00 0. -1.
</event>
<event>
 4    1  0.6729064E+001  0.2082966E+02  0.7546771E-02  0.1521711E+00
          2   -1    0    0  502    0  0.00000000000E+00  0.00000000000E+00  0.10801560908E+03  0.10801560908E+03  0.00000000000E+00 0.  1.
         -2   -1    0    0    0  501 -0.00000000000E+00 -0.00000000000E+00 -0.40277999811E+01  0.40277999811E+01  0.00000000000E+00 0. -1.
          1    1    1    2  502    0  0.46214366336E+01  0.20310515354E+02  0.49063319425E+02  0.53301820077E+02  0.00000000000E+00 0. -1.
         -1    1    1    2    0  501 -0.46214366336E+01 -0.20310515354E+02  0.54924489676E+02  0.58741588986E+02  0.00000000000E+00 0.  1.
</event>
<event>
 4    1  0.6729064E+001  0.6697392E+02  0.7546771E-02  0.1237817E+00
          2   -1    0    0  502    0  0.00000000000E+00  0.00000000000E+00  0.12919630501E+03  0.12919630501E+03  0.00000000000E+00 0. -1.
         -2   -1    0    0    0  501 -0.00000000000E+00 -0.00000000000E+00 -0.48268696110E+02  0.48268696110E+02  0.00000000000E+00 0.  1.
          1    1    1    2  502    0 -0.81655931736E+01  0.66474275197E+02 -0.65496538399E+01  0.67293418254E+02  0.00000000000E+00 0.  1.
         -1    1    1    2    0  501  0.81655931736E+01 -0.66474275197E+02  0.87477262742E+02  0.11017158287E+03  0.00000000000E+00 0. -1.
</event>
<event>
 4    1  0.6729064E+001  0.2665545E+02  0.7546771E-02  0.1451100E+00
          2   -1    0    0  502    0  0.00000000000E+00  0.00000000000E+00  0.32341331794E+01  0.32341331794E+01  0.00000000000E+00 0.  1.
         -2   -1    0    0    0  501 -0.00000000000E+00 -0.00000000000E+00 -0.22376595418E+03  0.22376595418E+03  0.00000000000E+00 0. -1.
          1    1    1    2  502    0 -0.17339425137E+02  0.20244931296E+02 -0.94951097601E+02  0.98621619551E+02  0.00000000000E+00 0.  1.
         -1    1    1    2    0  501  0.17339425137E+02 -0.20244931296E+02 -0.12558072340E+03  0.12837846780E+03  0.00000000000E+00 0. -1.
</event>
<event>
 4    1  0.6729064E+001  0.2126659E+02  0.7546771E-02  0.1515492E+00
          2   -1    0    0  502    0  0.00000000000E+00  0.00000000000E+00  0.21013863242E+04  0.21013863242E+04  0.00000000000E+00 0. -1.
         -2   -1    0    0    0  501 -0.00000000000E+00 -0.00000000000E+00 -0.28455875055E+00  0.28455875055E+00  0.00000000000E+00 0.  1.
          1    1    1    2  502    0  0.14916977164E+01 -0.21214210267E+02  0.15692619875E+04  0.15694060830E+04  0.00000000000E+00 0. -1.
         -1    1    1    2    0  501 -0.14916977164E+01  0.21214210267E+02  0.53183977791E+03  0.53226479993E+03  0.00000000000E+00 0.  1.
</event>
<event>
 4    1  0.6729064E+001  0.5161918E+02  0.7546771E-02  0.1291301E+00
          2   -1    0    0  502    0  0.00000000000E+00  0.00000000000E+00  0.13744392952E+03  0.13744392952E+03  0.00000000000E+00 0. -1.
         -2   -1    0    0    0  501 -0.00000000000E+00 -0.00000000000E+00 -0.29117524103E+02  0.29117524103E+02  0.00000000000E+00 0.  1.
          1    1    1    2  502    0 -0.47032945993E+02 -0.21270682862E+02  0.60184141652E+01  0.51968849009E+02  0.00000000000E+00 0.  1.
         -1    1    1    2    0  501  0.47032945993E+02  0.21270682862E+02  0.10230799125E+03  0.11459260461E+03  0.00000000000E+00 0. -1.
</event>
<event>
 4    1  0.6729064E+001  0.2584347E+02  0.7546771E-02  0.1459585E+00
          2   -1    0    0  502    0  0.00000000000E+00  0.00000000000E+00  0.22462246460E+01  0.22462246460E+01  0.00000000000E+00 0.  1.
         -2   -1    0    0    0  501 -0.00000000000E+00 -0.00000000000E+00 -0.30445225059E+03  0.30445225059E+03  0.00000000000E+00 0. -1.
          1    1    1    2  502    0 -0.23167474382E+02  0.11452216112E+02 -0.12765937902E+03  0.13024900067E+03  0.00000000000E+00 0.  1.
         -1    1    1    2    0  501  0.23167474382E+02 -0.11452216112E+02 -0.17454664692E+03  0.17644947457E+03  0.00000000000E+00 0. -1.
</event>
<event>
 4    1  0.6729064E+001  0.2005946E+02  0.7546771E-02  0.1533129E+00
          2   -1    0    0  502    0  0.00000000000E+00  0.00000000000E+00  0.18255731906E+03  0.18255731906E+03  0.00000000000E+00 0. -1.
         -2   -1    0    0    0  501 -0.00000000000E+00 -0.00000000000E+00 -0.22607533138E+01  0.22607533138E+01  0.00000000000E+00 0.  1.
          1    1    1    2  502    0 -0.10538498988E+01  0.20031754809E+02  0.75524861013E+02  0.78143371001E+02  0.00000000000E+00 0.  1.
         -1    1    1    2    0  501  0.10538498988E+01 -0.20031754809E+02  0.10477170474E+03  0.10667470138E+03  0.00000000000E+00 0. -1.
</event>
<event>
 4    1  0.6729064E+001  0.5216278E+02  0.7546771E-02  0.1289058E+00
          2   -1    0    0  502    0  0.00000000000E+00  0.00000000000E+00  0.10084715315E+04  0.10084715315E+04  0.00000000000E+00 0.  1.
         -2   -1    0    0    0  501 -0.00000000000E+00 -0.00000000000E+00 -0.29015035777E+01  0.29015035777E+01  0.00000000000E+00 0. -1.
          1    1    1    2  502    0  0.43736665794E+02 -0.28426389878E+02  0.63667579102E+03  0.63880906259E+03  0.00000000000E+00 0.  1.
         -1    1    1    2    0  501 -0.43736665794E+02  0.28426389878E+02  0.36889423695E+03  0.37256397253E+03  0.00000000000E+00 0. -1.
</event>
<event>
 4    1  0.6729064E+001  0.2530448E+02  0.7546771E-02  0.1465426E+00
          2   -1    0    0  502    0  0.00000000000E+00  0.00000000000E+00  0.21365879049E+03  0.21365879049E+03  0.00000000000E+00 0.  1.
         -2   -1    0    0    0  501 -0.00000000000E+00 -0.00000000000E+00 -0.51677516934E+01  0.51677516934E+01  0.00000000000E+00 0. -1.
          1    1    1    2  502    0  0.16940751642E+02  0.18797015923E+02  0.17515967383E+03  0.17697804443E+03  0.00000000000E+00 0.  1.
         -1    1    1    2    0  501 -0.16940751642E+02 -0.18797015923E+02  0.33331364972E+02  0.41848497760E+02  0.00000000000E+00 0. -1.
</event>
<event>
 4    1  0.6729064E+001  0.2050081E+02  0.7546771E-02  0.1526513E+00
          2   -1    0    0  502    0  0.00000000000E+00  0.00000000000E+00  0.85287676028E+01  0.85287676028E+01  0.00000000000E+00 0. -1.
         -2   -1    0    0    0  501 -0.00000000000E+00 -0.00000000000E+00 -0.69300597336E+02  0.69300597336E+02  0.00000000000E+00 0.  1.
          1    1    1    2  502    0  0.66747490119E+01  0.19383781577E+02 -0.94687973793E+01  0.22581881817E+02  0.00000000000E+00 0. -1.
         -1    1    1    2    0  501 -0.66747490119E+01 -0.19383781577E+02 -0.51303032354E+02  0.55247483122E+02  0.00000000000E+00 0.  1.
</event>
<event>
 4    1  0.6729064E+001  0.2243388E+02  0.7546771E-02  0.1499732E+00
          2   -1    0    0  502    0  0.00000000000E+00  0.00000000000E+00  0.13263161941E+04  0.13263161941E+04  0.00000000000E+00 0.  1.
         -2   -1    0    0    0  501 -0.00000000000E+00 -0.00000000000E+00 -0.53887089351E+00  0.53887089351E+00  0.00000000000E+00 0. -1.
          1    1    1    2  502    0  0.12612660612E+01  0.22398395424E+02  0.30204814555E+03  0.30288011018E+03  0.00000000000E+00 0. -1.
         -1    1    1    2    0  501 -0.12612660612E+01 -0.22398395424E+02  0.10237291776E+04  0.10239749548E+04  0.00000000000E+00 0.  1.
</event>
<event>
 4    1  0.6729064E+001  0.3316053E+02  0.7546771E-02  0.1393978E+00
          2   -1    0    0  502    0  0.00000000000E+00  0.00000000000E+00  0.60041282866E+02  0.60041282866E+02  0.00000000000E+00 0.  1.
         -2   -1    0    0    0  501 -0.00000000000E+00 -0.00000000000E+00 -0.28427589515E+02  0.28427589515E+02  0.00000000000E+00 0. -1.
          1    1    1    2  502    0 -0.10107030805E+02 -0.31582732132E+02 -0.10576762456E+02  0.34806449757E+02  0.00000000000E+00 0.  1.
         -1    1    1    2    0  501  0.10107030805E+02  0.31582732132E+02  0.42190455807E+02  0.53662422624E+02  0.00000000000E+00 0. -1.
</event>
<event>
 4    1  0.6729064E+001  0.4939081E+02  0.7546771E-02  0.1300835E+00
          2   -1    0    0  502    0  0.00000000000E+00  0.00000000000E+00  0.14412223830E+04  0.14412223830E+04  0.00000000000E+00 0. -1.
         -2   -1    0    0    0  501 -0.00000000000E+00 -0.00000000000E+00 -0.30243420004E+01  0.30243420004E+01  0.00000000000E+00 0.  1.
          1    1    1    2  502    0  0.36471211144E+02 -0.33306199001E+02  0.11982822021E+04  0.11992996656E+04  0.00000000000E+00 0. -1.
         -1    1    1    2    0  501 -0.36471211144E+02  0.33306199001E+02  0.23991583888E+03  0.24494705934E+03  0.00000000000E+00 0.  1.
</event>
<event>
 4    1  0.6729064E+001  0.2500918E+02  0.7546771E-02  0.1468701E+00
          2   -1    0    0  502    0  0.00000000000E+00  0.00000000000E+00  0.12557718245E+04  0.12557718245E+04  0.00000000000E+00 0. -1.
         -2   -1    0    0    0  501 -0.00000000000E+00 -0.00000000000E+00 -0.49840967748E+00  0.49840967748E+00  0.00000000000E+00 0.  1.
          1    1    1    2  502    0  0.24575002835E+02 -0.46398516992E+01  0.64409780734E+03  0.64458315554E+03  0.00000000000E+00 0. -1.
         -1    1    1    2    0  501 -0.24575002835E+02  0.46398516992E+01  0.61117560749E+03  0.61168707865E+03  0.00000000000E+00 0.  1.
</event>
<event>
 4    1  0.6729064E+001  0.3138078E+02  0.7546771E-02  0.1407965E+00
          2   -1    0    0  502    0  0.00000000000E+00  0.00000000000E+00  0.58083555203E+02  0.58083555203E+02  0.00000000000E+00 0.  1.
         -2   -1    0    0    0  501 -0.00000000000E+00 -0.00000000000E+00 -0.23693121843E+02  0.23693121843E+02  0.00000000000E+00 0. -1.
          1    1    1    2  502    0 -0.31243086530E+02  0.29364474698E+01  0.39001790226E+02  0.50058893520E+02  0.00000000000E+00 0.  1.
         -1    1    1    2    0  501  0.31243086530E+02 -0.29364474698E+01 -0.46113568657E+01  0.31717783526E+02  0.00000000000E+00 0. -1.
</event>
<event>
 4    1  0.6729064E+001  0.6598199E+02  0.7546771E-02  0.1240759E+00
          2   -1    0    0  502    0  0.00000000000E+00  0.00000000000E+00  0.27632744871E+02  0.27632744871E+02  0.00000000000E+00 0.  1.
         -2   -1    0    0    0  501 -0.00000000000E+00 -0.00000000000E+00 -0.15767014311E+03  0.15767014311E+03  0.00000000000E+00 0. -1.
          1    1    1    2  502    0 -0.45615021112E+02  0.47674865599E+02 -0.67543699726E+02  0.94423378110E+02  0.00000000000E+00 0.  1.
         -1    1    1    2    0  501  0.45615021112E+02 -0.47674865599E+02 -0.62493698516E+02  0.90879509875E+02  0.00000000000E+00 0. -1.
</event>
<event>
 4    1  0.6729064E+001  0.3534411E+02  0.7546771E-02  0.1378160E+00
          2   -1    0    0  502    0  0.00000000000E+00  0.00000000000E+00  0.10684084585E+04  0.10684084585E+04  0.00000000000E+00 0.  1.
         -2   -1    0    0    0  501 -0.00000000000E+00 -0.00000000000E+00 -0.11971761384E+01  0.11971761384E+01  0.00000000000E+00 0. -1.
          1    1    1    2  502    0  0.29923347474E+02  0.18809550498E+02  0.45188283956E+03  0.45326295525E+03  0.00000000000E+00 0. -1.
         -1    1    1    2    0  501 -0.29923347474E+02 -0.18809550498E+02  0.61532844283E+03  0.61634267941E+03  0.00000000000E+00 0.  1.
</event>
<event>
 4    1  0.6729064E+001  0.2033239E+02  0.7546771E-02  0.1529014E+00
          2   -1    0    0  502    0  0.00000000000E+00  0.00000000000E+00  0.11516628535E+03  0.11516628535E+03  0.00000000000E+00 0.  1.
         -2   -1    0    0    0  501 -0.00000000000E+00 -0.00000000000E+00 -0.53330769771E+01  0.53330769771E+01  0.00000000000E+00 0. -1.
          1    1    1    2  502    0  0.12768016668E+02 -0.15823522691E+02  0.89364943291E+02  0.91648781822E+02  0.00000000000E+00 0.  1.
         -1    1    1    2    0  501 -0.12768016668E+02  0.15823522691E+02  0.20468265077E+02  0.28850580501E+02  0.00000000000E+00 0. -1.
</event>
<event>
 4    1  0.6729064E+001  0.2082178E+02  0.7546771E-02  0.1521825E+00
          2   -1    0    0  502    0  0.00000000000E+00  0.00000000000E+00  0.12560956472E+04  0.12560956472E+04  0.00000000000E+00 0. -1.
         -2   -1    0    0    0  501 -0.00000000000E+00 -0.00000000000E+00 -0.34749220492E+00  0.34749220492E+00  0.00000000000E+00 0.  1.
          1    1    1    2  502    0  0.16939472790E+02  0.12107873159E+02  0.57634060060E+03  0.57671659785E+03  0.00000000000E+00 0.  1.
         -1    1    1    2    0  501 -0.16939472790E+02 -0.12107873159E+02  0.67940755439E+03  0.67972654155E+03  0.00000000000E+00 0. -1.
</event>
<event>
 4    1  0.6729064E+001  0.2264185E+02  0.7546771E-02  0.1497045E+00
          2   -1    0    0  502    0  0.00000000000E+00  0.00000000000E+00  0.48065718675E+02  0.48065718675E+02  0.00000000000E+00 0.  1.
         -2   -1    0    0    0  501 -0.00000000000E+00 -0.00000000000E+00 -0.10711294310E+02  0.10711294310E+02  0.00000000000E+00 0. -1.
          1    1    1    2  502    0 -0.14475998964E+02  0.17409728058E+02  0.20595202642E+02  0.30607442705E+02  0.00000000000E+00 0. -1.
         -1    1    1    2    0  501  0.14475998964E+02 -0.17409728058E+02  0.16759221723E+02  0.28169570281E+02  0.00000000000E+00 0.  1.
</event>
<event>
 4    1  0.6729064E+001  0.2776319E+02  0.7546771E-02  0.1440089E+00
          2   -1    0    0  502    0  0.00000000000E+00  0.00000000000E+00  0.37131898385E+01  0.37131898385E+01  0.00000000000E+00 0.  1.
         -2   -1    0    0    0  501 -0.00000000000E+00 -0.00000000000E+00 -0.20769388787E+03  0.20769388787E+03  0.00000000000E+00 0. -1.
          1    1    1    2  502    0 -0.20780428257E+02 -0.18411093754E+02 -0.10443429074E+03  0.10806162896E+03  0.00000000000E+00 0.  1.
         -1    1    1    2    0  501  0.20780428257E+02  0.18411093754E+02 -0.99546407292E+02  0.10334544875E+03  0.00000000000E+00 0. -1.
</event>
<event>
 4    1  0.6729064E+001  0.9183873E+02  0.7546771E-02  0.1178754E+00
          2   -1    0    0  502    0  0.00000000000E+00  0.00000000000E+00  0.65457890059E+02  0.65457890059E+02  0.00000000000E+00 0. -1.
         -2   -1    0    0    0  501 -0.00000000000E+00 -0.00000000000E+00 -0.12923398832E+03  0.12923398832E+03  0.00000000000E+00 0.  1.
          1    1    1    2  502    0 -0.55785613145E+02  0.72954214135E+02 -0.37183439972E+02  0.99080574293E+02  0.00000000000E+00 0.  1.
         -1    1    1    2    0  501  0.55785613145E+02 -0.72954214135E+02 -0.26592658287E+02  0.95611304085E+02  0.00000000000E+00 0. -1.
</event>
<event>
 4    1  0.6729064E+001  0.2377698E+02  0.7546771E-02  0.1482965E+00
          2   -1    0    0  502    0  0.00000000000E+00  0.00000000000E+00  0.85080832213E+01  0.85080832213E+01  0.00000000000E+00 0. -1.
         -2   -1    0    0    0  501 -0.00000000000E+00 -0.00000000000E+00 -0.78468049756E+02  0.78468049756E+02  0.00000000000E+00 0.  1.
          1    1    1    2  502    0 -0.23288685323E+02  0.47939241730E+01 -0.17959262354E+02  0.29797309902E+02  0.00000000000E+00 0. -1.
         -1    1    1    2    0  501  0.23288685323E+02 -0.47939241730E+01 -0.52000704180E+02  0.57178823076E+02  0.00000000000E+00 0.  1.
</event>
<event>
 4    1  0.6729064E+001  0.2205840E+02  0.7546771E-02  0.1504673E+00
          2   -1    0    0  502    0  0.00000000000E+00  0.00000000000E+00  0.83002749551E+03  0.83002749551E+03  0.00000000000E+00 0. -1.
         -2   -1    0    0    0  501 -0.00000000000E+00 -0.00000000000E+00 -0.65212042642E+00  0.65212042642E+00  0.00000000000E+00 0.  1.
          1    1    1    2  502    0 -0.15667833027E+02  0.15527135675E+02  0.54672805678E+03  0.54717286208E+03  0.00000000000E+00 0. -1.
         -1    1    1    2    0  501  0.15667833027E+02 -0.15527135675E+02  0.28264731831E+03  0.28350675386E+03  0.00000000000E+00 0.  1.
</event>
<event>
 4    1  0.6729064E+001  0.2352865E+02  0.7546771E-02  0.1485964E+00
          2   -1    0    0  502    0  0.00000000000E+00  0.00000000000E+00  0.17760591398E+04  0.17760591398E+04  0.00000000000E+00 0.  1.
         -2   -1    0    0    0  501 -0.00000000000E+00 -0.00000000000E+00 -0.58588664432E+00  0.58588664432E+00  0.00000000000E+00 0. -1.
          1    1    1    2  502    0 -0.27995593497E+01 -0.23361505133E+02  0.14954336343E+04  0.14956187188E+04  0.00000000000E+00 0.  1.
         -1    1    1    2    0  501  0.27995593497E+01  0.23361505133E+02  0.28003961888E+03  0.28102630766E+03  0.00000000000E+00 0. -1.
</event>
<event>
 4    1  0.6729064E+001  0.2015214E+02  0.7546771E-02  0.1531723E+00
          2   -1    0    0  502    0  0.00000000000E+00  0.00000000000E+00  0.15721975051E+02  0.15721975051E+02  0.00000000000E+00 0. -1.
         -2   -1    0    0    0  501 -0.00000000000E+00 -0.00000000000E+00 -0.42611875318E+02  0.42611875318E+02  0.00000000000E+00 0.  1.
          1    1    1    2  502    0 -0.17368695086E+02 -0.10219450821E+02  0.48586800659E+01  0.20729580702E+02  0.00000000000E+00 0. -1.
         -1    1    1    2    0  501  0.17368695086E+02  0.10219450821E+02 -0.31748580333E+02  0.37604269668E+02  0.00000000000E+00 0.  1.
</event>
<event>
 4    1  0.6729064E+001  0.4477209E+02  0.7546771E-02  0.1322583E+00
          2   -1    0    0  502    0  0.00000000000E+00  0.00000000000E+00  0.12597252211E+03  0.12597252211E+03  0.00000000000E+00 0.  1.
         -2   -1    0    0    0  501 -0.00000000000E+00 -0.00000000000E+00 -0.24504697666E+02  0.24504697666E+02  0.00000000000E+00 0. -1.
          1    1    1    2  502    0  0.29097282163E+02 -0.34027760089E+02  0.95285964160E+02  0.10528036499E+03  0.00000000000E+00 0.  1.
         -1    1    1    2    0  501 -0.29097282163E+02  0.34027760089E+02  0.61818602798E+01  0.45196854785E+02  0.00000000000E+00 0. -1.
</event>
<event>
 4    1  0.6729064E+001  0.2465637E+02  0.7546771E-02  0.1472684E+00
          2   -1    0    0  502    0  0.00000000000E+00  0.00000000000E+00  0.47118414234E+01  0.47118414234E+01  0.00000000000E+00 0.  1.
         -2   -1    0    0    0  501 -0.00000000000E+00 -0.00000000000E+00 -0.17175975049E+03  0.17175975049E+03  0.00000000000E+00 0. -1.
          1    1    1    2  502    0  0.23720614188E+02  0.67282178209E+01 -0.39510619519E+02  0.46572797932E+02  0.00000000000E+00 0.  1.
         -1    1    1    2    0  501 -0.23720614188E+02 -0.67282178209E+01 -0.12753728955E+03  0.12989879398E+03  0.00000000000E+00 0. -1.
</event>
<event>
 4    1  0.6729064E+001  0.3619810E+02  0.7546771E-02  0.1372330E+00
          2   -1    0    0  502    0  0.00000000000E+00  0.00000000000E+00  0.19911142840E+03  0.19911142840E+03  0.00000000000E+00 0. -1.
         -2   -1    0    0    0  501 -0.00000000000E+00 -0.00000000000E+00 -0.79312950513E+01  0.79312950513E+01  0.00000000000E+00 0.  1.
          1    1    1    2  502    0 -0.16808362897E+01 -0.36159050025E+02  0.52871880658E+02  0.64076031975E+02  0.00000000000E+00 0.  1.
         -1    1    1    2    0  501  0.16808362897E+01  0.36159050025E+02  0.13830825269E+03  0.14296669147E+03  0.00000000000E+00 0. -1.
</event>
<event>
 4    1  0.6729064E+001  0.2466009E+02  0.7546771E-02  0.1472642E+00
          2   -1    0    0  502    0  0.00000000000E+00  0.00000000000E+00  0.83921948817E+02  0.83921948817E+02  0.00000000000E+00 0.  1.
         -2   -1    0    0    0  501 -0.00000000000E+00 -0.00000000000E+00 -0.10078766475E+02  0.10078766475E+02  0.00000000000E+00 0. -1.
          1    1    1    2  502    0  0.41041521425E+01  0.24316168683E+02  0.61837862515E+02  0.66573578578E+02  0.00000000000E+00 0.  1.
         -1    1    1    2    0  501 -0.41041521425E+01 -0.24316168683E+02  0.12005319827E+02  0.27427136715E+02  0.00000000000E+00 0. -1.
</event>
<event>
 4    1  0.6729064E+001  0.2472145E+02  0.7546771E-02  0.1471944E+00
          2   -1    0    0  502    0  0.00000000000E+00  0.00000000000E+00  0.10325609064E+04  0.10325609064E+04  0.00000000000E+00 0.  1.
         -2   -1    0    0    0  501 -0.00000000000E+00 -0.00000000000E+00 -0.61623612800E+00  0.61623612800E+00  0.00000000000E+00 0. -1.
          1    1    1    2  502    0  0.72922622435E+01 -0.23621448061E+02  0.41326657892E+03  0.41400533227E+03  0.00000000000E+00 0.  1.
         -1    1    1    2    0  501 -0.72922622435E+01  0.23621448061E+02  0.61867809130E+03  0.61917181021E+03  0.00000000000E+00 0. -1.
</event>
<event>
 4    1  0.6729064E+001  0.2103512E+02  0.7546771E-02  0.1518764E+00
          2   -1    0    0  502    0  0.00000000000E+00  0.00000000000E+00  0.65563251064E+01  0.65563251064E+01  0.00000000000E+00 0. -1.
         -2   -1    0    0    0  501 -0.00000000000E+00 -0.00000000000E+00 -0.16455209067E+03  0.16455209067E+03  0.00000000000E+00 0.  1.
          1    1    1    2  502    0 -0.96366586098E+01 -0.18697891511E+02 -0.14470583323E+03  0.14622672296E+03  0.00000000000E+00 0.  1.
         -1    1    1    2    0  501  0.96366586098E+01  0.18697891511E+02 -0.13289932335E+02  0.24881692820E+02  0.00000000000E+00 0. -1.
</event>
<event>
 4    1  0.6729064E+001  0.2476500E+02  0.7546771E-02  0.1471450E+00
          2   -1    0    0  502    0  0.00000000000E+00  0.00000000000E+00  0.22099586109E+04  0.22099586109E+04  0.00000000000E+00 0. -1.
         -2   -1    0    0    0  501 -0.00000000000E+00 -0.00000000000E+00 -0.28710653259E+00  0.28710653259E+00  0.00000000000E+00 0.  1.
          1    1    1    2  502    0  0.12415094552E+02  0.21428262634E+02  0.13067874406E+04  0.13070220809E+04  0.00000000000E+00 0. -1.
         -1    1    1    2    0  501 -0.12415094552E+02 -0.21428262634E+02  0.90288406373E+03  0.90322363651E+03  0.00000000000E+00 0.  1.
</event>
<event>
 4    1  0.6729064E+001  0.3342801E+02  0.7546771E-02  0.1391965E+00
          2   -1    0    0  502    0  0.00000000000E+00  0.00000000000E+00  0.15140340852E+04  0.15140340852E+04  0.00000000000E+00 0.  1.
         -2   -1    0    0    0  501 -0.00000000000E+00 -0.00000000000E+00 -0.79191305886E+00  0.79191305886E+00  0.00000000000E+00 0. -1.
          1    1    1    2  502    0 -0.32783795154E+02 -0.65310618841E+01  0.55908711005E+03  0.56008555473E+03  0.00000000000E+00 0.  1.
         -1    1    1    2    0  501  0.32783795154E+02  0.65310618841E+01  0.95415506210E+03  0.95474044353E+03  0.00000000000E+00 0. -1.
</event>
<event>
 4    1  0.6729064E+001  0.2388678E+02  0.7546771E-02  0.1481653E+00
          2   -1    0    0  502    0  0.00000000000E+00  0.00000000000E+00  0.54291122667E+03  0.54291122667E+03  0.00000000000E+00 0. -1.
         -2   -1    0    0    0  501 -0.00000000000E+00 -0.00000000000E+00 -0.10703728193E+01  0.10703728193E+01  0.00000000000E+00 0.  1.
          1    1    1    2  502    0  0.27914856704E+01 -0.23723104328E+02  0.30754977266E+03  0.30847599702E+03  0.00000000000E+00 0.  1.
         -1    1    1    2    0  501 -0.27914856704E+01  0.23723104328E+02  0.23429108118E+03  0.23550560247E+03  0.00000000000E+00 0. -1.
</event>
<event>
 4    1  0.6729064E+001  0.2556163E+02  0.7546771E-02  0.1462618E+00
          2   -1    0    0  502    0  0.00000000000E+00  0.00000000000E+00  0.64690129846E+01  0.64690129846E+01  0.00000000000E+00 0. -1.
         -2   -1    0    0    0  501 -0.00000000000E+00 -0.00000000000E+00 -0.11680197642E+03  0.11680197642E+03  0.00000000000E+00 0.  1.
          1    1    1    2  502    0 -0.23967459713E+02  0.88858124465E+01 -0.32498897125E+02  0.41347008383E+02  0.00000000000E+00 0. -1.
         -1    1    1    2    0  501  0.23967459713E+02 -0.88858124465E+01 -0.77834066311E+02  0.81923981022E+02  0.00000000000E+00 0.  1.
</event>
<event>
 4    1  0.6729064E+001  0.2536352E+02  0.7546771E-02  0.1464777E+00
          2   -1    0    0  502    0  0.00000000000E+00  0.00000000000E+00  0.43970472194E+03  0.43970472194E+03  0.00000000000E+00 0. -1.
         -2   -1    0    0    0  501 -0.00000000000E+00 -0.00000000000E+00 -0.28364876747E+01  0.28364876747E+01  0.00000000000E+00 0.  1.
          1    1    1    2  502    0 -0.66620093051E+01  0.24472965126E+02  0.64463330978E+02  0.69273583932E+02  0.00000000000E+00 0.  1.
         -1    1    1    2    0  501  0.66620093051E+01 -0.24472965126E+02  0.37240490328E+03  0.37326762568E+03  0.00000000000E+00 0. -1.
</event>
<event>
 4    1  0.6729064E+001  0.2103945E+02  0.7546771E-02  0.1518702E+00
          2   -1    0    0  502    0  0.00000000000E+00  0.00000000000E+00  0.35023020427E+03  0.35023020427E+03  0.00000000000E+00 0. -1.
         -2   -1    0    0    0  501 -0.00000000000E+00 -0.00000000000E+00 -0.21989185475E+01  0.21989185475E+01  0.00000000000E+00 0.  1.
          1    1    1    2  502    0  0.10015578872E+02  0.18502614384E+02  0.28892241056E+03  0.28968744861E+03  0.00000000000E+00 0. -1.
         -1    1    1    2    0  501 -0.10015578872E+02 -0.18502614384E+02  0.59108875158E+02  0.62741674201E+02  0.00000000000E+00 0.  1.
</event>
<event>
 4    1  0.6729064E+001  0.2140324E+02  0.7546771E-02  0.1513585E+00
          2   -1    0    0  502    0  0.00000000000E+00  0.00000000000E+00  0.63892114274E+03  0.63892114274E+03  0.00000000000E+00 0.  1.
         -2   -1    0    0    0  501 -0.00000000000E+00 -0.00000000000E+00 -0.12627822144E+01  0.12627822144E+01  0.00000000000E+00 0. -1.
          1    1    1    2  502    0  0.15210960450E+02 -0.15057401332E+02  0.52926762899E+03  0.52970021875E+03  0.00000000000E+00 0.  1.
         -1    1    1    2    0  501 -0.15210960450E+02  0.15057401332E+02  0.10839073154E+03  0.11048370620E+03  0.00000000000E+00 0. -1.
</event>
<event>
 4    1  0.6729064E+001  0.2206378E+02  0.7546771E-02  0.1504601E+00
          2   -1    0    0  502    0  0.00000000000E+00  0.00000000000E+00  0.13277961169E+02  0.13277961169E+02  0.00000000000E+00 0.  1.
         -2   -1    0    0    0  501 -0.00000000000E+00 -0.00000000000E+00 -0.46756996483E+02  0.46756996483E+02  0.00000000000E+00 0. -1.
          1    1    1    2  502    0 -0.18028073337E+02  0.12720022558E+02 -0.27924902125E+01  0.22239793248E+02  0.00000000000E+00 0.  1.
         -1    1    1    2    0  501  0.18028073337E+02 -0.12720022558E+02 -0.30686545101E+02  0.37795164405E+02  0.00000000000E+00 0. -1.
</event>
<event>
 4    1  0.6729064E+001  0.3164044E+02  0.7546771E-02  0.1405857E+00
          2   -1    0    0  502    0  0.00000000000E+00  0.00000000000E+00  0.67981019899E+03  0.67981019899E+03  0.00000000000E+00 0. -1.
         -2   -1    0    0    0  501 -0.00000000000E+00 -0.00000000000E+00 -0.32420410577E+01  0.32420410577E+01  0.00000000000E+00 0.  1.
          1    1    1    2  502    0  0.52358551202E+01  0.31204214501E+02  0.85978100553E+02  0.91615233210E+02  0.00000000000E+00 0.  1.
         -1    1    1    2    0  501 -0.52358551202E+01 -0.31204214501E+02  0.59059005738E+03  0.59143700684E+03  0.00000000000E+00 0. -1.
</event>
<event>
 4    1  0.6729064E+001  0.2577130E+02  0.7546771E-02  0.1460357E+00
          2   -1    0    0  502    0  0.00000000000E+00  0.00000000000E+00  0.96012186957E+03  0.96012186957E+03  0.00000000000E+00 0. -1.
         -2   -1    0    0    0  501 -0.00000000000E+00 -0.00000000000E+00 -0.13400609356E+01  0.13400609356E+01  0.00000000000E+00 0.  1.
          1    1    1    2  502    0  0.22934531436E+02 -0.11754461726E+02  0.14501654855E+03  0.14728869425E+03  0.00000000000E+00 0.  1.
         -1    1    1    2    0  501 -0.22934531436E+02  0.11754461726E+02  0.81376526009E+03  0.81417323625E+03  0.00000000000E+00 0. -1.
</event>
<event>
 4    1  0.6729064E+001  0.3524487E+02  0.7546771E-02  0.1378850E+00
          2   -1    0    0  502    0  0.00000000000E+00  0.00000000000E+00  0.20159369444E+03  0.20159369444E+03  0.00000000000E+00 0.  1.
         -2   -1    0    0    0  501 -0.00000000000E+00 -0.00000000000E+00 -0.69243944317E+01  0.69243944317E+01  0.00000000000E+00 0. -1.
          1    1    1    2  502    0 -0.21712134267E+02 -0.27763003766E+02  0.62737540718E+02  0.71959712117E+02  0.00000000000E+00 0. -1.
         -1    1    1    2    0  501  0.21712134267E+02  0.27763003766E+02  0.13193175929E+03  0.13655837675E+03  0.00000000000E+00 0.  1.
</event>
<event>
 4    1  0.6729064E+001  0.2270124E+02  0.7546771E-02  0.1496284E+00
          2   -1    0    0  502    0  0.00000000000E+00  0.00000000000E+00  0.19623412401E+03  0.19623412401E+03  0.00000000000E+00 0. -1.
         -2   -1    0    0    0  501 -0.00000000000E+00 -0.00000000000E+00 -0.41810456343E+01  0.41810456343E+01  0.00000000000E+00 0.  1.
          1    1    1    2  502    0  0.22628311168E+02 -0.18182565041E+01  0.15713541512E+03  0.15876676355E+03  0.00000000000E+00 0. -1.
         -1    1    1    2    0  501 -0.22628311168E+02  0.18182565041E+01  0.34917663256E+02  0.41648406095E+02  0.00000000000E+00 0.  1.
</event>
<event>
 4    1  0.6729064E+001  0.2696428E+02  0.7546771E-02  0.1447967E+00
          2   -1    0    0  502    0  0.00000000000E+00  0.00000000000E+00  0.30548585252E+03  0.30548585252E+03  0.00000000000E+00 0.  1.
         -2   -1    0    0    0  501 -0.00000000000E+00 -0.00000000000E+00 -0.32827756515E+01  0.32827756515E+01  0.00000000000E+00 0. -1.
          1    1    1    2  502    0 -0.19326138291E+02  0.18803531270E+02  0.70143527814E+02  0.75147767124E+02  0.00000000000E+00 0. -1.
         -1    1    1    2    0  501  0.19326138291E+02 -0.18803531270E+02  0.23205954906E+03  0.23362086105E+03  0.00000000000E+00 0.  1.
</event>
<event>
 4    1  0.6729064E+001  0.2471209E+02  0.7546771E-02  0.1472050E+00
          2   -1    0    0  502    0  0.00000000000E+00  0.00000000000E+00  0.53889319138E+03  0.53889319138E+03  0.00000000000E+00 0. -1.
         -2   -1    0    0    0  501 -0.00000000000E+00 -0.00000000000E+00 -0.14503393306E+01  0.14503393306E+01  0.00000000000E+00 0.  1.
          1    1    1    2  502    0 -0.14001921845E+02 -0.20362547610E+02  0.39505337014E+03  0.39582553281E+03  0.00000000000E+00 0. -1.
         -1    1    1    2    0  501  0.14001921845E+02  0.20362547610E+02  0.14238948191E+03  0.14451799791E+03  0.00000000000E+00 0.  1.
</event>
<event>
 4    1  0.6729064E+001  0.2691340E+02  0.7546771E-02  0.1448480E+00
          2   -1    0    0  502    0  0.00000000000E+00  0.00000000000E+00  0.16365939060E+03  0.16365939060E+03  0.00000000000E+00 0.  1.
         -2   -1    0    0    0  501 -0.00000000000E+00 -0.00000000000E+00 -0.46947796509E+01  0.46947796509E+01  0.00000000000E+00 0. -1.
          1    1    1    2  502    0  0.16275491817E+00 -0.26912906018E+02  0.59335317300E+02  0.65153748001E+02  0.00000000000E+00 0.  1.
         -1    1    1    2    0  501 -0.16275491817E+00  0.26912906018E+02  0.99629293645E+02  0.10320042225E+03  0.00000000000E+00 0. -1.
</event>
<event>
 4    1  0.6729064E+001  0.2100854E+02  0.7546771E-02  0.1519143E+00
          2   -1    0    0  502    0  0.00000000000E+00  0.00000000000E+00  0.20702975528E+04  0.20702975528E+04  0.00000000000E+00 0.  1.
         -2   -1    0    0    0  501 -0.00000000000E+00 -0.00000000000E+00 -0.26269719367E+00  0.26269719367E+00  0.00000000000E+00 0. -1.
          1    1    1    2  502    0 -0.14479594136E+02  0.15221698741E+02  0.14844672498E+04  0.14846159013E+04  0.00000000000E+00 0. -1.
         -1    1    1    2    0  501  0.14479594136E+02 -0.15221698741E+02  0.58556760585E+03  0.58594434871E+03  0.00000000000E+00 0.  1.
</event>
<event>
 4    1  0.6729064E+001  0.2307629E+02  0.7546771E-02  0.1491542E+00
          2   -1    0    0  502    0  0.00000000000E+00  0.00000000000E+00  0.14302881448E+03  0.14302881448E+03  0.00000000000E+00 0.  1.
         -2   -1    0    0    0  501 -0.00000000000E+00 -0.00000000000E+00 -0.37297195747E+01  0.37297195747E+01  0.00000000000E+00 0. -1.
          1    1    1    2  502    0  0.23037514899E+02  0.13372173176E+01  0.72733289635E+02  0.76306268838E+02  0.00000000000E+00 0. -1.
         -1    1    1    2    0  501 -0.23037514899E+02 -0.13372173176E+01  0.66565805274E+02  0.70452265220E+02  0.00000000000E+00 0.  1.
</event>
<event>
 4    1  0.6729064E+001  0.2313785E+02  0.7546771E-02  0.1490774E+00
          2   -1    0    0  502    0  0.00000000000E+00  0.00000000000E+00  0.75921834888E+02  0.75921834888E+02  0.00000000000E+00 0. -1.
         -2   -1    0    0    0  501 -0.00000000000E+00 -0.00000000000E+00 -0.84066763316E+01  0.84066763316E+01  0.00000000000E+00 0.  1.
          1    1    1    2  502    0 -0.13121176235E+02  0.19057665288E+02  0.16828380786E+02  0.28610387483E+02  0.00000000000E+00 0.  1.
         -1    1    1    2    0  501  0.13121176235E+02 -0.19057665288E+02  0.50686777770E+02  0.55718123737E+02  0.00000000000E+00 0. -1.
</event>
<event>
 4    1  0.6729064E+001  0.2114313E+02  0.7546771E-02  0.1517231E+00
          2   -1    0    0  502    0  0.00000000000E+00  0.00000000000E+00  0.99410630011E+03  0.99410630011E+03  0.00000000000E+00 0. -1.
         -2   -1    0    0    0  501 -0.00000000000E+00 -0.00000000000E+00 -0.52861614271E+00  0.52861614271E+00  0.00000000000E+00 0.  1.
          1    1    1    2  502    0 -0.14785084552E+02 -0.15114013614E+02  0.68896290442E+03  0.68928725202E+03  0.00000000000E+00 0. -1.
         -1    1    1    2    0  501  0.14785084552E+02  0.15114013614E+02  0.30461477955E+03  0.30534766424E+03  0.00000000000E+00 0.  1.
</event>
<event>
 4    1  0.6729064E+001  0.2208244E+02  0.7546771E-02  0.1504353E+00
          2   -1    0    0  502    0  0.00000000000E+00  0.00000000000E+00  0.73240101111E+01  0.73240101111E+01  0.00000000000E+00 0. -1.
         -2   -1    0    0    0  501 -0.00000000000E+00 -0.00000000000E+00 -0.72145087837E+02  0.72145087837E+02  0.00000000000E+00 0.  1.
          1    1    1    2  502    0 -0.20903976357E+02  0.71174237495E+01 -0.21374996147E+02  0.30733115831E+02  0.00000000000E+00 0. -1.
         -1    1    1    2    0  501  0.20903976357E+02 -0.71174237495E+01 -0.43446081579E+02  0.48735982117E+02  0.00000000000E+00 0.  1.
</event>
<event>
 4    1  0.6729064E+001  0.2652439E+02  0.7546771E-02  0.1452445E+00
          2   -1    0    0  502    0  0.00000000000E+00  0.00000000000E+00  0.38669476457E+03  0.38669476457E+03  0.00000000000E+00 0. -1.
         -2   -1    0    0    0  501 -0.00000000000E+00 -0.00000000000E+00 -0.18198442081E+01  0.18198442081E+01  0.00000000000E+00 0.  1.
          1    1    1    2  502    0 -0.21096795491E+02  0.16076954967E+02  0.19555258374E+03  0.19734324480E+03  0.00000000000E+00 0. -1.
         -1    1    1    2    0  501  0.21096795491E+02 -0.16076954967E+02  0.18932233662E+03  0.19117136398E+03  0.00000000000E+00 0.  1.
</event>
<event>
 4    1  0.6729064E+001  0.2318811E+02  0.7546771E-02  0.1490149E+00
          2   -1    0    0  502    0  0.00000000000E+00  0.00000000000E+00  0.57157788859E+03  0.57157788859E+03  0.00000000000E+00 0. -1.
         -2   -1    0    0    0  501 -0.00000000000E+00 -0.00000000000E+00 -0.10602448610E+01  0.10602448610E+01  0.00000000000E+00 0.  1.
          1    1    1    2  502    0 -0.10999507536E+02  0.20413214375E+02  0.18912057125E+03  0.19053681785E+03  0.00000000000E+00 0.  1.
         -1    1    1    2    0  501  0.10999507536E+02 -0.20413214375E+02  0.38139707248E+03  0.38210131560E+03  0.00000000000E+00 0. -1.
</event>
<event>
 4    1  0.6729064E+001  0.2934785E+02  0.7546771E-02  0.1425350E+00
          2   -1    0    0  502    0  0.00000000000E+00  0.00000000000E+00  0.72810277871E+02  0.72810277871E+02  0.00000000000E+00 0. -1.
         -2   -1    0    0    0  501 -0.00000000000E+00 -0.00000000000E+00 -0.13134368809E+02  0.13134368809E+02  0.00000000000E+00 0.  1.
          1    1    1    2  502    0 -0.12597250249E+02 -0.26506707664E+02  0.43383521174E+02  0.52377725938E+02  0.00000000000E+00 0. -1.
         -1    1    1    2    0  501  0.12597250249E+02  0.26506707664E+02  0.16292387888E+02  0.33566920742E+02  0.00000000000E+00 0.  1.
</event>
<event>
 4    1  0.6729064E+001  0.2287980E+02  0.7546771E-02  0.1494013E+00
          2   -1    0    0  502    0  0.00000000000E+00  0.00000000000E+00  0.30825762607E+03  0.30825762607E+03  0.00000000000E+00 0.  1.
         -2   -1    0    0    0  501 -0.00000000000E+00 -0.00000000000E+00 -0.23406471255E+01  0.23406471255E+01  0.00000000000E+00 0. -1.
          1    1    1    2  502    0 -0.20459066655E+02 -0.10242639704E+02  0.23431973670E+03  0.23543411835E+03  0.00000000000E+00 0.  1.
         -1    1    1    2    0  501  0.20459066655E+02  0.10242639704E+02  0.71597242249E+02  0.75164154849E+02  0.00000000000E+00 0. -1.
</event>
<event>
 4    1  0.6729064E+001  0.3599419E+02  0.7546771E-02  0.1373705E+00
          2   -1    0    0  502    0  0.00000000000E+00  0.00000000000E+00  0.43416671252E+03  0.43416671252E+03  0.00000000000E+00 0.  1.
         -2   -1    0    0    0  501 -0.00000000000E+00 -0.00000000000E+00 -0.35401354011E+01  0.35401354011E+01  0.00000000000E+00 0. -1.
          1    1    1    2  502    0 -0.22606338612E+02 -0.28009550564E+02  0.12857546935E+03  0.13351866082E+03  0.00000000000E+00 0. -1.
         -1    1    1    2    0  501  0.22606338612E+02  0.28009550564E+02  0.30205110777E+03  0.30418818711E+03  0.00000000000E+00 0.  1.
</event>
<event>
 4    1  0.6729064E+001  0.3078772E+02  0.7546771E-02  0.1412872E+00
          2   -1    0    0  502    0  0.00000000000E+00  0.00000000000E+00  0.68490477149E+02  0.68490477149E+02  0.00000000000E+00 0. -1.
         -2   -1    0    0    0  501 -0.00000000000E+00 -0.00000000000E+00 -0.27497652554E+02  0.27497652554E+02  0.00000000000E+00 0.  1.
          1    1    1    2  502    0  0.30255813567E+02 -0.56982235510E+01 -0.13328242355E+02  0.33548860644E+02  0.00000000000E+00 0.  1.
         -1    1    1    2    0  501 -0.30255813567E+02  0.56982235510E+01  0.54321066950E+02  0.62439269060E+02  0.00000000000E+00 0. -1.
</event>
<event>
 4    1  0.6729064E+001  0.3313525E+02  0.7546771E-02  0.1394169E+00
          2   -1    0    0  502    0  0.00000000000E+00  0.00000000000E+00  0.13046007003E+04  0.13046007003E+04  0.00000000000E+00 0.  1.
         -2   -1    0    0    0  501 -0.00000000000E+00 -0.00000000000E+00 -0.87525961293E+00  0.87525961293E+00  0.00000000000E+00 0. -1.
          1    1    1    2  502    0  0.18589180121E+02  0.27429676268E+02  0.52384780981E+03  0.52489472525E+03  0.00000000000E+00 0. -1.
         -1    1    1    2    0  501 -0.18589180121E+02 -0.27429676268E+02  0.77987763085E+03  0.78058123463E+03  0.00000000000E+00 0.  1.
</event>
<event>
 4    1  0.6729064E+001  0.2564116E+02  0.7546771E-02  0.1461757E+00
          2   -1    0    0  502    0  0.00000000000E+00  0.00000000000E+00  0.48710318822E+00  0.48710318822E+00  0.00000000000E+00 0. -1.
         -2   -1    0    0    0  501 -0.00000000000E+00 -0.00000000000E+00 -0.13710844379E+04  0.13710844379E+04  0.00000000000E+00 0.  1.
          1    1    1    2  502    0  0.10503819201E+02  0.23390995819E+02 -0.59975886558E+03  0.60030672639E+03  0.00000000000E+00 0. -1.
         -1    1    1    2    0  501 -0.10503819201E+02 -0.23390995819E+02 -0.77083846911E+03  0.77126481468E+03  0.00000000000E+00 0.  1.
</event>
<event>
 4    1  0.6729064E+001  0.2038534E+02  0.7546771E-02  0.1528224E+00
          2   -1    0    0  502    0  0.00000000000E+00  0.00000000000E+00  0.82811751599E+00  0.82811751599E+00  0.00000000000E+00 0. -1.
         -2   -1    0    0    0  501 -0.00000000000E+00 -0.00000000000E+00 -0.50200893889E+03  0.50200893889E+03  0.00000000000E+00 0.  1.
          1    1    1    2  502    0 -0.20329421677E+02  0.15089207951E+01 -0.24565545633E+03  0.24649982850E+03  0.00000000000E+00 0. -1.
         -1    1    1    2    0  501  0.20329421677E+02 -0.15089207951E+01 -0.25552536504E+03  0.25633722790E+03  0.00000000000E+00 0.  1.
</event>
<event>
 4    1  0.6729064E+001  0.2855910E+02  0.7546771E-02  0.1432545E+00
          2   -1    0    0  502    0  0.00000000000E+00  0.00000000000E+00  0.27334272946E+03  0.27334272946E+03  0.00000000000E+00 0.  1.
         -2   -1    0    0    0  501 -0.00000000000E+00 -0.00000000000E+00 -0.19094570314E+02  0.19094570314E+02  0.00000000000E+00 0. -1.
          1    1    1    2  502    0  0.15694968664E+02  0.23859804209E+02 -0.71848475454E+01  0.29449012420E+02  0.00000000000E+00 0. -1.
         -1    1    1    2    0  501 -0.15694968664E+02 -0.23859804209E+02  0.26143300669E+03  0.26298828735E+03  0.00000000000E+00 0.  1.
</event>
<event>
 4    1  0.6729064E+001  0.2143741E+02  0.7546771E-02  0.1513111E+00
          2   -1    0    0  502    0  0.00000000000E+00  0.00000000000E+00  0.35633588293E+02  0.35633588293E+02  0.00000000000E+00 0.  1.
         -2   -1    0    0    0  501 -0.00000000000E+00 -0.00000000000E+00 -0.16539677315E+02  0.16539677315E+02  0.00000000000E+00 0. -1.
          1    1    1    2  502    0  0.21343961542E+02 -0.19994364272E+01 -0.26955826012E+01  0.21606216834E+02  0.00000000000E+00 0. -1.
         -1    1    1    2    0  501 -0.21343961542E+02  0.19994364272E+01  0.21789493580E+02  0.30567048774E+02  0.00000000000E+00 0.  1.
</event>
<event>
 4    1  0.6729064E+001  0.2583779E+02  0.7546771E-02  0.1459645E+00
          2   -1    0    0  502    0  0.00000000000E+00  0.00000000000E+00  0.18442987169E+02  0.18442987169E+02  0.00000000000E+00 0.  1.
         -2   -1    0    0    0  501 -0.00000000000E+00 -0.00000000000E+00 -0.36257207348E+02  0.36257207348E+02  0.00000000000E+00 0. -1.
          1    1    1    2  502    0  0.25472062502E+02  0.43318786094E+01 -0.77977919146E+01  0.26988825449E+02  0.00000000000E+00 0.  1.
         -1    1    1    2    0  501 -0.25472062502E+02 -0.43318786094E+01 -0.10016428265E+02  0.27711369067E+02  0.00000000000E+00 0. -1.
</event>
<event>
 4    1  0.6729064E+001  0.2447044E+02  0.7546771E-02  0.1474816E+00
          2   -1    0    0  502    0  0.00000000000E+00  0.00000000000E+00  0.12041328913E+04  0.12041328913E+04  0.00000000000E+00 0. -1.
         -2   -1    0    0    0  501 -0.00000000000E+00 -0.00000000000E+00 -0.70315053998E+00  0.70315053998E+00  0.00000000000E+00 0.  1.
          1    1    1    2  502    0  0.11357307479E+02  0.21675189972E+02  0.27575721483E+03  0.27684082760E+03  0.00000000000E+00 0.  1.
         -1    1    1    2    0  501 -0.11357307479E+02 -0.21675189972E+02  0.92767252593E+03  0.92799521425E+03  0.00000000000E+00 0. -1.
</event>
<event>
 4    1  0.6729064E+001  0.2740932E+02  0.7546771E-02  0.1443539E+00
          2   -1    0    0  502    0  0.00000000000E+00  0.00000000000E+00  0.12154799097E+03  0.12154799097E+03  0.00000000000E+00 0. -1.
         -2   -1    0    0    0  501 -0.00000000000E+00 -0.00000000000E+00 -0.65142703586E+02  0.65142703586E+02  0.00000000000E+00 0.  1.
          1    1    1    2  502    0 -0.21914507509E+02  0.16462836414E+02 -0.60603973732E+02  0.66514000438E+02  0.00000000000E+00 0.  1.
         -1    1    1    2    0  501  0.21914507509E+02 -0.16462836414E+02  0.11700926111E+03  0.12017669411E+03  0.00000000000E+00 0. -1.
</event>
<event>
 4    1  0.6729064E+001  0.3945088E+02  0.7546771E-02  0.1351734E+00
          2   -1    0    0  502    0  0.00000000000E+00  0.00000000000E+00  0.19234532413E+04  0.19234532413E+04  0.00000000000E+00 0. -1.
         -2   -1    0    0    0  501 -0.00000000000E+00 -0.00000000000E+00 -0.81027533990E+00  0.81027533990E+00  0.00000000000E+00 0.  1.
          1    1    1    2  502    0  0.35973048151E+02 -0.16196029011E+02  0.92554322520E+03  0.92638363180E+03  0.00000000000E+00 0. -1.
         -1    1    1    2    0  501 -0.35973048151E+02  0.16196029011E+02  0.99709974077E+03  0.99787988486E+03  0.00000000000E+00 0.  1.
</event>
<event>
 4    1  0.6729064E+001  0.2138821E+02  0.7546771E-02  0.1513794E+00
          2   -1    0    0  502    0  0.00000000000E+00  0.00000000000E+00  0.36174047683E+03  0.36174047683E+03  0.00000000000E+00 0.  1.
         -2   -1    0    0    0  501 -0.00000000000E+00 -0.00000000000E+00 -0.26440616541E+01  0.26440616541E+01  0.00000000000E+00 0. -1.
          1    1    1    2  502    0 -0.21194163027E+02 -0.28745191634E+01  0.47950092501E+02  0.52503969161E+02  0.00000000000E+00 0. -1.
         -1    1    1    2    0  501  0.21194163027E+02  0.28745191634E+01  0.31114632267E+03  0.31188056932E+03  0.00000000000E+00 0.  1.
</event>
<event>
 4    1  0.6729064E+001  0.2916108E+02  0.7546771E-02  0.1427029E+00
          2   -1    0    0  502    0  0.00000000000E+00  0.00000000000E+00  0.13340785921E+02  0.13340785921E+02  0.00000000000E+00 0.  1.
         -2   -1    0    0    0  501 -0.00000000000E+00 -0.00000000000E+00 -0.75619917917E+02  0.75619917917E+02  0.00000000000E+00 0. -1.
          1    1    1    2  502    0  0.20261639031E+02 -0.20972227218E+02 -0.48768267982E+02  0.56821758972E+02  0.00000000000E+00 0. -1.
         -1    1    1    2    0  501 -0.20261639031E+02  0.20972227218E+02 -0.13510864013E+02  0.32138944866E+02  0.00000000000E+00 0.  1.
</event>
<event>
 4    1  0.6729064E+001  0.2123447E+02  0.7546771E-02  0.1515943E+00
          2   -1    0    0  502    0  0.00000000000E+00  0.00000000000E+00  0.42014736261E+03  0.42014736261E+03  0.00000000000E+00 0. -1.
         -2   -1    0    0    0  501 -0.00000000000E+00 -0.00000000000E+00 -0.10819529709E+01  0.10819529709E+01  0.00000000000E+00 0.  1.
          1    1    1    2  502    0  0.34960745260E+01  0.20944691182E+02  0.22847506200E+03  0.22945970579E+03  0.00000000000E+00 0.  1.
         -1    1    1    2    0  501 -0.34960745260E+01 -0.20944691182E+02  0.19059034764E+03  0.19176960979E+03  0.00000000000E+00 0. -1.
</event>
<event>
 4    1  0.6729064E+001  0.4702079E+02  0.7546771E-02  0.1311633E+00
          2   -1    0    0  502    0  0.00000000000E+00  0.00000000000E+00  0.42693312772E+03  0.42693312772E+03  0.00000000000E+00 0.  1.
         -2   -1    0    0    0  501 -0.00000000000E+00 -0.00000000000E+00 -0.60431136113E+01  0.60431136113E+01  0.00000000000E+00 0. -1.
          1    1    1    2  502    0  0.44033237556E+02  0.16493288443E+02  0.29232293653E+03  0.29608048533E+03  0.00000000000E+00 0.  1.
         -1    1    1    2    0  501 -0.44033237556E+02 -0.16493288443E+02  0.12856707758E+03  0.13689575600E+03  0.00000000000E+00 0. -1.
</event>
<event>
 4    1  0.6729064E+001  0.2569032E+02  0.7546771E-02  0.1461227E+00
          2   -1    0    0  502    0  0.00000000000E+00  0.00000000000E+00  0.16562631875E+02  0.16562631875E+02  0.00000000000E+00 0.  1.
         -2   -1    0    0    0  501 -0.00000000000E+00 -0.00000000000E+00 -0.58922405903E+02  0.58922405903E+02  0.00000000000E+00 0. -1.
          1    1    1    2  502    0  0.24921648090E+02  0.62373198243E+01  0.29410340463E+00  0.25692006518E+02  0.00000000000E+00 0.  1.
         -1    1    1    2    0  501 -0.24921648090E+02 -0.62373198243E+01 -0.42653877433E+02  0.49793031261E+02  0.00000000000E+00 0. -1.
</event>
<event>
 4    1  0.6729064E+001  0.2807106E+02  0.7546771E-02  0.1437136E+00
          2   -1    0    0  502    0  0.00000000000E+00  0.00000000000E+00  0.22491505531E+04  0.22491505531E+04  0.00000000000E+00 0. -1.
         -2   -1    0    0    0  501 -0.00000000000E+00 -0.00000000000E+00 -0.35167502976E+00  0.35167502976E+00  0.00000000000E+00 0.  1.
          1    1    1    2  502    0  0.39316600367E+01 -0.27794355769E+02  0.10552934309E+04  0.10556667132E+04  0.00000000000E+00 0. -1.
         -1    1    1    2    0  501 -0.39316600367E+01  0.27794355769E+02  0.11935054472E+04  0.11938355149E+04  0.00000000000E+00 0.  1.
</event>
<event>
 4    1  0.6729064E+001  0.3285948E+02  0.7546771E-02  0.1396270E+00
          2   -1    0    0  502    0  0.00000000000E+00  0.00000000000E+00  0.16512379039E+03  0.16512379039E+03  0.00000000000E+00 0. -1.
         -2   -1    0    0    0  501 -0.00000000000E+00 -0.00000000000E+00 -0.15197202579E+02  0.15197202579E+02  0.00000000000E+00 0.  1.
          1    1    1    2  502    0 -0.27624025674E+02  0.17794908086E+02  0.69101528553E+01  0.33578203655E+02  0.00000000000E+00 0.  1.
         -1    1    1    2    0  501  0.27624025674E+02 -0.17794908086E+02  0.14301643495E+03  0.14674278931E+03  0.00000000000E+00 0. -1.
</event>
<event>
 4    1  0.6729064E+001  0.2309162E+02  0.7546771E-02  0.1491351E+00
          2   -1    0    0  502    0  0.00000000000E+00  0.00000000000E+00  0.55623054810E+03  0.55623054810E+03  0.00000000000E+00 0. -1.
         -2   -1    0    0    0  501 -0.00000000000E+00 -0.00000000000E+00 -0.16489580301E+01  0.16489580301E+01  0.00000000000E+00 0.  1.
          1    1    1    2  502    0 -0.21499868656E+02 -0.84248747382E+01  0.96809855715E+02  0.99525730493E+02  0.00000000000E+00 0.  1.
         -1    1    1    2    0  501  0.21499868656E+02  0.84248747382E+01  0.45777173436E+03  0.45835377564E+03  0.00000000000E+00 0. -1.
</event>
<event>
 4    1  0.6729064E+001  0.4385493E+02  0.7546771E-02  0.1327265E+00
          2   -1    0    0  502    0  0.00000000000E+00  0.00000000000E+00  0.21475973557E+04  0.21475973557E+04  0.00000000000E+00 0. -1.
         -2   -1    0    0    0  501 -0.00000000000E+00 -0.00000000000E+00 -0.35079119516E+01  0.35079119516E+01  0.00000000000E+00 0.  1.
          1    1    1    2  502    0 -0.31705651399E+02  0.30298622847E+02  0.20002093310E+04  0.20006900367E+04  0.00000000000E+00 0. -1.
         -1    1    1    2    0  501  0.31705651399E+02 -0.30298622847E+02  0.14388011277E+03  0.15041523103E+03  0.00000000000E+00 0.  1.
</event>
<event>
 4    1  0.6729064E+001  0.3241745E+02  0.7546771E-02  0.1399689E+00
          2   -1    0    0  502    0  0.00000000000E+00  0.00000000000E+00  0.28654105986E+03  0.28654105986E+03  0.00000000000E+00 0.  1.
         -2   -1    0    0    0  501 -0.00000000000E+00 -0.00000000000E+00 -0.40551137628E+01  0.40551137628E+01  0.00000000000E+00 0. -1.
          1    1    1    2  502    0  0.31095259379E+02  0.91638478774E+01  0.96321477962E+02  0.10163030247E+03  0.00000000000E+00 0.  1.
         -1    1    1    2    0  501 -0.31095259379E+02 -0.91638478774E+01  0.18616446813E+03  0.18896587115E+03  0.00000000000E+00 0. -1.
</event>
<event>
 4    1  0.6729064E+001  0.3909052E+02  0.7546771E-02  0.1353899E+00
          2   -1    0    0  502    0  0.00000000000E+00  0.00000000000E+00  0.11455793019E+02  0.11455793019E+02  0.00000000000E+00 0. -1.
         -2   -1    0    0    0  501 -0.00000000000E+00 -0.00000000000E+00 -0.13632276836E+03  0.13632276836E+03  0.00000000000E+00 0.  1.
          1    1    1    2  502    0  0.26524335949E+02  0.28714604122E+02 -0.51592693297E+02  0.64729242920E+02  0.00000000000E+00 0. -1.
         -1    1    1    2    0  501 -0.26524335949E+02 -0.28714604122E+02 -0.73274282044E+02  0.83049318459E+02  0.00000000000E+00 0.  1.
</event>
<event>
 4    1  0.6729064E+001  0.2687941E+02  0.7546771E-02  0.1448823E+00
          2   -1    0    0  502    0  0.00000000000E+00  0.00000000000E+00  0.89971024663E+00  0.89971024663E+00  0.00000000000E+00 0.  1.
         -2   -1    0    0    0  501 -0.00000000000E+00 -0.00000000000E+00 -0.88701020162E+03  0.88701020162E+03  0.00000000000E+00 0. -1.
          1    1    1    2  502    0 -0.20427714200E+02 -0.17470286599E+02 -0.30645868266E+03  0.30763521677E+03  0.00000000000E+00 0.  1.
         -1    1    1    2    0  501  0.20427714200E+02  0.17470286599E+02 -0.57965180872E+03  0.58027469510E+03  0.00000000000E+00 0. -1.
</event>
<event>
 4    1  0.6729064E+001  0.4466093E+02  0.7546771E-02  0.1323144E+00
          2   -1    0    0  502    0  0.00000000000E+00  0.00000000000E+00  0.69635724367E+02  0.69635724367E+02  0.00000000000E+00 0.  1.
         -2   -1    0    0    0  501 -0.00000000000E+00 -0.00000000000E+00 -0.30854953880E+02  0.30854953880E+02  0.00000000000E+00 0. -1.
          1    1    1    2  502    0  0.81671978992E+01  0.43907811873E+02  0.32842449123E+02  0.55436680360E+02  0.00000000000E+00 0. -1.
         -1    1    1    2    0  501 -0.81671978992E+01 -0.43907811873E+02  0.59383213633E+01  0.45053997887E+02  0.00000000000E+00 0.  1.
</event>
<event>
 4    1  0.6729064E+001  0.2504881E+02  0.7546771E-02  0.1468258E+00
          2   -1    0    0  502    0  0.00000000000E+00  0.00000000000E+00  0.21506896455E+03  0.21506896455E+03  0.00000000000E+00 0.  1.
         -2   -1    0    0    0  501 -0.00000000000E+00 -0.00000000000E+00 -0.66501970593E+01  0.66501970593E+01  0.00000000000E+00 0. -1.
          1    1    1    2  502    0  0.63636631276E+01 -0.24226977471E+02  0.18726577227E+03  0.18893361826E+03  0.00000000000E+00 0.  1.
         -1    1    1    2    0  501 -0.63636631276E+01  0.24226977471E+02  0.21152995222E+02  0.32785543348E+02  0.00000000000E+00 0. -1.
</event>
<event>
 4    1  0.6729064E+001  0.9141282E+02  0.7546771E-02  0.1179582E+00
          2   -1    0    0  502    0  0.00000000000E+00  0.00000000000E+00  0.21808799386E+04  0.21808799386E+04  0.00000000000E+00 0.  1.
         -2   -1    0    0    0  501 -0.00000000000E+00 -0.00000000000E+00 -0.40180667169E+01  0.40180667169E+01  0.00000000000E+00 0. -1.
          1    1    1    2  502    0  0.91386026207E+02  0.22130590498E+01  0.13237569021E+04  0.13269094315E+04  0.00000000000E+00 0.  1.
         -1    1    1    2    0  501 -0.91386026207E+02 -0.22130590498E+01  0.85310496982E+03  0.85798857390E+03  0.00000000000E+00 0. -1.
</event>
<event>
 4    1  0.6729064E+001  0.2394643E+02  0.7546771E-02  0.1480944E+00
          2   -1    0    0  502    0  0.00000000000E+00  0.00000000000E+00  0.24659243698E+03  0.24659243698E+03  0.00000000000E+00 0. -1.
         -2   -1    0    0    0  501 -0.00000000000E+00 -0.00000000000E+00 -0.23532875975E+01  0.23532875975E+01  0.00000000000E+00 0.  1.
          1    1    1    2  502    0 -0.20002824747E+02  0.13165051058E+02  0.13566424799E+03  0.13776145960E+03  0.00000000000E+00 0.  1.
         -1    1    1    2    0  501  0.20002824747E+02 -0.13165051058E+02  0.10857490140E+03  0.11118426499E+03  0.00000000000E+00 0. -1.
</event>
<event>
 4    1  0.6729064E+001  0.3701352E+02  0.7546771E-02  0.1366935E+00
          2   -1    0    0  502    0  0.00000000000E+00  0.00000000000E+00  0.31811350471E+04  0.31811350471E+04  0.00000000000E+00 0.  1.
         -2   -1    0    0    0  501 -0.00000000000E+00 -0.00000000000E+00 -0.57055383270E+00  0.57055383270E+00  0.00000000000E+00 0. -1.
          1    1    1    2  502    0 -0.30159876803E+02  0.21456522623E+02  0.80255717757E+03  0.80341024626E+03  0.00000000000E+00 0. -1.
         -1    1    1    2    0  501  0.30159876803E+02 -0.21456522623E+02  0.23780073157E+04  0.23782953546E+04  0.00000000000E+00 0.  1.
</event>
<event>
 4    1  0.6729064E+001  0.3278607E+02  0.7546771E-02  0.1396834E+00
          2   -1    0    0  502    0  0.00000000000E+00  0.00000000000E+00  0.12282574321E+04  0.12282574321E+04  0.00000000000E+00 0. -1.
         -2   -1    0    0    0  501 -0.00000000000E+00 -0.00000000000E+00 -0.88311468907E+00  0.88311468907E+00  0.00000000000E+00 0.  1.
          1    1    1    2  502    0  0.52676290219E+01  0.32360140137E+02  0.67200046303E+03  0.67279978367E+03  0.00000000000E+00 0. -1.
         -1    1    1    2    0  501 -0.52676290219E+01 -0.32360140137E+02  0.55537385441E+03  0.55634076316E+03  0.00000000000E+00 0.  1.
</event>
<event>
 4    1  0.6729064E+001  0.5047056E+02  0.7546771E-02  0.1296145E+00
          2   -1    0    0  502    0  0.00000000000E+00  0.00000000000E+00  0.10773706638E+04  0.10773706638E+04  0.00000000000E+00 0.  1.
         -2   -1    0    0    0  501 -0.00000000000E+00 -0.00000000000E+00 -0.27336595193E+01  0.27336595193E+01  0.00000000000E+00 0. -1.
          1    1    1    2  502    0 -0.49300086785E+02 -0.10806409561E+02  0.33881823884E+03  0.34255667563E+03  0.00000000000E+00 0. -1.
         -1    1    1    2    0  501  0.49300086785E+02  0.10806409561E+02  0.73581876539E+03  0.73754764764E+03  0.00000000000E+00 0.  1.
</event>
<event>
 4    1  0.6729064E+001  0.3202663E+02  0.7546771E-02  0.1402766E+00
          2   -1    0    0  502    0  0.00000000000E+00  0.00000000000E+00  0.31253415419E+03  0.31253415419E+03  0.00000000000E+00 0. -1.
         -2   -1    0    0    0  501 -0.00000000000E+00 -0.00000000000E+00 -0.45568013700E+01  0.45568013700E+01  0.00000000000E+00 0.  1.
          1    1    1    2  502    0 -0.32021649943E+02 -0.56498363197E+00  0.23785013544E+03  0.23999665039E+03  0.00000000000E+00 0. -1.
         -1    1    1    2    0  501  0.32021649943E+02  0.56498363197E+00  0.70127217387E+02  0.77094305172E+02  0.00000000000E+00 0.  1.
</event>
<event>
 4    1  0.6729064E+001  0.2667199E+02  0.7546771E-02  0.1450931E+00
          2   -1    0    0  502    0  0.00000000000E+00  0.00000000000E+00  0.27129391745E+03  0.27129391745E+03  0.00000000000E+00 0.  1.
         -2   -1    0    0    0  501 -0.00000000000E+00 -0.00000000000E+00 -0.62535885042E+01  0.62535885042E+01  0.00000000000E+00 0. -1.
          1    1    1    2  502    0  0.26458876075E+02  0.33649848716E+01  0.26770937113E+02  0.37789923528E+02  0.00000000000E+00 0. -1.
         -1    1    1    2    0  501 -0.26458876075E+02 -0.33649848716E+01  0.23826939183E+03  0.23975758243E+03  0.00000000000E+00 0.  1.
</event>
<event>
 4    1  0.6729064E+001  0.3305032E+02  0.7546771E-02  0.1394814E+00
          2   -1    0    0  502    0  0.00000000000E+00  0.00000000000E+00  0.35046484817E+03  0.35046484817E+03  0.00000000000E+00 0. -1.
         -2   -1    0    0    0  501 -0.00000000000E+00 -0.00000000000E+00 -0.43389739748E+01  0.43389739748E+01  0.00000000000E+00 0.  1.
          1    1    1    2  502    0 -0.23791582598E+02 -0.22940882974E+02  0.26721589895E+03  0.26925203836E+03  0.00000000000E+00 0. -1.
         -1    1    1    2    0  501  0.23791582598E+02  0.22940882974E+02  0.78909975250E+02  0.85551783781E+02  0.00000000000E+00 0.  1.
</event>
<event>
 4    1  0.6729064E+001  0.3301156E+02  0.7546771E-02  0.1395109E+00
          2   -1    0    0  502    0  0.00000000000E+00  0.00000000000E+00  0.23202406453E+04  0.23202406453E+04  0.00000000000E+00 0.  1.
         -2   -1    0    0    0  501 -0.00000000000E+00 -0.00000000000E+00 -0.10438403972E+01  0.10438403972E+01  0.00000000000E+00 0. -1.
          1    1    1    2  502    0 -0.42559030350E+01  0.32736071380E+02  0.29880452394E+03  0.30062253177E+03  0.00000000000E+00 0. -1.
         -1    1    1    2    0  501  0.42559030350E+01 -0.32736071380E+02  0.20203922809E+04  0.20206619539E+04  0.00000000000E+00 0.  1.
</event>
<event>
 4    1  0.6729064E+001  0.2151439E+02  0.7546771E-02  0.1512046E+00
          2   -1    0    0  502    0  0.00000000000E+00  0.00000000000E+00  0.25570793047E+03  0.25570793047E+03  0.00000000000E+00 0. -1.
         -2   -1    0    0    0  501 -0.00000000000E+00 -0.00000000000E+00 -0.25227982387E+01  0.25227982387E+01  0.00000000000E+00 0.  1.
          1    1    1    2  502    0  0.71323913645E+00  0.21502565564E+02  0.57968716478E+02  0.61832363095E+02  0.00000000000E+00 0.  1.
         -1    1    1    2    0  501 -0.71323913645E+00 -0.21502565564E+02  0.19521641576E+03  0.19639836562E+03  0.00000000000E+00 0. -1.
</event>
<event>
 4    1  0.6729064E+001  0.3680714E+02  0.7546771E-02  0.1368285E+00
          2   -1    0    0  502    0  0.00000000000E+00  0.00000000000E+00  0.41780649892E+02  0.41780649892E+02  0.00000000000E+00 0. -1.
         -2   -1    0    0    0  501 -0.00000000000E+00 -0.00000000000E+00 -0.36320817286E+02  0.36320817286E+02  0.00000000000E+00 0.  1.
          1    1    1    2  502    0  0.28175122297E+02 -0.23683916975E+02 -0.10058403867E+02  0.38156741581E+02  0.00000000000E+00 0.  1.
         -1    1    1    2    0  501 -0.28175122297E+02  0.23683916975E+02  0.15518236474E+02  0.39944725596E+02  0.00000000000E+00 0. -1.
</event>
<event>
 4    1  0.6729064E+001  0.2250691E+02  0.7546771E-02  0.1498784E+00
          2   -1    0    0  502    0  0.00000000000E+00  0.00000000000E+00  0.30472343420E+02  0.30472343420E+02  0.00000000000E+00 0. -1.
         -2   -1    0    0    0  501 -0.00000000000E+00 -0.00000000000E+00 -0.18450187635E+02  0.18450187635E+02  0.00000000000E+00 0.  1.
          1    1    1    2  502    0 -0.20734711974E+02 -0.87540102439E+01  0.13707611408E+02  0.26352601133E+02  0.00000000000E+00 0. -1.
         -1    1    1    2    0  501  0.20734711974E+02  0.87540102439E+01 -0.16854556233E+01  0.22569929921E+02  0.00000000000E+00 0.  1.
</event>
<event>
 4    1  0.6729064E+001  0.2641866E+02  0.7546771E-02  0.1453537E+00
          2   -1    0    0  502    0  0.00000000000E+00  0.00000000000E+00  0.89062303037E+02  0.89062303037E+02  0.00000000000E+00 0. -1.
         -2   -1    0    0    0  501 -0.00000000000E+00 -0.00000000000E+00 -0.93326584470E+01  0.93326584470E+01  0.00000000000E+00 0.  1.
          1    1    1    2  502    0  0.40905441511E+01  0.26100059570E+02  0.20167171634E+02  0.33236432913E+02  0.00000000000E+00 0. -1.
         -1    1    1    2    0  501 -0.40905441511E+01 -0.26100059570E+02  0.59562472955E+02  0.65158528571E+02  0.00000000000E+00 0.  1.
</event>
<event>
 4    1  0.6729064E+001  0.2375433E+02  0.7546771E-02  0.1483237E+00
          2   -1    0    0  502    0  0.00000000000E+00  0.00000000000E+00  0.47896937580E+02  0.47896937580E+02  0.00000000000E+00 0. -1.
         -2   -1    0    0    0  501 -0.00000000000E+00 -0.00000000000E+00 -0.15799372217E+02  0.15799372217E+02  0.00000000000E+00 0.  1.
          1    1    1    2  502    0  0.18509394934E+02 -0.14888601193E+02 -0.13077668702E-01  0.23754332601E+02  0.00000000000E+00 0.  1.
         -1    1    1    2    0  501 -0.18509394934E+02  0.14888601193E+02  0.32110643033E+02  0.39941977196E+02  0.00000000000E+00 0. -1.
</event>
<event>
 4    1  0.6729064E+001  0.2135740E+02  0.7546771E-02  0.1514223E+00
          2   -1    0    0  502    0  0.00000000000E+00  0.00000000000E+00  0.28017033059E+01  0.28017033059E+01  0.00000000000E+00 0. -1.
         -2   -1    0    0    0  501 -0.00000000000E+00 -0.00000000000E+00 -0.17968829879E+03  0.17968829879E+03  0.00000000000E+00 0.  1.
          1    1    1    2  502    0 -0.15434961374E+02 -0.14761446227E+02 -0.11641027979E+03  0.11835324908E+03  0.00000000000E+00 0.  1.
         -1    1    1    2    0  501  0.15434961374E+02  0.14761446227E+02 -0.60476315695E+02  0.64136753015E+02  0.00000000000E+00 0. -1.
</event>
<event>
 4    1  0.6729064E+001  0.2202598E+02  0.7546771E-02  0.1505105E+00
          2   -1    0    0  502    0  0.00000000000E+00  0.00000000000E+00  0.91646051142E+03  0.91646051142E+03  0.00000000000E+00 0.  1.
         -2   -1    0    0    0  501 -0.00000000000E+00 -0.00000000000E+00 -0.10192864943E+01  0.10192864943E+01  0.00000000000E+00 0. -1.
          1    1    1    2  502    0 -0.14044854653E+02 -0.16967202528E+02  0.77575989359E+03  0.77607252007E+03  0.00000000000E+00 0.  1.
         -1    1    1    2    0  501  0.14044854653E+02  0.16967202528E+02  0.13968133134E+03  0.14140727785E+03  0.00000000000E+00 0. -1.
</event>
<event>
 4    1  0.6729064E+001  0.4589985E+02  0.7546771E-02  0.1317000E+00
          2   -1    0    0  502    0  0.00000000000E+00  0.00000000000E+00  0.17405425750E+04  0.17405425750E+04  0.00000000000E+00 0. -1.
         -2   -1    0    0    0  501 -0.00000000000E+00 -0.00000000000E+00 -0.12104249521E+01  0.12104249521E+01  0.00000000000E+00 0.  1.
          1    1    1    2  502    0 -0.45550718190E+02 -0.56505045504E+01  0.86955600289E+03  0.87076658083E+03  0.00000000000E+00 0.  1.
         -1    1    1    2    0  501  0.45550718190E+02  0.56505045504E+01  0.86977614713E+03  0.87098641909E+03  0.00000000000E+00 0. -1.
</event>
<event>
 4    1  0.6729064E+001  0.2507973E+02  0.7546771E-02  0.1467913E+00
          2   -1    0    0  502    0  0.00000000000E+00  0.00000000000E+00  0.10347536733E+03  0.10347536733E+03  0.00000000000E+00 0.  1.
         -2   -1    0    0    0  501 -0.00000000000E+00 -0.00000000000E+00 -0.75851980598E+01  0.75851980598E+01  0.00000000000E+00 0. -1.
          1    1    1    2  502    0 -0.90132109676E+01 -0.23404166833E+02  0.72692764919E+02  0.76897536167E+02  0.00000000000E+00 0.  1.
         -1    1    1    2    0  501  0.90132109676E+01  0.23404166833E+02  0.23197404355E+02  0.34163029226E+02  0.00000000000E+00 0. -1.
</event>
<event>
 4    1  0.6729064E+001  0.2735783E+02  0.7546771E-02  0.1444046E+00
          2   -1    0    0  502    0  0.00000000000E+00  0.00000000000E+00  0.61692408054E+03  0.61692408054E+03  0.00000000000E+00 0. -1.
         -2   -1    0    0    0  501 -0.00000000000E+00 -0.00000000000E+00 -0.21651237009E+01  0.21651237009E+01  0.00000000000E+00 0.  1.
          1    1    1    2  502    0 -0.12428716428E+02  0.24371665630E+02  0.51262958816E+03  0.51335908070E+03  0.00000000000E+00 0. -1.
         -1    1    1    2    0  501  0.12428716428E+02 -0.24371665630E+02  0.10212936868E+03  0.10573012354E+03  0.00000000000E+00 0.  1.
</event>
<event>
 4    1  0.6729064E+001  0.2514841E+02  0.7546771E-02  0.1467150E+00
          2   -1    0    0  502    0  0.00000000000E+00  0.00000000000E+00  0.17063211732E+04  0.17063211732E+04  0.00000000000E+00 0. -1.
         -2   -1    0    0    0  501 -0.00000000000E+00 -0.00000000000E+00 -0.68505766568E+00  0.68505766568E+00  0.00000000000E+00 0.  1.
          1    1    1    2  502    0 -0.18364730484E+02 -0.17180786932E+02  0.27460192562E+03  0.27575108399E+03  0.00000000000E+00 0. -1.
         -1    1    1    2    0  501  0.18364730484E+02  0.17180786932E+02  0.14310341899E+04  0.14312551468E+04  0.00000000000E+00 0.  1.
</event>
<event>
 4    1  0.6729064E+001  0.2371823E+02  0.7546771E-02  0.1483671E+00
          2   -1    0    0  502    0  0.00000000000E+00  0.00000000000E+00  0.31101334734E+03  0.31101334734E+03  0.00000000000E+00 0. -1.
         -2   -1    0    0    0  501 -0.00000000000E+00 -0.00000000000E+00 -0.25742609956E+01  0.25742609956E+01  0.00000000000E+00 0.  1.
          1    1    1    2  502    0  0.77606971911E+01 -0.22412633071E+02  0.68718782209E+02  0.72696805778E+02  0.00000000000E+00 0.  1.
         -1    1    1    2    0  501 -0.77606971911E+01  0.22412633071E+02  0.23972030413E+03  0.24089080255E+03  0.00000000000E+00 0. -1.
</event>
<event>
 4    1  0.6729064E+001  0.3455880E+02  0.7546771E-02  0.1383692E+00
          2   -1    0    0  502    0  0.00000000000E+00  0.00000000000E+00  0.99276623597E+03  0.99276623597E+03  0.00000000000E+00 0. -1.
         -2   -1    0    0    0  501 -0.00000000000E+00 -0.00000000000E+00 -0.12574440483E+01  0.12574440483E+01  0.00000000000E+00 0.  1.
          1    1    1    2  502    0  0.18002980997E+02  0.29499213756E+02  0.59916016005E+03  0.60015598666E+03  0.00000000000E+00 0.  1.
         -1    1    1    2    0  501 -0.18002980997E+02 -0.29499213756E+02  0.39234863187E+03  0.39386769335E+03  0.00000000000E+00 0. -1.
</event>
<event>
 4    1  0.6729064E+001  0.2198327E+02  0.7546771E-02  0.1505676E+00
          2   -1    0    0  502    0  0.00000000000E+00  0.00000000000E+00  0.33630600698E+02  0.33630600698E+02  0.00000000000E+00 0. -1.
         -2   -1    0    0    0  501 -0.00000000000E+00 -0.00000000000E+00 -0.21885195201E+02  0.21885195201E+02  0.00000000000E+00 0.  1.
          1    1    1    2  502    0 -0.20755910275E+02 -0.72426705628E+01 -0.10393570461E+02  0.24316463459E+02  0.00000000000E+00 0. -1.
         -1    1    1    2    0  501  0.20755910275E+02  0.72426705628E+01  0.22138975958E+02  0.31199332440E+02  0.00000000000E+00 0.  1.
</event>
<event>
 4    1  0.6729064E+001  0.2787816E+02  0.7546771E-02  0.1438981E+00
          2   -1    0    0  502    0  0.00000000000E+00  0.00000000000E+00  0.77686216787E+02  0.77686216787E+02  0.00000000000E+00 0. -1.
         -2   -1    0    0    0  501 -0.00000000000E+00 -0.00000000000E+00 -0.13129996817E+02  0.13129996817E+02  0.00000000000E+00 0.  1.
          1    1    1    2  502    0  0.26837810404E+02  0.75447921724E+01  0.54433445015E+02  0.61157108274E+02  0.00000000000E+00 0. -1.
         -1    1    1    2    0  501 -0.26837810404E+02 -0.75447921724E+01  0.10122774955E+02  0.29659105331E+02  0.00000000000E+00 0.  1.
</event>
<event>
 4    1  0.6729064E+001  0.4360560E+02  0.7546771E-02  0.1328561E+00
          2   -1    0    0  502    0  0.00000000000E+00  0.00000000000E+00  0.61772017042E+03  0.61772017042E+03  0.00000000000E+00 0. -1.
         -2   -1    0    0    0  501 -0.00000000000E+00 -0.00000000000E+00 -0.37280600004E+01  0.37280600004E+01  0.00000000000E+00 0.  1.
          1    1    1    2  502    0  0.38969940042E+02  0.19565082867E+02  0.43672978413E+03  0.43890130217E+03  0.00000000000E+00 0. -1.
         -1    1    1    2    0  501 -0.38969940042E+02 -0.19565082867E+02  0.17726232628E+03  0.18254692825E+03  0.00000000000E+00 0.  1.
</event>
<event>
 4    1  0.6729064E+001  0.2818474E+02  0.7546771E-02  0.1436057E+00
          2   -1    0    0  502    0  0.00000000000E+00  0.00000000000E+00  0.79617912254E+03  0.79617912254E+03  0.00000000000E+00 0.  1.
         -2   -1    0    0    0  501 -0.00000000000E+00 -0.00000000000E+00 -0.16447727355E+01  0.16447727355E+01  0.00000000000E+00 0. -1.
          1    1    1    2  502    0 -0.16403411389E+02  0.22919590005E+02  0.14706716334E+03  0.14974354759E+03  0.00000000000E+00 0. -1.
         -1    1    1    2    0  501  0.16403411389E+02 -0.22919590005E+02  0.64746718647E+03  0.64808034769E+03  0.00000000000E+00 0.  1.
</event>
<event>
 4    1  0.6729064E+001  0.2087586E+02  0.7546771E-02  0.1521045E+00
          2   -1    0    0  502    0  0.00000000000E+00  0.00000000000E+00  0.40319552620E+03  0.40319552620E+03  0.00000000000E+00 0.  1.
         -2   -1    0    0    0  501 -0.00000000000E+00 -0.00000000000E+00 -0.35547110057E+01  0.35547110057E+01  0.00000000000E+00 0. -1.
          1    1    1    2  502    0 -0.78949313933E+00 -0.20860930693E+02  0.30159568877E+02  0.36679712699E+02  0.00000000000E+00 0. -1.
         -1    1    1    2    0  501  0.78949313933E+00  0.20860930693E+02  0.36948124632E+03  0.37007052451E+03  0.00000000000E+00 0.  1.
</event>
<event>
 4    1  0.6729064E+001  0.2912831E+02  0.7546771E-02  0.1427326E+00
          2   -1    0    0  502    0  0.00000000000E+00  0.00000000000E+00  0.58528388826E+01  0.58528388826E+01  0.00000000000E+00 0. -1.
         -2   -1    0    0    0  501 -0.00000000000E+00 -0.00000000000E+00 -0.21614457749E+03  0.21614457749E+03  0.00000000000E+00 0.  1.
          1    1    1    2  502    0  0.22981126489E+02 -0.17897653816E+02 -0.16884341899E+03  0.17133755666E+03  0.00000000000E+00 0.  1.
         -1    1    1    2    0  501 -0.22981126489E+02  0.17897653816E+02 -0.41448319622E+02  0.50659859715E+02  0.00000000000E+00 0. -1.
</event>
<event>
 4    1  0.6729064E+001  0.2164070E+02  0.7546771E-02  0.1510311E+00
          2   -1    0    0  502    0  0.00000000000E+00  0.00000000000E+00  0.20557595397E+04  0.20557595397E+04  0.00000000000E+00 0.  1.
         -2   -1    0    0    0  501 -0.00000000000E+00 -0.00000000000E+00 -0.24582811692E+00  0.24582811692E+00  0.00000000000E+00 0. -1.
          1    1    1    2  502    0  0.21632151469E+02 -0.60824395352E+00  0.13060795787E+04  0.13062588510E+04  0.00000000000E+00 0.  1.
         -1    1    1    2    0  501 -0.21632151469E+02  0.60824395352E+00  0.74943413289E+03  0.74974651682E+03  0.00000000000E+00 0. -1.
</event>
<event>
 4    1  0.6729064E+001  0.3308497E+02  0.7546771E-02  0.1394550E+00
          2   -1    0    0  502    0  0.00000000000E+00  0.00000000000E+00  0.20107909472E+04  0.20107909472E+04  0.00000000000E+00 0.  1.
         -2   -1    0    0    0  501 -0.00000000000E+00 -0.00000000000E+00 -0.80849036798E+00  0.80849036798E+00  0.00000000000E+00 0. -1.
          1    1    1    2  502    0 -0.22924314721E+02 -0.23855630477E+02  0.43011466306E+03  0.43138525553E+03  0.00000000000E+00 0. -1.
         -1    1    1    2    0  501  0.22924314721E+02  0.23855630477E+02  0.15798677938E+04  0.15802141821E+04  0.00000000000E+00 0.  1.
</event>
<event>
 4    1  0.6729064E+001  0.2052186E+02  0.7546771E-02  0.1526202E+00
          2   -1    0    0  502    0  0.00000000000E+00  0.00000000000E+00  0.29025967424E+03  0.29025967424E+03  0.00000000000E+00 0. -1.
         -2   -1    0    0    0  501 -0.00000000000E+00 -0.00000000000E+00 -0.14564079184E+01  0.14564079184E+01  0.00000000000E+00 0.  1.
          1    1    1    2  502    0  0.15175475352E+02  0.13814906791E+02  0.15334631433E+03  0.15471340866E+03  0.00000000000E+00 0.  1.
         -1    1    1    2    0  501 -0.15175475352E+02 -0.13814906791E+02  0.13545695200E+03  0.13700267350E+03  0.00000000000E+00 0. -1.
</event>
<event>
 4    1  0.6729064E+001  0.1102451E+03  0.7546771E-02  0.1147148E+00
          2   -1    0    0  502    0  0.00000000000E+00  0.00000000000E+00  0.14583470480E+03  0.14583470480E+03  0.00000000000E+00 0. -1.
         -2   -1    0    0    0  501 -0.00000000000E+00 -0.00000000000E+00 -0.83715449679E+02  0.83715449679E+02  0.00000000000E+00 0.  1.
          1    1    1    2  502    0  0.63459577253E+01 -0.11006232208E+03  0.23381810176E+02  0.11269736007E+03  0.00000000000E+00 0.  1.
         -1    1    1    2    0  501 -0.63459577253E+01  0.11006232208E+03  0.38737444946E+02  0.11685279441E+03  0.00000000000E+00 0. -1.
</event>
<event>
 4    1  0.6729064E+001  0.2419553E+02  0.7546771E-02  0.1478008E+00
          2   -1    0    0  502    0  0.00000000000E+00  0.00000000000E+00  0.21285093058E+03  0.21285093058E+03  0.00000000000E+00 0.  1.
         -2   -1    0    0    0  501 -0.00000000000E+00 -0.00000000000E+00 -0.36653476871E+01  0.36653476871E+01  0.00000000000E+00 0. -1.
          1    1    1    2  502    0  0.10874374881E+02 -0.21614150623E+02  0.15868104459E+03  0.16051510037E+03  0.00000000000E+00 0.  1.
         -1    1    1    2    0  501 -0.10874374881E+02  0.21614150623E+02  0.50504538310E+02  0.56001177899E+02  0.00000000000E+00 0. -1.
</event>
<event>
 4    1  0.6729064E+001  0.2222857E+02  0.7546771E-02  0.1502419E+00
          2   -1    0    0  502    0  0.00000000000E+00  0.00000000000E+00  0.40617657053E+01  0.40617657053E+01  0.00000000000E+00 0.  1.
         -2   -1    0    0    0  501 -0.00000000000E+00 -0.00000000000E+00 -0.12493577335E+03  0.12493577335E+03  0.00000000000E+00 0. -1.
          1    1    1    2  502    0  0.16732982141E+02 -0.14632723967E+02 -0.70898648519E+02  0.74301599336E+02  0.00000000000E+00 0. -1.
         -1    1    1    2    0  501 -0.16732982141E+02  0.14632723967E+02 -0.49975359123E+02  0.54695939717E+02  0.00000000000E+00 0.  1.
</event>
<event>
 4    1  0.6729064E+001  0.2263505E+02  0.7546771E-02  0.1497132E+00
          2   -1    0    0  502    0  0.00000000000E+00  0.00000000000E+00  0.92614709689E+00  0.92614709689E+00  0.00000000000E+00 0. -1.
         -2   -1    0    0    0  501 -0.00000000000E+00 -0.00000000000E+00 -0.56032145663E+03  0.56032145663E+03  0.00000000000E+00 0.  1.
          1    1    1    2  502    0  0.13592763909E+02 -0.18099231756E+02 -0.24806305008E+03  0.24909360135E+03  0.00000000000E+00 0. -1.
         -1    1    1    2    0  501 -0.13592763909E+02  0.18099231756E+02 -0.31133225945E+03  0.31215400237E+03  0.00000000000E+00 0.  1.
</event>
<event>
 4    1  0.6729064E+001  0.2113877E+02  0.7546771E-02  0.1517293E+00
          2   -1    0    0  502    0  0.00000000000E+00  0.00000000000E+00  0.22682557679E+04  0.22682557679E+04  0.00000000000E+00 0.  1.
         -2   -1    0    0    0  501 -0.00000000000E+00 -0.00000000000E+00 -0.20441702469E+00  0.20441702469E+00  0.00000000000E+00 0. -1.
          1    1    1    2  502    0 -0.11729305277E+02  0.17586097393E+02  0.91798073272E+03  0.91822408652E+03  0.00000000000E+00 0. -1.
         -1    1    1    2    0  501  0.11729305277E+02 -0.17586097393E+02  0.13500706182E+04  0.13502360984E+04  0.00000000000E+00 0.  1.
</event>
<event>
 4    1  0.6729064E+001  0.3090664E+02  0.7546771E-02  0.1411878E+00
          2   -1    0    0  502    0  0.00000000000E+00  0.00000000000E+00  0.48583284778E+01  0.48583284778E+01  0.00000000000E+00 0. -1.
         -2   -1    0    0    0  501 -0.00000000000E+00 -0.00000000000E+00 -0.23066046704E+03  0.23066046704E+03  0.00000000000E+00 0.  1.
          1    1    1    2  502    0 -0.15158194654E+02 -0.26934165601E+02 -0.15814275593E+03  0.16113457541E+03  0.00000000000E+00 0. -1.
         -1    1    1    2    0  501  0.15158194654E+02  0.26934165601E+02 -0.67659382634E+02  0.74384220102E+02  0.00000000000E+00 0.  1.
</event>
<event>
 4    1  0.6729064E+001  0.3425309E+02  0.7546771E-02  0.1385892E+00
          2   -1    0    0  502    0  0.00000000000E+00  0.00000000000E+00  0.23728477551E+03  0.23728477551E+03  0.00000000000E+00 0.  1.
         -2   -1    0    0    0  501 -0.00000000000E+00 -0.00000000000E+00 -0.49911657966E+01  0.49911657966E+01  0.00000000000E+00 0. -1.
          1    1    1    2  502    0  0.32050437395E+02 -0.12084854377E+02  0.10444393006E+03  0.10991728149E+03  0.00000000000E+00 0.  1.
         -1    1    1    2    0  501 -0.32050437395E+02  0.12084854377E+02  0.12784967965E+03  0.13235865982E+03  0.00000000000E+00 0. -1.
</event>
<event>
 4    1  0.6729064E+001  0.2051804E+02  0.7546771E-02  0.1526259E+00
          2   -1    0    0  502    0  0.00000000000E+00  0.00000000000E+00  0.72652638944E+01  0.72652638944E+01  0.00000000000E+00 0. -1.
         -2   -1    0    0    0  501 -0.00000000000E+00 -0.00000000000E+00 -0.88292398342E+02  0.88292398342E+02  0.00000000000E+00 0.  1.
          1    1    1    2  502    0 -0.16516404618E+02  0.12173669016E+02 -0.68524691238E+02  0.71530574918E+02  0.00000000000E+00 0.  1.
         -1    1    1    2    0  501  0.16516404618E+02 -0.12173669016E+02 -0.12502443210E+02  0.24027087319E+02  0.00000000000E+00 0. -1.
</event>
<event>
 4    1  0.6729064E+001  0.3231226E+02  0.7546771E-02  0.1400512E+00
          2   -1    0    0  502    0  0.00000000000E+00  0.00000000000E+00  0.99709383672E+02  0.99709383672E+02  0.00000000000E+00 0.  1.
         -2   -1    0    0    0  501 -0.00000000000E+00 -0.00000000000E+00 -0.22156873585E+02  0.22156873585E+02  0.00000000000E+00 0. -1.
          1    1    1    2  502    0 -0.28521909056E+02 -0.15184949581E+02  0.83027466455E+02  0.89093446312E+02  0.00000000000E+00 0.  1.
         -1    1    1    2    0  501  0.28521909056E+02  0.15184949581E+02 -0.54749563680E+01  0.32772810944E+02  0.00000000000E+00 0. -1.
</event>
<event>
 4    1  0.6729064E+001  0.6224732E+02  0.7546771E-02  0.1252382E+00
          2   -1    0    0  502    0  0.00000000000E+00  0.00000000000E+00  0.67680830469E+02  0.67680830469E+02  0.00000000000E+00 0. -1.
         -2   -1    0    0    0  501 -0.00000000000E+00 -0.00000000000E+00 -0.10309238508E+03  0.10309238508E+03  0.00000000000E+00 0.  1.
          1    1    1    2  502    0  0.57897795402E+02 -0.22859890407E+02 -0.74644791813E+02  0.97193488705E+02  0.00000000000E+00 0.  1.
         -1    1    1    2    0  501 -0.57897795402E+02  0.22859890407E+02  0.39233237199E+02  0.73579726847E+02  0.00000000000E+00 0. -1.
</event>
<event>
 4    1  0.6729064E+001  0.2367667E+02  0.7546771E-02  0.1484172E+00
          2   -1    0    0  502    0  0.00000000000E+00  0.00000000000E+00  0.21083369311E+01  0.21083369311E+01  0.00000000000E+00 0.  1.
         -2   -1    0    0    0  501 -0.00000000000E+00 -0.00000000000E+00 -0.38518213396E+03  0.38518213396E+03  0.00000000000E+00 0. -1.
          1    1    1    2  502    0 -0.19249403438E+02 -0.13785694947E+02 -0.83771253388E+02  0.87052902377E+02  0.00000000000E+00 0.  1.
         -1    1    1    2    0  501  0.19249403438E+02  0.13785694947E+02 -0.29930254364E+03  0.30023756852E+03  0.00000000000E+00 0. -1.
</event>
<event>
 4    1  0.6729064E+001  0.2476885E+02  0.7546771E-02  0.1471406E+00
          2   -1    0    0  502    0  0.00000000000E+00  0.00000000000E+00  0.60724847834E+01  0.60724847834E+01  0.00000000000E+00 0.  1.
         -2   -1    0    0    0  501 -0.00000000000E+00 -0.00000000000E+00 -0.10363746021E+03  0.10363746021E+03  0.00000000000E+00 0. -1.
          1    1    1    2  502    0 -0.20915599861E+02 -0.13267773364E+02 -0.40079615996E+02  0.47115514918E+02  0.00000000000E+00 0.  1.
         -1    1    1    2    0  501  0.20915599861E+02  0.13267773364E+02 -0.57485359432E+02  0.62594430077E+02  0.00000000000E+00 0. -1.
</event>
<event>
 4    1  0.6729064E+001  0.2353294E+02  0.7546771E-02  0.1485912E+00
          2   -1    0    0  502    0  0.00000000000E+00  0.00000000000E+00  0.35908752756E+03  0.35908752756E+03  0.00000000000E+00 0. -1.
         -2   -1    0    0    0  501 -0.00000000000E+00 -0.00000000000E+00 -0.25634511821E+01  0.25634511821E+01  0.00000000000E+00 0.  1.
          1    1    1    2  502    0 -0.14451321562E+02  0.18573063512E+02  0.64130737850E+02  0.68312157925E+02  0.00000000000E+00 0.  1.
         -1    1    1    2    0  501  0.14451321562E+02 -0.18573063512E+02  0.29239333853E+03  0.29333882082E+03  0.00000000000E+00 0. -1.
</event>
<event>
 4    1  0.6729064E+001  0.2311707E+02  0.7546771E-02  0.1491033E+00
          2   -1    0    0  502    0  0.00000000000E+00  0.00000000000E+00  0.19347266515E+03  0.19347266515E+03  0.00000000000E+00 0.  1.
         -2   -1    0    0    0  501 -0.00000000000E+00 -0.00000000000E+00 -0.48390058015E+01  0.48390058015E+01  0.00000000000E+00 0. -1.
          1    1    1    2  502    0  0.23116217841E+02 -0.19814638643E+00  0.15927657525E+03  0.16094541376E+03  0.00000000000E+00 0.  1.
         -1    1    1    2    0  501 -0.23116217841E+02  0.19814638643E+00  0.29357084102E+02  0.37366257188E+02  0.00000000000E+00 0. -1.
</event>
<event>
 4    1  0.6729064E+001  0.2477667E+02  0.7546771E-02  0.1471317E+00
          2   -1    0    0  502    0  0.00000000000E+00  0.00000000000E+00  0.67710665151E+02  0.67710665151E+02  0.00000000000E+00 0. -1.
         -2   -1    0    0    0  501 -0.00000000000E+00 -0.00000000000E+00 -0.97967115419E+01  0.97967115419E+01  0.00000000000E+00 0.  1.
          1    1    1    2  502    0  0.11069200563E+02 -0.22166559382E+02  0.18375070077E+02  0.30846827329E+02  0.00000000000E+00 0. -1.
         -1    1    1    2    0  501 -0.11069200563E+02  0.22166559382E+02  0.39538883533E+02  0.46660549364E+02  0.00000000000E+00 0.  1.
</event>
<event>
 4    1  0.6729064E+001  0.2409678E+02  0.7546771E-02  0.1479167E+00
          2   -1    0    0  502    0  0.00000000000E+00  0.00000000000E+00  0.81952540391E+03  0.81952540391E+03  0.00000000000E+00 0. -1.
         -2   -1    0    0    0  501 -0.00000000000E+00 -0.00000000000E+00 -0.71710907052E+00  0.71710907052E+00  0.00000000000E+00 0.  1.
          1    1    1    2  502    0 -0.12813136134E+02 -0.20407802749E+02  0.36453511090E+03  0.36533067480E+03  0.00000000000E+00 0.  1.
         -1    1    1    2    0  501  0.12813136134E+02  0.20407802749E+02  0.45427318394E+03  0.45491183818E+03  0.00000000000E+00 0. -1.
</event>
<event>
 4    1  0.6729064E+001  0.2216085E+02  0.7546771E-02  0.1503313E+00
          2   -1    0    0  502    0  0.00000000000E+00  0.00000000000E+00  0.40555426135E+02  0.40555426135E+02  0.00000000000E+00 0. -1.
         -2   -1    0    0    0  501 -0.00000000000E+00 -0.00000000000E+00 -0.17379078559E+02  0.17379078559E+02  0.00000000000E+00 0.  1.
          1    1    1    2  502    0  0.18883436788E+02 -0.11598233211E+02  0.27539053846E+02  0.35348305267E+02  0.00000000000E+00 0. -1.
         -1    1    1    2    0  501 -0.18883436788E+02  0.11598233211E+02 -0.43627062711E+01  0.22586199427E+02  0.00000000000E+00 0.  1.
</event>
<event>
 4    1  0.6729064E+001  0.2183121E+02  0.7546771E-02  0.1507720E+00
          2   -1    0    0  502    0  0.00000000000E+00  0.00000000000E+00  0.99122236678E+03  0.99122236678E+03  0.00000000000E+00 0. -1.
         -2   -1    0    0    0  501 -0.00000000000E+00 -0.00000000000E+00 -0.52928162825E+00  0.52928162825E+00  0.00000000000E+00 0.  1.
          1    1    1    2  502    0 -0.21600872501E+02 -0.31629299356E+01  0.64539039930E+03  0.64575952902E+03  0.00000000000E+00 0. -1.
         -1    1    1    2    0  501  0.21600872501E+02  0.31629299356E+01  0.34530268585E+03  0.34599211938E+03  0.00000000000E+00 0.  1.
</event>
<event>
 4    1  0.6729064E+001  0.2163158E+02  0.7546771E-02  0.1510435E+00
          2   -1    0    0  502    0  0.00000000000E+00  0.00000000000E+00  0.47520334291E+02  0.47520334291E+02  0.00000000000E+00 0. -1.
         -2   -1    0    0    0  501 -0.00000000000E+00 -0.00000000000E+00 -0.21679455803E+02  0.21679455803E+02  0.00000000000E+00 0.  1.
          1    1    1    2  502    0 -0.21631549083E+02  0.33944859376E-01 -0.12641335203E+02  0.25054509049E+02  0.00000000000E+00 0.  1.
         -1    1    1    2    0  501  0.21631549083E+02 -0.33944859376E-01  0.38482213691E+02  0.44145281045E+02  0.00000000000E+00 0. -1.
</event>
<event>
 4    1  0.6729064E+001  0.4470181E+02  0.7546771E-02  0.1322937E+00
          2   -1    0    0  502    0  0.00000000000E+00  0.00000000000E+00  0.51191630892E+03  0.51191630892E+03  0.00000000000E+00 0.  1.
         -2   -1    0    0    0  501 -0.00000000000E+00 -0.00000000000E+00 -0.39061473597E+01  0.39061473597E+01  0.00000000000E+00 0. -1.
          1    1    1    2  502    0  0.24678094379E+02 -0.37272551886E+02  0.24725654382E+03  0.25126489991E+03  0.00000000000E+00 0. -1.
         -1    1    1    2    0  501 -0.24678094379E+02  0.37272551886E+02  0.26075361775E+03  0.26455755638E+03  0.00000000000E+00 0.  1.
</event>
<event>
 4    1  0.6729064E+001  0.4707360E+02  0.7546771E-02  0.1311385E+00
          2   -1    0    0  502    0  0.00000000000E+00  0.00000000000E+00  0.10639727455E+03  0.10639727455E+03  0.00000000000E+00 0.  1.
         -2   -1    0    0    0  501 -0.00000000000E+00 -0.00000000000E+00 -0.27253740292E+02  0.27253740292E+02  0.00000000000E+00 0. -1.
          1    1    1    2  502    0  0.11621475073E+02 -0.45616496281E+02  0.71207292246E+01  0.47609118880E+02  0.00000000000E+00 0. -1.
         -1    1    1    2    0  501 -0.11621475073E+02  0.45616496281E+02  0.72022805036E+02  0.86041895964E+02  0.00000000000E+00 0.  1.
</event>
<event>
 4    1  0.6729064E+001  0.2313140E+02  0.7546771E-02  0.1490855E+00
          2   -1    0    0  502    0  0.00000000000E+00  0.00000000000E+00  0.15547642051E+03  0.15547642051E+03  0.00000000000E+00 0.  1.
         -2   -1    0    0    0  501 -0.00000000000E+00 -0.00000000000E+00 -0.35548624469E+01  0.35548624469E+01  0.00000000000E+00 0. -1.
          1    1    1    2  502    0  0.36570956181E+01 -0.22840473970E+02  0.90164597619E+02  0.93084457689E+02  0.00000000000E+00 0.  1.
         -1    1    1    2    0  501 -0.36570956181E+01  0.22840473970E+02  0.61756960445E+02  0.65946825268E+02  0.00000000000E+00 0. -1.
</event>
<event>
 4    1  0.6729064E+001  0.2209311E+02  0.7546771E-02  0.1504211E+00
          2   -1    0    0  502    0  0.00000000000E+00  0.00000000000E+00  0.10003076224E+01  0.10003076224E+01  0.00000000000E+00 0.  1.
         -2   -1    0    0    0  501 -0.00000000000E+00 -0.00000000000E+00 -0.48917259402E+03  0.48917259402E+03  0.00000000000E+00 0. -1.
          1    1    1    2  502    0  0.21800757242E+02  0.35822712826E+01 -0.25631079305E+03  0.25726120640E+03  0.00000000000E+00 0. -1.
         -1    1    1    2    0  501 -0.21800757242E+02 -0.35822712826E+01 -0.23186149334E+03  0.23291169524E+03  0.00000000000E+00 0.  1.
</event>
<event>
 4    1  0.6729064E+001  0.2726183E+02  0.7546771E-02  0.1444996E+00
          2   -1    0    0  502    0  0.00000000000E+00  0.00000000000E+00  0.88210502923E+02  0.88210502923E+02  0.00000000000E+00 0. -1.
         -2   -1    0    0    0  501 -0.00000000000E+00 -0.00000000000E+00 -0.19502475203E+02  0.19502475203E+02  0.00000000000E+00 0.  1.
          1    1    1    2  502    0 -0.27259795224E+02 -0.33343399717E+00  0.74942792226E+02  0.79747286603E+02  0.00000000000E+00 0. -1.
         -1    1    1    2    0  501  0.27259795224E+02  0.33343399717E+00 -0.62347645054E+01  0.27965691523E+02  0.00000000000E+00 0.  1.
</event>
<event>
 4    1  0.6729064E+001  0.2408562E+02  0.7546771E-02  0.1479298E+00
          2   -1    0    0  502    0  0.00000000000E+00  0.00000000000E+00  0.10276474711E+02  0.10276474711E+02  0.00000000000E+00 0. -1.
         -2   -1    0    0    0  501 -0.00000000000E+00 -0.00000000000E+00 -0.57487770246E+02  0.57487770246E+02  0.00000000000E+00 0.  1.
          1    1    1    2  502    0 -0.11676666826E+02 -0.21065911866E+02 -0.28155798987E+02  0.37052209212E+02  0.00000000000E+00 0.  1.
         -1    1    1    2    0  501  0.11676666826E+02  0.21065911866E+02 -0.19055496549E+02  0.30712035745E+02  0.00000000000E+00 0. -1.
</event>
<event>
 4    1  0.6729064E+001  0.2170451E+02  0.7546771E-02  0.1509439E+00
          2   -1    0    0  502    0  0.00000000000E+00  0.00000000000E+00  0.51618124588E+03  0.51618124588E+03  0.00000000000E+00 0.  1.
         -2   -1    0    0    0  501 -0.00000000000E+00 -0.00000000000E+00 -0.16656500631E+01  0.16656500631E+01  0.00000000000E+00 0. -1.
          1    1    1    2  502    0 -0.52967362911E+01 -0.21048289130E+02  0.83164972731E+02  0.85950558928E+02  0.00000000000E+00 0.  1.
         -1    1    1    2    0  501  0.52967362911E+01  0.21048289130E+02  0.43135062309E+03  0.43189633702E+03  0.00000000000E+00 0. -1.
</event>
<event>
 4    1  0.6729064E+001  0.2379952E+02  0.7546771E-02  0.1482695E+00
          2   -1    0    0  502    0  0.00000000000E+00  0.00000000000E+00  0.57965147920E+02  0.57965147920E+02  0.00000000000E+00 0.  1.
         -2   -1    0    0    0  501 -0.00000000000E+00 -0.00000000000E+00 -0.13399795318E+02  0.13399795318E+02  0.00000000000E+00 0. -1.
          1    1    1    2  502    0 -0.21775219326E+02 -0.96050562765E+01  0.37154954070E+01  0.24087801662E+02  0.00000000000E+00 0. -1.
         -1    1    1    2    0  501  0.21775219326E+02  0.96050562765E+01  0.40849857195E+02  0.47277141576E+02  0.00000000000E+00 0.  1.
</event>
<event>
 4    1  0.6729064E+001  0.2196712E+02  0.7546771E-02  0.1505892E+00
          2   -1    0    0  502    0  0.00000000000E+00  0.00000000000E+00  0.55106799388E+01  0.55106799388E+01  0.00000000000E+00 0. -1.
         -2   -1    0    0    0  501 -0.00000000000E+00 -0.00000000000E+00 -0.27312014077E+03  0.27312014077E+03  0.00000000000E+00 0.  1.
          1    1    1    2  502    0  0.47568142532E+01  0.21445914311E+02 -0.18974489199E+02  0.29027327863E+02  0.00000000000E+00 0.  1.
         -1    1    1    2    0  501 -0.47568142532E+01 -0.21445914311E+02 -0.24863497163E+03  0.24960349284E+03  0.00000000000E+00 0. -1.
</event>
<event>
 4    1  0.6729064E+001  0.2349252E+02  0.7546771E-02  0.1486404E+00
          2   -1    0    0  502    0  0.00000000000E+00  0.00000000000E+00  0.20036677265E+03  0.20036677265E+03  0.00000000000E+00 0. -1.
         -2   -1    0    0    0  501 -0.00000000000E+00 -0.00000000000E+00 -0.31822157518E+01  0.31822157518E+01  0.00000000000E+00 0.  1.
          1    1    1    2  502    0 -0.23454919792E+02  0.13286170869E+01  0.61277434080E+02  0.65626385039E+02  0.00000000000E+00 0.  1.
         -1    1    1    2    0  501  0.23454919792E+02 -0.13286170869E+01  0.13590712282E+03  0.13792260336E+03  0.00000000000E+00 0. -1.
</event>
<event>
 4    1  0.6729064E+001  0.2781786E+02  0.7546771E-02  0.1439561E+00
          2   -1    0    0  502    0  0.00000000000E+00  0.00000000000E+00  0.38080873285E+02  0.38080873285E+02  0.00000000000E+00 0. -1.
         -2   -1    0    0    0  501 -0.00000000000E+00 -0.00000000000E+00 -0.37052334459E+02  0.37052334459E+02  0.00000000000E+00 0.  1.
          1    1    1    2  502    0 -0.10985261523E+02 -0.25556940067E+02  0.25758506854E+02  0.37912185794E+02  0.00000000000E+00 0. -1.
         -1    1    1    2    0  501  0.10985261523E+02  0.25556940067E+02 -0.24729968028E+02  0.37221021950E+02  0.00000000000E+00 0.  1.
</event>
<event>
 4    1  0.6729064E+001  0.2558174E+02  0.7546771E-02  0.1462400E+00
          2   -1    0    0  502    0  0.00000000000E+00  0.00000000000E+00  0.69784935106E+03  0.69784935106E+03  0.00000000000E+00 0. -1.
         -2   -1    0    0    0  501 -0.00000000000E+00 -0.00000000000E+00 -0.29872343438E+01  0.29872343438E+01  0.00000000000E+00 0.  1.
          1    1    1    2  502    0 -0.25572194715E+02 -0.69879678311E+00  0.57181338683E+02  0.62642884297E+02  0.00000000000E+00 0.  1.
         -1    1    1    2    0  501  0.25572194715E+02  0.69879678311E+00  0.63768077803E+03  0.63819370110E+03  0.00000000000E+00 0. -1.
</event>
<event>
 4    1  0.6729064E+001  0.2030747E+02  0.7546771E-02  0.1529386E+00
          2   -1    0    0  502    0  0.00000000000E+00  0.00000000000E+00  0.64042933842E+01  0.64042933842E+01  0.00000000000E+00 0.  1.
         -2   -1    0    0    0  501 -0.00000000000E+00 -0.00000000000E+00 -0.64519374995E+02  0.64519374995E+02  0.00000000000E+00 0. -1.
          1    1    1    2  502    0  0.95970765882E+01 -0.17896629627E+02 -0.30625467715E+02  0.36746598534E+02  0.00000000000E+00 0.  1.
         -1    1    1    2    0  501 -0.95970765882E+01  0.17896629627E+02 -0.27489613896E+02  0.34177069845E+02  0.00000000000E+00 0. -1.
</event>
<event>
 4    1  0.6729064E+001  0.4703261E+02  0.7546771E-02  0.1311577E+00
          2   -1    0    0  502    0  0.00000000000E+00  0.00000000000E+00  0.55708887651E+03  0.55708887651E+03  0.00000000000E+00 0. -1.
         -2   -1    0    0    0  501 -0.00000000000E+00 -0.00000000000E+00 -0.43225363573E+01  0.43225363573E+01  0.00000000000E+00 0.  1.
          1    1    1    2  502    0  0.11728549658E+02 -0.45546759367E+02  0.19630478509E+03  0.20186043400E+03  0.00000000000E+00 0.  1.
         -1    1    1    2    0  501 -0.11728549658E+02  0.45546759367E+02  0.35646155507E+03  0.35955097887E+03  0.00000000000E+00 0. -1.
</event>
<event>
 4    1  0.6729064E+001  0.2069630E+02  0.7546771E-02  0.1523645E+00
          2   -1    0    0  502    0  0.00000000000E+00  0.00000000000E+00  0.54534678583E+03  0.54534678583E+03  0.00000000000E+00 0.  1.
         -2   -1    0    0    0  501 -0.00000000000E+00 -0.00000000000E+00 -0.81239269991E+00  0.81239269991E+00  0.00000000000E+00 0. -1.
          1    1    1    2  502    0  0.18555703853E+02  0.91663995453E+01  0.32200763835E+03  0.32267205671E+03  0.00000000000E+00 0.  1.
         -1    1    1    2    0  501 -0.18555703853E+02 -0.91663995453E+01  0.22252675479E+03  0.22348712183E+03  0.00000000000E+00 0. -1.
</event>
<event>
 4    1  0.6729064E+001  0.2355820E+02  0.7546771E-02  0.1485605E+00
          2   -1    0    0  502    0  0.00000000000E+00  0.00000000000E+00  0.21346103552E+01  0.21346103552E+01  0.00000000000E+00 0. -1.
         -2   -1    0    0    0  501 -0.00000000000E+00 -0.00000000000E+00 -0.27832285520E+03  0.27832285520E+03  0.00000000000E+00 0.  1.
          1    1    1    2  502    0 -0.21906592695E+02  0.86654496095E+01 -0.10210974861E+03  0.10479212557E+03  0.00000000000E+00 0.  1.
         -1    1    1    2    0  501  0.21906592695E+02 -0.86654496095E+01 -0.17407849623E+03  0.17566533998E+03  0.00000000000E+00 0. -1.
</event>
<event>
 4    1  0.6729064E+001  0.2183870E+02  0.7546771E-02  0.1507619E+00
          2   -1    0    0  502    0  0.00000000000E+00  0.00000000000E+00  0.42406844701E+02  0.42406844701E+02  0.00000000000E+00 0.  1.
         -2   -1    0    0    0  501 -0.00000000000E+00 -0.00000000000E+00 -0.11283437227E+02  0.11283437227E+02  0.00000000000E+00 0. -1.
          1    1    1    2  502    0  0.45782703677E+01  0.21353415511E+02  0.14025917641E+02  0.25954870049E+02  0.00000000000E+00 0. -1.
         -1    1    1    2    0  501 -0.45782703677E+01 -0.21353415511E+02  0.17097489833E+02  0.27735411880E+02  0.00000000000E+00 0.  1.
</event>
<event>
 4    1  0.6729064E+001  0.2255572E+02  0.7546771E-02  0.1498154E+00
          2   -1    0    0  502    0  0.00000000000E+00  0.00000000000E+00  0.33946606057E+03  0.33946606057E+03  0.00000000000E+00 0.  1.
         -2   -1    0    0    0  501 -0.00000000000E+00 -0.00000000000E+00 -0.33937664058E+01  0.33937664058E+01  0.00000000000E+00 0. -1.
          1    1    1    2  502    0  0.18620148488E+02 -0.12729901485E+02  0.29613846646E+03  0.29699621486E+03  0.00000000000E+00 0.  1.
         -1    1    1    2    0  501 -0.18620148488E+02  0.12729901485E+02  0.39933827702E+02  0.45863612117E+02  0.00000000000E+00 0. -1.
</event>
<event>
 4    1  0.6729064E+001  0.2552755E+02  0.7546771E-02  0.1462987E+00
          2   -1    0    0  502    0  0.00000000000E+00  0.00000000000E+00  0.64285506570E+03  0.64285506570E+03  0.00000000000E+00 0.  1.
         -2   -1    0    0    0  501 -0.00000000000E+00 -0.00000000000E+00 -0.21078585730E+01  0.21078585730E+01  0.00000000000E+00 0. -1.
          1    1    1    2  502    0 -0.13581044890E+02  0.21615063739E+02  0.55271475405E+03  0.55330394459E+03  0.00000000000E+00 0.  1.
         -1    1    1    2    0  501  0.13581044890E+02 -0.21615063739E+02  0.88032453078E+02  0.91658979678E+02  0.00000000000E+00 0. -1.
</event>
<event>
 4    1  0.6729064E+001  0.2068123E+02  0.7546771E-02  0.1523865E+00
          2   -1    0    0  502    0  0.00000000000E+00  0.00000000000E+00  0.42438496422E+03  0.42438496422E+03  0.00000000000E+00 0. -1.
         -2   -1    0    0    0  501 -0.00000000000E+00 -0.00000000000E+00 -0.13624600598E+01  0.13624600598E+01  0.00000000000E+00 0.  1.
          1    1    1    2  502    0  0.11237470219E+02 -0.17361807014E+02  0.32011390655E+03  0.32078127478E+03  0.00000000000E+00 0. -1.
         -1    1    1    2    0  501 -0.11237470219E+02  0.17361807014E+02  0.10290859761E+03  0.10496614950E+03  0.00000000000E+00 0.  1.
</event>
<event>
 4    1  0.6729064E+001  0.3548713E+02  0.7546771E-02  0.1377171E+00
          2   -1    0    0  502    0  0.00000000000E+00  0.00000000000E+00  0.56980244153E+03  0.56980244153E+03  0.00000000000E+00 0. -1.
         -2   -1    0    0    0  501 -0.00000000000E+00 -0.00000000000E+00 -0.27918051693E+01  0.27918051693E+01  0.00000000000E+00 0.  1.
          1    1    1    2  502    0  0.33581197370E+02 -0.11473431902E+02  0.41418719330E+03  0.41570466385E+03  0.00000000000E+00 0. -1.
         -1    1    1    2    0  501 -0.33581197370E+02  0.11473431902E+02  0.15282344306E+03  0.15688958285E+03  0.00000000000E+00 0.  1.
</event>
<event>
 4    1  0.6729064E+001  0.2341857E+02  0.7546771E-02  0.1487308E+00
          2   -1    0    0  502    0  0.00000000000E+00  0.00000000000E+00  0.87593532329E+03  0.87593532329E+03  0.00000000000E+00 0.  1.
         -2   -1    0    0    0  501 -0.00000000000E+00 -0.00000000000E+00 -0.70570134413E+00  0.70570134413E+00  0.00000000000E+00 0. -1.
          1    1    1    2  502    0  0.18843368518E+02 -0.13905285634E+02  0.29041013978E+03  0.29135284243E+03  0.00000000000E+00 0. -1.
         -1    1    1    2    0  501 -0.18843368518E+02  0.13905285634E+02  0.58481948216E+03  0.58528818220E+03  0.00000000000E+00 0.  1.
</event>
<event>
 4    1  0.6729064E+001  0.3485980E+02  0.7546771E-02  0.1381552E+00
          2   -1    0    0  502    0  0.00000000000E+00  0.00000000000E+00  0.99484596719E+03  0.99484596719E+03  0.00000000000E+00 0.  1.
         -2   -1    0    0    0  501 -0.00000000000E+00 -0.00000000000E+00 -0.12266331440E+01  0.12266331440E+01  0.00000000000E+00 0. -1.
          1    1    1    2  502    0 -0.16067096596E+02  0.30936291810E+02  0.52902302855E+03  0.53017032214E+03  0.00000000000E+00 0. -1.
         -1    1    1    2    0  501  0.16067096596E+02 -0.30936291810E+02  0.46459630549E+03  0.46590227819E+03  0.00000000000E+00 0.  1.
</event>
<event>
 4    1  0.6729064E+001  0.7677998E+02  0.7546771E-02  0.1211527E+00
          2   -1    0    0  502    0  0.00000000000E+00  0.00000000000E+00  0.45693030350E+04  0.45693030350E+04  0.00000000000E+00 0. -1.
         -2   -1    0    0    0  501 -0.00000000000E+00 -0.00000000000E+00 -0.14068017544E+01  0.14068017544E+01  0.00000000000E+00 0.  1.
          1    1    1    2  502    0 -0.32377682104E+02 -0.69619330638E+02  0.16259107124E+04  0.16277225839E+04  0.00000000000E+00 0. -1.
         -1    1    1    2    0  501  0.32377682104E+02  0.69619330638E+02  0.29419855209E+04  0.29429872529E+04  0.00000000000E+00 0.  1.
</event>
<event>
 4    1  0.6729064E+001  0.2367961E+02  0.7546771E-02  0.1484136E+00
          2   -1    0    0  502    0  0.00000000000E+00  0.00000000000E+00  0.22849813440E+03  0.22849813440E+03  0.00000000000E+00 0.  1.
         -2   -1    0    0    0  501 -0.00000000000E+00 -0.00000000000E+00 -0.27762402155E+01  0.27762402155E+01  0.00000000000E+00 0. -1.
          1    1    1    2  502    0  0.16797249109E+01 -0.23619956034E+02  0.15226040033E+03  0.15409073076E+03  0.00000000000E+00 0. -1.
         -1    1    1    2    0  501 -0.16797249109E+01  0.23619956034E+02  0.73461493860E+02  0.77183643856E+02  0.00000000000E+00 0.  1.
</event>
<event>
 4    1  0.6729064E+001  0.2266894E+02  0.7546771E-02  0.1496698E+00
          2   -1    0    0  502    0  0.00000000000E+00  0.00000000000E+00  0.18021723659E+04  0.18021723659E+04  0.00000000000E+00 0. -1.
         -2   -1    0    0    0  501 -0.00000000000E+00 -0.00000000000E+00 -0.29423925239E+00  0.29423925239E+00  0.00000000000E+00 0.  1.
          1    1    1    2  502    0 -0.19835584694E+02  0.10974072771E+02  0.10593798763E+04  0.10596223870E+04  0.00000000000E+00 0.  1.
         -1    1    1    2    0  501  0.19835584694E+02 -0.10974072771E+02  0.74249825032E+03  0.74284421814E+03  0.00000000000E+00 0. -1.
</event>
<event>
 4    1  0.6729064E+001  0.2326204E+02  0.7546771E-02  0.1489234E+00
          2   -1    0    0  502    0  0.00000000000E+00  0.00000000000E+00  0.12115362398E+03  0.12115362398E+03  0.00000000000E+00 0.  1.
         -2   -1    0    0    0  501 -0.00000000000E+00 -0.00000000000E+00 -0.46646231729E+01  0.46646231729E+01  0.00000000000E+00 0. -1.
          1    1    1    2  502    0  0.23050942636E+02  0.31267316822E+01  0.45276717434E+02  0.50902883504E+02  0.00000000000E+00 0. -1.
         -1    1    1    2    0  501 -0.23050942636E+02 -0.31267316822E+01  0.71212283376E+02  0.74915363652E+02  0.00000000000E+00 0.  1.
</event>
<event>
 4    1  0.6729064E+001  0.2087851E+02  0.7546771E-02  0.1521007E+00
          2   -1    0    0  502    0  0.00000000000E+00  0.00000000000E+00  0.35720409457E+02  0.35720409457E+02  0.00000000000E+00 0.  1.
         -2   -1    0    0    0  501 -0.00000000000E+00 -0.00000000000E+00 -0.15037854490E+02  0.15037854490E+02  0.00000000000E+00 0. -1.
          1    1    1    2  502    0 -0.12444333055E+02  0.16764562357E+02  0.21359595033E+02  0.29868784311E+02  0.00000000000E+00 0.  1.
         -1    1    1    2    0  501  0.12444333055E+02 -0.16764562357E+02 -0.67704006667E+00  0.20889479636E+02  0.00000000000E+00 0. -1.
</event>
<event>
 4    1  0.6729064E+001  0.4009739E+02  0.7546771E-02  0.1347916E+00
          2   -1    0    0  502    0  0.00000000000E+00  0.00000000000E+00  0.31424057043E+03  0.31424057043E+03  0.00000000000E+00 0.  1.
         -2   -1    0    0    0  501 -0.00000000000E+00 -0.00000000000E+00 -0.52431957129E+01  0.52431957129E+01  0.00000000000E+00 0. -1.
          1    1    1    2  502    0 -0.12801830069E+02  0.37998862246E+02  0.12966367366E+03  0.13572202715E+03  0.00000000000E+00 0. -1.
         -1    1    1    2    0  501  0.12801830069E+02 -0.37998862246E+02  0.17933370105E+03  0.18376173899E+03  0.00000000000E+00 0.  1.
</event>
<event>
 4    1  0.6729064E+001  0.2566052E+02  0.7546771E-02  0.1461548E+00
          2   -1    0    0  502    0  0.00000000000E+00  0.00000000000E+00  0.10047053566E+01  0.10047053566E+01  0.00000000000E+00 0. -1.
         -2   -1    0    0    0  501 -0.00000000000E+00 -0.00000000000E+00 -0.98542452069E+03  0.98542452069E+03  0.00000000000E+00 0.  1.
          1    1    1    2  502    0  0.15842745397E+02 -0.20185880324E+02 -0.20677212013E+03  0.20835827800E+03  0.00000000000E+00 0. -1.
         -1    1    1    2    0  501 -0.15842745397E+02  0.20185880324E+02 -0.77764769520E+03  0.77807094805E+03  0.00000000000E+00 0.  1.
</event>
<event>
 4    1  0.6729064E+001  0.2303602E+02  0.7546771E-02  0.1492046E+00
          2   -1    0    0  502    0  0.00000000000E+00  0.00000000000E+00  0.24453223882E+03  0.24453223882E+03  0.00000000000E+00 0. -1.
         -2   -1    0    0    0  501 -0.00000000000E+00 -0.00000000000E+00 -0.34574340342E+01  0.34574340342E+01  0.00000000000E+00 0.  1.
          1    1    1    2  502    0 -0.13575888940E+02 -0.18610578128E+02  0.44876243930E+02  0.50443390529E+02  0.00000000000E+00 0.  1.
         -1    1    1    2    0  501  0.13575888940E+02  0.18610578128E+02  0.19619856086E+03  0.19754628233E+03  0.00000000000E+00 0. -1.
</event>
<event>
 4    1  0.6729064E+001  0.2249817E+02  0.7546771E-02  0.1498898E+00
          2   -1    0    0  502    0  0.00000000000E+00  0.00000000000E+00  0.61719956047E+02  0.61719956047E+02  0.00000000000E+00 0. -1.
         -2   -1    0    0    0  501 -0.00000000000E+00 -0.00000000000E+00 -0.15436486219E+02  0.15436486219E+02  0.00000000000E+00 0.  1.
          1    1    1    2  502    0  0.10837288415E+01  0.22472057009E+02  0.49553695473E+02  0.54421838902E+02  0.00000000000E+00 0. -1.
         -1    1    1    2    0  501 -0.10837288415E+01 -0.22472057009E+02 -0.32702256448E+01  0.22734603365E+02  0.00000000000E+00 0.  1.
</event>
<event>
 4    1  0.6729064E+001  0.2221827E+02  0.7546771E-02  0.1502555E+00
          2   -1    0    0  502    0  0.00000000000E+00  0.00000000000E+00  0.13125298902E+02  0.13125298902E+02  0.00000000000E+00 0.  1.
         -2   -1    0    0    0  501 -0.00000000000E+00 -0.00000000000E+00 -0.41395219434E+02  0.41395219434E+02  0.00000000000E+00 0. -1.
          1    1    1    2  502    0  0.58324791400E+01 -0.21439074487E+02 -0.22377480925E+02  0.31534162115E+02  0.00000000000E+00 0.  1.
         -1    1    1    2    0  501 -0.58324791400E+01  0.21439074487E+02 -0.58924396082E+01  0.22986356221E+02  0.00000000000E+00 0. -1.
</event>
<event>
 4    1  0.6729064E+001  0.2274801E+02  0.7546771E-02  0.1495687E+00
          2   -1    0    0  502    0  0.00000000000E+00  0.00000000000E+00  0.17371772224E+04  0.17371772224E+04  0.00000000000E+00 0.  1.
         -2   -1    0    0    0  501 -0.00000000000E+00 -0.00000000000E+00 -0.39616847447E+00  0.39616847447E+00  0.00000000000E+00 0. -1.
          1    1    1    2  502    0  0.22057998948E+02  0.55602864665E+01  0.13011257771E+04  0.13013246174E+04  0.00000000000E+00 0.  1.
         -1    1    1    2    0  501 -0.22057998948E+02 -0.55602864665E+01  0.43565527678E+03  0.43624877339E+03  0.00000000000E+00 0. -1.
</event>
<event>
 4    1  0.6729064E+001  0.2106199E+02  0.7546771E-02  0.1518382E+00
          2   -1    0    0  502    0  0.00000000000E+00  0.00000000000E+00  0.52869745794E+02  0.52869745794E+02  0.00000000000E+00 0. -1.
         -2   -1    0    0    0  501 -0.00000000000E+00 -0.00000000000E+00 -0.10620868183E+02  0.10620868183E+02  0.00000000000E+00 0.  1.
          1    1    1    2  502    0  0.16963292566E+02  0.12484151313E+02  0.35671690055E+02  0.41425557330E+02  0.00000000000E+00 0. -1.
         -1    1    1    2    0  501 -0.16963292566E+02 -0.12484151313E+02  0.65771875558E+01  0.22065056647E+02  0.00000000000E+00 0.  1.
</event>
<event>
 4    1  0.6729064E+001  0.2072415E+02  0.7546771E-02  0.1523240E+00
          2   -1    0    0  502    0  0.00000000000E+00  0.00000000000E+00  0.17861694091E+03  0.17861694091E+03  0.00000000000E+00 0.  1.
         -2   -1    0    0    0  501 -0.00000000000E+00 -0.00000000000E+00 -0.25206359684E+01  0.25206359684E+01  0.00000000000E+00 0. -1.
          1    1    1    2  502    0  0.13239838036E+02  0.15943559553E+02  0.10748583049E+03  0.10946549300E+03  0.00000000000E+00 0.  1.
         -1    1    1    2    0  501 -0.13239838036E+02 -0.15943559553E+02  0.68610474449E+02  0.71672083872E+02  0.00000000000E+00 0. -1.
</event>
<event>
 4    1  0.6729064E+001  0.2842315E+02  0.7546771E-02  0.1433813E+00
          2   -1    0    0  502    0  0.00000000000E+00  0.00000000000E+00  0.29136884256E+04  0.29136884256E+04  0.00000000000E+00 0. -1.
         -2   -1    0    0    0  501 -0.00000000000E+00 -0.00000000000E+00 -0.30455839463E+00  0.30455839463E+00  0.00000000000E+00 0.  1.
          1    1    1    2  502    0  0.24464905267E+02 -0.14468719466E+02  0.18928262786E+04  0.18930396711E+04  0.00000000000E+00 0. -1.
         -1    1    1    2    0  501 -0.24464905267E+02  0.14468719466E+02  0.10205575886E+04  0.10209533129E+04  0.00000000000E+00 0.  1.
</event>
<event>
 4    1  0.6729064E+001  0.5442618E+02  0.7546771E-02  0.1280044E+00
          2   -1    0    0  502    0  0.00000000000E+00  0.00000000000E+00  0.47143475112E+02  0.47143475112E+02  0.00000000000E+00 0.  1.
         -2   -1    0    0    0  501 -0.00000000000E+00 -0.00000000000E+00 -0.63049173815E+02  0.63049173815E+02  0.00000000000E+00 0. -1.
          1    1    1    2  502    0  0.53510573276E+02 -0.99412070115E+01 -0.47335255716E+01  0.54631632902E+02  0.00000000000E+00 0. -1.
         -1    1    1    2    0  501 -0.53510573276E+02  0.99412070115E+01 -0.11172173132E+02  0.55561016025E+02  0.00000000000E+00 0.  1.
</event>
<event>
 4    1  0.6729064E+001  0.2128996E+02  0.7546771E-02  0.1515165E+00
          2   -1    0    0  502    0  0.00000000000E+00  0.00000000000E+00  0.61645673855E+03  0.61645673855E+03  0.00000000000E+00 0.  1.
         -2   -1    0    0    0  501 -0.00000000000E+00 -0.00000000000E+00 -0.78790460554E+00  0.78790460554E+00  0.00000000000E+00 0. -1.
          1    1    1    2  502    0 -0.12709101539E+02  0.17080428455E+02  0.22806706346E+03  0.22905861200E+03  0.00000000000E+00 0.  1.
         -1    1    1    2    0  501  0.12709101539E+02 -0.17080428455E+02  0.38760177048E+03  0.38818603115E+03  0.00000000000E+00 0. -1.
</event>
<event>
 4    1  0.6729064E+001  0.3417483E+02  0.7546771E-02  0.1386459E+00
          2   -1    0    0  502    0  0.00000000000E+00  0.00000000000E+00  0.29420431813E+04  0.29420431813E+04  0.00000000000E+00 0. -1.
         -2   -1    0    0    0  501 -0.00000000000E+00 -0.00000000000E+00 -0.40931117380E+00  0.40931117380E+00  0.00000000000E+00 0.  1.
          1    1    1    2  502    0  0.27781363869E+02  0.19902640485E+02  0.17262239507E+04  0.17265622049E+04  0.00000000000E+00 0.  1.
         -1    1    1    2    0  501 -0.27781363869E+02 -0.19902640485E+02  0.12154099194E+04  0.12158902876E+04  0.00000000000E+00 0. -1.
</event>
<event>
 4    1  0.6729064E+001  0.2948307E+02  0.7546771E-02  0.1424142E+00
          2   -1    0    0  502    0  0.00000000000E+00  0.00000000000E+00  0.31439729480E+04  0.31439729480E+04  0.00000000000E+00 0. -1.
         -2   -1    0    0    0  501 -0.00000000000E+00 -0.00000000000E+00 -0.27699988422E+00  0.27699988422E+00  0.00000000000E+00 0.  1.
          1    1    1    2  502    0  0.30011621054E+01 -0.29329923439E+02  0.15038593307E+04  0.15041483098E+04  0.00000000000E+00 0.  1.
         -1    1    1    2    0  501 -0.30011621054E+01  0.29329923439E+02  0.16398366174E+04  0.16401016381E+04  0.00000000000E+00 0. -1.
</event>
<event>
 4    1  0.6729064E+001  0.2226145E+02  0.7546771E-02  0.1501986E+00
          2   -1    0    0  502    0  0.00000000000E+00  0.00000000000E+00  0.16264076944E+04  0.16264076944E+04  0.00000000000E+00 0. -1.
         -2   -1    0    0    0  501 -0.00000000000E+00 -0.00000000000E+00 -0.41757856781E+00  0.41757856781E+00  0.00000000000E+00 0.  1.
          1    1    1    2  502    0 -0.19065967118E+01  0.22179655404E+02  0.39009212298E+03  0.39072680562E+03  0.00000000000E+00 0.  1.
         -1    1    1    2    0  501  0.19065967118E+01 -0.22179655404E+02  0.12358979929E+04  0.12360984674E+04  0.00000000000E+00 0. -1.
</event>
<event>
 4    1  0.6729064E+001  0.2139788E+02  0.7546771E-02  0.1513659E+00
          2   -1    0    0  502    0  0.00000000000E+00  0.00000000000E+00  0.16096775669E+03  0.16096775669E+03  0.00000000000E+00 0.  1.
         -2   -1    0    0    0  501 -0.00000000000E+00 -0.00000000000E+00 -0.28726588590E+01  0.28726588590E+01  0.00000000000E+00 0. -1.
          1    1    1    2  502    0 -0.10824412078E+02 -0.18458095063E+02  0.87161447928E+02  0.89749580362E+02  0.00000000000E+00 0.  1.
         -1    1    1    2    0  501  0.10824412078E+02  0.18458095063E+02  0.70933649899E+02  0.74090835183E+02  0.00000000000E+00 0. -1.
</event>
<event>
 4    1  0.6729064E+001  0.2256517E+02  0.7546771E-02  0.1498032E+00
          2   -1    0    0  502    0  0.00000000000E+00  0.00000000000E+00  0.22977304929E+02  0.22977304929E+02  0.00000000000E+00 0.  1.
         -2   -1    0    0    0  501 -0.00000000000E+00 -0.00000000000E+00 -0.22251431305E+02  0.22251431305E+02  0.00000000000E+00 0. -1.
          1    1    1    2  502    0 -0.10710159140E+02  0.19861506630E+02 -0.10832673571E+01  0.22591158062E+02  0.00000000000E+00 0. -1.
         -1    1    1    2    0  501  0.10710159140E+02 -0.19861506630E+02  0.18091409814E+01  0.22637578172E+02  0.00000000000E+00 0.  1.
</event>
<event>
 4    1  0.6729064E+001  0.2747685E+02  0.7546771E-02  0.1442876E+00
          2   -1    0    0  502    0  0.00000000000E+00  0.00000000000E+00  0.17836380065E+04  0.17836380065E+04  0.00000000000E+00 0. -1.
         -2   -1    0    0    0  501 -0.00000000000E+00 -0.00000000000E+00 -0.42370863950E+00  0.42370863950E+00  0.00000000000E+00 0.  1.
          1    1    1    2  502    0 -0.28815038404E+01 -0.27325344651E+02  0.91999360025E+03  0.92040382552E+03  0.00000000000E+00 0.  1.
         -1    1    1    2    0  501  0.28815038404E+01  0.27325344651E+02  0.86322069757E+03  0.86365788958E+03  0.00000000000E+00 0. -1.
</event>
<event>
 4    1  0.6729064E+001  0.2668895E+02  0.7546771E-02  0.1450758E+00
          2   -1    0    0  502    0  0.00000000000E+00  0.00000000000E+00  0.10671009586E+03  0.10671009586E+03  0.00000000000E+00 0. -1.
         -2   -1    0    0    0  501 -0.00000000000E+00 -0.00000000000E+00 -0.93545039050E+01  0.93545039050E+01  0.00000000000E+00 0.  1.
          1    1    1    2  502    0  0.18971852477E+02 -0.18771493014E+02  0.17619414671E+02  0.31980367567E+02  0.00000000000E+00 0.  1.
         -1    1    1    2    0  501 -0.18971852477E+02  0.18771493014E+02  0.79736177283E+02  0.84084232197E+02  0.00000000000E+00 0. -1.
</event>
<event>
 4    1  0.6729064E+001  0.6433716E+02  0.7546771E-02  0.1245768E+00
          2   -1    0    0  502    0  0.00000000000E+00  0.00000000000E+00  0.22124512631E+04  0.22124512631E+04  0.00000000000E+00 0. -1.
         -2   -1    0    0    0  501 -0.00000000000E+00 -0.00000000000E+00 -0.18779580642E+01  0.18779580642E+01  0.00000000000E+00 0.  1.
          1    1    1    2  502    0 -0.18234133872E+01  0.64311318040E+02  0.11731720024E+04  0.11749348143E+04  0.00000000000E+00 0.  1.
         -1    1    1    2    0  501  0.18234133872E+01 -0.64311318040E+02  0.10374013026E+04  0.10393944069E+04  0.00000000000E+00 0. -1.
</event>
<event>
 4    1  0.6729064E+001  0.2037246E+02  0.7546771E-02  0.1528416E+00
          2   -1    0    0  502    0  0.00000000000E+00  0.00000000000E+00  0.81189044528E+03  0.81189044528E+03  0.00000000000E+00 0. -1.
         -2   -1    0    0    0  501 -0.00000000000E+00 -0.00000000000E+00 -0.11456596245E+01  0.11456596245E+01  0.00000000000E+00 0.  1.
          1    1    1    2  502    0 -0.17665144357E+02  0.10147896861E+02  0.70789271786E+03  0.70818580692E+03  0.00000000000E+00 0. -1.
         -1    1    1    2    0  501  0.17665144357E+02 -0.10147896861E+02  0.10285206780E+03  0.10485029798E+03  0.00000000000E+00 0.  1.
</event>
<event>
 4    1  0.6729064E+001  0.3382823E+02  0.7546771E-02  0.1388994E+00
          2   -1    0    0  502    0  0.00000000000E+00  0.00000000000E+00  0.11668520351E+04  0.11668520351E+04  0.00000000000E+00 0. -1.
         -2   -1    0    0    0  501 -0.00000000000E+00 -0.00000000000E+00 -0.17547844365E+01  0.17547844365E+01  0.00000000000E+00 0.  1.
          1    1    1    2  502    0  0.35232334042E+01 -0.33644258784E+02  0.19447289207E+03  0.19739314850E+03  0.00000000000E+00 0.  1.
         -1    1    1    2    0  501 -0.35232334042E+01  0.33644258784E+02  0.97062435863E+03  0.97121367107E+03  0.00000000000E+00 0. -1.
</event>
<event>
 4    1  0.6729064E+001  0.2642570E+02  0.7546771E-02  0.1453464E+00
          2   -1    0    0  502    0  0.00000000000E+00  0.00000000000E+00  0.11889044915E+02  0.11889044915E+02  0.00000000000E+00 0. -1.
         -2   -1    0    0    0  501 -0.00000000000E+00 -0.00000000000E+00 -0.69006200025E+02  0.69006200025E+02  0.00000000000E+00 0.  1.
          1    1    1    2  502    0 -0.15127752622E+02 -0.21667230397E+02 -0.44162484793E+02  0.51464967070E+02  0.00000000000E+00 0.  1.
         -1    1    1    2    0  501  0.15127752622E+02  0.21667230397E+02 -0.12954670317E+02  0.29430277870E+02  0.00000000000E+00 0. -1.
</event>
<event>
 4    1  0.6729064E+001  0.2055531E+02  0.7546771E-02  0.1525710E+00
          2   -1    0    0  502    0  0.00000000000E+00  0.00000000000E+00  0.10517624671E+04  0.10517624671E+04  0.00000000000E+00 0. -1.
         -2   -1    0    0    0  501 -0.00000000000E+00 -0.00000000000E+00 -0.42215173655E+00  0.42215173655E+00  0.00000000000E+00 0.  1.
          1    1    1    2  502    0 -0.20335382818E+02  0.29988330240E+01  0.40994925151E+03  0.41046426106E+03  0.00000000000E+00 0.  1.
         -1    1    1    2    0  501  0.20335382818E+02 -0.29988330240E+01  0.64139106384E+03  0.64172035776E+03  0.00000000000E+00 0. -1.
</event>
<event>
 4    1  0.6729064E+001  0.2377841E+02  0.7546771E-02  0.1482948E+00
          2   -1    0    0  502    0  0.00000000000E+00  0.00000000000E+00  0.93053297237E+03  0.93053297237E+03  0.00000000000E+00 0.  1.
         -2   -1    0    0    0  501 -0.00000000000E+00 -0.00000000000E+00 -0.87174302051E+00  0.87174302051E+00  0.00000000000E+00 0. -1.
          1    1    1    2  502    0  0.92515693692E+01  0.21904821260E+02  0.20849124893E+03  0.20984283074E+03  0.00000000000E+00 0.  1.
         -1    1    1    2    0  501 -0.92515693692E+01 -0.21904821260E+02  0.72116998042E+03  0.72156188465E+03  0.00000000000E+00 0. -1.
</event>
<event>
 4    1  0.6729064E+001  0.2488736E+02  0.7546771E-02  0.1470067E+00
          2   -1    0    0  502    0  0.00000000000E+00  0.00000000000E+00  0.24003175368E+01  0.24003175368E+01  0.00000000000E+00 0.  1.
         -2   -1    0    0    0  501 -0.00000000000E+00 -0.00000000000E+00 -0.33040428643E+03  0.33040428643E+03  0.00000000000E+00 0. -1.
          1    1    1    2  502    0  0.10516611362E+02 -0.22556190204E+02 -0.86127529914E+02  0.89651169764E+02  0.00000000000E+00 0.  1.
         -1    1    1    2    0  501 -0.10516611362E+02  0.22556190204E+02 -0.24187643898E+03  0.24315343420E+03  0.00000000000E+00 0. -1.
</event>
<event>
 4    1  0.6729064E+001  0.4782431E+02  0.7546771E-02  0.1307891E+00
          2   -1    0    0  502    0  0.00000000000E+00  0.00000000000E+00  0.53508456464E+03  0.53508456464E+03  0.00000000000E+00 0.  1.
         -2   -1    0    0    0  501 -0.00000000000E+00 -0.00000000000E+00 -0.46047135014E+01  0.46047135014E+01  0.00000000000E+00 0. -1.
          1    1    1    2  502    0  0.43186961616E+02 -0.20543868104E+02  0.19296673316E+03  0.19880473907E+03  0.00000000000E+00 0. -1.
         -1    1    1    2    0  501 -0.43186961616E+02  0.20543868104E+02  0.33751311797E+03  0.34088453907E+03  0.00000000000E+00 0.  1.
</event>
<event>
 4    1  0.6729064E+001  0.2434846E+02  0.7546771E-02  0.1476226E+00
          2   -1    0    0  502    0  0.00000000000E+00  0.00000000000E+00  0.36731583616E+02  0.36731583616E+02  0.00000000000E+00 0. -1.
         -2   -1    0    0    0  501 -0.00000000000E+00 -0.00000000000E+00 -0.16182335431E+02  0.16182335431E+02  0.00000000000E+00 0.  1.
          1    1    1    2  502    0 -0.67786090996E+01  0.23385850539E+02  0.11627945769E+02  0.26982525263E+02  0.00000000000E+00 0. -1.
         -1    1    1    2    0  501  0.67786090996E+01 -0.23385850539E+02  0.89213024166E+01  0.25931393784E+02  0.00000000000E+00 0.  1.
</event>
<event>
 4    1  0.6729064E+001  0.2645662E+02  0.7546771E-02  0.1453144E+00
          2   -1    0    0  502    0  0.00000000000E+00  0.00000000000E+00  0.11479377231E+04  0.11479377231E+04  0.00000000000E+00 0.  1.
         -2   -1    0    0    0  501 -0.00000000000E+00 -0.00000000000E+00 -0.69468862450E+00  0.69468862450E+00  0.00000000000E+00 0. -1.
          1    1    1    2  502    0 -0.24957678573E+02 -0.87787855850E+01  0.37279846805E+03  0.37373607075E+03  0.00000000000E+00 0. -1.
         -1    1    1    2    0  501  0.24957678573E+02  0.87787855850E+01  0.77444456641E+03  0.77489634096E+03  0.00000000000E+00 0.  1.
</event>
<event>
 4    1  0.6729064E+001  0.3738633E+02  0.7546771E-02  0.1364522E+00
          2   -1    0    0  502    0  0.00000000000E+00  0.00000000000E+00  0.17221867588E+03  0.17221867588E+03  0.00000000000E+00 0.  1.
         -2   -1    0    0    0  501 -0.00000000000E+00 -0.00000000000E+00 -0.87991646983E+01  0.87991646983E+01  0.00000000000E+00 0. -1.
          1    1    1    2  502    0 -0.10041819445E+02 -0.36012492946E+02  0.56491616085E+02  0.67742456952E+02  0.00000000000E+00 0. -1.
         -1    1    1    2    0  501  0.10041819445E+02  0.36012492946E+02  0.10692789510E+03  0.11327538363E+03  0.00000000000E+00 0.  1.
</event>
<event>
 4    1  0.6729064E+001  0.2075338E+02  0.7546771E-02  0.1522815E+00
          2   -1    0    0  502    0  0.00000000000E+00  0.00000000000E+00  0.58984849271E+00  0.58984849271E+00  0.00000000000E+00 0. -1.
         -2   -1    0    0    0  501 -0.00000000000E+00 -0.00000000000E+00 -0.86260183536E+03  0.86260183536E+03  0.00000000000E+00 0.  1.
          1    1    1    2  502    0 -0.16978370086E+02 -0.11934732782E+02 -0.26191070780E+03  0.26273165351E+03  0.00000000000E+00 0.  1.
         -1    1    1    2    0  501  0.16978370086E+02  0.11934732782E+02 -0.60010127907E+03  0.60046003034E+03  0.00000000000E+00 0. -1.
</event>
<event>
 4    1  0.6729064E+001  0.2505077E+02  0.7546771E-02  0.1468236E+00
          2   -1    0    0  502    0  0.00000000000E+00  0.00000000000E+00  0.90320741270E+01  0.90320741270E+01  0.00000000000E+00 0. -1.
         -2   -1    0    0    0  501 -0.00000000000E+00 -0.00000000000E+00 -0.88745014583E+02  0.88745014583E+02  0.00000000000E+00 0.  1.
          1    1    1    2  502    0 -0.65505598996E+01 -0.24179153817E+02 -0.17077778611E+02  0.30318176669E+02  0.00000000000E+00 0. -1.
         -1    1    1    2    0  501  0.65505598996E+01  0.24179153817E+02 -0.62635161846E+02  0.67458912041E+02  0.00000000000E+00 0.  1.
</event>
<event>
 4    1  0.6729064E+001  0.3633261E+02  0.7546771E-02  0.1371429E+00
          2   -1    0    0  502    0  0.00000000000E+00  0.00000000000E+00  0.57483707072E+02  0.57483707072E+02  0.00000000000E+00 0.  1.
         -2   -1    0    0    0  501 -0.00000000000E+00 -0.00000000000E+00 -0.31817543085E+02  0.31817543085E+02  0.00000000000E+00 0. -1.
          1    1    1    2  502    0  0.36177219280E+02  0.33566874617E+01  0.36386374454E+02  0.51420101045E+02  0.00000000000E+00 0.  1.
         -1    1    1    2    0  501 -0.36177219280E+02 -0.33566874617E+01 -0.10720210468E+02  0.37881149112E+02  0.00000000000E+00 0. -1.
</event>
<event>
 4    1  0.6729064E+001  0.2453359E+02  0.7546771E-02  0.1474089E+00
          2   -1    0    0  502    0  0.00000000000E+00  0.00000000000E+00  0.13186540811E+04  0.13186540811E+04  0.00000000000E+00 0. -1.
         -2   -1    0    0    0  501 -0.00000000000E+00 -0.00000000000E+00 -0.53102899316E+00  0.53102899316E+00  0.00000000000E+00 0.  1.
          1    1    1    2  502    0  0.23728944478E+02 -0.62316965627E+01  0.41187141948E+03  0.41260145786E+03  0.00000000000E+00 0. -1.
         -1    1    1    2    0  501 -0.23728944478E+02  0.62316965627E+01  0.90625163266E+03  0.90658365226E+03  0.00000000000E+00 0.  1.
</event>
<event>
 4    1  0.6729064E+001  0.2320859E+02  0.7546771E-02  0.1489895E+00
          2   -1    0    0  502    0  0.00000000000E+00  0.00000000000E+00  0.18771876125E+04  0.18771876125E+04  0.00000000000E+00 0.  1.
         -2   -1    0    0    0  501 -0.00000000000E+00 -0.00000000000E+00 -0.32892273660E+00  0.32892273660E+00  0.00000000000E+00 0. -1.
          1    1    1    2  502    0 -0.20491041086E+02  0.10897513924E+02  0.60304196593E+03  0.60348840191E+03  0.00000000000E+00 0. -1.
         -1    1    1    2    0  501  0.20491041086E+02 -0.10897513924E+02  0.12738167239E+04  0.12740281334E+04  0.00000000000E+00 0.  1.
</event>
<event>
 4    1  0.6729064E+001  0.2004094E+02  0.7546771E-02  0.1533411E+00
          2   -1    0    0  502    0  0.00000000000E+00  0.00000000000E+00  0.55317665878E+02  0.55317665878E+02  0.00000000000E+00 0. -1.
         -2   -1    0    0    0  501 -0.00000000000E+00 -0.00000000000E+00 -0.75341886892E+01  0.75341886892E+01  0.00000000000E+00 0.  1.
          1    1    1    2  502    0 -0.15328075767E+02  0.12910817218E+02  0.29880317253E+02  0.35978778010E+02  0.00000000000E+00 0. -1.
         -1    1    1    2    0  501  0.15328075767E+02 -0.12910817218E+02  0.17903159936E+02  0.26873076558E+02  0.00000000000E+00 0.  1.
</event>
<event>
 4    1  0.6729064E+001  0.3172104E+02  0.7546771E-02  0.1405208E+00
          2   -1    0    0  502    0  0.00000000000E+00  0.00000000000E+00  0.12246859767E+03  0.12246859767E+03  0.00000000000E+00 0. -1.
         -2   -1    0    0    0  501 -0.00000000000E+00 -0.00000000000E+00 -0.85919525905E+01  0.85919525905E+01  0.00000000000E+00 0.  1.
          1    1    1    2  502    0  0.26619152138E+02 -0.17252398097E+02  0.70642609521E+02  0.77437734862E+02  0.00000000000E+00 0. -1.
         -1    1    1    2    0  501 -0.26619152138E+02  0.17252398097E+02  0.43234035564E+02  0.53622815403E+02  0.00000000000E+00 0.  1.
</event>
<event>
 4    1  0.6729064E+001  0.2133345E+02  0.7546771E-02  0.1514557E+00
          2   -1    0    0  502    0  0.00000000000E+00  0.00000000000E+00  0.38296712077E+03  0.38296712077E+03  0.00000000000E+00 0. -1.
         -2   -1    0    0    0  501 -0.00000000000E+00 -0.00000000000E+00 -0.12053844814E+01  0.12053844814E+01  0.00000000000E+00 0.  1.
          1    1    1    2  502    0 -0.17935318139E+02  0.11551642641E+02  0.16807598839E+03  0.16942447863E+03  0.00000000000E+00 0. -1.
         -1    1    1    2    0  501  0.17935318139E+02 -0.11551642641E+02  0.21368574790E+03  0.21474802663E+03  0.00000000000E+00 0.  1.
</event>
<event>
 4    1  0.6729064E+001  0.2101737E+02  0.7546771E-02  0.1519017E+00
          2   -1    0    0  502    0  0.00000000000E+00  0.00000000000E+00  0.24561973077E+03  0.24561973077E+03  0.00000000000E+00 0. -1.
         -2   -1    0    0    0  501 -0.00000000000E+00 -0.00000000000E+00 -0.20869381517E+01  0.20869381517E+01  0.00000000000E+00 0.  1.
          1    1    1    2  502    0 -0.20854444278E+02 -0.26118811401E+01  0.75716109880E+02  0.78578998877E+02  0.00000000000E+00 0.  1.
         -1    1    1    2    0  501  0.20854444278E+02  0.26118811401E+01  0.16781668273E+03  0.16912767004E+03  0.00000000000E+00 0. -1.
</event>
<event>
 4    1  0.6729064E+001  0.3768965E+02  0.7546771E-02  0.1362583E+00
          2   -1    0    0  502    0  0.00000000000E+00  0.00000000000E+00  0.19579019240E+04  0.19579019240E+04  0.00000000000E+00 0. -1.
         -2   -1    0    0    0  501 -0.00000000000E+00 -0.00000000000E+00 -0.73967197198E+00  0.73967197198E+00  0.00000000000E+00 0.  1.
          1    1    1    2  502    0  0.76782200309E+01  0.36899248892E+02  0.11140111300E+04  0.11146485129E+04  0.00000000000E+00 0. -1.
         -1    1    1    2    0  501 -0.76782200309E+01 -0.36899248892E+02  0.84315112207E+03  0.84399308307E+03  0.00000000000E+00 0.  1.
</event>
<event>
 4    1  0.6729064E+001  0.2287204E+02  0.7546771E-02  0.1494111E+00
          2   -1    0    0  502    0  0.00000000000E+00  0.00000000000E+00  0.27054382716E+04  0.27054382716E+04  0.00000000000E+00 0.  1.
         -2   -1    0    0    0  501 -0.00000000000E+00 -0.00000000000E+00 -0.20617011897E+00  0.20617011897E+00  0.00000000000E+00 0. -1.
          1    1    1    2  502    0 -0.80920479924E+01  0.21392728466E+02  0.16897974005E+04  0.16899521841E+04  0.00000000000E+00 0.  1.
         -1    1    1    2    0  501  0.80920479924E+01 -0.21392728466E+02  0.10154347010E+04  0.10156922575E+04  0.00000000000E+00 0. -1.
</event>
<event>
 4    1  0.6729064E+001  0.2121407E+02  0.7546771E-02  0.1516230E+00
          2   -1    0    0  502    0  0.00000000000E+00  0.00000000000E+00  0.39250979445E+03  0.39250979445E+03  0.00000000000E+00 0. -1.
         -2   -1    0    0    0  501 -0.00000000000E+00 -0.00000000000E+00 -0.12995658212E+01  0.12995658212E+01  0.00000000000E+00 0.  1.
          1    1    1    2  502    0  0.20443405927E+02  0.56660341026E+01  0.12804223754E+03  0.12978771661E+03  0.00000000000E+00 0. -1.
         -1    1    1    2    0  501 -0.20443405927E+02 -0.56660341026E+01  0.26316799109E+03  0.26402164367E+03  0.00000000000E+00 0.  1.
</event>
<event>
 4    1  0.6729064E+001  0.2508722E+02  0.7546771E-02  0.1467830E+00
          2   -1    0    0  502    0  0.00000000000E+00  0.00000000000E+00  0.40549509144E+01  0.40549509144E+01  0.00000000000E+00 0. -1.
         -2   -1    0    0    0  501 -0.00000000000E+00 -0.00000000000E+00 -0.18619711136E+03  0.18619711136E+03  0.00000000000E+00 0.  1.
          1    1    1    2  502    0 -0.22942567556E+02 -0.10149255198E+02 -0.52264649147E+02  0.57973807341E+02  0.00000000000E+00 0. -1.
         -1    1    1    2    0  501  0.22942567556E+02  0.10149255198E+02 -0.12987751130E+03  0.13227825494E+03  0.00000000000E+00 0.  1.
</event>
<event>
 4    1  0.6729064E+001  0.3376104E+02  0.7546771E-02  0.1389489E+00
          2   -1    0    0  502    0  0.00000000000E+00  0.00000000000E+00  0.12752544702E+04  0.12752544702E+04  0.00000000000E+00 0. -1.
         -2   -1    0    0    0  501 -0.00000000000E+00 -0.00000000000E+00 -0.11017828398E+01  0.11017828398E+01  0.00000000000E+00 0.  1.
          1    1    1    2  502    0 -0.54925829907E+01  0.33311249482E+02  0.91435704677E+03  0.91498011824E+03  0.00000000000E+00 0.  1.
         -1    1    1    2    0  501  0.54925829907E+01 -0.33311249482E+02  0.35979564062E+03  0.36137613483E+03  0.00000000000E+00 0. -1.
</event>
<event>
 4    1  0.6729064E+001  0.2296993E+02  0.7546771E-02  0.1492876E+00
          2   -1    0    0  502    0  0.00000000000E+00  0.00000000000E+00  0.76937159030E+03  0.76937159030E+03  0.00000000000E+00 0.  1.
         -2   -1    0    0    0  501 -0.00000000000E+00 -0.00000000000E+00 -0.76899825700E+00  0.76899825700E+00  0.00000000000E+00 0. -1.
          1    1    1    2  502    0 -0.21239840564E+02 -0.87456648295E+01  0.25762539505E+03  0.25864736931E+03  0.00000000000E+00 0. -1.
         -1    1    1    2    0  501  0.21239840564E+02  0.87456648295E+01  0.51097719699E+03  0.51149321924E+03  0.00000000000E+00 0.  1.
</event>
<event>
 4    1  0.6729064E+001  0.2791166E+02  0.7546771E-02  0.1438659E+00
          2   -1    0    0  502    0  0.00000000000E+00  0.00000000000E+00  0.11043959277E+01  0.11043959277E+01  0.00000000000E+00 0.  1.
         -2   -1    0    0    0  501 -0.00000000000E+00 -0.00000000000E+00 -0.81571012779E+03  0.81571012779E+03  0.00000000000E+00 0. -1.
          1    1    1    2  502    0 -0.84790635335E+01  0.26592596438E+02 -0.55747795495E+03  0.55817625438E+03  0.00000000000E+00 0. -1.
         -1    1    1    2    0  501  0.84790635335E+01 -0.26592596438E+02 -0.25712777691E+03  0.25863826934E+03  0.00000000000E+00 0.  1.
</event>
<event>
 4    1  0.6729064E+001  0.2340885E+02  0.7546771E-02  0.1487427E+00
          2   -1    0    0  502    0  0.00000000000E+00  0.00000000000E+00  0.12844485723E+03  0.12844485723E+03  0.00000000000E+00 0.  1.
         -2   -1    0    0    0  501 -0.00000000000E+00 -0.00000000000E+00 -0.43008720375E+01  0.43008720375E+01  0.00000000000E+00 0. -1.
          1    1    1    2  502    0 -0.11968515058E+02 -0.20117876231E+02  0.68029479940E+02  0.71944314839E+02  0.00000000000E+00 0.  1.
         -1    1    1    2    0  501  0.11968515058E+02  0.20117876231E+02  0.56114505251E+02  0.60801414427E+02  0.00000000000E+00 0. -1.
</event>
<event>
 4    1  0.6729064E+001  0.3863000E+02  0.7546771E-02  0.1356706E+00
          2   -1    0    0  502    0  0.00000000000E+00  0.00000000000E+00  0.10383157132E+02  0.10383157132E+02  0.00000000000E+00 0. -1.
         -2   -1    0    0    0  501 -0.00000000000E+00 -0.00000000000E+00 -0.14372156706E+03  0.14372156706E+03  0.00000000000E+00 0.  1.
          1    1    1    2  502    0 -0.49381427017E+01  0.38313077634E+02 -0.66829309530E+02  0.77190891843E+02  0.00000000000E+00 0.  1.
         -1    1    1    2    0  501  0.49381427017E+01 -0.38313077634E+02 -0.66509100400E+02  0.76913832353E+02  0.00000000000E+00 0. -1.
</event>
<event>
 4    1  0.6729064E+001  0.2609928E+02  0.7546771E-02  0.1456872E+00
          2   -1    0    0  502    0  0.00000000000E+00  0.00000000000E+00  0.71286361120E+01  0.71286361120E+01  0.00000000000E+00 0. -1.
         -2   -1    0    0    0  501 -0.00000000000E+00 -0.00000000000E+00 -0.98257742406E+02  0.98257742406E+02  0.00000000000E+00 0.  1.
          1    1    1    2  502    0  0.16372799338E+01 -0.26047869633E+02 -0.54304837250E+02  0.60251037723E+02  0.00000000000E+00 0.  1.
         -1    1    1    2    0  501 -0.16372799338E+01  0.26047869633E+02 -0.36824269045E+02  0.45135340795E+02  0.00000000000E+00 0. -1.
</event>
<event>
 4    1  0.6729064E+001  0.4793399E+02  0.7546771E-02  0.1307387E+00
          2   -1    0    0  502    0  0.00000000000E+00  0.00000000000E+00  0.14051088706E+04  0.14051088706E+04  0.00000000000E+00 0. -1.
         -2   -1    0    0    0  501 -0.00000000000E+00 -0.00000000000E+00 -0.16355854003E+01  0.16355854003E+01  0.00000000000E+00 0.  1.
          1    1    1    2  502    0 -0.31466608213E+02 -0.36159639291E+02  0.71220034541E+03  0.71381159906E+03  0.00000000000E+00 0. -1.
         -1    1    1    2    0  501  0.31466608213E+02  0.36159639291E+02  0.69127293974E+03  0.69293285689E+03  0.00000000000E+00 0.  1.
</event>
<event>
 4    1  0.6729064E+001  0.2318657E+02  0.7546771E-02  0.1490169E+00
          2   -1    0    0  502    0  0.00000000000E+00  0.00000000000E+00  0.61407676397E+01  0.61407676397E+01  0.00000000000E+00 0.  1.
         -2   -1    0    0    0  501 -0.00000000000E+00 -0.00000000000E+00 -0.15767422436E+03  0.15767422436E+03  0.00000000000E+00 0. -1.
          1    1    1    2  502    0 -0.73120994007E+01  0.22003418643E+02 -0.13039039530E+03  0.13243591814E+03  0.00000000000E+00 0. -1.
         -1    1    1    2    0  501  0.73120994007E+01 -0.22003418643E+02 -0.21143061428E+02  0.31379073858E+02  0.00000000000E+00 0.  1.
</event>
<event>
 4    1  0.6729064E+001  0.2265517E+02  0.7546771E-02  0.1496874E+00
          2   -1    0    0  502    0  0.00000000000E+00  0.00000000000E+00  0.72094152918E+03  0.72094152918E+03  0.00000000000E+00 0.  1.
         -2   -1    0    0    0  501 -0.00000000000E+00 -0.00000000000E+00 -0.97303003403E+00  0.97303003403E+00  0.00000000000E+00 0. -1.
          1    1    1    2  502    0  0.52179318404E+01  0.22046089046E+02  0.54696618996E+03  0.54743517407E+03  0.00000000000E+00 0.  1.
         -1    1    1    2    0  501 -0.52179318404E+01 -0.22046089046E+02  0.17300230919E+03  0.17447938514E+03  0.00000000000E+00 0. -1.
</event>
<event>
 4    1  0.6729064E+001  0.2511212E+02  0.7546771E-02  0.1467553E+00
          2   -1    0    0  502    0  0.00000000000E+00  0.00000000000E+00  0.74515049061E+03  0.74515049061E+03  0.00000000000E+00 0.  1.
         -2   -1    0    0    0  501 -0.00000000000E+00 -0.00000000000E+00 -0.85375452758E+00  0.85375452758E+00  0.00000000000E+00 0. -1.
          1    1    1    2  502    0 -0.12472391150E+01  0.25081128145E+02  0.33728708132E+03  0.33822062891E+03  0.00000000000E+00 0.  1.
         -1    1    1    2    0  501  0.12472391150E+01 -0.25081128145E+02  0.40700965477E+03  0.40778361623E+03  0.00000000000E+00 0. -1.
</event>
<event>
 4    1  0.6729064E+001  0.2305553E+02  0.7546771E-02  0.1491802E+00
          2   -1    0    0  502    0  0.00000000000E+00  0.00000000000E+00  0.42271361470E+01  0.42271361470E+01  0.00000000000E+00 0. -1.
         -2   -1    0    0    0  501 -0.00000000000E+00 -0.00000000000E+00 -0.26881388830E+03  0.26881388830E+03  0.00000000000E+00 0.  1.
          1    1    1    2  502    0 -0.26419008695E+01  0.22903664093E+02 -0.32698079356E+02  0.40009022265E+02  0.00000000000E+00 0. -1.
         -1    1    1    2    0  501  0.26419008695E+01 -0.22903664093E+02 -0.23188867280E+03  0.23303200218E+03  0.00000000000E+00 0.  1.
</event>
<event>
 4    1  0.6729064E+001  0.3666027E+02  0.7546771E-02  0.1369252E+00
          2   -1    0    0  502    0  0.00000000000E+00  0.00000000000E+00  0.88945392671E+03  0.88945392671E+03  0.00000000000E+00 0. -1.
         -2   -1    0    0    0  501 -0.00000000000E+00 -0.00000000000E+00 -0.15120025709E+01  0.15120025709E+01  0.00000000000E+00 0.  1.
          1    1    1    2  502    0  0.22536459303E+00  0.36659576194E+02  0.45537495543E+03  0.45684825199E+03  0.00000000000E+00 0.  1.
         -1    1    1    2    0  501 -0.22536459303E+00 -0.36659576194E+02  0.43256696871E+03  0.43411767729E+03  0.00000000000E+00 0. -1.
</event>
<event>
 4    1  0.6729064E+001  0.4318735E+02  0.7546771E-02  0.1330756E+00
          2   -1    0    0  502    0  0.00000000000E+00  0.00000000000E+00  0.45310369944E+03  0.45310369944E+03  0.00000000000E+00 0. -1.
         -2   -1    0    0    0  501 -0.00000000000E+00 -0.00000000000E+00 -0.53768857842E+01  0.53768857842E+01  0.00000000000E+00 0.  1.
          1    1    1    2  502    0  0.30058901212E+02 -0.31009827489E+02  0.33485702123E+03  0.33763052529E+03  0.00000000000E+00 0. -1.
         -1    1    1    2    0  501 -0.30058901212E+02  0.31009827489E+02  0.11286979243E+03  0.12085005993E+03  0.00000000000E+00 0.  1.
</event>
<event>
 4    1  0.6729064E+001  0.2191580E+02  0.7546771E-02  0.1506580E+00
          2   -1    0    0  502    0  0.00000000000E+00  0.00000000000E+00  0.40756638682E+03  0.40756638682E+03  0.00000000000E+00 0. -1.
         -2   -1    0    0    0  501 -0.00000000000E+00 -0.00000000000E+00 -0.12665422438E+01  0.12665422438E+01  0.00000000000E+00 0.  1.
          1    1    1    2  502    0 -0.32427320371E+01 -0.21674572826E+02  0.25705624767E+03  0.25798879217E+03  0.00000000000E+00 0.  1.
         -1    1    1    2    0  501  0.32427320371E+01  0.21674572826E+02  0.14924359690E+03  0.15084413689E+03  0.00000000000E+00 0. -1.
</event>
<event>
 4    1  0.6729064E+001  0.2285710E+02  0.7546771E-02  0.1494300E+00
          2   -1    0    0  502    0  0.00000000000E+00  0.00000000000E+00  0.14782812439E+04  0.14782812439E+04  0.00000000000E+00 0. -1.
         -2   -1    0    0    0  501 -0.00000000000E+00 -0.00000000000E+00 -0.40760052662E+00  0.40760052662E+00  0.00000000000E+00 0.  1.
          1    1    1    2  502    0  0.11004072173E+02 -0.20033910735E+02  0.46936782083E+03  0.46992403472E+03  0.00000000000E+00 0.  1.
         -1    1    1    2    0  501 -0.11004072173E+02  0.20033910735E+02  0.10085058225E+04  0.10087648097E+04  0.00000000000E+00 0. -1.
</event>
<event>
 4    1  0.6729064E+001  0.2575171E+02  0.7546771E-02  0.1460567E+00
          2   -1    0    0  502    0  0.00000000000E+00  0.00000000000E+00  0.10614530309E+04  0.10614530309E+04  0.00000000000E+00 0. -1.
         -2   -1    0    0    0  501 -0.00000000000E+00 -0.00000000000E+00 -0.62961883062E+00  0.62961883062E+00  0.00000000000E+00 0.  1.
          1    1    1    2  502    0  0.19458526989E+01 -0.25678087361E+02  0.48374827497E+03  0.48443321939E+03  0.00000000000E+00 0. -1.
         -1    1    1    2    0  501 -0.19458526989E+01  0.25678087361E+02  0.57707513713E+03  0.57764943037E+03  0.00000000000E+00 0.  1.
</event>
<event>
 4    1  0.6729064E+001  0.2825495E+02  0.7546771E-02  0.1435393E+00
          2   -1    0    0  502    0  0.00000000000E+00  0.00000000000E+00  0.74895381015E+01  0.74895381015E+01  0.00000000000E+00 0. -1.
         -2   -1    0    0    0  501 -0.00000000000E+00 -0.00000000000E+00 -0.22190861557E+03  0.22190861557E+03  0.00000000000E+00 0.  1.
          1    1    1    2  502    0  0.28254563937E+02 -0.14682596321E+00 -0.18989220750E+03  0.19198279197E+03  0.00000000000E+00 0.  1.
         -1    1    1    2    0  501 -0.28254563937E+02  0.14682596321E+00 -0.24526869964E+02  0.37415361703E+02  0.00000000000E+00 0. -1.
</event>
<event>
 4    1  0.6729064E+001  0.3275478E+02  0.7546771E-02  0.1397074E+00
          2   -1    0    0  502    0  0.00000000000E+00  0.00000000000E+00  0.28091058503E+04  0.28091058503E+04  0.00000000000E+00 0. -1.
         -2   -1    0    0    0  501 -0.00000000000E+00 -0.00000000000E+00 -0.39888492063E+00  0.39888492063E+00  0.00000000000E+00 0.  1.
          1    1    1    2  502    0  0.11746657822E+02 -0.30575999979E+02  0.11147182184E+04  0.11151993464E+04  0.00000000000E+00 0. -1.
         -1    1    1    2    0  501 -0.11746657822E+02  0.30575999979E+02  0.16939887470E+04  0.16943053889E+04  0.00000000000E+00 0.  1.
</event>
<event>
 4    1  0.6729064E+001  0.2935586E+02  0.7546771E-02  0.1425278E+00
          2   -1    0    0  502    0  0.00000000000E+00  0.00000000000E+00  0.72113941921E+02  0.72113941921E+02  0.00000000000E+00 0.  1.
         -2   -1    0    0    0  501 -0.00000000000E+00 -0.00000000000E+00 -0.16868261129E+02  0.16868261129E+02  0.00000000000E+00 0. -1.
          1    1    1    2  502    0  0.17640347210E+01 -0.29302806756E+02  0.51646596874E+02  0.59406542325E+02  0.00000000000E+00 0.  1.
         -1    1    1    2    0  501 -0.17640347210E+01  0.29302806756E+02  0.35990839170E+01  0.29575660725E+02  0.00000000000E+00 0. -1.
</event>
<event>
 4    1  0.6729064E+001  0.5012856E+02  0.7546771E-02  0.1297616E+00
          2   -1    0    0  502    0  0.00000000000E+00  0.00000000000E+00  0.25767420388E+03  0.25767420388E+03  0.00000000000E+00 0.  1.
         -2   -1    0    0    0  501 -0.00000000000E+00 -0.00000000000E+00 -0.10529887005E+02  0.10529887005E+02  0.00000000000E+00 0. -1.
          1    1    1    2  502    0  0.32233186707E+02 -0.38391336156E+02  0.16001773055E+03  0.16768585840E+03  0.00000000000E+00 0.  1.
         -1    1    1    2    0  501 -0.32233186707E+02  0.38391336156E+02  0.87126586326E+02  0.10051823248E+03  0.00000000000E+00 0. -1.
</event>
<event>
 4    1  0.6729064E+001  0.2761891E+02  0.7546771E-02  0.1441488E+00
          2   -1    0    0  502    0  0.00000000000E+00  0.00000000000E+00  0.12962392321E+02  0.12962392321E+02  0.00000000000E+00 0.  1.
         -2   -1    0    0    0  501 -0.00000000000E+00 -0.00000000000E+00 -0.10776961067E+03  0.10776961067E+03  0.00000000000E+00 0. -1.
          1    1    1    2  502    0 -0.61388549181E+01  0.26928022483E+02 -0.88075746886E+02  0.92304610524E+02  0.00000000000E+00 0. -1.
         -1    1    1    2    0  501  0.61388549181E+01 -0.26928022483E+02 -0.67314714660E+01  0.28427392470E+02  0.00000000000E+00 0.  1.
</event>
<event>
 4    1  0.6729064E+001  0.2250429E+02  0.7546771E-02  0.1498818E+00
          2   -1    0    0  502    0  0.00000000000E+00  0.00000000000E+00  0.23067049011E+02  0.23067049011E+02  0.00000000000E+00 0. -1.
         -2   -1    0    0    0  501 -0.00000000000E+00 -0.00000000000E+00 -0.23015685949E+02  0.23015685949E+02  0.00000000000E+00 0.  1.
          1    1    1    2  502    0  0.22206147739E+02 -0.36510063511E+01  0.49715021311E+01  0.23046880011E+02  0.00000000000E+00 0. -1.
         -1    1    1    2    0  501 -0.22206147739E+02  0.36510063511E+01 -0.49201390695E+01  0.23035854949E+02  0.00000000000E+00 0.  1.
</event>
<event>
 4    1  0.6729064E+001  0.2082594E+02  0.7546771E-02  0.1521765E+00
          2   -1    0    0  502    0  0.00000000000E+00  0.00000000000E+00  0.22662124647E+03  0.22662124647E+03  0.00000000000E+00 0. -1.
         -2   -1    0    0    0  501 -0.00000000000E+00 -0.00000000000E+00 -0.33620703058E+01  0.33620703058E+01  0.00000000000E+00 0.  1.
          1    1    1    2  502    0 -0.20664686206E+02 -0.25866254823E+01  0.18710052110E+03  0.18825600889E+03  0.00000000000E+00 0.  1.
         -1    1    1    2    0  501  0.20664686206E+02  0.25866254823E+01  0.36158655068E+02  0.41727307890E+02  0.00000000000E+00 0. -1.
</event>
<event>
 4    1  0.6729064E+001  0.2662596E+02  0.7546771E-02  0.1451402E+00
          2   -1    0    0  502    0  0.00000000000E+00  0.00000000000E+00  0.71280824706E+03  0.71280824706E+03  0.00000000000E+00 0. -1.
         -2   -1    0    0    0  501 -0.00000000000E+00 -0.00000000000E+00 -0.14891885115E+01  0.14891885115E+01  0.00000000000E+00 0.  1.
          1    1    1    2  502    0 -0.25066462184E+02 -0.89785450442E+01  0.56148869561E+03  0.56211964660E+03  0.00000000000E+00 0. -1.
         -1    1    1    2    0  501  0.25066462184E+02  0.89785450442E+01  0.14983036293E+03  0.15217778896E+03  0.00000000000E+00 0.  1.
</event>
<event>
 4    1  0.6729064E+001  0.2273144E+02  0.7546771E-02  0.1495898E+00
          2   -1    0    0  502    0  0.00000000000E+00  0.00000000000E+00  0.11181763399E+02  0.11181763399E+02  0.00000000000E+00 0.  1.
         -2   -1    0    0    0  501 -0.00000000000E+00 -0.00000000000E+00 -0.50556068073E+02  0.50556068073E+02  0.00000000000E+00 0. -1.
          1    1    1    2  502    0 -0.26526158483E+01  0.22576136846E+02 -0.10637276954E+02  0.25097210736E+02  0.00000000000E+00 0. -1.
         -1    1    1    2    0  501  0.26526158483E+01 -0.22576136846E+02 -0.28737027721E+02  0.36640620736E+02  0.00000000000E+00 0.  1.
</event>
<event>
 4    1  0.6729064E+001  0.2559114E+02  0.7546771E-02  0.1462298E+00
          2   -1    0    0  502    0  0.00000000000E+00  0.00000000000E+00  0.79967708846E+00  0.79967708846E+00  0.00000000000E+00 0.  1.
         -2   -1    0    0    0  501 -0.00000000000E+00 -0.00000000000E+00 -0.85737044421E+03  0.85737044421E+03  0.00000000000E+00 0. -1.
          1    1    1    2  502    0  0.15742940329E+02 -0.20175879208E+02 -0.51910183936E+03  0.51973226367E+03  0.00000000000E+00 0. -1.
         -1    1    1    2    0  501 -0.15742940329E+02  0.20175879208E+02 -0.33746892776E+03  0.33843785763E+03  0.00000000000E+00 0.  1.
</event>
<event>
 4    1  0.6729064E+001  0.2244676E+02  0.7546771E-02  0.1499565E+00
          2   -1    0    0  502    0  0.00000000000E+00  0.00000000000E+00  0.12805205840E+01  0.12805205840E+01  0.00000000000E+00 0. -1.
         -2   -1    0    0    0  501 -0.00000000000E+00 -0.00000000000E+00 -0.55350492865E+03  0.55350492865E+03  0.00000000000E+00 0.  1.
          1    1    1    2  502    0 -0.17768071337E+00 -0.22446057246E+02 -0.12695973236E+03  0.12892878150E+03  0.00000000000E+00 0. -1.
         -1    1    1    2    0  501  0.17768071337E+00  0.22446057246E+02 -0.42526467570E+03  0.42585666773E+03  0.00000000000E+00 0.  1.
</event>
<event>
 4    1  0.6729064E+001  0.3416027E+02  0.7546771E-02  0.1386565E+00
          2   -1    0    0  502    0  0.00000000000E+00  0.00000000000E+00  0.10398949792E+02  0.10398949792E+02  0.00000000000E+00 0. -1.
         -2   -1    0    0    0  501 -0.00000000000E+00 -0.00000000000E+00 -0.14691646205E+03  0.14691646205E+03  0.00000000000E+00 0.  1.
          1    1    1    2  502    0 -0.18868639986E+02 -0.28476274199E+02 -0.30031198465E+02  0.45484026300E+02  0.00000000000E+00 0. -1.
         -1    1    1    2    0  501  0.18868639986E+02  0.28476274199E+02 -0.10648631379E+03  0.11183138554E+03  0.00000000000E+00 0.  1.
</event>
<event>
 4    1  0.6729064E+001  0.3535201E+02  0.7546771E-02  0.1378105E+00
          2   -1    0    0  502    0  0.00000000000E+00  0.00000000000E+00  0.19324786611E+02  0.19324786611E+02  0.00000000000E+00 0. -1.
         -2   -1    0    0    0  501 -0.00000000000E+00 -0.00000000000E+00 -0.64695843474E+02  0.64695843474E+02  0.00000000000E+00 0.  1.
          1    1    1    2  502    0  0.32460391004E+02  0.14003124375E+02 -0.21871953715E+02  0.41570985503E+02  0.00000000000E+00 0.  1.
         -1    1    1    2    0  501 -0.32460391004E+02 -0.14003124375E+02 -0.23499103149E+02  0.42449644582E+02  0.00000000000E+00 0. -1.
</event>
<event>
 4    1  0.6729064E+001  0.2261109E+02  0.7546771E-02  0.1497440E+00
          2   -1    0    0  502    0  0.00000000000E+00  0.00000000000E+00  0.51785974941E+03  0.51785974941E+03  0.00000000000E+00 0.  1.
         -2   -1    0    0    0  501 -0.00000000000E+00 -0.00000000000E+00 -0.12516130946E+01  0.12516130946E+01  0.00000000000E+00 0. -1.
          1    1    1    2  502    0 -0.17725942762E+02 -0.14037534657E+02  0.37758992184E+03  0.37826632219E+03  0.00000000000E+00 0.  1.
         -1    1    1    2    0  501  0.17725942762E+02  0.14037534657E+02  0.13901821447E+03  0.14084504031E+03  0.00000000000E+00 0. -1.
</event>
<event>
 4    1  0.6729064E+001  0.2212536E+02  0.7546771E-02  0.1503783E+00
          2   -1    0    0  502    0  0.00000000000E+00  0.00000000000E+00  0.12662495542E+02  0.12662495542E+02  0.00000000000E+00 0.  1.
         -2   -1    0    0    0  501 -0.00000000000E+00 -0.00000000000E+00 -0.43509848120E+02  0.43509848120E+02  0.00000000000E+00 0. -1.
          1    1    1    2  502    0  0.21817742185E+02  0.36766533523E+01 -0.60466672986E+01  0.22936735586E+02  0.00000000000E+00 0. -1.
         -1    1    1    2    0  501 -0.21817742185E+02 -0.36766533523E+01 -0.24800685280E+02  0.33235608077E+02  0.00000000000E+00 0.  1.
</event>
<event>
 4    1  0.6729064E+001  0.3911548E+02  0.7546771E-02  0.1353748E+00
          2   -1    0    0  502    0  0.00000000000E+00  0.00000000000E+00  0.96422137747E+02  0.96422137747E+02  0.00000000000E+00 0.  1.
         -2   -1    0    0    0  501 -0.00000000000E+00 -0.00000000000E+00 -0.16622988369E+02  0.16622988369E+02  0.00000000000E+00 0. -1.
          1    1    1    2  502    0 -0.39085945024E+02 -0.15197894366E+01  0.51945889280E+02  0.65026119917E+02  0.00000000000E+00 0.  1.
         -1    1    1    2    0  501  0.39085945024E+02  0.15197894366E+01  0.27853260098E+02  0.48019006200E+02  0.00000000000E+00 0. -1.
</event>
<event>
 4    1  0.6729064E+001  0.2876783E+02  0.7546771E-02  0.1430615E+00
          2   -1    0    0  502    0  0.00000000000E+00  0.00000000000E+00  0.13068848790E+03  0.13068848790E+03  0.00000000000E+00 0. -1.
         -2   -1    0    0    0  501 -0.00000000000E+00 -0.00000000000E+00 -0.72766194503E+01  0.72766194503E+01  0.00000000000E+00 0.  1.
          1    1    1    2  502    0  0.13889367170E+02 -0.25192727660E+02  0.86553410281E+02  0.91208995602E+02  0.00000000000E+00 0. -1.
         -1    1    1    2    0  501 -0.13889367170E+02  0.25192727660E+02  0.36858458169E+02  0.46756111749E+02  0.00000000000E+00 0.  1.
</event>
<event>
 4    1  0.6729064E+001  0.2198825E+02  0.7546771E-02  0.1505609E+00
          2   -1    0    0  502    0  0.00000000000E+00  0.00000000000E+00  0.12527758525E+04  0.12527758525E+04  0.00000000000E+00 0.  1.
         -2   -1    0    0    0  501 -0.00000000000E+00 -0.00000000000E+00 -0.63218466542E+00  0.63218466542E+00  0.00000000000E+00 0. -1.
          1    1    1    2  502    0  0.11150698352E+02 -0.18951118876E+02  0.10172127969E+04  0.10174504200E+04  0.00000000000E+00 0.  1.
         -1    1    1    2    0  501 -0.11150698352E+02  0.18951118876E+02  0.23493087090E+03  0.23595761713E+03  0.00000000000E+00 0. -1.
</event>
<event>
 4    1  0.6729064E+001  0.2329716E+02  0.7546771E-02  0.1488800E+00
          2   -1    0    0  502    0  0.00000000000E+00  0.00000000000E+00  0.22076628944E+01  0.22076628944E+01  0.00000000000E+00 0.  1.
         -2   -1    0    0    0  501 -0.00000000000E+00 -0.00000000000E+00 -0.27840167594E+03  0.27840167594E+03  0.00000000000E+00 0. -1.
          1    1    1    2  502    0  0.20554517915E+02  0.10966734630E+02 -0.90122320193E+02  0.93084854150E+02  0.00000000000E+00 0.  1.
         -1    1    1    2    0  501 -0.20554517915E+02 -0.10966734630E+02 -0.18607169285E+03  0.18752448469E+03  0.00000000000E+00 0. -1.
</event>
<event>
 4    1  0.6729064E+001  0.4698208E+02  0.7546771E-02  0.1311815E+00
          2   -1    0    0  502    0  0.00000000000E+00  0.00000000000E+00  0.78670878713E+03  0.78670878713E+03  0.00000000000E+00 0. -1.
         -2   -1    0    0    0  501 -0.00000000000E+00 -0.00000000000E+00 -0.30014969232E+01  0.30014969232E+01  0.00000000000E+00 0.  1.
          1    1    1    2  502    0  0.23391180472E+02  0.40745170218E+02  0.49268717735E+03  0.49492218676E+03  0.00000000000E+00 0. -1.
         -1    1    1    2    0  501 -0.23391180472E+02 -0.40745170218E+02  0.29102011285E+03  0.29478809729E+03  0.00000000000E+00 0.  1.
</event>
<event>
 4    1  0.6729064E+001  0.2336728E+02  0.7546771E-02  0.1487937E+00
          2   -1    0    0  502    0  0.00000000000E+00  0.00000000000E+00  0.20233016382E+02  0.20233016382E+02  0.00000000000E+00 0. -1.
         -2   -1    0    0    0  501 -0.00000000000E+00 -0.00000000000E+00 -0.29121247274E+02  0.29121247274E+02  0.00000000000E+00 0.  1.
          1    1    1    2  502    0 -0.20764416318E+02  0.10717687447E+02  0.22363241571E+01  0.23474048543E+02  0.00000000000E+00 0. -1.
         -1    1    1    2    0  501  0.20764416318E+02 -0.10717687447E+02 -0.11124555050E+02  0.25880215113E+02  0.00000000000E+00 0.  1.
</event>
<event>
 4    1  0.6729064E+001  0.3202480E+02  0.7546771E-02  0.1402780E+00
          2   -1    0    0  502    0  0.00000000000E+00  0.00000000000E+00  0.68052303318E+02  0.68052303318E+02  0.00000000000E+00 0. -1.
         -2   -1    0    0    0  501 -0.00000000000E+00 -0.00000000000E+00 -0.27301541046E+02  0.27301541046E+02  0.00000000000E+00 0.  1.
          1    1    1    2  502    0 -0.96431244285E+01 -0.30538471740E+02  0.52286704266E+02  0.61314660139E+02  0.00000000000E+00 0. -1.
         -1    1    1    2    0  501  0.96431244285E+01  0.30538471740E+02 -0.11535941994E+02  0.34039184224E+02  0.00000000000E+00 0.  1.
</event>
<event>
 4    1  0.6729064E+001  0.2096290E+02  0.7546771E-02  0.1519795E+00
          2   -1    0    0  502    0  0.00000000000E+00  0.00000000000E+00  0.38242590710E+03  0.38242590710E+03  0.00000000000E+00 0.  1.
         -2   -1    0    0    0  501 -0.00000000000E+00 -0.00000000000E+00 -0.11655598996E+01  0.11655598996E+01  0.00000000000E+00 0. -1.
          1    1    1    2  502    0  0.68955259689E+01 -0.19796338349E+02  0.16783382800E+03  0.16913792334E+03  0.00000000000E+00 0. -1.
         -1    1    1    2    0  501 -0.68955259689E+01  0.19796338349E+02  0.21342651919E+03  0.21445354365E+03  0.00000000000E+00 0.  1.
</event>
<event>
 4    1  0.6729064E+001  0.2096009E+02  0.7546771E-02  0.1519835E+00
          2   -1    0    0  502    0  0.00000000000E+00  0.00000000000E+00  0.50816317007E+03  0.50816317007E+03  0.00000000000E+00 0.  1.
         -2   -1    0    0    0  501 -0.00000000000E+00 -0.00000000000E+00 -0.11236983798E+01  0.11236983798E+01  0.00000000000E+00 0. -1.
          1    1    1    2  502    0  0.59529646353E+01 -0.20096955027E+02  0.13122900867E+03  0.13289235533E+03  0.00000000000E+00 0. -1.
         -1    1    1    2    0  501 -0.59529646353E+01  0.20096955027E+02  0.37581046302E+03  0.37639451312E+03  0.00000000000E+00 0.  1.
</event>
<event>
 4    1  0.6729064E+001  0.2029625E+02  0.7546771E-02  0.1529554E+00
          2   -1    0    0  502    0  0.00000000000E+00  0.00000000000E+00  0.25937497349E+04  0.25937497349E+04  0.00000000000E+00 0. -1.
         -2   -1    0    0    0  501 -0.00000000000E+00 -0.00000000000E+00 -0.16056259552E+00  0.16056259552E+00  0.00000000000E+00 0.  1.
          1    1    1    2  502    0 -0.19621043240E+02 -0.51915740183E+01  0.14319320375E+04  0.14320758702E+04  0.00000000000E+00 0. -1.
         -1    1    1    2    0  501  0.19621043240E+02  0.51915740183E+01  0.11616571347E+04  0.11618344273E+04  0.00000000000E+00 0.  1.
</event>
<event>
 4    1  0.6729064E+001  0.2027889E+02  0.7546771E-02  0.1529814E+00
          2   -1    0    0  502    0  0.00000000000E+00  0.00000000000E+00  0.76256949476E+01  0.76256949476E+01  0.00000000000E+00 0.  1.
         -2   -1    0    0    0  501 -0.00000000000E+00 -0.00000000000E+00 -0.71704708652E+02  0.71704708652E+02  0.00000000000E+00 0. -1.
          1    1    1    2  502    0 -0.17051242937E+02 -0.10976719038E+02 -0.51789633559E+02  0.55618336821E+02  0.00000000000E+00 0.  1.
         -1    1    1    2    0  501  0.17051242937E+02  0.10976719038E+02 -0.12289380145E+02  0.23712066778E+02  0.00000000000E+00 0. -1.
</event>
<event>
 4    1  0.6729064E+001  0.3596595E+02  0.7546771E-02  0.1373897E+00
          2   -1    0    0  502    0  0.00000000000E+00  0.00000000000E+00  0.49523426555E+03  0.49523426555E+03  0.00000000000E+00 0.  1.
         -2   -1    0    0    0  501 -0.00000000000E+00 -0.00000000000E+00 -0.31973034827E+01  0.31973034827E+01  0.00000000000E+00 0. -1.
          1    1    1    2  502    0 -0.19565827665E+02  0.30178267038E+02  0.35264765217E+03  0.35447696116E+03  0.00000000000E+00 0. -1.
         -1    1    1    2    0  501  0.19565827665E+02 -0.30178267038E+02  0.13938930990E+03  0.14395460787E+03  0.00000000000E+00 0.  1.
</event>
<event>
 4    1  0.6729064E+001  0.2207619E+02  0.7546771E-02  0.1504436E+00
          2   -1    0    0  502    0  0.00000000000E+00  0.00000000000E+00  0.95003829452E+03  0.95003829452E+03  0.00000000000E+00 0.  1.
         -2   -1    0    0    0  501 -0.00000000000E+00 -0.00000000000E+00 -0.61040513208E+00  0.61040513208E+00  0.00000000000E+00 0. -1.
          1    1    1    2  502    0  0.18209655214E+02  0.12480657425E+02  0.66460232537E+03  0.66496887840E+03  0.00000000000E+00 0.  1.
         -1    1    1    2    0  501 -0.18209655214E+02 -0.12480657425E+02  0.28482556402E+03  0.28567982126E+03  0.00000000000E+00 0. -1.
</event>
<event>
 4    1  0.6729064E+001  0.2284565E+02  0.7546771E-02  0.1494445E+00
          2   -1    0    0  502    0  0.00000000000E+00  0.00000000000E+00  0.14618197637E+04  0.14618197637E+04  0.00000000000E+00 0.  1.
         -2   -1    0    0    0  501 -0.00000000000E+00 -0.00000000000E+00 -0.38255236143E+00  0.38255236143E+00  0.00000000000E+00 0. -1.
          1    1    1    2  502    0  0.11761280517E+02  0.19585612051E+02  0.91953159443E+03  0.91981534944E+03  0.00000000000E+00 0.  1.
         -1    1    1    2    0  501 -0.11761280517E+02 -0.19585612051E+02  0.54190561689E+03  0.54238696660E+03  0.00000000000E+00 0. -1.
</event>
<event>
 4    1  0.6729064E+001  0.2181273E+02  0.7546771E-02  0.1507970E+00
          2   -1    0    0  502    0  0.00000000000E+00  0.00000000000E+00  0.11807129517E+04  0.11807129517E+04  0.00000000000E+00 0.  1.
         -2   -1    0    0    0  501 -0.00000000000E+00 -0.00000000000E+00 -0.40355344593E+00  0.40355344593E+00  0.00000000000E+00 0. -1.
          1    1    1    2  502    0 -0.91695136102E+01 -0.19791800313E+02  0.56775588427E+03  0.56817474377E+03  0.00000000000E+00 0. -1.
         -1    1    1    2    0  501  0.91695136102E+01  0.19791800313E+02  0.61255351401E+03  0.61294176140E+03  0.00000000000E+00 0.  1.
</event>
<event>
 4    1  0.6729064E+001  0.3084129E+02  0.7546771E-02  0.1412424E+00
          2   -1    0    0  502    0  0.00000000000E+00  0.00000000000E+00  0.21203983317E+04  0.21203983317E+04  0.00000000000E+00 0. -1.
         -2   -1    0    0    0  501 -0.00000000000E+00 -0.00000000000E+00 -0.45583812830E+00  0.45583812830E+00  0.00000000000E+00 0.  1.
          1    1    1    2  502    0 -0.29484723721E+02 -0.90463513321E+01  0.11937065584E+04  0.11941049087E+04  0.00000000000E+00 0. -1.
         -1    1    1    2    0  501  0.29484723721E+02  0.90463513321E+01  0.92623593513E+03  0.92674926109E+03  0.00000000000E+00 0.  1.
</event>
<event>
 4    1  0.6729064E+001  0.5832781E+02  0.7546771E-02  0.1265622E+00
          2   -1    0    0  502    0  0.00000000000E+00  0.00000000000E+00  0.57602988679E+03  0.57602988679E+03  0.00000000000E+00 0. -1.
         -2   -1    0    0    0  501 -0.00000000000E+00 -0.00000000000E+00 -0.72821759252E+01  0.72821759252E+01  0.00000000000E+00 0.  1.
          1    1    1    2  502    0  0.47921494898E+02 -0.33251527395E+02  0.15759418350E+03  0.16804184128E+03  0.00000000000E+00 0.  1.
         -1    1    1    2    0  501 -0.47921494898E+02  0.33251527395E+02  0.41115352737E+03  0.41527022144E+03  0.00000000000E+00 0. -1.
</event>
<event>
 4    1  0.6729064E+001  0.2088320E+02  0.7546771E-02  0.1520939E+00
          2   -1    0    0  502    0  0.00000000000E+00  0.00000000000E+00  0.96593845592E+03  0.96593845592E+03  0.00000000000E+00 0. -1.
         -2   -1    0    0    0  501 -0.00000000000E+00 -0.00000000000E+00 -0.89371008818E+00  0.89371008818E+00  0.00000000000E+00 0.  1.
          1    1    1    2  502    0 -0.33410176303E+01 -0.20614211047E+02  0.82257313777E+03  0.82283818280E+03  0.00000000000E+00 0. -1.
         -1    1    1    2    0  501  0.33410176303E+01  0.20614211047E+02  0.14247160806E+03  0.14399398321E+03  0.00000000000E+00 0.  1.
</event>
<event>
 4    1  0.6729064E+001  0.2660570E+02  0.7546771E-02  0.1451610E+00
          2   -1    0    0  502    0  0.00000000000E+00  0.00000000000E+00  0.53682346204E+02  0.53682346204E+02  0.00000000000E+00 0.  1.
         -2   -1    0    0    0  501 -0.00000000000E+00 -0.00000000000E+00 -0.22741248433E+02  0.22741248433E+02  0.00000000000E+00 0. -1.
          1    1    1    2  502    0 -0.26558429125E+02  0.15852883648E+01  0.40239520188E+02  0.48239841228E+02  0.00000000000E+00 0.  1.
         -1    1    1    2    0  501  0.26558429125E+02 -0.15852883648E+01 -0.92984224166E+01  0.28183753409E+02  0.00000000000E+00 0. -1.
</event>
<event>
 4    1  0.6729064E+001  0.2439594E+02  0.7546771E-02  0.1475676E+00
          2   -1    0    0  502    0  0.00000000000E+00  0.00000000000E+00  0.28222955950E+02  0.28222955950E+02  0.00000000000E+00 0. -1.
         -2   -1    0    0    0  501 -0.00000000000E+00 -0.00000000000E+00 -0.21087918469E+02  0.21087918469E+02  0.00000000000E+00 0.  1.
          1    1    1    2  502    0  0.21095272983E+02 -0.12253628504E+02  0.36058732646E+01  0.24660986918E+02  0.00000000000E+00 0.  1.
         -1    1    1    2    0  501 -0.21095272983E+02  0.12253628504E+02  0.35291642166E+01  0.24649887501E+02  0.00000000000E+00 0. -1.
</event>
<event>
 4    1  0.6729064E+001  0.3286060E+02  0.7546771E-02  0.1396262E+00
          2   -1    0    0  502    0  0.00000000000E+00  0.00000000000E+00  0.82496903417E+02  0.82496903417E+02  0.00000000000E+00 0. -1.
         -2   -1    0    0    0  501 -0.00000000000E+00 -0.00000000000E+00 -0.13793593262E+02  0.13793593262E+02  0.00000000000E+00 0.  1.
          1    1    1    2  502    0  0.27020761118E+02  0.18700197783E+02  0.23471862895E+02  0.40382512010E+02  0.00000000000E+00 0.  1.
         -1    1    1    2    0  501 -0.27020761118E+02 -0.18700197783E+02  0.45231447260E+02  0.55907984669E+02  0.00000000000E+00 0. -1.
</event>
<event>
 4    1  0.6729064E+001  0.3555085E+02  0.7546771E-02  0.1376731E+00
          2   -1    0    0  502    0  0.00000000000E+00  0.00000000000E+00  0.14199890452E+03  0.14199890452E+03  0.00000000000E+00 0.  1.
         -2   -1    0    0    0  501 -0.00000000000E+00 -0.00000000000E+00 -0.90114010676E+01  0.90114010676E+01  0.00000000000E+00 0. -1.
          1    1    1    2  502    0 -0.26225658431E+02  0.24001620651E+02  0.58117980765E+02  0.68129014687E+02  0.00000000000E+00 0. -1.
         -1    1    1    2    0  501  0.26225658431E+02 -0.24001620651E+02  0.74869522690E+02  0.82881290904E+02  0.00000000000E+00 0.  1.
</event>
<event>
 4    1  0.6729064E+001  0.2064910E+02  0.7546771E-02  0.1524334E+00
          2   -1    0    0  502    0  0.00000000000E+00  0.00000000000E+00  0.48445126741E+03  0.48445126741E+03  0.00000000000E+00 0. -1.
         -2   -1    0    0    0  501 -0.00000000000E+00 -0.00000000000E+00 -0.89557579395E+00  0.89557579395E+00  0.00000000000E+00 0.  1.
          1    1    1    2  502    0  0.88342462965E+01 -0.18663907185E+02  0.27363624099E+03  0.27441424475E+03  0.00000000000E+00 0. -1.
         -1    1    1    2    0  501 -0.88342462965E+01  0.18663907185E+02  0.20991945062E+03  0.21093259845E+03  0.00000000000E+00 0.  1.
</event>
<event>
 4    1  0.6729064E+001  0.2796206E+02  0.7546771E-02  0.1438176E+00
          2   -1    0    0  502    0  0.00000000000E+00  0.00000000000E+00  0.17325999782E+03  0.17325999782E+03  0.00000000000E+00 0.  1.
         -2   -1    0    0    0  501 -0.00000000000E+00 -0.00000000000E+00 -0.69670023358E+01  0.69670023358E+01  0.00000000000E+00 0. -1.
          1    1    1    2  502    0  0.25960910724E+02  0.10387860731E+02  0.13663097718E+03  0.13946289994E+03  0.00000000000E+00 0.  1.
         -1    1    1    2    0  501 -0.25960910724E+02 -0.10387860731E+02  0.29662018311E+02  0.40764100216E+02  0.00000000000E+00 0. -1.
</event>
<event>
 4    1  0.6729064E+001  0.2594651E+02  0.7546771E-02  0.1458487E+00
          2   -1    0    0  502    0  0.00000000000E+00  0.00000000000E+00  0.23784779534E+03  0.23784779534E+03  0.00000000000E+00 0. -1.
         -2   -1    0    0    0  501 -0.00000000000E+00 -0.00000000000E+00 -0.31964077201E+01  0.31964077201E+01  0.00000000000E+00 0.  1.
          1    1    1    2  502    0 -0.25267346374E+02 -0.58976953546E+01  0.15810481076E+03  0.16021970163E+03  0.00000000000E+00 0. -1.
         -1    1    1    2    0  501  0.25267346374E+02  0.58976953546E+01  0.76546576858E+02  0.80824501433E+02  0.00000000000E+00 0.  1.
</event>
<event>
 4    1  0.6729064E+001  0.2898097E+02  0.7546771E-02  0.1428663E+00
          2   -1    0    0  502    0  0.00000000000E+00  0.00000000000E+00  0.15683453442E+04  0.15683453442E+04  0.00000000000E+00 0. -1.
         -2   -1    0    0    0  501 -0.00000000000E+00 -0.00000000000E+00 -0.56618021495E+00  0.56618021495E+00  0.00000000000E+00 0.  1.
          1    1    1    2  502    0 -0.19246693436E+02 -0.21667056912E+02  0.96640739211E+03  0.96684184027E+03  0.00000000000E+00 0.  1.
         -1    1    1    2    0  501  0.19246693436E+02  0.21667056912E+02  0.60137177187E+03  0.60206968414E+03  0.00000000000E+00 0. -1.
</event>
<event>
 4    1  0.6729064E+001  0.2145657E+02  0.7546771E-02  0.1512845E+00
          2   -1    0    0  502    0  0.00000000000E+00  0.00000000000E+00  0.33178562737E+02  0.33178562737E+02  0.00000000000E+00 0.  1.
         -2   -1    0    0    0  501 -0.00000000000E+00 -0.00000000000E+00 -0.21431097201E+02  0.21431097201E+02  0.00000000000E+00 0. -1.
          1    1    1    2  502    0 -0.21007424051E+02  0.43672196567E+01 -0.10338334470E+02  0.23817338903E+02  0.00000000000E+00 0. -1.
         -1    1    1    2    0  501  0.21007424051E+02 -0.43672196567E+01  0.22085800006E+02  0.30792321035E+02  0.00000000000E+00 0.  1.
</event>
<event>
 4    1  0.6729064E+001  0.3344900E+02  0.7546771E-02  0.1391808E+00
          2   -1    0    0  502    0  0.00000000000E+00  0.00000000000E+00  0.16443947658E+03  0.16443947658E+03  0.00000000000E+00 0. -1.
         -2   -1    0    0    0  501 -0.00000000000E+00 -0.00000000000E+00 -0.85698261212E+01  0.85698261212E+01  0.00000000000E+00 0.  1.
          1    1    1    2  502    0  0.31184098780E+02  0.12099083107E+02  0.38667151114E+02  0.51127139603E+02  0.00000000000E+00 0.  1.
         -1    1    1    2    0  501 -0.31184098780E+02 -0.12099083107E+02  0.11720249934E+03  0.12188216309E+03  0.00000000000E+00 0. -1.
</event>
<event>
 4    1  0.6729064E+001  0.2313137E+02  0.7546771E-02  0.1490855E+00
          2   -1    0    0  502    0  0.00000000000E+00  0.00000000000E+00  0.21271300585E+04  0.21271300585E+04  0.00000000000E+00 0. -1.
         -2   -1    0    0    0  501 -0.00000000000E+00 -0.00000000000E+00 -0.30023882357E+00  0.30023882357E+00  0.00000000000E+00 0.  1.
          1    1    1    2  502    0 -0.12680209935E+02  0.19346122570E+02  0.63501714376E+03  0.63543829995E+03  0.00000000000E+00 0.  1.
         -1    1    1    2    0  501  0.12680209935E+02 -0.19346122570E+02  0.14918126759E+04  0.14919919974E+04  0.00000000000E+00 0. -1.
</event>
<event>
 4    1  0.6729064E+001  0.2128957E+02  0.7546771E-02  0.1515171E+00
          2   -1    0    0  502    0  0.00000000000E+00  0.00000000000E+00  0.31144125046E+03  0.31144125046E+03  0.00000000000E+00 0. -1.
         -2   -1    0    0    0  501 -0.00000000000E+00 -0.00000000000E+00 -0.16063181500E+01  0.16063181500E+01  0.00000000000E+00 0.  1.
          1    1    1    2  502    0  0.16620348600E+02 -0.13304496757E+02  0.10692696783E+03  0.10902578627E+03  0.00000000000E+00 0. -1.
         -1    1    1    2    0  501 -0.16620348600E+02  0.13304496757E+02  0.20290796448E+03  0.20402178234E+03  0.00000000000E+00 0.  1.
</event>
<event>
 4    1  0.6729064E+001  0.3008632E+02  0.7546771E-02  0.1418848E+00
          2   -1    0    0  502    0  0.00000000000E+00  0.00000000000E+00  0.16441021237E+03  0.16441021237E+03  0.00000000000E+00 0.  1.
         -2   -1    0    0    0  501 -0.00000000000E+00 -0.00000000000E+00 -0.10228637997E+02  0.10228637997E+02  0.00000000000E+00 0. -1.
          1    1    1    2  502    0  0.23942043053E+02  0.18219920388E+02  0.13642564015E+03  0.13970376593E+03  0.00000000000E+00 0. -1.
         -1    1    1    2    0  501 -0.23942043053E+02 -0.18219920388E+02  0.17755934222E+02  0.34935084437E+02  0.00000000000E+00 0.  1.
</event>
<event>
 4    1  0.6729064E+001  0.4193804E+02  0.7546771E-02  0.1337488E+00
          2   -1    0    0  502    0  0.00000000000E+00  0.00000000000E+00  0.65581552390E+02  0.65581552390E+02  0.00000000000E+00 0.  1.
         -2   -1    0    0    0  501 -0.00000000000E+00 -0.00000000000E+00 -0.41354399123E+02  0.41354399123E+02  0.00000000000E+00 0. -1.
          1    1    1    2  502    0  0.29668506479E+02  0.29640836794E+02 -0.19586016934E+02  0.46286191698E+02  0.00000000000E+00 0. -1.
         -1    1    1    2    0  501 -0.29668506479E+02 -0.29640836794E+02  0.43813170201E+02  0.60649759815E+02  0.00000000000E+00 0.  1.
</event>
<event>
 4    1  0.6729064E+001  0.2752561E+02  0.7546771E-02  0.1442399E+00
          2   -1    0    0  502    0  0.00000000000E+00  0.00000000000E+00  0.55257792280E+03  0.55257792280E+03  0.00000000000E+00 0. -1.
         -2   -1    0    0    0  501 -0.00000000000E+00 -0.00000000000E+00 -0.15470804464E+01  0.15470804464E+01  0.00000000000E+00 0.  1.
          1    1    1    2  502    0 -0.18356546573E+02 -0.20510882205E+02  0.18208034170E+03  0.18414915130E+03  0.00000000000E+00 0.  1.
         -1    1    1    2    0  501  0.18356546573E+02  0.20510882205E+02  0.36895050066E+03  0.36997585195E+03  0.00000000000E+00 0. -1.
</event>
<event>
 4    1  0.6729064E+001  0.2311556E+02  0.7546771E-02  0.1491052E+00
          2   -1    0    0  502    0  0.00000000000E+00  0.00000000000E+00  0.62592836577E+03  0.62592836577E+03  0.00000000000E+00 0.  1.
         -2   -1    0    0    0  501 -0.00000000000E+00 -0.00000000000E+00 -0.11354361036E+01  0.11354361036E+01  0.00000000000E+00 0. -1.
          1    1    1    2  502    0 -0.16842070778E+02 -0.15832685871E+02  0.46858650999E+03  0.46915631364E+03  0.00000000000E+00 0.  1.
         -1    1    1    2    0  501  0.16842070778E+02  0.15832685871E+02  0.15620641968E+03  0.15790748823E+03  0.00000000000E+00 0. -1.
</event>
<event>
 4    1  0.6729064E+001  0.2381506E+02  0.7546771E-02  0.1482509E+00
          2   -1    0    0  502    0  0.00000000000E+00  0.00000000000E+00  0.19316607673E+02  0.19316607673E+02  0.00000000000E+00 0. -1.
         -2   -1    0    0    0  501 -0.00000000000E+00 -0.00000000000E+00 -0.64816465947E+02  0.64816465947E+02  0.00000000000E+00 0.  1.
          1    1    1    2  502    0  0.10175756332E+02 -0.21531634563E+02 -0.53862430431E+02  0.58892433434E+02  0.00000000000E+00 0.  1.
         -1    1    1    2    0  501 -0.10175756332E+02  0.21531634563E+02  0.83625721572E+01  0.25240640186E+02  0.00000000000E+00 0. -1.
</event>
<event>
 4    1  0.6729064E+001  0.2010519E+02  0.7546771E-02  0.1532434E+00
          2   -1    0    0  502    0  0.00000000000E+00  0.00000000000E+00  0.11976282823E+04  0.11976282823E+04  0.00000000000E+00 0. -1.
         -2   -1    0    0    0  501 -0.00000000000E+00 -0.00000000000E+00 -0.35520756126E+00  0.35520756126E+00  0.00000000000E+00 0.  1.
          1    1    1    2  502    0  0.73666660959E+00  0.20091690234E+02  0.46495761018E+03  0.46539209056E+03  0.00000000000E+00 0.  1.
         -1    1    1    2    0  501 -0.73666660959E+00 -0.20091690234E+02  0.73231546459E+03  0.73259139933E+03  0.00000000000E+00 0. -1.
</event>
<event>
 4    1  0.6729064E+001  0.2121417E+02  0.7546771E-02  0.1516229E+00
          2   -1    0    0  502    0  0.00000000000E+00  0.00000000000E+00  0.62714889906E+02  0.62714889906E+02  0.00000000000E+00 0. -1.
         -2   -1    0    0    0  501 -0.00000000000E+00 -0.00000000000E+00 -0.75540485742E+01  0.75540485742E+01  0.00000000000E+00 0.  1.
          1    1    1    2  502    0 -0.31700717417E+01  0.20975974834E+02  0.19720320635E+02  0.28964321518E+02  0.00000000000E+00 0.  1.
         -1    1    1    2    0  501  0.31700717417E+01 -0.20975974834E+02  0.35440520697E+02  0.41304616961E+02  0.00000000000E+00 0. -1.
</event>
<event>
 4    1  0.6729064E+001  0.3590511E+02  0.7546771E-02  0.1374309E+00
          2   -1    0    0  502    0  0.00000000000E+00  0.00000000000E+00  0.69224557712E+01  0.69224557712E+01  0.00000000000E+00 0. -1.
         -2   -1    0    0    0  501 -0.00000000000E+00 -0.00000000000E+00 -0.19329511250E+03  0.19329511250E+03  0.00000000000E+00 0.  1.
          1    1    1    2  502    0  0.35560045436E+02 -0.49659238887E+01 -0.11232379589E+03  0.11792290853E+03  0.00000000000E+00 0.  1.
         -1    1    1    2    0  501 -0.35560045436E+02  0.49659238887E+01 -0.74048860836E+02  0.82294659745E+02  0.00000000000E+00 0. -1.
</event>
<event>
 4    1  0.6729064E+001  0.2554866E+02  0.7546771E-02  0.1462758E+00
          2   -1    0    0  502    0  0.00000000000E+00  0.00000000000E+00  0.46235429930E+02  0.46235429930E+02  0.00000000000E+00 0. -1.
         -2   -1    0    0    0  501 -0.00000000000E+00 -0.00000000000E+00 -0.15820660064E+02  0.15820660064E+02  0.00000000000E+00 0.  1.
          1    1    1    2  502    0  0.53021342419E+01 -0.24992424750E+02  0.25387563468E+02  0.36017527695E+02  0.00000000000E+00 0.  1.
         -1    1    1    2    0  501 -0.53021342419E+01  0.24992424750E+02  0.50272063986E+01  0.26038562299E+02  0.00000000000E+00 0. -1.
</event>
<event>
 4    1  0.6729064E+001  0.3377977E+02  0.7546771E-02  0.1389351E+00
          2   -1    0    0  502    0  0.00000000000E+00  0.00000000000E+00  0.31329802543E+02  0.31329802543E+02  0.00000000000E+00 0.  1.
         -2   -1    0    0    0  501 -0.00000000000E+00 -0.00000000000E+00 -0.36475318245E+02  0.36475318245E+02  0.00000000000E+00 0. -1.
          1    1    1    2  502    0 -0.26188498531E+01  0.33678097942E+02 -0.38772356380E+01  0.34001553078E+02  0.00000000000E+00 0. -1.
         -1    1    1    2    0  501  0.26188498531E+01 -0.33678097942E+02 -0.12682800642E+01  0.33803567709E+02  0.00000000000E+00 0.  1.
</event>
<event>
 4    1  0.6729064E+001  0.2029267E+02  0.7546771E-02  0.1529608E+00
          2   -1    0    0  502    0  0.00000000000E+00  0.00000000000E+00  0.54850775676E+03  0.54850775676E+03  0.00000000000E+00 0.  1.
         -2   -1    0    0    0  501 -0.00000000000E+00 -0.00000000000E+00 -0.20916992179E+01  0.20916992179E+01  0.00000000000E+00 0. -1.
          1    1    1    2  502    0  0.19957469811E+02  0.36731208623E+01  0.52782309779E+02  0.56548781099E+02  0.00000000000E+00 0. -1.
         -1    1    1    2    0  501 -0.19957469811E+02 -0.36731208623E+01  0.49363374776E+03  0.49405067488E+03  0.00000000000E+00 0.  1.
</event>
<event>
 4    1  0.6729064E+001  0.3201879E+02  0.7546771E-02  0.1402828E+00
          2   -1    0    0  502    0  0.00000000000E+00  0.00000000000E+00  0.17439936557E+04  0.17439936557E+04  0.00000000000E+00 0. -1.
         -2   -1    0    0    0  501 -0.00000000000E+00 -0.00000000000E+00 -0.10119016549E+01  0.10119016549E+01  0.00000000000E+00 0.  1.
          1    1    1    2  502    0 -0.29503766000E+02 -0.12439077653E+02  0.30667334944E+03  0.30834030894E+03  0.00000000000E+00 0.  1.
         -1    1    1    2    0  501  0.29503766000E+02  0.12439077653E+02  0.14363084046E+04  0.14366652485E+04  0.00000000000E+00 0. -1.
</event>
<event>
 4    1  0.6729064E+001  0.5123147E+02  0.7546771E-02  0.1292920E+00
          2   -1    0    0  502    0  0.00000000000E+00  0.00000000000E+00  0.31019327321E+04  0.31019327321E+04  0.00000000000E+00 0. -1.
         -2   -1    0    0    0  501 -0.00000000000E+00 -0.00000000000E+00 -0.17075288523E+01  0.17075288523E+01  0.00000000000E+00 0.  1.
          1    1    1    2  502    0 -0.34294407419E+02 -0.38059920690E+02  0.26523050213E+04  0.26527997644E+04  0.00000000000E+00 0. -1.
         -1    1    1    2    0  501  0.34294407419E+02  0.38059920690E+02  0.44792018197E+03  0.45084049658E+03  0.00000000000E+00 0.  1.
</event>
<event>
 4    1  0.6729064E+001  0.2093145E+02  0.7546771E-02  0.1520246E+00
          2   -1    0    0  502    0  0.00000000000E+00  0.00000000000E+00  0.15286241862E+03  0.15286241862E+03  0.00000000000E+00 0. -1.
         -2   -1    0    0    0  501 -0.00000000000E+00 -0.00000000000E+00 -0.30242365516E+01  0.30242365516E+01  0.00000000000E+00 0.  1.
          1    1    1    2  502    0  0.19791059722E+02  0.68146483620E+01  0.57098224991E+02  0.60813919248E+02  0.00000000000E+00 0. -1.
         -1    1    1    2    0  501 -0.19791059722E+02 -0.68146483620E+01  0.92739957073E+02  0.95072735919E+02  0.00000000000E+00 0.  1.
</event>
<event>
 4    1  0.6729064E+001  0.3897243E+02  0.7546771E-02  0.1354615E+00
          2   -1    0    0  502    0  0.00000000000E+00  0.00000000000E+00  0.16303496844E+01  0.16303496844E+01  0.00000000000E+00 0.  1.
         -2   -1    0    0    0  501 -0.00000000000E+00 -0.00000000000E+00 -0.10247173687E+04  0.10247173687E+04  0.00000000000E+00 0. -1.
          1    1    1    2  502    0 -0.36545232605E+02 -0.13538683635E+02 -0.35685621973E+03  0.35897800983E+03  0.00000000000E+00 0. -1.
         -1    1    1    2    0  501  0.36545232605E+02  0.13538683635E+02 -0.66623079930E+03  0.66736970857E+03  0.00000000000E+00 0.  1.
</event>
<event>
 4    1  0.6729064E+001  0.2024578E+02  0.7546771E-02  0.1530311E+00
          2   -1    0    0  502    0  0.00000000000E+00  0.00000000000E+00  0.21113807858E+04  0.21113807858E+04  0.00000000000E+00 0. -1.
         -2   -1    0    0    0  501 -0.00000000000E+00 -0.00000000000E+00 -0.20716414394E+00  0.20716414394E+00  0.00000000000E+00 0.  1.
          1    1    1    2  502    0  0.78961164890E+01 -0.18642500485E+02  0.13203704239E+04  0.13205256332E+04  0.00000000000E+00 0. -1.
         -1    1    1    2    0  501 -0.78961164890E+01  0.18642500485E+02  0.79080319766E+03  0.79106231671E+03  0.00000000000E+00 0.  1.
</event>
<event>
 4    1  0.6729064E+001  0.4219553E+02  0.7546771E-02  0.1336079E+00
          2   -1    0    0  502    0  0.00000000000E+00  0.00000000000E+00  0.85472032308E+03  0.85472032308E+03  0.00000000000E+00 0.  1.
         -2   -1    0    0    0  501 -0.00000000000E+00 -0.00000000000E+00 -0.20834892266E+01  0.20834892266E+01  0.00000000000E+00 0. -1.
          1    1    1    2  502    0 -0.23589174775E+02 -0.34985901400E+02  0.42041531668E+03  0.42252751504E+03  0.00000000000E+00 0.  1.
         -1    1    1    2    0  501  0.23589174775E+02  0.34985901400E+02  0.43222151717E+03  0.43427629726E+03  0.00000000000E+00 0. -1.
</event>
<event>
 4    1  0.6729064E+001  0.2398399E+02  0.7546771E-02  0.1480498E+00
          2   -1    0    0  502    0  0.00000000000E+00  0.00000000000E+00  0.88678428898E+03  0.88678428898E+03  0.00000000000E+00 0. -1.
         -2   -1    0    0    0  501 -0.00000000000E+00 -0.00000000000E+00 -0.98838281701E+00  0.98838281701E+00  0.00000000000E+00 0.  1.
          1    1    1    2  502    0  0.21811328720E+02  0.99748624336E+01  0.18266396752E+03  0.18423180228E+03  0.00000000000E+00 0.  1.
         -1    1    1    2    0  501 -0.21811328720E+02 -0.99748624336E+01  0.70313193864E+03  0.70354086952E+03  0.00000000000E+00 0. -1.
</event>
<event>
 4    1  0.6729064E+001  0.2099796E+02  0.7546771E-02  0.1519294E+00
          2   -1    0    0  502    0  0.00000000000E+00  0.00000000000E+00  0.16966108883E+02  0.16966108883E+02  0.00000000000E+00 0. -1.
         -2   -1    0    0    0  501 -0.00000000000E+00 -0.00000000000E+00 -0.26463669900E+02  0.26463669900E+02  0.00000000000E+00 0.  1.
          1    1    1    2  502    0 -0.11680601947E+01 -0.20965446526E+02 -0.18373239904E+01  0.21078189489E+02  0.00000000000E+00 0.  1.
         -1    1    1    2    0  501  0.11680601947E+01  0.20965446526E+02 -0.76602370270E+01  0.22351589294E+02  0.00000000000E+00 0. -1.
</event>
<event>
 4    1  0.6729064E+001  0.6354751E+02  0.7546771E-02  0.1248233E+00
          2   -1    0    0  502    0  0.00000000000E+00  0.00000000000E+00  0.11506424275E+04  0.11506424275E+04  0.00000000000E+00 0.  1.
         -2   -1    0    0    0  501 -0.00000000000E+00 -0.00000000000E+00 -0.36073685216E+01  0.36073685216E+01  0.00000000000E+00 0. -1.
          1    1    1    2  502    0  0.60801188254E+02 -0.18479767777E+02  0.47850296049E+03  0.48270422570E+03  0.00000000000E+00 0.  1.
         -1    1    1    2    0  501 -0.60801188254E+02  0.18479767777E+02  0.66853209845E+03  0.67154557028E+03  0.00000000000E+00 0. -1.
</event>
<event>
 4    1  0.6729064E+001  0.3899216E+02  0.7546771E-02  0.1354495E+00
          2   -1    0    0  502    0  0.00000000000E+00  0.00000000000E+00  0.16955670587E+02  0.16955670587E+02  0.00000000000E+00 0. -1.
         -2   -1    0    0    0  501 -0.00000000000E+00 -0.00000000000E+00 -0.91458484248E+02  0.91458484248E+02  0.00000000000E+00 0.  1.
          1    1    1    2  502    0 -0.17826792120E+02 -0.34678435168E+02 -0.44835033292E+02  0.59418587945E+02  0.00000000000E+00 0. -1.
         -1    1    1    2    0  501  0.17826792120E+02  0.34678435168E+02 -0.29667780369E+02  0.48995566891E+02  0.00000000000E+00 0.  1.
</event>
<event>
 4    1  0.6729064E+001  0.3730037E+02  0.7546771E-02  0.1365076E+00
          2   -1    0    0  502    0  0.00000000000E+00  0.00000000000E+00  0.23247911713E+03  0.23247911713E+03  0.00000000000E+00 0. -1.
         -2   -1    0    0    0  501 -0.00000000000E+00 -0.00000000000E+00 -0.68007210748E+01  0.68007210748E+01  0.00000000000E+00 0.  1.
          1    1    1    2  502    0 -0.36315415831E+02  0.85151563731E+01  0.71396326444E+02  0.80552794766E+02  0.00000000000E+00 0.  1.
         -1    1    1    2    0  501  0.36315415831E+02 -0.85151563731E+01  0.15428206961E+03  0.15872704344E+03  0.00000000000E+00 0. -1.
</event>
<event>
 4    1  0.6729064E+001  0.4103261E+02  0.7546771E-02  0.1342539E+00
          2   -1    0    0  502    0  0.00000000000E+00  0.00000000000E+00  0.63437684357E+03  0.63437684357E+03  0.00000000000E+00 0.  1.
         -2   -1    0    0    0  501 -0.00000000000E+00 -0.00000000000E+00 -0.33398877954E+01  0.33398877954E+01  0.00000000000E+00 0. -1.
          1    1    1    2  502    0  0.59051303009E+01 -0.40605469106E+02  0.17102801608E+03  0.17588137187E+03  0.00000000000E+00 0. -1.
         -1    1    1    2    0  501 -0.59051303009E+01  0.40605469106E+02  0.46000893970E+03  0.46183535950E+03  0.00000000000E+00 0.  1.
</event>
<event>
 4    1  0.6729064E+001  0.4409467E+02  0.7546771E-02  0.1326029E+00
          2   -1    0    0  502    0  0.00000000000E+00  0.00000000000E+00  0.13249988971E+02  0.13249988971E+02  0.00000000000E+00 0.  1.
         -2   -1    0    0    0  501 -0.00000000000E+00 -0.00000000000E+00 -0.19564789010E+03  0.19564789010E+03  0.00000000000E+00 0. -1.
          1    1    1    2  502    0 -0.43257290653E+02  0.85525912159E+01 -0.38978136233E+02  0.58852655975E+02  0.00000000000E+00 0.  1.
         -1    1    1    2    0  501  0.43257290653E+02 -0.85525912159E+01 -0.14341976490E+03  0.15004522310E+03  0.00000000000E+00 0. -1.
</event>
<event>
 4    1  0.6729064E+001  0.2105200E+02  0.7546771E-02  0.1518524E+00
          2   -1    0    0  502    0  0.00000000000E+00  0.00000000000E+00  0.76719870669E+03  0.76719870669E+03  0.00000000000E+00 0.  1.
         -2   -1    0    0    0  501 -0.00000000000E+00 -0.00000000000E+00 -0.81622554262E+00  0.81622554262E+00  0.00000000000E+00 0. -1.
          1    1    1    2  502    0 -0.17757942283E+02 -0.11306737169E+02  0.17558980585E+03  0.17684729780E+03  0.00000000000E+00 0. -1.
         -1    1    1    2    0  501  0.17757942283E+02  0.11306737169E+02  0.59079267529E+03  0.59116763443E+03  0.00000000000E+00 0.  1.
</event>
<event>
 4    1  0.6729064E+001  0.2605655E+02  0.7546771E-02  0.1457322E+00
          2   -1    0    0  502    0  0.00000000000E+00  0.00000000000E+00  0.99865314240E+00  0.99865314240E+00  0.00000000000E+00 0. -1.
         -2   -1    0    0    0  501 -0.00000000000E+00 -0.00000000000E+00 -0.70875836044E+03  0.70875836044E+03  0.00000000000E+00 0.  1.
          1    1    1    2  502    0 -0.97573489997E+01 -0.24160672195E+02 -0.42553874719E+03  0.42633574716E+03  0.00000000000E+00 0. -1.
         -1    1    1    2    0  501  0.97573489997E+01  0.24160672195E+02 -0.28222096011E+03  0.28342126643E+03  0.00000000000E+00 0.  1.
</event>
<event>
 4    1  0.6729064E+001  0.3607085E+02  0.7546771E-02  0.1373187E+00
          2   -1    0    0  502    0  0.00000000000E+00  0.00000000000E+00  0.18979370704E+04  0.18979370704E+04  0.00000000000E+00 0.  1.
         -2   -1    0    0    0  501 -0.00000000000E+00 -0.00000000000E+00 -0.78170763002E+00  0.78170763002E+00  0.00000000000E+00 0. -1.
          1    1    1    2  502    0 -0.29791706059E+02 -0.20336179154E+02  0.12815666811E+04  0.12820742038E+04  0.00000000000E+00 0.  1.
         -1    1    1    2    0  501  0.29791706059E+02  0.20336179154E+02  0.61558868162E+03  0.61664457418E+03  0.00000000000E+00 0. -1.
</event>
<event>
 4    1  0.6729064E+001  0.4019378E+02  0.7546771E-02  0.1347354E+00
          2   -1    0    0  502    0  0.00000000000E+00  0.00000000000E+00  0.32602234395E+04  0.32602234395E+04  0.00000000000E+00 0. -1.
         -2   -1    0    0    0  501 -0.00000000000E+00 -0.00000000000E+00 -0.61806131052E+00  0.61806131052E+00  0.00000000000E+00 0.  1.
          1    1    1    2  502    0 -0.36101258108E+01  0.40031323033E+02  0.90385263607E+03  0.90474589116E+03  0.00000000000E+00 0. -1.
         -1    1    1    2    0  501  0.36101258108E+01 -0.40031323033E+02  0.23557527421E+04  0.23560956097E+04  0.00000000000E+00 0.  1.
</event>
<event>
 4    1  0.6729064E+001  0.3125230E+02  0.7546771E-02  0.1409017E+00
          2   -1    0    0  502    0  0.00000000000E+00  0.00000000000E+00  0.22795588421E+01  0.22795588421E+01  0.00000000000E+00 0. -1.
         -2   -1    0    0    0  501 -0.00000000000E+00 -0.00000000000E+00 -0.44132184666E+03  0.44132184666E+03  0.00000000000E+00 0.  1.
          1    1    1    2  502    0  0.22948057984E+02  0.21215394914E+02 -0.25738180910E+03  0.25927225460E+03  0.00000000000E+00 0.  1.
         -1    1    1    2    0  501 -0.22948057984E+02 -0.21215394914E+02 -0.18166047872E+03  0.18432915091E+03  0.00000000000E+00 0. -1.
</event>
<event>
 4    1  0.6729064E+001  0.2153358E+02  0.7546771E-02  0.1511781E+00
          2   -1    0    0  502    0  0.00000000000E+00  0.00000000000E+00  0.23815385374E+04  0.23815385374E+04  0.00000000000E+00 0.  1.
         -2   -1    0    0    0  501 -0.00000000000E+00 -0.00000000000E+00 -0.21276040461E+00  0.21276040461E+00  0.00000000000E+00 0. -1.
          1    1    1    2  502    0 -0.21193561614E+02 -0.38115624142E+01  0.15375888003E+04  0.15377395794E+04  0.00000000000E+00 0. -1.
         -1    1    1    2    0  501  0.21193561614E+02  0.38115624142E+01  0.84373697670E+03  0.84401171847E+03  0.00000000000E+00 0.  1.
</event>
<event>
 4    1  0.6729064E+001  0.2189346E+02  0.7546771E-02  0.1506881E+00
          2   -1    0    0  502    0  0.00000000000E+00  0.00000000000E+00  0.20350946709E+03  0.20350946709E+03  0.00000000000E+00 0. -1.
         -2   -1    0    0    0  501 -0.00000000000E+00 -0.00000000000E+00 -0.23553140149E+01  0.23553140149E+01  0.00000000000E+00 0.  1.
          1    1    1    2  502    0  0.11272501730E+02  0.18768436986E+02  0.10091538257E+03  0.10326295542E+03  0.00000000000E+00 0. -1.
         -1    1    1    2    0  501 -0.11272501730E+02 -0.18768436986E+02  0.10023877051E+03  0.10260182569E+03  0.00000000000E+00 0.  1.
</event>
<event>
 4    1  0.6729064E+001  0.3112178E+02  0.7546771E-02  0.1410092E+00
          2   -1    0    0  502    0  0.00000000000E+00  0.00000000000E+00  0.64791942287E+02  0.64791942287E+02  0.00000000000E+00 0. -1.
         -2   -1    0    0    0  501 -0.00000000000E+00 -0.00000000000E+00 -0.17111547866E+02  0.17111547866E+02  0.00000000000E+00 0.  1.
          1    1    1    2  502    0 -0.10139219168E+02  0.29423821273E+02  0.38399001071E+02  0.49427202094E+02  0.00000000000E+00 0. -1.
         -1    1    1    2    0  501  0.10139219168E+02 -0.29423821273E+02  0.92813933500E+01  0.32476288060E+02  0.00000000000E+00 0.  1.
</event>
<event>
 4    1  0.6729064E+001  0.2254015E+02  0.7546771E-02  0.1498355E+00
          2   -1    0    0  502    0  0.00000000000E+00  0.00000000000E+00  0.48774381262E+03  0.48774381262E+03  0.00000000000E+00 0.  1.
         -2   -1    0    0    0  501 -0.00000000000E+00 -0.00000000000E+00 -0.10594954065E+01  0.10594954065E+01  0.00000000000E+00 0. -1.
          1    1    1    2  502    0  0.28846047431E+01  0.22354806140E+02  0.21162320650E+03  0.21282020541E+03  0.00000000000E+00 0. -1.
         -1    1    1    2    0  501 -0.28846047431E+01 -0.22354806140E+02  0.27506111071E+03  0.27598310261E+03  0.00000000000E+00 0.  1.
</event>
<event>
 4    1  0.6729064E+001  0.4056446E+02  0.7546771E-02  0.1345209E+00
          2   -1    0    0  502    0  0.00000000000E+00  0.00000000000E+00  0.55931385423E+03  0.55931385423E+03  0.00000000000E+00 0.  1.
         -2   -1    0    0    0  501 -0.00000000000E+00 -0.00000000000E+00 -0.29859890526E+01  0.29859890526E+01  0.00000000000E+00 0. -1.
          1    1    1    2  502    0 -0.20640202414E+02 -0.34920736780E+02  0.24402173164E+03  0.24737033234E+03  0.00000000000E+00 0. -1.
         -1    1    1    2    0  501  0.20640202414E+02  0.34920736780E+02  0.31230613354E+03  0.31492951093E+03  0.00000000000E+00 0.  1.
</event>
<event>
 4    1  0.6729064E+001  0.2674179E+02  0.7546771E-02  0.1450219E+00
          2   -1    0    0  502    0  0.00000000000E+00  0.00000000000E+00  0.10227927335E+04  0.10227927335E+04  0.00000000000E+00 0.  1.
         -2   -1    0    0    0  501 -0.00000000000E+00 -0.00000000000E+00 -0.97347122557E+00  0.97347122557E+00  0.00000000000E+00 0. -1.
          1    1    1    2  502    0 -0.54371674793E+01  0.26183209316E+02  0.78262221987E+03  0.78307896298E+03  0.00000000000E+00 0.  1.
         -1    1    1    2    0  501  0.54371674793E+01 -0.26183209316E+02  0.23919704245E+03  0.24068724179E+03  0.00000000000E+00 0. -1.
</event>
<event>
 4    1  0.6729064E+001  0.2662543E+02  0.7546771E-02  0.1451407E+00
          2   -1    0    0  502    0  0.00000000000E+00  0.00000000000E+00  0.16494411444E+04  0.16494411444E+04  0.00000000000E+00 0.  1.
         -2   -1    0    0    0  501 -0.00000000000E+00 -0.00000000000E+00 -0.44325307552E+00  0.44325307552E+00  0.00000000000E+00 0. -1.
          1    1    1    2  502    0  0.15125384816E+01 -0.26582431524E+02  0.96826902787E+03  0.96863503125E+03  0.00000000000E+00 0.  1.
         -1    1    1    2    0  501 -0.15125384816E+01  0.26582431524E+02  0.68072886343E+03  0.68124936620E+03  0.00000000000E+00 0. -1.
</event>
<event>
 4    1  0.6729064E+001  0.2665935E+02  0.7546771E-02  0.1451060E+00
          2   -1    0    0  502    0  0.00000000000E+00  0.00000000000E+00  0.71601226249E+02  0.71601226249E+02  0.00000000000E+00 0.  1.
         -2   -1    0    0    0  501 -0.00000000000E+00 -0.00000000000E+00 -0.10124795181E+02  0.10124795181E+02  0.00000000000E+00 0. -1.
          1    1    1    2  502    0  0.21010485886E+02 -0.16409758745E+02  0.36462674626E+02  0.45169097181E+02  0.00000000000E+00 0.  1.
         -1    1    1    2    0  501 -0.21010485886E+02  0.16409758745E+02  0.25013756442E+02  0.36556924250E+02  0.00000000000E+00 0. -1.
</event>
<event>
 4    1  0.6729064E+001  0.3132183E+02  0.7546771E-02  0.1408447E+00
          2   -1    0    0  502    0  0.00000000000E+00  0.00000000000E+00  0.97867354408E+03  0.97867354408E+03  0.00000000000E+00 0.  1.
         -2   -1    0    0    0  501 -0.00000000000E+00 -0.00000000000E+00 -0.10179135893E+01  0.10179135893E+01  0.00000000000E+00 0. -1.
          1    1    1    2  502    0 -0.11168604653E+02 -0.29262929761E+02  0.54923200530E+03  0.55012439724E+03  0.00000000000E+00 0.  1.
         -1    1    1    2    0  501  0.11168604653E+02  0.29262929761E+02  0.42842362519E+03  0.42956706043E+03  0.00000000000E+00 0. -1.
</event>
<event>
 4    1  0.6729064E+001  0.2769167E+02  0.7546771E-02  0.1440781E+00
          2   -1    0    0  502    0  0.00000000000E+00  0.00000000000E+00  0.44315876689E+01  0.44315876689E+01  0.00000000000E+00 0.  1.
         -2   -1    0    0    0  501 -0.00000000000E+00 -0.00000000000E+00 -0.17304530155E+03  0.17304530155E+03  0.00000000000E+00 0. -1.
          1    1    1    2  502    0 -0.27627629857E+02 -0.18821917036E+01 -0.83691743049E+02  0.88154049434E+02  0.00000000000E+00 0.  1.
         -1    1    1    2    0  501  0.27627629857E+02  0.18821917036E+01 -0.84921970830E+02  0.89322839782E+02  0.00000000000E+00 0. -1.
</event>
<event>
 4    1  0.6729064E+001  0.2243291E+02  0.7546771E-02  0.1499745E+00
          2   -1    0    0  502    0  0.00000000000E+00  0.00000000000E+00  0.10776272920E+02  0.10776272920E+02  0.00000000000E+00 0.  1.
         -2   -1    0    0    0  501 -0.00000000000E+00 -0.00000000000E+00 -0.75529774063E+02  0.75529774063E+02  0.00000000000E+00 0. -1.
          1    1    1    2  502    0 -0.20069446292E+02  0.10022612878E+02 -0.57152683431E+01  0.23149508323E+02  0.00000000000E+00 0.  1.
         -1    1    1    2    0  501  0.20069446292E+02 -0.10022612878E+02 -0.59038232800E+02  0.63156538660E+02  0.00000000000E+00 0. -1.
</event>
<event>
 4    1  0.6729064E+001  0.2298896E+02  0.7546771E-02  0.1492637E+00
          2   -1    0    0  502    0  0.00000000000E+00  0.00000000000E+00  0.30298853542E+04  0.30298853542E+04  0.00000000000E+00 0.  1.
         -2   -1    0    0    0  501 -0.00000000000E+00 -0.00000000000E+00 -0.17447069574E+00  0.17447069574E+00  0.00000000000E+00 0. -1.
          1    1    1    2  502    0  0.21299596913E+02 -0.86498334603E+01  0.15389548894E+04  0.15391265848E+04  0.00000000000E+00 0.  1.
         -1    1    1    2    0  501 -0.21299596913E+02  0.86498334603E+01  0.14907559941E+04  0.14909332401E+04  0.00000000000E+00 0. -1.
</event>
<event>
 4    1  0.6729064E+001  0.2108739E+02  0.7546771E-02  0.1518021E+00
          2   -1    0    0  502    0  0.00000000000E+00  0.00000000000E+00  0.76361668708E+01  0.76361668708E+01  0.00000000000E+00 0.  1.
         -2   -1    0    0    0  501 -0.00000000000E+00 -0.00000000000E+00 -0.58269845259E+02  0.58269845259E+02  0.00000000000E+00 0. -1.
          1    1    1    2  502    0  0.25660069104E+01  0.20930690536E+02 -0.24490108317E+02  0.32317852700E+02  0.00000000000E+00 0.  1.
         -1    1    1    2    0  501 -0.25660069104E+01 -0.20930690536E+02 -0.26143570072E+02  0.33588159430E+02  0.00000000000E+00 0. -1.
</event>
<event>
 4    1  0.6729064E+001  0.2888459E+02  0.7546771E-02  0.1429543E+00
          2   -1    0    0  502    0  0.00000000000E+00  0.00000000000E+00  0.14521038071E+02  0.14521038071E+02  0.00000000000E+00 0.  1.
         -2   -1    0    0    0  501 -0.00000000000E+00 -0.00000000000E+00 -0.60638943471E+02  0.60638943471E+02  0.00000000000E+00 0. -1.
          1    1    1    2  502    0  0.26680962853E+02  0.11065509195E+02 -0.14448969115E+02  0.32296934545E+02  0.00000000000E+00 0. -1.
         -1    1    1    2    0  501 -0.26680962853E+02 -0.11065509195E+02 -0.31668936285E+02  0.42863046998E+02  0.00000000000E+00 0.  1.
</event>
<event>
 4    1  0.6729064E+001  0.2690416E+02  0.7546771E-02  0.1448573E+00
          2   -1    0    0  502    0  0.00000000000E+00  0.00000000000E+00  0.76413030117E+03  0.76413030117E+03  0.00000000000E+00 0.  1.
         -2   -1    0    0    0  501 -0.00000000000E+00 -0.00000000000E+00 -0.16562680727E+01  0.16562680727E+01  0.00000000000E+00 0. -1.
          1    1    1    2  502    0 -0.22895801568E+02 -0.14128561412E+02  0.63175358730E+03  0.63232620461E+03  0.00000000000E+00 0. -1.
         -1    1    1    2    0  501  0.22895801568E+02  0.14128561412E+02  0.13072044580E+03  0.13346036463E+03  0.00000000000E+00 0.  1.
</event>
<event>
 4    1  0.6729064E+001  0.2297055E+02  0.7546771E-02  0.1492868E+00
          2   -1    0    0  502    0  0.00000000000E+00  0.00000000000E+00  0.18383751169E+03  0.18383751169E+03  0.00000000000E+00 0. -1.
         -2   -1    0    0    0  501 -0.00000000000E+00 -0.00000000000E+00 -0.36348415617E+01  0.36348415617E+01  0.00000000000E+00 0.  1.
          1    1    1    2  502    0 -0.18546351931E+02  0.13552824724E+02  0.47108119550E+02  0.52410124552E+02  0.00000000000E+00 0.  1.
         -1    1    1    2    0  501  0.18546351931E+02 -0.13552824724E+02  0.13309455058E+03  0.13506222870E+03  0.00000000000E+00 0. -1.
</event>
<event>
 4    1  0.6729064E+001  0.2041260E+02  0.7546771E-02  0.1527819E+00
          2   -1    0    0  502    0  0.00000000000E+00  0.00000000000E+00  0.16090373904E+04  0.16090373904E+04  0.00000000000E+00 0.  1.
         -2   -1    0    0    0  501 -0.00000000000E+00 -0.00000000000E+00 -0.48075533468E+00  0.48075533468E+00  0.00000000000E+00 0. -1.
          1    1    1    2  502    0 -0.20386553129E+02 -0.10308056982E+01  0.13508931045E+04  0.13510473174E+04  0.00000000000E+00 0.  1.
         -1    1    1    2    0  501  0.20386553129E+02  0.10308056982E+01  0.25766353059E+03  0.25847082834E+03  0.00000000000E+00 0. -1.
</event>
<event>
 4    1  0.6729064E+001  0.3036820E+02  0.7546771E-02  0.1416423E+00
          2   -1    0    0  502    0  0.00000000000E+00  0.00000000000E+00  0.19575091012E+04  0.19575091012E+04  0.00000000000E+00 0.  1.
         -2   -1    0    0    0  501 -0.00000000000E+00 -0.00000000000E+00 -0.70594559784E+00  0.70594559784E+00  0.00000000000E+00 0. -1.
          1    1    1    2  502    0  0.27232692860E+02 -0.13439051267E+02  0.15430975211E+04  0.15433963157E+04  0.00000000000E+00 0.  1.
         -1    1    1    2    0  501 -0.27232692860E+02  0.13439051267E+02  0.41370563447E+03  0.41481873108E+03  0.00000000000E+00 0. -1.
</event>
<event>
 4    1  0.6729064E+001  0.2555517E+02  0.7546771E-02  0.1462688E+00
          2   -1    0    0  502    0  0.00000000000E+00  0.00000000000E+00  0.62720532229E+03  0.62720532229E+03  0.00000000000E+00 0.  1.
         -2   -1    0    0    0  501 -0.00000000000E+00 -0.00000000000E+00 -0.14716036992E+01  0.14716036992E+01  0.00000000000E+00 0. -1.
          1    1    1    2  502    0  0.22569805485E+02  0.11986257206E+02  0.14287670902E+03  0.14514413685E+03  0.00000000000E+00 0. -1.
         -1    1    1    2    0  501 -0.22569805485E+02 -0.11986257206E+02  0.48285700958E+03  0.48353278914E+03  0.00000000000E+00 0.  1.
</event>
<event>
 4    1  0.6729064E+001  0.2917792E+02  0.7546771E-02  0.1426877E+00
          2   -1    0    0  502    0  0.00000000000E+00  0.00000000000E+00  0.11189247929E+04  0.11189247929E+04  0.00000000000E+00 0. -1.
         -2   -1    0    0    0  501 -0.00000000000E+00 -0.00000000000E+00 -0.90195241399E+00  0.90195241399E+00  0.00000000000E+00 0.  1.
          1    1    1    2  502    0  0.94967568475E+01  0.27589174636E+02  0.33756287043E+03  0.33882154955E+03  0.00000000000E+00 0.  1.
         -1    1    1    2    0  501 -0.94967568475E+01 -0.27589174636E+02  0.78045997010E+03  0.78100519580E+03  0.00000000000E+00 0. -1.
</event>
<event>
 4    1  0.6729064E+001  0.6045882E+02  0.7546771E-02  0.1258282E+00
          2   -1    0    0  502    0  0.00000000000E+00  0.00000000000E+00  0.78213049357E+02  0.78213049357E+02  0.00000000000E+00 0.  1.
         -2   -1    0    0    0  501 -0.00000000000E+00 -0.00000000000E+00 -0.72018230302E+02  0.72018230302E+02  0.00000000000E+00 0. -1.
          1    1    1    2  502    0  0.60013876578E+02  0.73214578859E+01 -0.41409493560E+02  0.73280388129E+02  0.00000000000E+00 0. -1.
         -1    1    1    2    0  501 -0.60013876578E+02 -0.73214578859E+01  0.47604312616E+02  0.76950891529E+02  0.00000000000E+00 0.  1.
</event>
<event>
 4    1  0.6729064E+001  0.2914597E+02  0.7546771E-02  0.1427166E+00
          2   -1    0    0  502    0  0.00000000000E+00  0.00000000000E+00  0.36309670650E+02  0.36309670650E+02  0.00000000000E+00 0. -1.
         -2   -1    0    0    0  501 -0.00000000000E+00 -0.00000000000E+00 -0.39356173863E+02  0.39356173863E+02  0.00000000000E+00 0.  1.
          1    1    1    2  502    0 -0.24062809561E+02  0.16445934426E+02  0.22569550702E+02  0.36862883528E+02  0.00000000000E+00 0. -1.
         -1    1    1    2    0  501  0.24062809561E+02 -0.16445934426E+02 -0.25616053914E+02  0.38802960986E+02  0.00000000000E+00 0.  1.
</event>
<event>
 4    1  0.6729064E+001  0.2228193E+02  0.7546771E-02  0.1501717E+00
          2   -1    0    0  502    0  0.00000000000E+00  0.00000000000E+00  0.15964289625E+02  0.15964289625E+02  0.00000000000E+00 0.  1.
         -2   -1    0    0    0  501 -0.00000000000E+00 -0.00000000000E+00 -0.13133460990E+03  0.13133460990E+03  0.00000000000E+00 0. -1.
          1    1    1    2  502    0  0.68602748211E+01  0.21199548230E+02  0.66560861757E+01  0.23254842484E+02  0.00000000000E+00 0.  1.
         -1    1    1    2    0  501 -0.68602748211E+01 -0.21199548230E+02 -0.12202640645E+03  0.12404405704E+03  0.00000000000E+00 0. -1.
</event>
<event>
 4    1  0.6729064E+001  0.2889678E+02  0.7546771E-02  0.1429432E+00
          2   -1    0    0  502    0  0.00000000000E+00  0.00000000000E+00  0.16594111411E+04  0.16594111411E+04  0.00000000000E+00 0.  1.
         -2   -1    0    0    0  501 -0.00000000000E+00 -0.00000000000E+00 -0.12861354173E+01  0.12861354173E+01  0.00000000000E+00 0. -1.
          1    1    1    2  502    0  0.28605894320E+02  0.40897971379E+01  0.18120607692E+03  0.18349568372E+03  0.00000000000E+00 0. -1.
         -1    1    1    2    0  501 -0.28605894320E+02 -0.40897971379E+01  0.14769189287E+04  0.14772015928E+04  0.00000000000E+00 0.  1.
</event>
<event>
 4    1  0.6729064E+001  0.2148346E+02  0.7546771E-02  0.1512473E+00
          2   -1    0    0  502    0  0.00000000000E+00  0.00000000000E+00  0.47293851582E+02  0.47293851582E+02  0.00000000000E+00 0. -1.
         -2   -1    0    0    0  501 -0.00000000000E+00 -0.00000000000E+00 -0.10923507955E+02  0.10923507955E+02  0.00000000000E+00 0.  1.
          1    1    1    2  502    0 -0.20127941238E+02 -0.75103267521E+01  0.86808909302E+01  0.23171035664E+02  0.00000000000E+00 0.  1.
         -1    1    1    2    0  501  0.20127941238E+02  0.75103267521E+01  0.27689452697E+02  0.35046323873E+02  0.00000000000E+00 0. -1.
</event>
<event>
 4    1  0.6729064E+001  0.2278865E+02  0.7546771E-02  0.1495169E+00
          2   -1    0    0  502    0  0.00000000000E+00  0.00000000000E+00  0.88664115413E+03  0.88664115413E+03  0.00000000000E+00 0. -1.
         -2   -1    0    0    0  501 -0.00000000000E+00 -0.00000000000E+00 -0.97753886674E+00  0.97753886674E+00  0.00000000000E+00 0.  1.
          1    1    1    2  502    0  0.22360270898E+02  0.43978416177E+01  0.72380996256E+03  0.72416861616E+03  0.00000000000E+00 0. -1.
         -1    1    1    2    0  501 -0.22360270898E+02 -0.43978416177E+01  0.16185365270E+03  0.16345007683E+03  0.00000000000E+00 0.  1.
</event>
<event>
 4    1  0.6729064E+001  0.2562014E+02  0.7546771E-02  0.1461984E+00
          2   -1    0    0  502    0  0.00000000000E+00  0.00000000000E+00  0.17361020798E+04  0.17361020798E+04  0.00000000000E+00 0.  1.
         -2   -1    0    0    0  501 -0.00000000000E+00 -0.00000000000E+00 -0.38327394312E+00  0.38327394312E+00  0.00000000000E+00 0. -1.
          1    1    1    2  502    0 -0.25474963579E+02  0.27235660776E+01  0.76682065499E+03  0.76724853112E+03  0.00000000000E+00 0. -1.
         -1    1    1    2    0  501  0.25474963579E+02 -0.27235660776E+01  0.96889815085E+03  0.96923682261E+03  0.00000000000E+00 0.  1.
</event>
<event>
 4    1  0.6729064E+001  0.2123187E+02  0.7546771E-02  0.1515980E+00
          2   -1    0    0  502    0  0.00000000000E+00  0.00000000000E+00  0.37871129123E+03  0.37871129123E+03  0.00000000000E+00 0. -1.
         -2   -1    0    0    0  501 -0.00000000000E+00 -0.00000000000E+00 -0.12126836949E+01  0.12126836949E+01  0.00000000000E+00 0.  1.
          1    1    1    2  502    0 -0.12440161582E+02  0.17205661862E+02  0.16295987557E+03  0.16433719441E+03  0.00000000000E+00 0. -1.
         -1    1    1    2    0  501  0.12440161582E+02 -0.17205661862E+02  0.21453873196E+03  0.21558678052E+03  0.00000000000E+00 0.  1.
</event>
<event>
 4    1  0.6729064E+001  0.2473389E+02  0.7546771E-02  0.1471802E+00
          2   -1    0    0  502    0  0.00000000000E+00  0.00000000000E+00  0.43697636298E+02  0.43697636298E+02  0.00000000000E+00 0. -1.
         -2   -1    0    0    0  501 -0.00000000000E+00 -0.00000000000E+00 -0.18925367108E+02  0.18925367108E+02  0.00000000000E+00 0.  1.
          1    1    1    2  502    0  0.24321822662E+02 -0.44960286829E+01 -0.35874591281E+01  0.24992702825E+02  0.00000000000E+00 0.  1.
         -1    1    1    2    0  501 -0.24321822662E+02  0.44960286829E+01  0.28359728318E+02  0.37630300581E+02  0.00000000000E+00 0. -1.
</event>
<event>
 4    1  0.6729064E+001  0.3127764E+02  0.7546771E-02  0.1408809E+00
          2   -1    0    0  502    0  0.00000000000E+00  0.00000000000E+00  0.76801092370E+01  0.76801092370E+01  0.00000000000E+00 0. -1.
         -2   -1    0    0    0  501 -0.00000000000E+00 -0.00000000000E+00 -0.19433848866E+03  0.19433848866E+03  0.00000000000E+00 0.  1.
          1    1    1    2  502    0 -0.23964035904E+02 -0.20100135614E+02 -0.34038630403E+02  0.46226819361E+02  0.00000000000E+00 0. -1.
         -1    1    1    2    0  501  0.23964035904E+02  0.20100135614E+02 -0.15261974902E+03  0.15579177853E+03  0.00000000000E+00 0.  1.
</event>
<event>
 4    1  0.6729064E+001  0.4275405E+02  0.7546771E-02  0.1333061E+00
          2   -1    0    0  502    0  0.00000000000E+00  0.00000000000E+00  0.70137915966E+01  0.70137915966E+01  0.00000000000E+00 0. -1.
         -2   -1    0    0    0  501 -0.00000000000E+00 -0.00000000000E+00 -0.30727572292E+03  0.30727572292E+03  0.00000000000E+00 0.  1.
          1    1    1    2  502    0  0.62146041658E+01  0.42299968894E+02 -0.21136674959E+03  0.21564742407E+03  0.00000000000E+00 0.  1.
         -1    1    1    2    0  501 -0.62146041658E+01 -0.42299968894E+02 -0.88895181729E+02  0.98642090448E+02  0.00000000000E+00 0. -1.
</event>
<event>
 4    1  0.6729064E+001  0.2399783E+02  0.7546771E-02  0.1480335E+00
          2   -1    0    0  502    0  0.00000000000E+00  0.00000000000E+00  0.12468975841E+03  0.12468975841E+03  0.00000000000E+00 0.  1.
         -2   -1    0    0    0  501 -0.00000000000E+00 -0.00000000000E+00 -0.54653107525E+01  0.54653107525E+01  0.00000000000E+00 0. -1.
          1    1    1    2  502    0 -0.23313247047E+02 -0.56910598011E+01  0.33997838679E+02  0.41614284619E+02  0.00000000000E+00 0. -1.
         -1    1    1    2    0  501  0.23313247047E+02  0.56910598011E+01  0.85226608978E+02  0.88540784542E+02  0.00000000000E+00 0.  1.
</event>
<event>
 4    1  0.6729064E+001  0.2923227E+02  0.7546771E-02  0.1426387E+00
          2   -1    0    0  502    0  0.00000000000E+00  0.00000000000E+00  0.25947118407E+04  0.25947118407E+04  0.00000000000E+00 0.  1.
         -2   -1    0    0    0  501 -0.00000000000E+00 -0.00000000000E+00 -0.36157257980E+00  0.36157257980E+00  0.00000000000E+00 0. -1.
          1    1    1    2  502    0 -0.29160682495E+02  0.20446038836E+01  0.16846223185E+04  0.16848759247E+04  0.00000000000E+00 0. -1.
         -1    1    1    2    0  501  0.29160682495E+02 -0.20446038836E+01  0.90972794966E+03  0.91019748857E+03  0.00000000000E+00 0.  1.
</event>
<event>
 4    1  0.6729064E+001  0.8345980E+02  0.7546771E-02  0.1196035E+00
          2   -1    0    0  502    0  0.00000000000E+00  0.00000000000E+00  0.11768107277E+03  0.11768107277E+03  0.00000000000E+00 0.  1.
         -2   -1    0    0    0  501 -0.00000000000E+00 -0.00000000000E+00 -0.82023957198E+02  0.82023957198E+02  0.00000000000E+00 0. -1.
          1    1    1    2  502    0  0.37546458536E+02  0.74537255196E+02 -0.34855539411E+02  0.90445826816E+02  0.00000000000E+00 0. -1.
         -1    1    1    2    0  501 -0.37546458536E+02 -0.74537255196E+02  0.70512654985E+02  0.10925920315E+03  0.00000000000E+00 0.  1.
</event>
<event>
 4    1  0.6729064E+001  0.4090486E+02  0.7546771E-02  0.1343263E+00
          2   -1    0    0  502    0  0.00000000000E+00  0.00000000000E+00  0.11903120515E+04  0.11903120515E+04  0.00000000000E+00 0.  1.
         -2   -1    0    0    0  501 -0.00000000000E+00 -0.00000000000E+00 -0.14238903040E+01  0.14238903040E+01  0.00000000000E+00 0. -1.
          1    1    1    2  502    0  0.11106957655E+00  0.40904712437E+02  0.52707350507E+03  0.52865838458E+03  0.00000000000E+00 0.  1.
         -1    1    1    2    0  501 -0.11106957655E+00 -0.40904712437E+02  0.66181465610E+03  0.66307755720E+03  0.00000000000E+00 0. -1.
</event>
<event>
 4    1  0.6729064E+001  0.2920187E+02  0.7546771E-02  0.1426661E+00
          2   -1    0    0  502    0  0.00000000000E+00  0.00000000000E+00  0.43910523014E+02  0.43910523014E+02  0.00000000000E+00 0. -1.
         -2   -1    0    0    0  501 -0.00000000000E+00 -0.00000000000E+00 -0.30994028582E+02  0.30994028582E+02  0.00000000000E+00 0.  1.
          1    1    1    2  502    0 -0.28404569247E+02  0.67771590891E+01  0.29344697978E+02  0.41398801176E+02  0.00000000000E+00 0. -1.
         -1    1    1    2    0  501  0.28404569247E+02 -0.67771590891E+01 -0.16428203546E+02  0.33505750420E+02  0.00000000000E+00 0.  1.
</event>
<event>
 4    1  0.6729064E+001  0.2005446E+02  0.7546771E-02  0.1533205E+00
          2   -1    0    0  502    0  0.00000000000E+00  0.00000000000E+00  0.20024438216E+04  0.20024438216E+04  0.00000000000E+00 0.  1.
         -2   -1    0    0    0  501 -0.00000000000E+00 -0.00000000000E+00 -0.25445231205E+00  0.25445231205E+00  0.00000000000E+00 0. -1.
          1    1    1    2  502    0  0.10378345700E+02 -0.17160160456E+02  0.54148024831E+03  0.54185149300E+03  0.00000000000E+00 0.  1.
         -1    1    1    2    0  501 -0.10378345700E+02  0.17160160456E+02  0.14607091210E+04  0.14608467809E+04  0.00000000000E+00 0. -1.
</event>
<event>
 4    1  0.6729064E+001  0.2101508E+02  0.7546771E-02  0.1519050E+00
          2   -1    0    0  502    0  0.00000000000E+00  0.00000000000E+00  0.20293938343E+01  0.20293938343E+01  0.00000000000E+00 0.  1.
         -2   -1    0    0    0  501 -0.00000000000E+00 -0.00000000000E+00 -0.25646964771E+03  0.25646964771E+03  0.00000000000E+00 0. -1.
          1    1    1    2  502    0  0.44064046203E+01 -0.20547923962E+02 -0.17752534653E+03  0.17876487978E+03  0.00000000000E+00 0. -1.
         -1    1    1    2    0  501 -0.44064046203E+01  0.20547923962E+02 -0.76914907339E+02  0.79734161761E+02  0.00000000000E+00 0.  1.
</event>
<event>
 4    1  0.6729064E+001  0.2307516E+02  0.7546771E-02  0.1491556E+00
          2   -1    0    0  502    0  0.00000000000E+00  0.00000000000E+00  0.12086342663E+03  0.12086342663E+03  0.00000000000E+00 0.  1.
         -2   -1    0    0    0  501 -0.00000000000E+00 -0.00000000000E+00 -0.44602697199E+01  0.44602697199E+01  0.00000000000E+00 0. -1.
          1    1    1    2  502    0  0.43001127617E+01 -0.22670955697E+02  0.51257519990E+02  0.56212067721E+02  0.00000000000E+00 0. -1.
         -1    1    1    2    0  501 -0.43001127617E+01  0.22670955697E+02  0.65145636915E+02  0.69111628624E+02  0.00000000000E+00 0.  1.
</event>
<event>
 4    1  0.6729064E+001  0.2296913E+02  0.7546771E-02  0.1492886E+00
          2   -1    0    0  502    0  0.00000000000E+00  0.00000000000E+00  0.84205824177E+01  0.84205824177E+01  0.00000000000E+00 0.  1.
         -2   -1    0    0    0  501 -0.00000000000E+00 -0.00000000000E+00 -0.32087677211E+03  0.32087677211E+03  0.00000000000E+00 0. -1.
          1    1    1    2  502    0  0.16969092426E+02 -0.15480020062E+02 -0.30393016437E+03  0.30479686011E+03  0.00000000000E+00 0. -1.
         -1    1    1    2    0  501 -0.16969092426E+02  0.15480020062E+02 -0.85260253210E+01  0.24500494417E+02  0.00000000000E+00 0.  1.
</event>
<event>
 4    1  0.6729064E+001  0.2596438E+02  0.7546771E-02  0.1458298E+00
          2   -1    0    0  502    0  0.00000000000E+00  0.00000000000E+00  0.52989044611E+02  0.52989044611E+02  0.00000000000E+00 0.  1.
         -2   -1    0    0    0  501 -0.00000000000E+00 -0.00000000000E+00 -0.15629485924E+02  0.15629485924E+02  0.00000000000E+00 0. -1.
          1    1    1    2  502    0 -0.25955440870E+02 -0.68137531202E+00  0.33476520794E+02  0.42365394221E+02  0.00000000000E+00 0.  1.
         -1    1    1    2    0  501  0.25955440870E+02  0.68137531202E+00  0.38830378936E+01  0.26253136314E+02  0.00000000000E+00 0. -1.
</event>
<event>
 4    1  0.6729064E+001  0.2633349E+02  0.7546771E-02  0.1454421E+00
          2   -1    0    0  502    0  0.00000000000E+00  0.00000000000E+00  0.23174243629E+02  0.23174243629E+02  0.00000000000E+00 0. -1.
         -2   -1    0    0    0  501 -0.00000000000E+00 -0.00000000000E+00 -0.86683115542E+02  0.86683115542E+02  0.00000000000E+00 0.  1.
          1    1    1    2  502    0  0.26120131456E+02  0.33453638212E+01  0.12693532421E+02  0.29233174506E+02  0.00000000000E+00 0. -1.
         -1    1    1    2    0  501 -0.26120131456E+02 -0.33453638212E+01 -0.76202404334E+02  0.80624184664E+02  0.00000000000E+00 0.  1.
</event>
<event>
 4    1  0.6729064E+001  0.2862249E+02  0.7546771E-02  0.1431957E+00
          2   -1    0    0  502    0  0.00000000000E+00  0.00000000000E+00  0.73171963251E+03  0.73171963251E+03  0.00000000000E+00 0. -1.
         -2   -1    0    0    0  501 -0.00000000000E+00 -0.00000000000E+00 -0.11241682835E+01  0.11241682835E+01  0.00000000000E+00 0.  1.
          1    1    1    2  502    0  0.28270416584E+02 -0.44755497344E+01  0.38860817710E+03  0.38966082983E+03  0.00000000000E+00 0. -1.
         -1    1    1    2    0  501 -0.28270416584E+02  0.44755497344E+01  0.34198728713E+03  0.34318297096E+03  0.00000000000E+00 0.  1.
</event>
<event>
 4    1  0.6729064E+001  0.2630391E+02  0.7546771E-02  0.1454729E+00
          2   -1    0    0  502    0  0.00000000000E+00  0.00000000000E+00  0.80806230250E+03  0.80806230250E+03  0.00000000000E+00 0. -1.
         -2   -1    0    0    0  501 -0.00000000000E+00 -0.00000000000E+00 -0.86422966795E+00  0.86422966795E+00  0.00000000000E+00 0.  1.
          1    1    1    2  502    0  0.33779176160E+01 -0.26086111865E+02  0.44248733872E+03  0.44326847450E+03  0.00000000000E+00 0.  1.
         -1    1    1    2    0  501 -0.33779176160E+01  0.26086111865E+02  0.36471073411E+03  0.36565805766E+03  0.00000000000E+00 0. -1.
</event>
<event>
 4    1  0.6729064E+001  0.4985570E+02  0.7546771E-02  0.1298799E+00
          2   -1    0    0  502    0  0.00000000000E+00  0.00000000000E+00  0.93553488349E+03  0.93553488349E+03  0.00000000000E+00 0. -1.
         -2   -1    0    0    0  501 -0.00000000000E+00 -0.00000000000E+00 -0.28252012943E+01  0.28252012943E+01  0.00000000000E+00 0.  1.
          1    1    1    2  502    0  0.47589325827E+01  0.49628046969E+02  0.35182915825E+03  0.35534398416E+03  0.00000000000E+00 0.  1.
         -1    1    1    2    0  501 -0.47589325827E+01 -0.49628046969E+02  0.58088052394E+03  0.58301610062E+03  0.00000000000E+00 0. -1.
</event>
<event>
 4    1  0.6729064E+001  0.2313483E+02  0.7546771E-02  0.1490812E+00
          2   -1    0    0  502    0  0.00000000000E+00  0.00000000000E+00  0.26064951818E+02  0.26064951818E+02  0.00000000000E+00 0. -1.
         -2   -1    0    0    0  501 -0.00000000000E+00 -0.00000000000E+00 -0.20624743549E+02  0.20624743549E+02  0.00000000000E+00 0.  1.
          1    1    1    2  502    0  0.22547920081E+02  0.51780017255E+01  0.42677028098E+01  0.23525171394E+02  0.00000000000E+00 0. -1.
         -1    1    1    2    0  501 -0.22547920081E+02 -0.51780017255E+01  0.11725054590E+01  0.23164523973E+02  0.00000000000E+00 0.  1.
</event>
<event>
 4    1  0.6729064E+001  0.2435877E+02  0.7546771E-02  0.1476106E+00
          2   -1    0    0  502    0  0.00000000000E+00  0.00000000000E+00  0.14459807767E+01  0.14459807767E+01  0.00000000000E+00 0.  1.
         -2   -1    0    0    0  501 -0.00000000000E+00 -0.00000000000E+00 -0.44658951057E+03  0.44658951057E+03  0.00000000000E+00 0. -1.
          1    1    1    2  502    0 -0.19807748994E+02 -0.14177539087E+02 -0.15875198843E+03  0.16060991054E+03  0.00000000000E+00 0. -1.
         -1    1    1    2    0  501  0.19807748994E+02  0.14177539087E+02 -0.28639154136E+03  0.28742558080E+03  0.00000000000E+00 0.  1.
</event>
<event>
 4    1  0.6729064E+001  0.2700121E+02  0.7546771E-02  0.1447596E+00
          2   -1    0    0  502    0  0.00000000000E+00  0.00000000000E+00  0.13614735986E+04  0.13614735986E+04  0.00000000000E+00 0. -1.
         -2   -1    0    0    0  501 -0.00000000000E+00 -0.00000000000E+00 -0.87145226253E+00  0.87145226253E+00  0.00000000000E+00 0.  1.
          1    1    1    2  502    0 -0.49518884571E+01  0.26543251572E+02  0.11032382556E+04  0.11035686267E+04  0.00000000000E+00 0. -1.
         -1    1    1    2    0  501  0.49518884571E+01 -0.26543251572E+02  0.25736389078E+03  0.25877642412E+03  0.00000000000E+00 0.  1.
</event>
<event>
 4    1  0.6729064E+001  0.2444345E+02  0.7546771E-02  0.1475127E+00
          2   -1    0    0  502    0  0.00000000000E+00  0.00000000000E+00  0.46589763639E+03  0.46589763639E+03  0.00000000000E+00 0. -1.
         -2   -1    0    0    0  501 -0.00000000000E+00 -0.00000000000E+00 -0.14970594457E+01  0.14970594457E+01  0.00000000000E+00 0.  1.
          1    1    1    2  502    0  0.50057884045E+01  0.23925385940E+02  0.32068677469E+03  0.32161699189E+03  0.00000000000E+00 0.  1.
         -1    1    1    2    0  501 -0.50057884045E+01 -0.23925385940E+02  0.14371380225E+03  0.14577770394E+03  0.00000000000E+00 0. -1.
</event>
<event>
 4    1  0.6729064E+001  0.6616914E+02  0.7546771E-02  0.1240199E+00
          2   -1    0    0  502    0  0.00000000000E+00  0.00000000000E+00  0.63207419659E+03  0.63207419659E+03  0.00000000000E+00 0. -1.
         -2   -1    0    0    0  501 -0.00000000000E+00 -0.00000000000E+00 -0.74525653928E+01  0.74525653928E+01  0.00000000000E+00 0.  1.
          1    1    1    2  502    0  0.57483569639E+02 -0.32771846282E+02  0.22739190350E+03  0.23682363156E+03  0.00000000000E+00 0.  1.
         -1    1    1    2    0  501 -0.57483569639E+02  0.32771846282E+02  0.39722972769E+03  0.40270313042E+03  0.00000000000E+00 0. -1.
</event>
<event>
 4    1  0.6729064E+001  0.4029821E+02  0.7546771E-02  0.1346747E+00
          2   -1    0    0  502    0  0.00000000000E+00  0.00000000000E+00  0.20855994965E+04  0.20855994965E+04  0.00000000000E+00 0. -1.
         -2   -1    0    0    0  501 -0.00000000000E+00 -0.00000000000E+00 -0.10089116704E+01  0.10089116704E+01  0.00000000000E+00 0.  1.
          1    1    1    2  502    0 -0.40109652756E+02 -0.38938073818E+01  0.54387243153E+03  0.54536333554E+03  0.00000000000E+00 0.  1.
         -1    1    1    2    0  501  0.40109652756E+02  0.38938073818E+01  0.15407181533E+04  0.15412450727E+04  0.00000000000E+00 0. -1.
</event>
<event>
 4    1  0.6729064E+001  0.4188953E+02  0.7546771E-02  0.1337755E+00
          2   -1    0    0  502    0  0.00000000000E+00  0.00000000000E+00  0.69292965866E+03  0.69292965866E+03  0.00000000000E+00 0.  1.
         -2   -1    0    0    0  501 -0.00000000000E+00 -0.00000000000E+00 -0.31384536685E+01  0.31384536685E+01  0.00000000000E+00 0. -1.
          1    1    1    2  502    0  0.10332911394E+02  0.40595120881E+02  0.49784269604E+03  0.49960192444E+03  0.00000000000E+00 0.  1.
         -1    1    1    2    0  501 -0.10332911394E+02 -0.40595120881E+02  0.19194850894E+03  0.19646618789E+03  0.00000000000E+00 0. -1.
</event>
<event>
 4    1  0.6729064E+001  0.2100255E+02  0.7546771E-02  0.1519228E+00
          2   -1    0    0  502    0  0.00000000000E+00  0.00000000000E+00  0.17571592256E+01  0.17571592256E+01  0.00000000000E+00 0.  1.
         -2   -1    0    0    0  501 -0.00000000000E+00 -0.00000000000E+00 -0.34878207071E+03  0.34878207071E+03  0.00000000000E+00 0. -1.
          1    1    1    2  502    0 -0.18702940475E+02  0.95554833008E+01 -0.26629856801E+03  0.26712550340E+03  0.00000000000E+00 0.  1.
         -1    1    1    2    0  501  0.18702940475E+02 -0.95554833008E+01 -0.80726343474E+02  0.83413726533E+02  0.00000000000E+00 0. -1.
</event>
<event>
 4    1  0.6729064E+001  0.3419005E+02  0.7546771E-02  0.1386349E+00
          2   -1    0    0  502    0  0.00000000000E+00  0.00000000000E+00  0.18089130750E+02  0.18089130750E+02  0.00000000000E+00 0.  1.
         -2   -1    0    0    0  501 -0.00000000000E+00 -0.00000000000E+00 -0.90297400806E+02  0.90297400806E+02  0.00000000000E+00 0. -1.
          1    1    1    2  502    0  0.77230674518E+01  0.33306358289E+02 -0.65001929228E+02  0.73445286280E+02  0.00000000000E+00 0. -1.
         -1    1    1    2    0  501 -0.77230674518E+01 -0.33306358289E+02 -0.72063408282E+01  0.34941245276E+02  0.00000000000E+00 0.  1.
</event>
<event>
 4    1  0.6729064E+001  0.3122841E+02  0.7546771E-02  0.1409214E+00
          2   -1    0    0  502    0  0.00000000000E+00  0.00000000000E+00  0.14616702635E+04  0.14616702635E+04  0.00000000000E+00 0.  1.
         -2   -1    0    0    0  501 -0.00000000000E+00 -0.00000000000E+00 -0.12843205715E+01  0.12843205715E+01  0.00000000000E+00 0. -1.
          1    1    1    2  502    0 -0.30899176446E+02 -0.45226374520E+01  0.12372447160E+04  0.12376387601E+04  0.00000000000E+00 0.  1.
         -1    1    1    2    0  501  0.30899176446E+02  0.45226374520E+01  0.22314122695E+03  0.22531582394E+03  0.00000000000E+00 0. -1.
</event>
<event>
 4    1  0.6729064E+001  0.2028793E+02  0.7546771E-02  0.1529679E+00
          2   -1    0    0  502    0  0.00000000000E+00  0.00000000000E+00  0.89976613974E+03  0.89976613974E+03  0.00000000000E+00 0. -1.
         -2   -1    0    0    0  501 -0.00000000000E+00 -0.00000000000E+00 -0.64970688407E+00  0.64970688407E+00  0.00000000000E+00 0.  1.
          1    1    1    2  502    0 -0.12123936819E+02 -0.16266850625E+02  0.69446032354E+03  0.69475660575E+03  0.00000000000E+00 0. -1.
         -1    1    1    2    0  501  0.12123936819E+02  0.16266850625E+02  0.20465610932E+03  0.20565924087E+03  0.00000000000E+00 0.  1.
</event>
<event>
 4    1  0.6729064E+001  0.2985556E+02  0.7546771E-02  0.1420856E+00
          2   -1    0    0  502    0  0.00000000000E+00  0.00000000000E+00  0.17188305997E+01  0.17188305997E+01  0.00000000000E+00 0. -1.
         -2   -1    0    0    0  501 -0.00000000000E+00 -0.00000000000E+00 -0.57090269653E+03  0.57090269653E+03  0.00000000000E+00 0.  1.
          1    1    1    2  502    0 -0.29531781770E+02 -0.43850064530E+01 -0.37126693387E+03  0.37246542202E+03  0.00000000000E+00 0.  1.
         -1    1    1    2    0  501  0.29531781770E+02  0.43850064530E+01 -0.19791693206E+03  0.20015610511E+03  0.00000000000E+00 0. -1.
</event>
<event>
 4    1  0.6729064E+001  0.4768481E+02  0.7546771E-02  0.1308535E+00
          2   -1    0    0  502    0  0.00000000000E+00  0.00000000000E+00  0.14129321346E+04  0.14129321346E+04  0.00000000000E+00 0. -1.
         -2   -1    0    0    0  501 -0.00000000000E+00 -0.00000000000E+00 -0.17568713963E+01  0.17568713963E+01  0.00000000000E+00 0.  1.
          1    1    1    2  502    0  0.36725167328E+02  0.30415508362E+02  0.91058690469E+03  0.91183460784E+03  0.00000000000E+00 0.  1.
         -1    1    1    2    0  501 -0.36725167328E+02 -0.30415508362E+02  0.50058835848E+03  0.50285439812E+03  0.00000000000E+00 0. -1.
</event>
<event>
 4    1  0.6729064E+001  0.3117233E+02  0.7546771E-02  0.1409675E+00
          2   -1    0    0  502    0  0.00000000000E+00  0.00000000000E+00  0.21445955529E+03  0.21445955529E+03  0.00000000000E+00 0.  1.
         -2   -1    0    0    0  501 -0.00000000000E+00 -0.00000000000E+00 -0.55694067904E+01  0.55694067904E+01  0.00000000000E+00 0. -1.
          1    1    1    2  502    0  0.30614582496E+02  0.58703694799E+01  0.56940937385E+02  0.64915208153E+02  0.00000000000E+00 0. -1.
         -1    1    1    2    0  501 -0.30614582496E+02 -0.58703694799E+01  0.15194921111E+03  0.15511375393E+03  0.00000000000E+00 0.  1.
</event>
<event>
 4    1  0.6729064E+001  0.3319182E+02  0.7546771E-02  0.1393741E+00
          2   -1    0    0  502    0  0.00000000000E+00  0.00000000000E+00  0.21853824851E+02  0.21853824851E+02  0.00000000000E+00 0. -1.
         -2   -1    0    0    0  501 -0.00000000000E+00 -0.00000000000E+00 -0.66378281732E+02  0.66378281732E+02  0.00000000000E+00 0.  1.
          1    1    1    2  502    0 -0.27935390319E+02  0.17925146853E+02 -0.62586045817E+00  0.33197720152E+02  0.00000000000E+00 0. -1.
         -1    1    1    2    0  501  0.27935390319E+02 -0.17925146853E+02 -0.43898596423E+02  0.55034386432E+02  0.00000000000E+00 0.  1.
</event>
<event>
 4    1  0.6729064E+001  0.2901392E+02  0.7546771E-02  0.1428363E+00
          2   -1    0    0  502    0  0.00000000000E+00  0.00000000000E+00  0.20206295475E+04  0.20206295475E+04  0.00000000000E+00 0. -1.
         -2   -1    0    0    0  501 -0.00000000000E+00 -0.00000000000E+00 -0.47712272727E+00  0.47712272727E+00  0.00000000000E+00 0.  1.
          1    1    1    2  502    0  0.28195879716E+02  0.68410424942E+01  0.13699746383E+04  0.13702818386E+04  0.00000000000E+00 0. -1.
         -1    1    1    2    0  501 -0.28195879716E+02 -0.68410424942E+01  0.65017778648E+03  0.65082483167E+03  0.00000000000E+00 0.  1.
</event>
<event>
 4    1  0.6729064E+001  0.2049475E+02  0.7546771E-02  0.1526602E+00
          2   -1    0    0  502    0  0.00000000000E+00  0.00000000000E+00  0.13719887542E+04  0.13719887542E+04  0.00000000000E+00 0.  1.
         -2   -1    0    0    0  501 -0.00000000000E+00 -0.00000000000E+00 -0.33808385267E+00  0.33808385267E+00  0.00000000000E+00 0. -1.
          1    1    1    2  502    0  0.20249613447E+02 -0.31603816147E+01  0.47494381234E+03  0.47538580094E+03  0.00000000000E+00 0. -1.
         -1    1    1    2    0  501 -0.20249613447E+02  0.31603816147E+01  0.89670685802E+03  0.89694103712E+03  0.00000000000E+00 0.  1.
</event>
<event>
 4    1  0.6729064E+001  0.3058786E+02  0.7546771E-02  0.1414555E+00
          2   -1    0    0  502    0  0.00000000000E+00  0.00000000000E+00  0.64918168118E+03  0.64918168118E+03  0.00000000000E+00 0.  1.
         -2   -1    0    0    0  501 -0.00000000000E+00 -0.00000000000E+00 -0.14456573693E+01  0.14456573693E+01  0.00000000000E+00 0. -1.
          1    1    1    2  502    0  0.12353088040E+02 -0.27982464402E+02  0.34188035707E+03  0.34324596960E+03  0.00000000000E+00 0. -1.
         -1    1    1    2    0  501 -0.12353088040E+02  0.27982464402E+02  0.30585566674E+03  0.30738136895E+03  0.00000000000E+00 0.  1.
</event>
<event>
 4    1  0.6729064E+001  0.2203059E+02  0.7546771E-02  0.1505044E+00
          2   -1    0    0  502    0  0.00000000000E+00  0.00000000000E+00  0.47210455127E+00  0.47210455127E+00  0.00000000000E+00 0. -1.
         -2   -1    0    0    0  501 -0.00000000000E+00 -0.00000000000E+00 -0.14623330681E+04  0.14623330681E+04  0.00000000000E+00 0.  1.
          1    1    1    2  502    0  0.20724367788E+02 -0.74731067167E+01 -0.33234621698E+03  0.33307559905E+03  0.00000000000E+00 0. -1.
         -1    1    1    2    0  501 -0.20724367788E+02  0.74731067167E+01 -0.11295147465E+04  0.11297295736E+04  0.00000000000E+00 0.  1.
</event>
<event>
 4    1  0.6729064E+001  0.2319924E+02  0.7546771E-02  0.1490011E+00
          2   -1    0    0  502    0  0.00000000000E+00  0.00000000000E+00  0.21831373147E+01  0.21831373147E+01  0.00000000000E+00 0. -1.
         -2   -1    0    0    0  501 -0.00000000000E+00 -0.00000000000E+00 -0.61085583486E+03  0.61085583486E+03  0.00000000000E+00 0.  1.
          1    1    1    2  502    0 -0.70608657269E+01  0.22098621197E+02 -0.54105626070E+03  0.54155339730E+03  0.00000000000E+00 0.  1.
         -1    1    1    2    0  501  0.70608657269E+01 -0.22098621197E+02 -0.67616436846E+02  0.71485574876E+02  0.00000000000E+00 0. -1.
</event>
<event>
 4    1  0.6729064E+001  0.4327431E+02  0.7546771E-02  0.1330298E+00
          2   -1    0    0  502    0  0.00000000000E+00  0.00000000000E+00  0.20830200604E+02  0.20830200604E+02  0.00000000000E+00 0.  1.
         -2   -1    0    0    0  501 -0.00000000000E+00 -0.00000000000E+00 -0.90347787421E+02  0.90347787421E+02  0.00000000000E+00 0. -1.
          1    1    1    2  502    0  0.36931051218E+02  0.22555778365E+02 -0.30851722049E+02  0.53145972896E+02  0.00000000000E+00 0. -1.
         -1    1    1    2    0  501 -0.36931051218E+02 -0.22555778365E+02 -0.38665864768E+02  0.58032015129E+02  0.00000000000E+00 0.  1.
</event>
<event>
 4    1  0.6729064E+001  0.2311655E+02  0.7546771E-02  0.1491040E+00
          2   -1    0    0  502    0  0.00000000000E+00  0.00000000000E+00  0.13095250545E+04  0.13095250545E+04  0.00000000000E+00 0. -1.
         -2   -1    0    0    0  501 -0.00000000000E+00 -0.00000000000E+00 -0.46682641064E+00  0.46682641064E+00  0.00000000000E+00 0.  1.
          1    1    1    2  502    0 -0.22494964492E+02  0.53245953816E+01  0.88690839573E+03  0.88720960160E+03  0.00000000000E+00 0.  1.
         -1    1    1    2    0  501  0.22494964492E+02 -0.53245953816E+01  0.42214983233E+03  0.42278227928E+03  0.00000000000E+00 0. -1.
</event>
<event>
 4    1  0.6729064E+001  0.2584739E+02  0.7546771E-02  0.1459543E+00
          2   -1    0    0  502    0  0.00000000000E+00  0.00000000000E+00  0.10954743210E+03  0.10954743210E+03  0.00000000000E+00 0.  1.
         -2   -1    0    0    0  501 -0.00000000000E+00 -0.00000000000E+00 -0.64911539129E+01  0.64911539129E+01  0.00000000000E+00 0. -1.
          1    1    1    2  502    0 -0.14979082228E+02 -0.21064535662E+02  0.37260468734E+02  0.45347878641E+02  0.00000000000E+00 0.  1.
         -1    1    1    2    0  501  0.14979082228E+02  0.21064535662E+02  0.65795809449E+02  0.70690707368E+02  0.00000000000E+00 0. -1.
</event>
<event>
 4    1  0.6729064E+001  0.3888320E+02  0.7546771E-02  0.1355157E+00
          2   -1    0    0  502    0  0.00000000000E+00  0.00000000000E+00  0.87593889132E+02  0.87593889132E+02  0.00000000000E+00 0. -1.
         -2   -1    0    0    0  501 -0.00000000000E+00 -0.00000000000E+00 -0.25658017226E+02  0.25658017226E+02  0.00000000000E+00 0.  1.
          1    1    1    2  502    0 -0.37758557518E+02  0.92841037921E+01  0.63363287728E+02  0.74342514625E+02  0.00000000000E+00 0. -1.
         -1    1    1    2    0  501  0.37758557518E+02 -0.92841037921E+01 -0.14274158214E+01  0.38909391733E+02  0.00000000000E+00 0.  1.
</event>
<event>
 4    1  0.6729064E+001  0.2825335E+02  0.7546771E-02  0.1435409E+00
          2   -1    0    0  502    0  0.00000000000E+00  0.00000000000E+00  0.13103324231E+04  0.13103324231E+04  0.00000000000E+00 0.  1.
         -2   -1    0    0    0  501 -0.00000000000E+00 -0.00000000000E+00 -0.61900668814E+00  0.61900668814E+00  0.00000000000E+00 0. -1.
          1    1    1    2  502    0 -0.54170306153E+01 -0.27729182996E+02  0.73736845267E+03  0.73790953836E+03  0.00000000000E+00 0. -1.
         -1    1    1    2    0  501  0.54170306153E+01  0.27729182996E+02  0.57234496370E+03  0.57304189139E+03  0.00000000000E+00 0.  1.
</event>
<event>
 4    1  0.6729064E+001  0.3950645E+02  0.7546771E-02  0.1351402E+00
          2   -1    0    0  502    0  0.00000000000E+00  0.00000000000E+00  0.22758497113E+04  0.22758497113E+04  0.00000000000E+00 0.  1.
         -2   -1    0    0    0  501 -0.00000000000E+00 -0.00000000000E+00 -0.79068190426E+00  0.79068190426E+00  0.00000000000E+00 0. -1.
          1    1    1    2  502    0  0.66869329623E+01 -0.38936421285E+02  0.15521301631E+04  0.15526328617E+04  0.00000000000E+00 0.  1.
         -1    1    1    2    0  501 -0.66869329623E+01  0.38936421285E+02  0.72292886627E+03  0.72400753150E+03  0.00000000000E+00 0. -1.
</event>
<event>
 4    1  0.6729064E+001  0.3337320E+02  0.7546771E-02  0.1392375E+00
          2   -1    0    0  502    0  0.00000000000E+00  0.00000000000E+00  0.12233149376E+01  0.12233149376E+01  0.00000000000E+00 0.  1.
         -2   -1    0    0    0  501 -0.00000000000E+00 -0.00000000000E+00 -0.95294438741E+03  0.95294438741E+03  0.00000000000E+00 0. -1.
          1    1    1    2  502    0 -0.30381119407E+02  0.13811514065E+02 -0.37511794000E+03  0.37659957414E+03  0.00000000000E+00 0.  1.
         -1    1    1    2    0  501  0.30381119407E+02 -0.13811514065E+02 -0.57660313247E+03  0.57756812820E+03  0.00000000000E+00 0. -1.
</event>
<event>
 4    1  0.6729064E+001  0.2648837E+02  0.7546771E-02  0.1452816E+00
          2   -1    0    0  502    0  0.00000000000E+00  0.00000000000E+00  0.90372641152E+02  0.90372641152E+02  0.00000000000E+00 0.  1.
         -2   -1    0    0    0  501 -0.00000000000E+00 -0.00000000000E+00 -0.12144858554E+02  0.12144858554E+02  0.00000000000E+00 0. -1.
          1    1    1    2  502    0 -0.13557377809E+02 -0.22755906934E+02  0.83272698910E+01  0.27766476501E+02  0.00000000000E+00 0. -1.
         -1    1    1    2    0  501  0.13557377809E+02  0.22755906934E+02  0.69900512708E+02  0.74751023205E+02  0.00000000000E+00 0.  1.
</event>
<event>
 4    1  0.6729064E+001  0.2045360E+02  0.7546771E-02  0.1527211E+00
          2   -1    0    0  502    0  0.00000000000E+00  0.00000000000E+00  0.23276859798E+02  0.23276859798E+02  0.00000000000E+00 0.  1.
         -2   -1    0    0    0  501 -0.00000000000E+00 -0.00000000000E+00 -0.17996826826E+02  0.17996826826E+02  0.00000000000E+00 0. -1.
          1    1    1    2  502    0 -0.20076129061E+02  0.39113856223E+01  0.18856745867E+01  0.20540342359E+02  0.00000000000E+00 0.  1.
         -1    1    1    2    0  501  0.20076129061E+02 -0.39113856223E+01  0.33943583858E+01  0.20733344265E+02  0.00000000000E+00 0. -1.
</event>
<event>
 4    1  0.6729064E+001  0.3052732E+02  0.7546771E-02  0.1415068E+00
          2   -1    0    0  502    0  0.00000000000E+00  0.00000000000E+00  0.17336755746E+04  0.17336755746E+04  0.00000000000E+00 0. -1.
         -2   -1    0    0    0  501 -0.00000000000E+00 -0.00000000000E+00 -0.56010062703E+00  0.56010062703E+00  0.00000000000E+00 0.  1.
          1    1    1    2  502    0 -0.30401934606E+02 -0.27639969898E+01  0.10405922761E+04  0.10410399620E+04  0.00000000000E+00 0.  1.
         -1    1    1    2    0  501  0.30401934606E+02  0.27639969898E+01  0.69252319780E+03  0.69319571320E+03  0.00000000000E+00 0. -1.
</event>
<event>
 4    1  0.6729064E+001  0.2739172E+02  0.7546771E-02  0.1443712E+00
          2   -1    0    0  502    0  0.00000000000E+00  0.00000000000E+00  0.51317607945E+03  0.51317607945E+03  0.00000000000E+00 0.  1.
         -2   -1    0    0    0  501 -0.00000000000E+00 -0.00000000000E+00 -0.14735612473E+01  0.14735612473E+01  0.00000000000E+00 0. -1.
          1    1    1    2  502    0  0.65759851472E+01 -0.26590646347E+02  0.23314036718E+03  0.23474398153E+03  0.00000000000E+00 0. -1.
         -1    1    1    2    0  501 -0.65759851472E+01  0.26590646347E+02  0.27856215102E+03  0.27990565917E+03  0.00000000000E+00 0.  1.
</event>
<event>
 4    1  0.6729064E+001  0.2474354E+02  0.7546771E-02  0.1471693E+00
          2   -1    0    0  502    0  0.00000000000E+00  0.00000000000E+00  0.22303496648E+03  0.22303496648E+03  0.00000000000E+00 0.  1.
         -2   -1    0    0    0  501 -0.00000000000E+00 -0.00000000000E+00 -0.63531168023E+01  0.63531168023E+01  0.00000000000E+00 0. -1.
          1    1    1    2  502    0  0.24173595689E+02 -0.52801561880E+01  0.19477491219E+03  0.19634028928E+03  0.00000000000E+00 0.  1.
         -1    1    1    2    0  501 -0.24173595689E+02  0.52801561880E+01  0.21906937485E+02  0.33047793994E+02  0.00000000000E+00 0. -1.
</event>
