<event>
 4    1  0.1874565E+004  0.2023137E+02  0.7546771E-02  0.1530528E+00
         21   -1    0    0  501  502  0.00000000000E+00  0.00000000000E+00  0.92407120411E+02  0.92407120411E+02  0.00000000000E+00 0. -1.
         21   -1    0    0  502  503 -0.00000000000E+00 -0.00000000000E+00 -0.52277224438E+01  0.52277224438E+01  0.00000000000E+00 0.  1.
          2    1    1    2  501    0 -0.11078295183E+02  0.16928667076E+02  0.62666558404E+02  0.65851392813E+02  0.00000000000E+00 0. -1.
         -2    1    1    2    0  503  0.11078295183E+02 -0.16928667076E+02  0.24512839562E+02  0.31783450042E+02  0.00000000000E+00 0.  1.
</event>
<event>
 4    1  0.1874565E+004  0.2134531E+02  0.7546771E-02  0.1514391E+00
         21   -1    0    0  503  502  0.00000000000E+00  0.00000000000E+00  0.87236414235E+03  0.87236414235E+03  0.00000000000E+00 0.  1.
         21   -1    0    0  501  503 -0.00000000000E+00 -0.00000000000E+00 -0.75543270465E+00  0.75543270465E+00  0.00000000000E+00 0. -1.
          2    1    1    2  501    0  0.43140622839E+01 -0.20904814886E+02  0.19327644892E+03  0.19445155728E+03  0.00000000000E+00 0.  1.
         -2    1    1    2    0  502 -0.43140622839E+01  0.20904814886E+02  0.67833226072E+03  0.67866801778E+03  0.00000000000E+00 0. -1.
</event>
<event>
 4    1  0.1874565E+004  0.2985179E+02  0.7546771E-02  0.1420889E+00
         21   -1    0    0  503  502  0.00000000000E+00  0.00000000000E+00  0.25607016808E+02  0.25607016808E+02  0.00000000000E+00 0.  1.
         21   -1    0    0  501  503 -0.00000000000E+00 -0.00000000000E+00 -0.36379536814E+02  0.36379536814E+02  0.00000000000E+00 0. -1.
          2    1    1    2  501    0 -0.63868015951E+00 -0.29844958024E+02 -0.11843926585E+02  0.32115541857E+02  0.00000000000E+00 0.  1.
         -2    1    1    2    0  502  0.63868015951E+00  0.29844958024E+02  0.10714065787E+01  0.29871011765E+02  0.00000000000E+00 0. -1.
</event>
<event>
 4    1  0.1874565E+004  0.2143830E+02  0.7546771E-02  0.1513098E+00
         21   -1    0    0  503  502  0.00000000000E+00  0.00000000000E+00  0.22308474421E+03  0.22308474421E+03  0.00000000000E+00 0. -1.
         21   -1    0    0  501  503 -0.00000000000E+00 -0.00000000000E+00 -0.12428920143E+02  0.12428920143E+02  0.00000000000E+00 0.  1.
          2    1    1    2  501    0 -0.19593292866E+02  0.87007783265E+01 -0.22273970815E+01  0.21553699603E+02  0.00000000000E+00 0.  1.
         -2    1    1    2    0  502  0.19593292866E+02 -0.87007783265E+01  0.21288322115E+03  0.21395996475E+03  0.00000000000E+00 0. -1.
</event>
<event>
 4    1  0.1874565E+004  0.2526482E+02  0.7546771E-02  0.1465863E+00
         21   -1    0    0  503  502  0.00000000000E+00  0.00000000000E+00  0.73314025598E+01  0.73314025598E+01  0.00000000000E+00 0.  1.
         21   -1    0    0  501  503 -0.00000000000E+00 -0.00000000000E+00 -0.87796744120E+02  0.87796744120E+02  0.00000000000E+00 0. -1.
          2    1    1    2  501    0 -0.19421301167E+02 -0.16159330441E+02 -0.44574021809E+02  0.51236259813E+02  0.00000000000E+00 0. -1.
         -2    1    1    2    0  502  0.19421301167E+02  0.16159330441E+02 -0.35891319751E+02  0.43891886867E+02  0.00000000000E+00 0.  1.
</event>
<event>
 4    1  0.1874565E+004  0.3091011E+02  0.7546771E-02  0.1411849E+00
         21   -1    0    0  501  502  0.00000000000E+00  0.00000000000E+00  0.46986507013E+01  0.46986507013E+01  0.00000000000E+00 0.  1.
         21   -1    0    0  502  503 -0.00000000000E+00 -0.00000000000E+00 -0.20544816793E+03  0.20544816793E+03  0.00000000000E+00 0. -1.
          2    1    1    2  501    0 -0.23119642296E+02 -0.20516260195E+02 -0.11101250256E+03  0.11523545686E+03  0.00000000000E+00 0. -1.
         -2    1    1    2    0  503  0.23119642296E+02  0.20516260195E+02 -0.89737014668E+02  0.94911361774E+02  0.00000000000E+00 0.  1.
</event>
<event>
 4    1  0.1874565E+004  0.2278573E+02  0.7546771E-02  0.1495206E+00
         21   -1    0    0  501  502  0.00000000000E+00  0.00000000000E+00  0.90652341516E+00  0.90652341516E+00  0.00000000000E+00 0. -1.
         21   -1    0    0  502  503 -0.00000000000E+00 -0.00000000000E+00 -0.72964913996E+03  0.72964913996E+03  0.00000000000E+00 0.  1.
          2    1    1    2  501    0  0.12797735936E+02  0.18852256691E+02 -0.19497278349E+03  0.19629970945E+03  0.00000000000E+00 0. -1.
         -2    1    1    2    0  503 -0.12797735936E+02 -0.18852256691E+02 -0.53376983305E+03  0.53425595392E+03  0.00000000000E+00 0.  1.
</event>
<event>
 4    1  0.1874565E+004  0.2691193E+02  0.7546771E-02  0.1448495E+00
         21   -1    0    0  501  502  0.00000000000E+00  0.00000000000E+00  0.14364888021E+02  0.14364888021E+02  0.00000000000E+00 0.  1.
         21   -1    0    0  502  503 -0.00000000000E+00 -0.00000000000E+00 -0.20456719462E+03  0.20456719462E+03  0.00000000000E+00 0. -1.
          2    1    1    2  501    0  0.25805611465E+02 -0.76368951194E+01 -0.77489596586E-01  0.26912037359E+02  0.00000000000E+00 0.  1.
         -2    1    1    2    0  503 -0.25805611465E+02  0.76368951194E+01 -0.19012481700E+03  0.19202004528E+03  0.00000000000E+00 0. -1.
</event>
<event>
 4    1  0.1874565E+004  0.2541263E+02  0.7546771E-02  0.1464240E+00
         21   -1    0    0  503  502  0.00000000000E+00  0.00000000000E+00  0.59975557276E+02  0.59975557276E+02  0.00000000000E+00 0.  1.
         21   -1    0    0  501  503 -0.00000000000E+00 -0.00000000000E+00 -0.30126741612E+02  0.30126741612E+02  0.00000000000E+00 0. -1.
          2    1    1    2  501    0 -0.23303027778E+02 -0.10137579634E+02 -0.21189226371E+02  0.33087534490E+02  0.00000000000E+00 0. -1.
         -2    1    1    2    0  502  0.23303027778E+02  0.10137579634E+02  0.51038042035E+02  0.57014764397E+02  0.00000000000E+00 0.  1.
</event>
<event>
 4    1  0.1874565E+004  0.2851145E+02  0.7546771E-02  0.1432989E+00
         21   -1    0    0  503  502  0.00000000000E+00  0.00000000000E+00  0.16270739905E+02  0.16270739905E+02  0.00000000000E+00 0. -1.
         21   -1    0    0  501  503 -0.00000000000E+00 -0.00000000000E+00 -0.59848042391E+02  0.59848042391E+02  0.00000000000E+00 0.  1.
          2    1    1    2  501    0 -0.28122533859E+02  0.46931553838E+01 -0.37257921062E+02  0.46915405785E+02  0.00000000000E+00 0.  1.
         -2    1    1    2    0  502  0.28122533859E+02 -0.46931553838E+01 -0.63193814242E+01  0.29203376511E+02  0.00000000000E+00 0. -1.
</event>
<event>
 4    1  0.1874565E+004  0.2489777E+02  0.7546771E-02  0.1469950E+00
         21   -1    0    0  503  502  0.00000000000E+00  0.00000000000E+00  0.16496374358E+02  0.16496374358E+02  0.00000000000E+00 0. -1.
         21   -1    0    0  501  503 -0.00000000000E+00 -0.00000000000E+00 -0.57651395789E+02  0.57651395789E+02  0.00000000000E+00 0.  1.
          2    1    1    2  501    0 -0.13012073492E+02 -0.21226980746E+02 -0.42453863247E+02  0.49216148495E+02  0.00000000000E+00 0. -1.
         -2    1    1    2    0  502  0.13012073492E+02  0.21226980746E+02  0.12988418160E+01  0.24931621652E+02  0.00000000000E+00 0.  1.
</event>
<event>
 4    1  0.1874565E+004  0.3294244E+02  0.7546771E-02  0.1395636E+00
         21   -1    0    0  503  502  0.00000000000E+00  0.00000000000E+00  0.70740022454E+01  0.70740022454E+01  0.00000000000E+00 0.  1.
         21   -1    0    0  501  503 -0.00000000000E+00 -0.00000000000E+00 -0.26432117113E+03  0.26432117113E+03  0.00000000000E+00 0. -1.
          2    1    1    2  501    0 -0.25837788091E+02  0.20435580217E+02 -0.21652561379E+03  0.21901722686E+03  0.00000000000E+00 0. -1.
         -2    1    1    2    0  502  0.25837788091E+02 -0.20435580217E+02 -0.40721555090E+02  0.52377946515E+02  0.00000000000E+00 0.  1.
</event>
<event>
 4    1  0.1874565E+004  0.3480100E+02  0.7546771E-02  0.1381968E+00
         21   -1    0    0  501  502  0.00000000000E+00  0.00000000000E+00  0.35197260447E+02  0.35197260447E+02  0.00000000000E+00 0.  1.
         21   -1    0    0  502  503 -0.00000000000E+00 -0.00000000000E+00 -0.52899244347E+02  0.52899244347E+02  0.00000000000E+00 0. -1.
          2    1    1    2  501    0  0.22972501979E+02 -0.26141424827E+02  0.17190916214E+02  0.38815429141E+02  0.00000000000E+00 0.  1.
         -2    1    1    2    0  503 -0.22972501979E+02  0.26141424827E+02 -0.34892900113E+02  0.49281075652E+02  0.00000000000E+00 0. -1.
</event>
<event>
 4    1  0.1874565E+004  0.2162576E+02  0.7546771E-02  0.1510515E+00
         21   -1    0    0  501  502  0.00000000000E+00  0.00000000000E+00  0.18414319893E+03  0.18414319893E+03  0.00000000000E+00 0. -1.
         21   -1    0    0  502  503 -0.00000000000E+00 -0.00000000000E+00 -0.63930546558E+01  0.63930546558E+01  0.00000000000E+00 0.  1.
          2    1    1    2  501    0 -0.77130262161E+01  0.20203533503E+02  0.16283753445E+03  0.16426727052E+03  0.00000000000E+00 0. -1.
         -2    1    1    2    0  503  0.77130262161E+01 -0.20203533503E+02  0.14912609826E+02  0.26268983064E+02  0.00000000000E+00 0.  1.
</event>
<event>
 4    1  0.1874565E+004  0.2851643E+02  0.7546771E-02  0.1432942E+00
         21   -1    0    0  503  502  0.00000000000E+00  0.00000000000E+00  0.45968509417E+02  0.45968509417E+02  0.00000000000E+00 0.  1.
         21   -1    0    0  501  503 -0.00000000000E+00 -0.00000000000E+00 -0.26836714969E+02  0.26836714969E+02  0.00000000000E+00 0. -1.
          2    1    1    2  501    0  0.17313280662E+02 -0.22659145139E+02 -0.11686042653E+02  0.30818016461E+02  0.00000000000E+00 0. -1.
         -2    1    1    2    0  502 -0.17313280662E+02  0.22659145139E+02  0.30817837101E+02  0.41987207924E+02  0.00000000000E+00 0.  1.
</event>
<event>
 4    1  0.1874565E+004  0.2409516E+02  0.7546771E-02  0.1479186E+00
         21   -1    0    0  501  502  0.00000000000E+00  0.00000000000E+00  0.77224122296E+02  0.77224122296E+02  0.00000000000E+00 0. -1.
         21   -1    0    0  502  503 -0.00000000000E+00 -0.00000000000E+00 -0.83232230845E+01  0.83232230845E+01  0.00000000000E+00 0.  1.
          2    1    1    2  501    0 -0.67451200604E+00  0.24085720175E+02  0.47754018679E+02  0.53488533190E+02  0.00000000000E+00 0. -1.
         -2    1    1    2    0  503  0.67451200604E+00 -0.24085720175E+02  0.21146880532E+02  0.32058812190E+02  0.00000000000E+00 0.  1.
</event>
<event>
 4    1  0.1874565E+004  0.2451776E+02  0.7546771E-02  0.1474271E+00
         21   -1    0    0  503  502  0.00000000000E+00  0.00000000000E+00  0.22947038273E+02  0.22947038273E+02  0.00000000000E+00 0.  1.
         21   -1    0    0  501  503 -0.00000000000E+00 -0.00000000000E+00 -0.29274279910E+02  0.29274279910E+02  0.00000000000E+00 0. -1.
          2    1    1    2  501    0 -0.20649689516E+02 -0.13217826594E+02 -0.11630605435E+02  0.27136536252E+02  0.00000000000E+00 0. -1.
         -2    1    1    2    0  502  0.20649689516E+02  0.13217826594E+02  0.53033637982E+01  0.25084781932E+02  0.00000000000E+00 0.  1.
</event>
<event>
 4    1  0.1874565E+004  0.2249180E+02  0.7546771E-02  0.1498980E+00
         21   -1    0    0  503  502  0.00000000000E+00  0.00000000000E+00  0.25326948763E+01  0.25326948763E+01  0.00000000000E+00 0. -1.
         21   -1    0    0  501  503 -0.00000000000E+00 -0.00000000000E+00 -0.22257826403E+03  0.22257826403E+03  0.00000000000E+00 0.  1.
          2    1    1    2  501    0 -0.22063257626E+02  0.43696544412E+01 -0.14607683190E+03  0.14779824774E+03  0.00000000000E+00 0.  1.
         -2    1    1    2    0  502  0.22063257626E+02 -0.43696544412E+01 -0.73968737257E+02  0.77312711169E+02  0.00000000000E+00 0. -1.
</event>
<event>
 4    1  0.1874565E+004  0.2153757E+02  0.7546771E-02  0.1511726E+00
         21   -1    0    0  503  502  0.00000000000E+00  0.00000000000E+00  0.28582677542E+02  0.28582677542E+02  0.00000000000E+00 0.  1.
         21   -1    0    0  501  503 -0.00000000000E+00 -0.00000000000E+00 -0.29892308054E+02  0.29892308054E+02  0.00000000000E+00 0. -1.
          2    1    1    2  501    0 -0.21531212387E+02 -0.52325731710E+00 -0.20421739340E+02  0.29680201191E+02  0.00000000000E+00 0.  1.
         -2    1    1    2    0  502  0.21531212387E+02  0.52325731710E+00  0.19112108829E+02  0.28794784405E+02  0.00000000000E+00 0. -1.
</event>
<event>
 4    1  0.1874565E+004  0.4864761E+02  0.7546771E-02  0.1304145E+00
         21   -1    0    0  503  502  0.00000000000E+00  0.00000000000E+00  0.10160562446E+03  0.10160562446E+03  0.00000000000E+00 0.  1.
         21   -1    0    0  501  503 -0.00000000000E+00 -0.00000000000E+00 -0.23293020920E+02  0.23293020920E+02  0.00000000000E+00 0. -1.
          2    1    1    2  501    0  0.22700592968E+02 -0.43026418892E+02  0.39586462958E+02  0.62719037726E+02  0.00000000000E+00 0. -1.
         -2    1    1    2    0  502 -0.22700592968E+02  0.43026418892E+02  0.38726140586E+02  0.62179607657E+02  0.00000000000E+00 0.  1.
</event>
<event>
 4    1  0.1874565E+004  0.2047287E+02  0.7546771E-02  0.1526926E+00
         21   -1    0    0  503  502  0.00000000000E+00  0.00000000000E+00  0.42933921994E+03  0.42933921994E+03  0.00000000000E+00 0. -1.
         21   -1    0    0  501  503 -0.00000000000E+00 -0.00000000000E+00 -0.13852686901E+01  0.13852686901E+01  0.00000000000E+00 0.  1.
          2    1    1    2  501    0  0.10244206256E+02 -0.17725534209E+02  0.96951829591E+02  0.99089835936E+02  0.00000000000E+00 0.  1.
         -2    1    1    2    0  502 -0.10244206256E+02  0.17725534209E+02  0.33100212166E+03  0.33163465269E+03  0.00000000000E+00 0. -1.
</event>
<event>
 4    1  0.1874565E+004  0.2615789E+02  0.7546771E-02  0.1456256E+00
         21   -1    0    0  503  502  0.00000000000E+00  0.00000000000E+00  0.19969992690E+02  0.19969992690E+02  0.00000000000E+00 0. -1.
         21   -1    0    0  501  503 -0.00000000000E+00 -0.00000000000E+00 -0.10692780943E+03  0.10692780943E+03  0.00000000000E+00 0.  1.
          2    1    1    2  501    0  0.23139324621E+02  0.12198641855E+02 -0.95783562926E+02  0.99291118102E+02  0.00000000000E+00 0.  1.
         -2    1    1    2    0  502 -0.23139324621E+02 -0.12198641855E+02  0.88257461826E+01  0.27606684022E+02  0.00000000000E+00 0. -1.
</event>
<event>
 4    1  0.1874565E+004  0.5437204E+02  0.7546771E-02  0.1280254E+00
         21   -1    0    0  503  502  0.00000000000E+00  0.00000000000E+00  0.81785858333E+02  0.81785858333E+02  0.00000000000E+00 0. -1.
         21   -1    0    0  501  503 -0.00000000000E+00 -0.00000000000E+00 -0.36147269016E+02  0.36147269016E+02  0.00000000000E+00 0.  1.
          2    1    1    2  501    0  0.83926101078E+01  0.53720409204E+02  0.22961332499E+02  0.59021530475E+02  0.00000000000E+00 0. -1.
         -2    1    1    2    0  502 -0.83926101078E+01 -0.53720409204E+02  0.22677256818E+02  0.58911596874E+02  0.00000000000E+00 0.  1.
</event>
<event>
 4    1  0.1874565E+004  0.2157502E+02  0.7546771E-02  0.1511211E+00
         21   -1    0    0  503  502  0.00000000000E+00  0.00000000000E+00  0.30409146569E+02  0.30409146569E+02  0.00000000000E+00 0. -1.
         21   -1    0    0  501  503 -0.00000000000E+00 -0.00000000000E+00 -0.15827259422E+02  0.15827259422E+02  0.00000000000E+00 0.  1.
          2    1    1    2  501    0 -0.21444048247E+02 -0.23736288027E+01  0.31006512518E+01  0.21796682250E+02  0.00000000000E+00 0.  1.
         -2    1    1    2    0  502  0.21444048247E+02  0.23736288027E+01  0.11481235895E+02  0.24439723742E+02  0.00000000000E+00 0. -1.
</event>
<event>
 4    1  0.1874565E+004  0.2055773E+02  0.7546771E-02  0.1525674E+00
         21   -1    0    0  503  502  0.00000000000E+00  0.00000000000E+00  0.30492238805E+03  0.30492238805E+03  0.00000000000E+00 0. -1.
         21   -1    0    0  501  503 -0.00000000000E+00 -0.00000000000E+00 -0.14025718406E+01  0.14025718406E+01  0.00000000000E+00 0.  1.
          2    1    1    2  501    0  0.47513255025E+01  0.20001131140E+02  0.13510796364E+03  0.13666302419E+03  0.00000000000E+00 0.  1.
         -2    1    1    2    0  502 -0.47513255025E+01 -0.20001131140E+02  0.16841185257E+03  0.16966193571E+03  0.00000000000E+00 0. -1.
</event>
<event>
 4    1  0.1874565E+004  0.2092458E+02  0.7546771E-02  0.1520344E+00
         21   -1    0    0  501  502  0.00000000000E+00  0.00000000000E+00  0.52741578878E+02  0.52741578878E+02  0.00000000000E+00 0. -1.
         21   -1    0    0  502  503 -0.00000000000E+00 -0.00000000000E+00 -0.10250835802E+02  0.10250835802E+02  0.00000000000E+00 0.  1.
          2    1    1    2  501    0 -0.20157741971E+02  0.56127879578E+01  0.34979909920E+02  0.40760667904E+02  0.00000000000E+00 0. -1.
         -2    1    1    2    0  503  0.20157741971E+02 -0.56127879578E+01  0.75108331570E+01  0.22231746776E+02  0.00000000000E+00 0.  1.
</event>
<event>
 4    1  0.1874565E+004  0.2023426E+02  0.7546771E-02  0.1530484E+00
         21   -1    0    0  503  502  0.00000000000E+00  0.00000000000E+00  0.93276688797E+02  0.93276688797E+02  0.00000000000E+00 0. -1.
         21   -1    0    0  501  503 -0.00000000000E+00 -0.00000000000E+00 -0.47552411745E+01  0.47552411745E+01  0.00000000000E+00 0.  1.
          2    1    1    2  501    0  0.19882957206E+01  0.20136330755E+02  0.30664439507E+02  0.36738712367E+02  0.00000000000E+00 0.  1.
         -2    1    1    2    0  502 -0.19882957206E+01 -0.20136330755E+02  0.57857008116E+02  0.61293217604E+02  0.00000000000E+00 0. -1.
</event>
<event>
 4    1  0.1874565E+004  0.2450172E+02  0.7546771E-02  0.1474455E+00
         21   -1    0    0  503  502  0.00000000000E+00  0.00000000000E+00  0.27688456678E+02  0.27688456678E+02  0.00000000000E+00 0. -1.
         21   -1    0    0  501  503 -0.00000000000E+00 -0.00000000000E+00 -0.23437519567E+02  0.23437519567E+02  0.00000000000E+00 0.  1.
          2    1    1    2  501    0  0.76853448498E+00  0.24489664524E+02  0.91221004425E+01  0.26144732362E+02  0.00000000000E+00 0. -1.
         -2    1    1    2    0  502 -0.76853448498E+00 -0.24489664524E+02 -0.48711633312E+01  0.24981243884E+02  0.00000000000E+00 0.  1.
</event>
<event>
 4    1  0.1874565E+004  0.2201669E+02  0.7546771E-02  0.1505229E+00
         21   -1    0    0  501  502  0.00000000000E+00  0.00000000000E+00  0.26458779608E+03  0.26458779608E+03  0.00000000000E+00 0.  1.
         21   -1    0    0  502  503 -0.00000000000E+00 -0.00000000000E+00 -0.28555051515E+01  0.28555051515E+01  0.00000000000E+00 0. -1.
          2    1    1    2  501    0 -0.11943540320E+01  0.21984271833E+02  0.21092278849E+03  0.21206875629E+03  0.00000000000E+00 0.  1.
         -2    1    1    2    0  503  0.11943540320E+01 -0.21984271833E+02  0.50809502441E+02  0.55374544945E+02  0.00000000000E+00 0. -1.
</event>
<event>
 4    1  0.1874565E+004  0.2321077E+02  0.7546771E-02  0.1489868E+00
         21   -1    0    0  501  502  0.00000000000E+00  0.00000000000E+00  0.10584909564E+03  0.10584909564E+03  0.00000000000E+00 0.  1.
         21   -1    0    0  502  503 -0.00000000000E+00 -0.00000000000E+00 -0.21120800343E+02  0.21120800343E+02  0.00000000000E+00 0. -1.
          2    1    1    2  501    0 -0.22320303561E+02 -0.63674169782E+01  0.97673334473E+02  0.10039332755E+03  0.00000000000E+00 0.  1.
         -2    1    1    2    0  503  0.22320303561E+02  0.63674169782E+01 -0.12945039179E+02  0.26576568427E+02  0.00000000000E+00 0. -1.
</event>
<event>
 4    1  0.1874565E+004  0.2001453E+02  0.7546771E-02  0.1533814E+00
         21   -1    0    0  501  502  0.00000000000E+00  0.00000000000E+00  0.48868541643E+03  0.48868541643E+03  0.00000000000E+00 0. -1.
         21   -1    0    0  502  503 -0.00000000000E+00 -0.00000000000E+00 -0.86836175870E+00  0.86836175870E+00  0.00000000000E+00 0.  1.
          2    1    1    2  501    0  0.90977027745E+01  0.17827319339E+02  0.30184585889E+03  0.30250868424E+03  0.00000000000E+00 0. -1.
         -2    1    1    2    0  503 -0.90977027745E+01 -0.17827319339E+02  0.18597119578E+03  0.18704509395E+03  0.00000000000E+00 0.  1.
</event>
<event>
 4    1  0.1874565E+004  0.2173205E+02  0.7546771E-02  0.1509065E+00
         21   -1    0    0  503  502  0.00000000000E+00  0.00000000000E+00  0.25967367175E+02  0.25967367175E+02  0.00000000000E+00 0.  1.
         21   -1    0    0  501  503 -0.00000000000E+00 -0.00000000000E+00 -0.20582073434E+02  0.20582073434E+02  0.00000000000E+00 0. -1.
          2    1    1    2  501    0 -0.82499508959E+01  0.20105234495E+02 -0.52460954794E+01  0.22356289085E+02  0.00000000000E+00 0. -1.
         -2    1    1    2    0  502  0.82499508959E+01 -0.20105234495E+02  0.10631389220E+02  0.24193151524E+02  0.00000000000E+00 0.  1.
</event>
<event>
 4    1  0.1874565E+004  0.2295589E+02  0.7546771E-02  0.1493053E+00
         21   -1    0    0  503  502  0.00000000000E+00  0.00000000000E+00  0.31434330215E+03  0.31434330215E+03  0.00000000000E+00 0. -1.
         21   -1    0    0  501  503 -0.00000000000E+00 -0.00000000000E+00 -0.18151811537E+01  0.18151811537E+01  0.00000000000E+00 0.  1.
          2    1    1    2  501    0 -0.22947119724E+02  0.63433858166E+00  0.11255792745E+03  0.11487497430E+03  0.00000000000E+00 0.  1.
         -2    1    1    2    0  502  0.22947119724E+02 -0.63433858166E+00  0.19997019355E+03  0.20128350901E+03  0.00000000000E+00 0. -1.
</event>
<event>
 4    1  0.1874565E+004  0.7948105E+02  0.7546771E-02  0.1205057E+00
         21   -1    0    0  503  502  0.00000000000E+00  0.00000000000E+00  0.12630534550E+02  0.12630534550E+02  0.00000000000E+00 0. -1.
         21   -1    0    0  501  503 -0.00000000000E+00 -0.00000000000E+00 -0.51204094133E+03  0.51204094133E+03  0.00000000000E+00 0.  1.
          2    1    1    2  501    0 -0.22560836014E+02 -0.76211851712E+02 -0.28967239203E+03  0.30037864833E+03  0.00000000000E+00 0.  1.
         -2    1    1    2    0  502  0.22560836014E+02  0.76211851712E+02 -0.20973801475E+03  0.22429282756E+03  0.00000000000E+00 0. -1.
</event>
<event>
 4    1  0.1874565E+004  0.2551225E+02  0.7546771E-02  0.1463154E+00
         21   -1    0    0  501  502  0.00000000000E+00  0.00000000000E+00  0.50485518310E+02  0.50485518310E+02  0.00000000000E+00 0. -1.
         21   -1    0    0  502  503 -0.00000000000E+00 -0.00000000000E+00 -0.56532039570E+02  0.56532039570E+02  0.00000000000E+00 0.  1.
          2    1    1    2  501    0  0.12528199915E+02  0.22224295617E+02  0.43989821428E+02  0.50852526958E+02  0.00000000000E+00 0. -1.
         -2    1    1    2    0  503 -0.12528199915E+02 -0.22224295617E+02 -0.50036342689E+02  0.56165030922E+02  0.00000000000E+00 0.  1.
</event>
<event>
 4    1  0.1874565E+004  0.2126160E+02  0.7546771E-02  0.1515563E+00
         21   -1    0    0  503  502  0.00000000000E+00  0.00000000000E+00  0.33116340028E+03  0.33116340028E+03  0.00000000000E+00 0.  1.
         21   -1    0    0  501  503 -0.00000000000E+00 -0.00000000000E+00 -0.31831505281E+01  0.31831505281E+01  0.00000000000E+00 0. -1.
          2    1    1    2  501    0  0.17004434416E+02  0.12763412202E+02  0.37648373752E+02  0.43237200731E+02  0.00000000000E+00 0. -1.
         -2    1    1    2    0  502 -0.17004434416E+02 -0.12763412202E+02  0.29033187600E+03  0.29110935008E+03  0.00000000000E+00 0.  1.
</event>
<event>
 4    1  0.1874565E+004  0.3579989E+02  0.7546771E-02  0.1375025E+00
         21   -1    0    0  501  502  0.00000000000E+00  0.00000000000E+00  0.73191860636E+02  0.73191860636E+02  0.00000000000E+00 0. -1.
         21   -1    0    0  502  503 -0.00000000000E+00 -0.00000000000E+00 -0.36529443475E+02  0.36529443475E+02  0.00000000000E+00 0.  1.
          2    1    1    2  501    0  0.28120472897E+02  0.22155607656E+02  0.57916305748E+02  0.68087667150E+02  0.00000000000E+00 0.  1.
         -2    1    1    2    0  503 -0.28120472897E+02 -0.22155607656E+02 -0.21253888586E+02  0.41633636960E+02  0.00000000000E+00 0. -1.
</event>
<event>
 4    1  0.1874565E+004  0.2675655E+02  0.7546771E-02  0.1450069E+00
         21   -1    0    0  501  502  0.00000000000E+00  0.00000000000E+00  0.14799899946E+03  0.14799899946E+03  0.00000000000E+00 0. -1.
         21   -1    0    0  502  503 -0.00000000000E+00 -0.00000000000E+00 -0.58238149864E+02  0.58238149864E+02  0.00000000000E+00 0.  1.
          2    1    1    2  501    0  0.20748349974E+02 -0.16894352033E+02  0.14362364062E+03  0.14609470662E+03  0.00000000000E+00 0. -1.
         -2    1    1    2    0  503 -0.20748349974E+02  0.16894352033E+02 -0.53862791025E+02  0.60142442703E+02  0.00000000000E+00 0.  1.
</event>
<event>
 4    1  0.1874565E+004  0.3063645E+02  0.7546771E-02  0.1414145E+00
         21   -1    0    0  503  502  0.00000000000E+00  0.00000000000E+00  0.52326388711E+02  0.52326388711E+02  0.00000000000E+00 0. -1.
         21   -1    0    0  501  503 -0.00000000000E+00 -0.00000000000E+00 -0.24212281915E+02  0.24212281915E+02  0.00000000000E+00 0.  1.
          2    1    1    2  501    0  0.29026148414E+02 -0.98017852343E+01 -0.54252597058E+01  0.31113111841E+02  0.00000000000E+00 0.  1.
         -2    1    1    2    0  502 -0.29026148414E+02  0.98017852343E+01  0.33539366502E+02  0.45425558785E+02  0.00000000000E+00 0. -1.
</event>
<event>
 4    1  0.1874565E+004  0.3396883E+02  0.7546771E-02  0.1387961E+00
         21   -1    0    0  503  502  0.00000000000E+00  0.00000000000E+00  0.40990168308E+03  0.40990168308E+03  0.00000000000E+00 0. -1.
         21   -1    0    0  501  503 -0.00000000000E+00 -0.00000000000E+00 -0.76731689650E+01  0.76731689650E+01  0.00000000000E+00 0.  1.
          2    1    1    2  501    0  0.28431913096E+02 -0.18587833620E+02  0.34982600951E+02  0.48761292131E+02  0.00000000000E+00 0.  1.
         -2    1    1    2    0  502 -0.28431913096E+02  0.18587833620E+02  0.36724591317E+03  0.36881355992E+03  0.00000000000E+00 0. -1.
</event>
<event>
 4    1  0.1874565E+004  0.3417292E+02  0.7546771E-02  0.1386473E+00
         21   -1    0    0  503  502  0.00000000000E+00  0.00000000000E+00  0.90320373307E+02  0.90320373307E+02  0.00000000000E+00 0. -1.
         21   -1    0    0  501  503 -0.00000000000E+00 -0.00000000000E+00 -0.23256185208E+02  0.23256185208E+02  0.00000000000E+00 0.  1.
          2    1    1    2  501    0 -0.34051603277E+02 -0.28769427222E+01 -0.43097232229E+01  0.34443608978E+02  0.00000000000E+00 0.  1.
         -2    1    1    2    0  502  0.34051603277E+02  0.28769427222E+01  0.71373911322E+02  0.79132949538E+02  0.00000000000E+00 0. -1.
</event>
<event>
 4    1  0.1874565E+004  0.2906465E+02  0.7546771E-02  0.1427902E+00
         21   -1    0    0  503  502  0.00000000000E+00  0.00000000000E+00  0.64049570082E+02  0.64049570082E+02  0.00000000000E+00 0. -1.
         21   -1    0    0  501  503 -0.00000000000E+00 -0.00000000000E+00 -0.11099119853E+03  0.11099119853E+03  0.00000000000E+00 0.  1.
          2    1    1    2  501    0  0.13494379705E+02 -0.25742097674E+02 -0.10562678131E+03  0.10955259379E+03  0.00000000000E+00 0.  1.
         -2    1    1    2    0  502 -0.13494379705E+02  0.25742097674E+02  0.58685152857E+02  0.65488174827E+02  0.00000000000E+00 0. -1.
</event>
<event>
 4    1  0.1874565E+004  0.2278689E+02  0.7546771E-02  0.1495192E+00
         21   -1    0    0  503  502  0.00000000000E+00  0.00000000000E+00  0.28299782541E+03  0.28299782541E+03  0.00000000000E+00 0. -1.
         21   -1    0    0  501  503 -0.00000000000E+00 -0.00000000000E+00 -0.21694518648E+01  0.21694518648E+01  0.00000000000E+00 0.  1.
          2    1    1    2  501    0  0.20716302155E+02 -0.94908886479E+01  0.84413093130E+02  0.87434618053E+02  0.00000000000E+00 0.  1.
         -2    1    1    2    0  502 -0.20716302155E+02  0.94908886479E+01  0.19641528041E+03  0.19773265922E+03  0.00000000000E+00 0. -1.
</event>
<event>
 4    1  0.1874565E+004  0.2932290E+02  0.7546771E-02  0.1425573E+00
         21   -1    0    0  503  502  0.00000000000E+00  0.00000000000E+00  0.34275159991E+01  0.34275159991E+01  0.00000000000E+00 0.  1.
         21   -1    0    0  501  503 -0.00000000000E+00 -0.00000000000E+00 -0.57144693202E+03  0.57144693202E+03  0.00000000000E+00 0. -1.
          2    1    1    2  501    0 -0.16770740308E+02  0.24053580825E+02 -0.49930117412E+03  0.50016146888E+03  0.00000000000E+00 0. -1.
         -2    1    1    2    0  502  0.16770740308E+02 -0.24053580825E+02 -0.68718241906E+02  0.74712979138E+02  0.00000000000E+00 0.  1.
</event>
<event>
 4    1  0.1874565E+004  0.2974000E+02  0.7546771E-02  0.1421870E+00
         21   -1    0    0  501  502  0.00000000000E+00  0.00000000000E+00  0.48860466314E+02  0.48860466314E+02  0.00000000000E+00 0.  1.
         21   -1    0    0  502  503 -0.00000000000E+00 -0.00000000000E+00 -0.19612228572E+02  0.19612228572E+02  0.00000000000E+00 0. -1.
          2    1    1    2  501    0  0.22234371275E+02 -0.19750955434E+02  0.24124892936E+02  0.38294620584E+02  0.00000000000E+00 0.  1.
         -2    1    1    2    0  503 -0.22234371275E+02  0.19750955434E+02  0.51233448063E+01  0.30178074301E+02  0.00000000000E+00 0. -1.
</event>
<event>
 4    1  0.1874565E+004  0.3407228E+02  0.7546771E-02  0.1387205E+00
         21   -1    0    0  501  502  0.00000000000E+00  0.00000000000E+00  0.18312043535E+01  0.18312043535E+01  0.00000000000E+00 0. -1.
         21   -1    0    0  502  503 -0.00000000000E+00 -0.00000000000E+00 -0.77745164650E+03  0.77745164650E+03  0.00000000000E+00 0.  1.
          2    1    1    2  501    0 -0.68877229929E+01  0.33368838612E+02 -0.22041863095E+03  0.22303652837E+03  0.00000000000E+00 0. -1.
         -2    1    1    2    0  503  0.68877229929E+01 -0.33368838612E+02 -0.55520181120E+03  0.55624632249E+03  0.00000000000E+00 0.  1.
</event>
<event>
 4    1  0.1874565E+004  0.2078269E+02  0.7546771E-02  0.1522390E+00
         21   -1    0    0  501  502  0.00000000000E+00  0.00000000000E+00  0.22166707935E+03  0.22166707935E+03  0.00000000000E+00 0.  1.
         21   -1    0    0  502  503 -0.00000000000E+00 -0.00000000000E+00 -0.29052050172E+01  0.29052050172E+01  0.00000000000E+00 0. -1.
          2    1    1    2  501    0  0.19308220504E+02 -0.76884788843E+01  0.17381640245E+03  0.17505445395E+03  0.00000000000E+00 0.  1.
         -2    1    1    2    0  503 -0.19308220504E+02  0.76884788843E+01  0.44945471881E+02  0.49517830417E+02  0.00000000000E+00 0. -1.
</event>
<event>
 4    1  0.1874565E+004  0.2064082E+02  0.7546771E-02  0.1524455E+00
         21   -1    0    0  503  502  0.00000000000E+00  0.00000000000E+00  0.19924631590E+02  0.19924631590E+02  0.00000000000E+00 0.  1.
         21   -1    0    0  501  503 -0.00000000000E+00 -0.00000000000E+00 -0.43621745763E+02  0.43621745763E+02  0.00000000000E+00 0. -1.
          2    1    1    2  501    0  0.16478879450E+02  0.12429391650E+02 -0.34535028415E+02  0.40233213050E+02  0.00000000000E+00 0. -1.
         -2    1    1    2    0  502 -0.16478879450E+02 -0.12429391650E+02  0.10837914241E+02  0.23313164303E+02  0.00000000000E+00 0.  1.
</event>
<event>
 4    1  0.1874565E+004  0.2330292E+02  0.7546771E-02  0.1488729E+00
         21   -1    0    0  501  502  0.00000000000E+00  0.00000000000E+00  0.35573421312E+03  0.35573421312E+03  0.00000000000E+00 0. -1.
         21   -1    0    0  502  503 -0.00000000000E+00 -0.00000000000E+00 -0.88500184175E+01  0.88500184175E+01  0.00000000000E+00 0.  1.
          2    1    1    2  501    0  0.22951913326E+02  0.40293491411E+01  0.33926933976E+03  0.34006868554E+03  0.00000000000E+00 0. -1.
         -2    1    1    2    0  503 -0.22951913326E+02 -0.40293491411E+01  0.76148549357E+01  0.24515545996E+02  0.00000000000E+00 0.  1.
</event>
<event>
 4    1  0.1874565E+004  0.2050429E+02  0.7546771E-02  0.1526461E+00
         21   -1    0    0  503  502  0.00000000000E+00  0.00000000000E+00  0.13437096848E+04  0.13437096848E+04  0.00000000000E+00 0.  1.
         21   -1    0    0  501  503 -0.00000000000E+00 -0.00000000000E+00 -0.33822432073E+00  0.33822432073E+00  0.00000000000E+00 0. -1.
          2    1    1    2  501    0  0.68803551237E+01  0.19315450418E+02  0.48774231623E+03  0.48817311781E+03  0.00000000000E+00 0. -1.
         -2    1    1    2    0  502 -0.68803551237E+01 -0.19315450418E+02  0.85562914430E+03  0.85587479136E+03  0.00000000000E+00 0.  1.
</event>
<event>
 4    1  0.1874565E+004  0.3916313E+02  0.7546771E-02  0.1353461E+00
         21   -1    0    0  501  502  0.00000000000E+00  0.00000000000E+00  0.31422427029E+02  0.31422427029E+02  0.00000000000E+00 0.  1.
         21   -1    0    0  502  503 -0.00000000000E+00 -0.00000000000E+00 -0.76394996427E+02  0.76394996427E+02  0.00000000000E+00 0. -1.
          2    1    1    2  501    0 -0.19957613055E+02 -0.33696354581E+02  0.99071842855E+01  0.40396818332E+02  0.00000000000E+00 0.  1.
         -2    1    1    2    0  503  0.19957613055E+02  0.33696354581E+02 -0.54879753684E+02  0.67420605124E+02  0.00000000000E+00 0. -1.
</event>
<event>
 4    1  0.1874565E+004  0.2010488E+02  0.7546771E-02  0.1532438E+00
         21   -1    0    0  501  502  0.00000000000E+00  0.00000000000E+00  0.11309663062E+03  0.11309663062E+03  0.00000000000E+00 0.  1.
         21   -1    0    0  502  503 -0.00000000000E+00 -0.00000000000E+00 -0.35821620473E+01  0.35821620473E+01  0.00000000000E+00 0. -1.
          2    1    1    2  501    0  0.14646190751E+02 -0.13772990310E+02  0.57543799081E+02  0.60954860169E+02  0.00000000000E+00 0. -1.
         -2    1    1    2    0  503 -0.14646190751E+02  0.13772990310E+02  0.51970669491E+02  0.55723932497E+02  0.00000000000E+00 0.  1.
</event>
<event>
 4    1  0.1874565E+004  0.2722367E+02  0.7546771E-02  0.1445374E+00
         21   -1    0    0  503  502  0.00000000000E+00  0.00000000000E+00  0.80080201306E+02  0.80080201306E+02  0.00000000000E+00 0.  1.
         21   -1    0    0  501  503 -0.00000000000E+00 -0.00000000000E+00 -0.20533002308E+02  0.20533002308E+02  0.00000000000E+00 0. -1.
          2    1    1    2  501    0  0.11476407228E+02  0.24686438193E+02 -0.75100344877E+01  0.28240551898E+02  0.00000000000E+00 0. -1.
         -2    1    1    2    0  502 -0.11476407228E+02 -0.24686438193E+02  0.67057233486E+02  0.72372651715E+02  0.00000000000E+00 0.  1.
</event>
<event>
 4    1  0.1874565E+004  0.2075659E+02  0.7546771E-02  0.1522769E+00
         21   -1    0    0  501  502  0.00000000000E+00  0.00000000000E+00  0.24404470161E+01  0.24404470161E+01  0.00000000000E+00 0. -1.
         21   -1    0    0  502  503 -0.00000000000E+00 -0.00000000000E+00 -0.70417601804E+03  0.70417601804E+03  0.00000000000E+00 0.  1.
          2    1    1    2  501    0 -0.18921802301E+01 -0.20670168321E+02 -0.45037555285E+02  0.49590498994E+02  0.00000000000E+00 0. -1.
         -2    1    1    2    0  503  0.18921802301E+01  0.20670168321E+02 -0.65669801574E+03  0.65702596607E+03  0.00000000000E+00 0.  1.
</event>
<event>
 4    1  0.1874565E+004  0.2318734E+02  0.7546771E-02  0.1490159E+00
         21   -1    0    0  503  502  0.00000000000E+00  0.00000000000E+00  0.17759061290E+01  0.17759061290E+01  0.00000000000E+00 0.  1.
         21   -1    0    0  501  503 -0.00000000000E+00 -0.00000000000E+00 -0.30323416993E+03  0.30323416993E+03  0.00000000000E+00 0. -1.
          2    1    1    2  501    0 -0.16102403216E+02  0.16684279626E+02 -0.15683365158E+03  0.15853847118E+03  0.00000000000E+00 0.  1.
         -2    1    1    2    0  502  0.16102403216E+02 -0.16684279626E+02 -0.14462461222E+03  0.14647160488E+03  0.00000000000E+00 0. -1.
</event>
<event>
 4    1  0.1874565E+004  0.2272954E+02  0.7546771E-02  0.1495923E+00
         21   -1    0    0  503  502  0.00000000000E+00  0.00000000000E+00  0.12040403615E+03  0.12040403615E+03  0.00000000000E+00 0. -1.
         21   -1    0    0  501  503 -0.00000000000E+00 -0.00000000000E+00 -0.58179025520E+01  0.58179025520E+01  0.00000000000E+00 0.  1.
          2    1    1    2  501    0 -0.62171458228E+01  0.21862731972E+02  0.24959545886E+02  0.33758123204E+02  0.00000000000E+00 0.  1.
         -2    1    1    2    0  502  0.62171458228E+01 -0.21862731972E+02  0.89626587714E+02  0.92463815499E+02  0.00000000000E+00 0. -1.
</event>
<event>
 4    1  0.1874565E+004  0.2796221E+02  0.7546771E-02  0.1438175E+00
         21   -1    0    0  501  502  0.00000000000E+00  0.00000000000E+00  0.97066179088E+01  0.97066179088E+01  0.00000000000E+00 0. -1.
         21   -1    0    0  502  503 -0.00000000000E+00 -0.00000000000E+00 -0.88122017585E+02  0.88122017585E+02  0.00000000000E+00 0.  1.
          2    1    1    2  501    0  0.11993320812E+02  0.25259560459E+02 -0.24871000921E+02  0.37422611153E+02  0.00000000000E+00 0. -1.
         -2    1    1    2    0  503 -0.11993320812E+02 -0.25259560459E+02 -0.53544398755E+02  0.60406024341E+02  0.00000000000E+00 0.  1.
</event>
<event>
 4    1  0.1874565E+004  0.2436058E+02  0.7546771E-02  0.1476085E+00
         21   -1    0    0  503  502  0.00000000000E+00  0.00000000000E+00  0.75862435857E+02  0.75862435857E+02  0.00000000000E+00 0.  1.
         21   -1    0    0  501  503 -0.00000000000E+00 -0.00000000000E+00 -0.16132672107E+02  0.16132672107E+02  0.00000000000E+00 0. -1.
          2    1    1    2  501    0  0.24034512471E+02 -0.39724431705E+01 -0.31481301610E+01  0.24563159771E+02  0.00000000000E+00 0. -1.
         -2    1    1    2    0  502 -0.24034512471E+02  0.39724431705E+01  0.62877893911E+02  0.67431948193E+02  0.00000000000E+00 0.  1.
</event>
<event>
 4    1  0.1874565E+004  0.2639914E+02  0.7546771E-02  0.1453739E+00
         21   -1    0    0  503  502  0.00000000000E+00  0.00000000000E+00  0.41011885871E+03  0.41011885871E+03  0.00000000000E+00 0. -1.
         21   -1    0    0  501  503 -0.00000000000E+00 -0.00000000000E+00 -0.17613956011E+01  0.17613956011E+01  0.00000000000E+00 0.  1.
          2    1    1    2  501    0  0.37873460857E+01 -0.26126055477E+02  0.16551135182E+03  0.16760346759E+03  0.00000000000E+00 0.  1.
         -2    1    1    2    0  502 -0.37873460857E+01  0.26126055477E+02  0.24284611128E+03  0.24427678672E+03  0.00000000000E+00 0. -1.
</event>
<event>
 4    1  0.1874565E+004  0.2251273E+02  0.7546771E-02  0.1498709E+00
         21   -1    0    0  503  502  0.00000000000E+00  0.00000000000E+00  0.13040859347E+02  0.13040859347E+02  0.00000000000E+00 0. -1.
         21   -1    0    0  501  503 -0.00000000000E+00 -0.00000000000E+00 -0.39509911895E+02  0.39509911895E+02  0.00000000000E+00 0.  1.
          2    1    1    2  501    0  0.13972912895E+00 -0.22512298864E+02 -0.98755954705E+01  0.24583541451E+02  0.00000000000E+00 0. -1.
         -2    1    1    2    0  502 -0.13972912895E+00  0.22512298864E+02 -0.16593457078E+02  0.27967229791E+02  0.00000000000E+00 0.  1.
</event>
<event>
 4    1  0.1874565E+004  0.2020815E+02  0.7546771E-02  0.1530877E+00
         21   -1    0    0  501  502  0.00000000000E+00  0.00000000000E+00  0.20912338216E+03  0.20912338216E+03  0.00000000000E+00 0.  1.
         21   -1    0    0  502  503 -0.00000000000E+00 -0.00000000000E+00 -0.30889703312E+01  0.30889703312E+01  0.00000000000E+00 0. -1.
          2    1    1    2  501    0  0.18048651811E+02  0.90892957801E+01  0.16736918754E+03  0.16858473854E+03  0.00000000000E+00 0.  1.
         -2    1    1    2    0  503 -0.18048651811E+02 -0.90892957801E+01  0.38665224286E+02  0.43627613951E+02  0.00000000000E+00 0. -1.
</event>
<event>
 4    1  0.1874565E+004  0.2460402E+02  0.7546771E-02  0.1473282E+00
         21   -1    0    0  503  502  0.00000000000E+00  0.00000000000E+00  0.88011352647E+01  0.88011352647E+01  0.00000000000E+00 0.  1.
         21   -1    0    0  501  503 -0.00000000000E+00 -0.00000000000E+00 -0.16745438305E+03  0.16745438305E+03  0.00000000000E+00 0. -1.
          2    1    1    2  501    0 -0.98249729994E+01 -0.22557212368E+02 -0.14697583191E+03  0.14902098205E+03  0.00000000000E+00 0. -1.
         -2    1    1    2    0  502  0.98249729994E+01  0.22557212368E+02 -0.11677415875E+02  0.27234536269E+02  0.00000000000E+00 0.  1.
</event>
<event>
 4    1  0.1874565E+004  0.2730788E+02  0.7546771E-02  0.1444540E+00
         21   -1    0    0  503  502  0.00000000000E+00  0.00000000000E+00  0.30160172820E+02  0.30160172820E+02  0.00000000000E+00 0.  1.
         21   -1    0    0  501  503 -0.00000000000E+00 -0.00000000000E+00 -0.42761515822E+02  0.42761515822E+02  0.00000000000E+00 0. -1.
          2    1    1    2  501    0 -0.22462638473E+02 -0.15529006664E+02 -0.29980172502E+02  0.40552816405E+02  0.00000000000E+00 0. -1.
         -2    1    1    2    0  502  0.22462638473E+02  0.15529006664E+02  0.17378829500E+02  0.32368872237E+02  0.00000000000E+00 0.  1.
</event>
<event>
 4    1  0.1874565E+004  0.5151649E+02  0.7546771E-02  0.1291728E+00
         21   -1    0    0  503  502  0.00000000000E+00  0.00000000000E+00  0.61041701897E+01  0.61041701897E+01  0.00000000000E+00 0. -1.
         21   -1    0    0  501  503 -0.00000000000E+00 -0.00000000000E+00 -0.43864175734E+03  0.43864175734E+03  0.00000000000E+00 0.  1.
          2    1    1    2  501    0  0.44352886873E+02 -0.26206292105E+02 -0.23714393232E+03  0.24267507691E+03  0.00000000000E+00 0.  1.
         -2    1    1    2    0  502 -0.44352886873E+02  0.26206292105E+02 -0.19539365483E+03  0.20207085061E+03  0.00000000000E+00 0. -1.
</event>
<event>
 4    1  0.1874565E+004  0.2619265E+02  0.7546771E-02  0.1455891E+00
         21   -1    0    0  501  502  0.00000000000E+00  0.00000000000E+00  0.90244681317E+01  0.90244681317E+01  0.00000000000E+00 0. -1.
         21   -1    0    0  502  503 -0.00000000000E+00 -0.00000000000E+00 -0.90987103515E+02  0.90987103515E+02  0.00000000000E+00 0.  1.
          2    1    1    2  501    0  0.13930939012E+02  0.22180713250E+02 -0.20700986379E+02  0.33385415066E+02  0.00000000000E+00 0. -1.
         -2    1    1    2    0  503 -0.13930939012E+02 -0.22180713250E+02 -0.61261649004E+02  0.66626156581E+02  0.00000000000E+00 0.  1.
</event>
<event>
 4    1  0.1874565E+004  0.2831441E+02  0.7546771E-02  0.1434833E+00
         21   -1    0    0  503  502  0.00000000000E+00  0.00000000000E+00  0.57494764976E+01  0.57494764976E+01  0.00000000000E+00 0.  1.
         21   -1    0    0  501  503 -0.00000000000E+00 -0.00000000000E+00 -0.31273557934E+03  0.31273557934E+03  0.00000000000E+00 0. -1.
          2    1    1    2  501    0  0.27874366750E+02 -0.49724466297E+01 -0.27203292948E+03  0.27350250505E+03  0.00000000000E+00 0. -1.
         -2    1    1    2    0  502 -0.27874366750E+02  0.49724466297E+01 -0.34953173359E+02  0.44982550784E+02  0.00000000000E+00 0.  1.
</event>
<event>
 4    1  0.1874565E+004  0.3952510E+02  0.7546771E-02  0.1351291E+00
         21   -1    0    0  503  502  0.00000000000E+00  0.00000000000E+00  0.40844475875E+03  0.40844475875E+03  0.00000000000E+00 0. -1.
         21   -1    0    0  501  503 -0.00000000000E+00 -0.00000000000E+00 -0.38617054344E+01  0.38617054344E+01  0.00000000000E+00 0.  1.
          2    1    1    2  501    0 -0.33700365750E+02  0.20652338658E+02  0.18214776185E+03  0.18638680450E+03  0.00000000000E+00 0. -1.
         -2    1    1    2    0  502  0.33700365750E+02 -0.20652338658E+02  0.22243529147E+03  0.22591965969E+03  0.00000000000E+00 0.  1.
</event>
<event>
 4    1  0.1874565E+004  0.4077141E+02  0.7546771E-02  0.1344024E+00
         21   -1    0    0  503  502  0.00000000000E+00  0.00000000000E+00  0.37759506455E+02  0.37759506455E+02  0.00000000000E+00 0.  1.
         21   -1    0    0  501  503 -0.00000000000E+00 -0.00000000000E+00 -0.75693437641E+03  0.75693437641E+03  0.00000000000E+00 0. -1.
          2    1    1    2  501    0 -0.13730963332E+02 -0.38389687951E+02 -0.74520638250E+03  0.74632088274E+03  0.00000000000E+00 0. -1.
         -2    1    1    2    0  502  0.13730963332E+02  0.38389687951E+02  0.26031512550E+02  0.48373000120E+02  0.00000000000E+00 0.  1.
</event>
<event>
 4    1  0.1874565E+004  0.2399553E+02  0.7546771E-02  0.1480362E+00
         21   -1    0    0  503  502  0.00000000000E+00  0.00000000000E+00  0.52761618576E+02  0.52761618576E+02  0.00000000000E+00 0. -1.
         21   -1    0    0  501  503 -0.00000000000E+00 -0.00000000000E+00 -0.17929103391E+02  0.17929103391E+02  0.00000000000E+00 0.  1.
          2    1    1    2  501    0  0.74708544850E+01 -0.22802887083E+02 -0.46944390714E+01  0.24450420942E+02  0.00000000000E+00 0. -1.
         -2    1    1    2    0  502 -0.74708544850E+01  0.22802887083E+02  0.39526954256E+02  0.46240301024E+02  0.00000000000E+00 0.  1.
</event>
<event>
 4    1  0.1874565E+004  0.2895061E+02  0.7546771E-02  0.1428940E+00
         21   -1    0    0  503  502  0.00000000000E+00  0.00000000000E+00  0.40043548106E+02  0.40043548106E+02  0.00000000000E+00 0. -1.
         21   -1    0    0  501  503 -0.00000000000E+00 -0.00000000000E+00 -0.25474598435E+02  0.25474598435E+02  0.00000000000E+00 0.  1.
          2    1    1    2  501    0  0.22063351177E+02  0.18744240456E+02 -0.65509979468E+01  0.29682546884E+02  0.00000000000E+00 0.  1.
         -2    1    1    2    0  502 -0.22063351177E+02 -0.18744240456E+02  0.21119947618E+02  0.35835599657E+02  0.00000000000E+00 0. -1.
</event>
<event>
 4    1  0.1874565E+004  0.2259679E+02  0.7546771E-02  0.1497624E+00
         21   -1    0    0  503  502  0.00000000000E+00  0.00000000000E+00  0.25729453165E+03  0.25729453165E+03  0.00000000000E+00 0.  1.
         21   -1    0    0  501  503 -0.00000000000E+00 -0.00000000000E+00 -0.54324119430E+01  0.54324119430E+01  0.00000000000E+00 0. -1.
          2    1    1    2  501    0  0.13639254006E+02 -0.18016264120E+02  0.21277761587E+02  0.31038011548E+02  0.00000000000E+00 0. -1.
         -2    1    1    2    0  502 -0.13639254006E+02  0.18016264120E+02  0.23058435812E+03  0.23168893205E+03  0.00000000000E+00 0.  1.
</event>
<event>
 4    1  0.1874565E+004  0.2026984E+02  0.7546771E-02  0.1529950E+00
         21   -1    0    0  501  502  0.00000000000E+00  0.00000000000E+00  0.10958855528E+03  0.10958855528E+03  0.00000000000E+00 0.  1.
         21   -1    0    0  502  503 -0.00000000000E+00 -0.00000000000E+00 -0.40965959492E+01  0.40965959492E+01  0.00000000000E+00 0. -1.
          2    1    1    2  501    0  0.15688373872E+02 -0.12835154804E+02  0.69299579593E+02  0.72203171713E+02  0.00000000000E+00 0.  1.
         -2    1    1    2    0  503 -0.15688373872E+02  0.12835154804E+02  0.36192379742E+02  0.41481979521E+02  0.00000000000E+00 0. -1.
</event>
<event>
 4    1  0.1874565E+004  0.3943740E+02  0.7546771E-02  0.1351815E+00
         21   -1    0    0  501  502  0.00000000000E+00  0.00000000000E+00  0.26798704026E+02  0.26798704026E+02  0.00000000000E+00 0.  1.
         21   -1    0    0  502  503 -0.00000000000E+00 -0.00000000000E+00 -0.58274083001E+02  0.58274083001E+02  0.00000000000E+00 0. -1.
          2    1    1    2  501    0  0.24333064492E+02  0.31035634212E+02 -0.18452493267E+02  0.43540821378E+02  0.00000000000E+00 0. -1.
         -2    1    1    2    0  503 -0.24333064492E+02 -0.31035634212E+02 -0.13022885708E+02  0.41531965649E+02  0.00000000000E+00 0.  1.
</event>
<event>
 4    1  0.1874565E+004  0.2130522E+02  0.7546771E-02  0.1514951E+00
         21   -1    0    0  501  502  0.00000000000E+00  0.00000000000E+00  0.28890504747E+03  0.28890504747E+03  0.00000000000E+00 0.  1.
         21   -1    0    0  502  503 -0.00000000000E+00 -0.00000000000E+00 -0.15787135056E+01  0.15787135056E+01  0.00000000000E+00 0. -1.
          2    1    1    2  501    0 -0.10136173403E+02  0.18739542928E+02  0.13360845069E+03  0.13529645441E+03  0.00000000000E+00 0. -1.
         -2    1    1    2    0  503  0.10136173403E+02 -0.18739542928E+02  0.15371788327E+03  0.15518730656E+03  0.00000000000E+00 0.  1.
</event>
<event>
 4    1  0.1874565E+004  0.2556316E+02  0.7546771E-02  0.1462601E+00
         21   -1    0    0  501  502  0.00000000000E+00  0.00000000000E+00  0.78490743315E+01  0.78490743315E+01  0.00000000000E+00 0. -1.
         21   -1    0    0  502  503 -0.00000000000E+00 -0.00000000000E+00 -0.83353568526E+02  0.83353568526E+02  0.00000000000E+00 0.  1.
          2    1    1    2  501    0  0.25539628270E+02  0.10965763562E+01 -0.36184522397E+02  0.44303439516E+02  0.00000000000E+00 0.  1.
         -2    1    1    2    0  503 -0.25539628270E+02 -0.10965763562E+01 -0.39319971797E+02  0.46899203341E+02  0.00000000000E+00 0. -1.
</event>
<event>
 4    1  0.1874565E+004  0.2089872E+02  0.7546771E-02  0.1520716E+00
         21   -1    0    0  501  502  0.00000000000E+00  0.00000000000E+00  0.15030841473E+01  0.15030841473E+01  0.00000000000E+00 0. -1.
         21   -1    0    0  502  503 -0.00000000000E+00 -0.00000000000E+00 -0.47541661831E+03  0.47541661831E+03  0.00000000000E+00 0.  1.
          2    1    1    2  501    0  0.20896900582E+02 -0.27564296651E+00 -0.88267464760E+02  0.90707782291E+02  0.00000000000E+00 0. -1.
         -2    1    1    2    0  503 -0.20896900582E+02  0.27564296651E+00 -0.38564606941E+03  0.38621192017E+03  0.00000000000E+00 0.  1.
</event>
<event>
 4    1  0.1874565E+004  0.2125477E+02  0.7546771E-02  0.1515658E+00
         21   -1    0    0  501  502  0.00000000000E+00  0.00000000000E+00  0.11607686343E+04  0.11607686343E+04  0.00000000000E+00 0. -1.
         21   -1    0    0  502  503 -0.00000000000E+00 -0.00000000000E+00 -0.39114360425E+00  0.39114360425E+00  0.00000000000E+00 0.  1.
          2    1    1    2  501    0 -0.15782591522E+02 -0.14236400438E+02  0.53920977210E+03  0.53962852373E+03  0.00000000000E+00 0. -1.
         -2    1    1    2    0  503  0.15782591522E+02  0.14236400438E+02  0.62116771856E+03  0.62153125414E+03  0.00000000000E+00 0.  1.
</event>
<event>
 4    1  0.1874565E+004  0.2867322E+02  0.7546771E-02  0.1431488E+00
         21   -1    0    0  501  502  0.00000000000E+00  0.00000000000E+00  0.40660278437E+03  0.40660278437E+03  0.00000000000E+00 0.  1.
         21   -1    0    0  502  503 -0.00000000000E+00 -0.00000000000E+00 -0.34823605240E+01  0.34823605240E+01  0.00000000000E+00 0. -1.
          2    1    1    2  501    0 -0.15088784531E+02  0.24382002897E+02  0.33434130764E+03  0.33556856748E+03  0.00000000000E+00 0.  1.
         -2    1    1    2    0  503  0.15088784531E+02 -0.24382002897E+02  0.68779116202E+02  0.74516577413E+02  0.00000000000E+00 0. -1.
</event>
<event>
 4    1  0.1874565E+004  0.3408359E+02  0.7546771E-02  0.1387123E+00
         21   -1    0    0  503  502  0.00000000000E+00  0.00000000000E+00  0.63624301799E+02  0.63624301799E+02  0.00000000000E+00 0. -1.
         21   -1    0    0  501  503 -0.00000000000E+00 -0.00000000000E+00 -0.13221723583E+03  0.13221723583E+03  0.00000000000E+00 0.  1.
          2    1    1    2  501    0 -0.26206501975E+02  0.21792439050E+02 -0.12520494458E+03  0.12976120103E+03  0.00000000000E+00 0.  1.
         -2    1    1    2    0  502  0.26206501975E+02 -0.21792439050E+02  0.56612010554E+02  0.66080336595E+02  0.00000000000E+00 0. -1.
</event>
<event>
 4    1  0.1874565E+004  0.4268490E+02  0.7546771E-02  0.1333432E+00
         21   -1    0    0  503  502  0.00000000000E+00  0.00000000000E+00  0.49384750614E+03  0.49384750614E+03  0.00000000000E+00 0.  1.
         21   -1    0    0  501  503 -0.00000000000E+00 -0.00000000000E+00 -0.72294137925E+01  0.72294137925E+01  0.00000000000E+00 0. -1.
          2    1    1    2  501    0 -0.39483066493E+02 -0.16219995551E+02  0.67991508250E+02  0.80279798140E+02  0.00000000000E+00 0. -1.
         -2    1    1    2    0  502  0.39483066493E+02  0.16219995551E+02  0.41862658409E+03  0.42079712179E+03  0.00000000000E+00 0.  1.
</event>
<event>
 4    1  0.1874565E+004  0.2185337E+02  0.7546771E-02  0.1507421E+00
         21   -1    0    0  501  502  0.00000000000E+00  0.00000000000E+00  0.11267066661E+01  0.11267066661E+01  0.00000000000E+00 0. -1.
         21   -1    0    0  502  503 -0.00000000000E+00 -0.00000000000E+00 -0.82620942292E+03  0.82620942292E+03  0.00000000000E+00 0.  1.
          2    1    1    2  501    0  0.13254307059E+02 -0.17375075736E+02 -0.12386801212E+03  0.12578097766E+03  0.00000000000E+00 0. -1.
         -2    1    1    2    0  503 -0.13254307059E+02  0.17375075736E+02 -0.70121470413E+03  0.70155515193E+03  0.00000000000E+00 0.  1.
</event>
<event>
 4    1  0.1874565E+004  0.2157892E+02  0.7546771E-02  0.1511158E+00
         21   -1    0    0  503  502  0.00000000000E+00  0.00000000000E+00  0.40003080778E+02  0.40003080778E+02  0.00000000000E+00 0. -1.
         21   -1    0    0  501  503 -0.00000000000E+00 -0.00000000000E+00 -0.15828517624E+02  0.15828517624E+02  0.00000000000E+00 0.  1.
          2    1    1    2  501    0 -0.93183096052E+01  0.19463269703E+02 -0.22723104339E+01  0.21698229332E+02  0.00000000000E+00 0.  1.
         -2    1    1    2    0  502  0.93183096052E+01 -0.19463269703E+02  0.26446873588E+02  0.34133369070E+02  0.00000000000E+00 0. -1.
</event>
<event>
 4    1  0.1874565E+004  0.3170934E+02  0.7546771E-02  0.1405302E+00
         21   -1    0    0  503  502  0.00000000000E+00  0.00000000000E+00  0.16311136337E+03  0.16311136337E+03  0.00000000000E+00 0. -1.
         21   -1    0    0  501  503 -0.00000000000E+00 -0.00000000000E+00 -0.63943657878E+01  0.63943657878E+01  0.00000000000E+00 0.  1.
          2    1    1    2  501    0  0.91421820793E+01 -0.30362851327E+02  0.62285545495E+02  0.69892570503E+02  0.00000000000E+00 0. -1.
         -2    1    1    2    0  502 -0.91421820793E+01  0.30362851327E+02  0.94431452087E+02  0.99613158654E+02  0.00000000000E+00 0.  1.
</event>
<event>
 4    1  0.1874565E+004  0.2465184E+02  0.7546771E-02  0.1472736E+00
         21   -1    0    0  503  502  0.00000000000E+00  0.00000000000E+00  0.39838213806E+02  0.39838213806E+02  0.00000000000E+00 0. -1.
         21   -1    0    0  501  503 -0.00000000000E+00 -0.00000000000E+00 -0.21688416059E+02  0.21688416059E+02  0.00000000000E+00 0.  1.
          2    1    1    2  501    0 -0.14818163708E+02  0.19701149762E+02 -0.76805417806E+01  0.25820611916E+02  0.00000000000E+00 0.  1.
         -2    1    1    2    0  502  0.14818163708E+02 -0.19701149762E+02  0.25830339528E+02  0.35706017949E+02  0.00000000000E+00 0. -1.
</event>
<event>
 4    1  0.1874565E+004  0.3264526E+02  0.7546771E-02  0.1397919E+00
         21   -1    0    0  501  502  0.00000000000E+00  0.00000000000E+00  0.10735751692E+02  0.10735751692E+02  0.00000000000E+00 0.  1.
         21   -1    0    0  502  503 -0.00000000000E+00 -0.00000000000E+00 -0.10542735528E+03  0.10542735528E+03  0.00000000000E+00 0. -1.
          2    1    1    2  501    0  0.30559194192E+02  0.11482544533E+02 -0.33306664300E+02  0.46637399856E+02  0.00000000000E+00 0.  1.
         -2    1    1    2    0  503 -0.30559194192E+02 -0.11482544533E+02 -0.61384939289E+02  0.69525707117E+02  0.00000000000E+00 0. -1.
</event>
<event>
 4    1  0.1874565E+004  0.2517713E+02  0.7546771E-02  0.1466832E+00
         21   -1    0    0  503  502  0.00000000000E+00  0.00000000000E+00  0.83498385037E+02  0.83498385037E+02  0.00000000000E+00 0. -1.
         21   -1    0    0  501  503 -0.00000000000E+00 -0.00000000000E+00 -0.96344494881E+01  0.96344494881E+01  0.00000000000E+00 0.  1.
          2    1    1    2  501    0  0.48118983502E+01  0.24713021026E+02  0.15489452276E+02  0.29560292722E+02  0.00000000000E+00 0.  1.
         -2    1    1    2    0  502 -0.48118983502E+01 -0.24713021026E+02  0.58374483273E+02  0.63572541804E+02  0.00000000000E+00 0. -1.
</event>
<event>
 4    1  0.1874565E+004  0.3013849E+02  0.7546771E-02  0.1418397E+00
         21   -1    0    0  503  502  0.00000000000E+00  0.00000000000E+00  0.23865927992E+02  0.23865927992E+02  0.00000000000E+00 0. -1.
         21   -1    0    0  501  503 -0.00000000000E+00 -0.00000000000E+00 -0.12757191988E+03  0.12757191988E+03  0.00000000000E+00 0.  1.
          2    1    1    2  501    0 -0.16180123363E+02 -0.25426996422E+02 -0.11527912488E+03  0.11915370398E+03  0.00000000000E+00 0.  1.
         -2    1    1    2    0  502  0.16180123363E+02  0.25426996422E+02  0.11573132998E+02  0.32284143886E+02  0.00000000000E+00 0. -1.
</event>
<event>
 4    1  0.1874565E+004  0.2340296E+02  0.7546771E-02  0.1487499E+00
         21   -1    0    0  501  502  0.00000000000E+00  0.00000000000E+00  0.16248959370E+01  0.16248959370E+01  0.00000000000E+00 0. -1.
         21   -1    0    0  502  503 -0.00000000000E+00 -0.00000000000E+00 -0.86852362155E+03  0.86852362155E+03  0.00000000000E+00 0.  1.
          2    1    1    2  501    0 -0.14512628946E+02  0.18359793347E+02 -0.93114389251E+02  0.96010353069E+02  0.00000000000E+00 0. -1.
         -2    1    1    2    0  503  0.14512628946E+02 -0.18359793347E+02 -0.77378433636E+03  0.77413816442E+03  0.00000000000E+00 0.  1.
</event>
<event>
 4    1  0.1874565E+004  0.2669169E+02  0.7546771E-02  0.1450730E+00
         21   -1    0    0  503  502  0.00000000000E+00  0.00000000000E+00  0.44963697336E+02  0.44963697336E+02  0.00000000000E+00 0.  1.
         21   -1    0    0  501  503 -0.00000000000E+00 -0.00000000000E+00 -0.17319850396E+02  0.17319850396E+02  0.00000000000E+00 0. -1.
          2    1    1    2  501    0  0.20266109871E+02 -0.17370408183E+02  0.47341664717E+01  0.27108275894E+02  0.00000000000E+00 0. -1.
         -2    1    1    2    0  502 -0.20266109871E+02  0.17370408183E+02  0.22909680468E+02  0.35175271839E+02  0.00000000000E+00 0.  1.
</event>
<event>
 4    1  0.1874565E+004  0.2571581E+02  0.7546771E-02  0.1460953E+00
         21   -1    0    0  503  502  0.00000000000E+00  0.00000000000E+00  0.45985746112E+02  0.45985746112E+02  0.00000000000E+00 0.  1.
         21   -1    0    0  501  503 -0.00000000000E+00 -0.00000000000E+00 -0.29037204135E+02  0.29037204135E+02  0.00000000000E+00 0. -1.
          2    1    1    2  501    0  0.21351959240E+02  0.14331667336E+02 -0.18176105489E+02  0.31490850462E+02  0.00000000000E+00 0. -1.
         -2    1    1    2    0  502 -0.21351959240E+02 -0.14331667336E+02  0.35124647467E+02  0.43532099785E+02  0.00000000000E+00 0.  1.
</event>
<event>
 4    1  0.1874565E+004  0.2115357E+02  0.7546771E-02  0.1517083E+00
         21   -1    0    0  501  502  0.00000000000E+00  0.00000000000E+00  0.66616242326E+01  0.66616242326E+01  0.00000000000E+00 0.  1.
         21   -1    0    0  502  503 -0.00000000000E+00 -0.00000000000E+00 -0.40113762796E+03  0.40113762796E+03  0.00000000000E+00 0. -1.
          2    1    1    2  501    0 -0.69165781079E+01 -0.19990864588E+02 -0.11191845510E+02  0.23931801554E+02  0.00000000000E+00 0.  1.
         -2    1    1    2    0  503  0.69165781079E+01  0.19990864588E+02 -0.38328415822E+03  0.38386745064E+03  0.00000000000E+00 0. -1.
</event>
<event>
 4    1  0.1874565E+004  0.2283636E+02  0.7546771E-02  0.1494563E+00
         21   -1    0    0  503  502  0.00000000000E+00  0.00000000000E+00  0.61097469082E+02  0.61097469082E+02  0.00000000000E+00 0.  1.
         21   -1    0    0  501  503 -0.00000000000E+00 -0.00000000000E+00 -0.88836423345E+01  0.88836423345E+01  0.00000000000E+00 0. -1.
          2    1    1    2  501    0 -0.43941299418E+01 -0.22409617062E+02  0.19180400263E+02  0.29822593265E+02  0.00000000000E+00 0. -1.
         -2    1    1    2    0  502  0.43941299418E+01  0.22409617062E+02  0.33033426484E+02  0.40158518151E+02  0.00000000000E+00 0.  1.
</event>
<event>
 4    1  0.1874565E+004  0.2570138E+02  0.7546771E-02  0.1461108E+00
         21   -1    0    0  503  502  0.00000000000E+00  0.00000000000E+00  0.20522210183E+02  0.20522210183E+02  0.00000000000E+00 0.  1.
         21   -1    0    0  501  503 -0.00000000000E+00 -0.00000000000E+00 -0.11845876361E+03  0.11845876361E+03  0.00000000000E+00 0. -1.
          2    1    1    2  501    0  0.25690344762E+02 -0.75312585896E+00 -0.10827098746E+03  0.11127968250E+03  0.00000000000E+00 0. -1.
         -2    1    1    2    0  502 -0.25690344762E+02  0.75312585896E+00  0.10334434031E+02  0.27701291293E+02  0.00000000000E+00 0.  1.
</event>
<event>
 4    1  0.1874565E+004  0.2083358E+02  0.7546771E-02  0.1521654E+00
         21   -1    0    0  501  502  0.00000000000E+00  0.00000000000E+00  0.47764099194E+03  0.47764099194E+03  0.00000000000E+00 0. -1.
         21   -1    0    0  502  503 -0.00000000000E+00 -0.00000000000E+00 -0.14186003757E+01  0.14186003757E+01  0.00000000000E+00 0.  1.
          2    1    1    2  501    0  0.12810303301E+02 -0.16429672676E+02  0.38171539581E+03  0.38228350921E+03  0.00000000000E+00 0. -1.
         -2    1    1    2    0  503 -0.12810303301E+02  0.16429672676E+02  0.94506995746E+02  0.96776083099E+02  0.00000000000E+00 0.  1.
</event>
<event>
 4    1  0.1874565E+004  0.2264113E+02  0.7546771E-02  0.1497054E+00
         21   -1    0    0  501  502  0.00000000000E+00  0.00000000000E+00  0.44120086133E+03  0.44120086133E+03  0.00000000000E+00 0.  1.
         21   -1    0    0  502  503 -0.00000000000E+00 -0.00000000000E+00 -0.12401832601E+01  0.12401832601E+01  0.00000000000E+00 0. -1.
          2    1    1    2  501    0 -0.20174599106E+02 -0.10276503093E+02  0.16439224551E+03  0.16594406091E+03  0.00000000000E+00 0. -1.
         -2    1    1    2    0  503  0.20174599106E+02  0.10276503093E+02  0.27556843255E+03  0.27649698368E+03  0.00000000000E+00 0.  1.
</event>
<event>
 4    1  0.1874565E+004  0.3488964E+02  0.7546771E-02  0.1381341E+00
         21   -1    0    0  503  502  0.00000000000E+00  0.00000000000E+00  0.35230386637E+02  0.35230386637E+02  0.00000000000E+00 0.  1.
         21   -1    0    0  501  503 -0.00000000000E+00 -0.00000000000E+00 -0.35218365853E+02  0.35218365853E+02  0.00000000000E+00 0. -1.
          2    1    1    2  501    0 -0.23142262134E+02  0.26109815094E+02 -0.48385644599E+01  0.35223549607E+02  0.00000000000E+00 0. -1.
         -2    1    1    2    0  502  0.23142262134E+02 -0.26109815094E+02  0.48505852437E+01  0.35225202882E+02  0.00000000000E+00 0.  1.
</event>
<event>
 4    1  0.1874565E+004  0.3219957E+02  0.7546771E-02  0.1401398E+00
         21   -1    0    0  501  502  0.00000000000E+00  0.00000000000E+00  0.37211895217E+02  0.37211895217E+02  0.00000000000E+00 0. -1.
         21   -1    0    0  502  503 -0.00000000000E+00 -0.00000000000E+00 -0.13144133148E+03  0.13144133148E+03  0.00000000000E+00 0.  1.
          2    1    1    2  501    0 -0.32133036972E+02 -0.20689324185E+01  0.27742624583E+02  0.42502538338E+02  0.00000000000E+00 0. -1.
         -2    1    1    2    0  503  0.32133036972E+02  0.20689324185E+01 -0.12197206084E+03  0.12615068836E+03  0.00000000000E+00 0.  1.
</event>
<event>
 4    1  0.1874565E+004  0.3011342E+02  0.7546771E-02  0.1418613E+00
         21   -1    0    0  501  502  0.00000000000E+00  0.00000000000E+00  0.16799881188E+04  0.16799881188E+04  0.00000000000E+00 0.  1.
         21   -1    0    0  502  503 -0.00000000000E+00 -0.00000000000E+00 -0.72501753521E+00  0.72501753521E+00  0.00000000000E+00 0. -1.
          2    1    1    2  501    0  0.29055726969E+02 -0.79109215896E+01  0.12644056743E+04  0.12647642180E+04  0.00000000000E+00 0.  1.
         -2    1    1    2    0  503 -0.29055726969E+02  0.79109215896E+01  0.41485742695E+03  0.41594891831E+03  0.00000000000E+00 0. -1.
</event>
<event>
 4    1  0.1874565E+004  0.2249086E+02  0.7546771E-02  0.1498992E+00
         21   -1    0    0  501  502  0.00000000000E+00  0.00000000000E+00  0.28449837894E+02  0.28449837894E+02  0.00000000000E+00 0.  1.
         21   -1    0    0  502  503 -0.00000000000E+00 -0.00000000000E+00 -0.17824407726E+02  0.17824407726E+02  0.00000000000E+00 0. -1.
          2    1    1    2  501    0 -0.36680003189E+01  0.22189738852E+02  0.64672967625E+01  0.23402236305E+02  0.00000000000E+00 0.  1.
         -2    1    1    2    0  503  0.36680003189E+01 -0.22189738852E+02  0.41581334058E+01  0.22872009315E+02  0.00000000000E+00 0. -1.
</event>
<event>
 4    1  0.1874565E+004  0.2360881E+02  0.7546771E-02  0.1484992E+00
         21   -1    0    0  503  502  0.00000000000E+00  0.00000000000E+00  0.75542180293E+02  0.75542180293E+02  0.00000000000E+00 0.  1.
         21   -1    0    0  501  503 -0.00000000000E+00 -0.00000000000E+00 -0.80459956889E+01  0.80459956889E+01  0.00000000000E+00 0. -1.
          2    1    1    2  501    0  0.13345107542E+02 -0.19475216924E+02  0.21708801860E+02  0.32072543519E+02  0.00000000000E+00 0. -1.
         -2    1    1    2    0  502 -0.13345107542E+02  0.19475216924E+02  0.45787382744E+02  0.51515632464E+02  0.00000000000E+00 0.  1.
</event>
<event>
 4    1  0.1874565E+004  0.3394561E+02  0.7546771E-02  0.1388131E+00
         21   -1    0    0  501  502  0.00000000000E+00  0.00000000000E+00  0.62135513958E+02  0.62135513958E+02  0.00000000000E+00 0.  1.
         21   -1    0    0  502  503 -0.00000000000E+00 -0.00000000000E+00 -0.23590298635E+02  0.23590298635E+02  0.00000000000E+00 0. -1.
          2    1    1    2  501    0  0.27133000157E+02  0.20398650646E+02  0.39095054781E+02  0.51775746774E+02  0.00000000000E+00 0.  1.
         -2    1    1    2    0  503 -0.27133000157E+02 -0.20398650646E+02 -0.54983945813E+00  0.33950065819E+02  0.00000000000E+00 0. -1.
</event>
<event>
 4    1  0.1874565E+004  0.3278448E+02  0.7546771E-02  0.1396846E+00
         21   -1    0    0  501  502  0.00000000000E+00  0.00000000000E+00  0.10752197167E+04  0.10752197167E+04  0.00000000000E+00 0. -1.
         21   -1    0    0  502  503 -0.00000000000E+00 -0.00000000000E+00 -0.48021040202E+01  0.48021040202E+01  0.00000000000E+00 0.  1.
          2    1    1    2  501    0  0.25795901980E+02  0.20233480937E+02  0.10157380890E+04  0.10162670356E+04  0.00000000000E+00 0. -1.
         -2    1    1    2    0  503 -0.25795901980E+02 -0.20233480937E+02  0.54679523718E+02  0.63754785106E+02  0.00000000000E+00 0.  1.
</event>
<event>
 4    1  0.1874565E+004  0.2980378E+02  0.7546771E-02  0.1421309E+00
         21   -1    0    0  503  502  0.00000000000E+00  0.00000000000E+00  0.32226805455E+03  0.32226805455E+03  0.00000000000E+00 0. -1.
         21   -1    0    0  501  503 -0.00000000000E+00 -0.00000000000E+00 -0.27574485413E+01  0.27574485413E+01  0.00000000000E+00 0.  1.
          2    1    1    2  501    0 -0.27323642449E+02  0.11903092472E+02  0.15642789824E+03  0.15924180479E+03  0.00000000000E+00 0. -1.
         -2    1    1    2    0  502  0.27323642449E+02 -0.11903092472E+02  0.16308270778E+03  0.16578369830E+03  0.00000000000E+00 0.  1.
</event>
<event>
 4    1  0.1874565E+004  0.2484910E+02  0.7546771E-02  0.1470499E+00
         21   -1    0    0  501  502  0.00000000000E+00  0.00000000000E+00  0.50877350834E+01  0.50877350834E+01  0.00000000000E+00 0. -1.
         21   -1    0    0  502  503 -0.00000000000E+00 -0.00000000000E+00 -0.16536638456E+03  0.16536638456E+03  0.00000000000E+00 0.  1.
          2    1    1    2  501    0 -0.21243606753E+02  0.12891345832E+02 -0.36176808201E+02  0.43888940257E+02  0.00000000000E+00 0. -1.
         -2    1    1    2    0  503  0.21243606753E+02 -0.12891345832E+02 -0.12410184127E+03  0.12656517938E+03  0.00000000000E+00 0.  1.
</event>
<event>
 4    1  0.1874565E+004  0.3278169E+02  0.7546771E-02  0.1396867E+00
         21   -1    0    0  501  502  0.00000000000E+00  0.00000000000E+00  0.93566738250E+01  0.93566738250E+01  0.00000000000E+00 0.  1.
         21   -1    0    0  502  503 -0.00000000000E+00 -0.00000000000E+00 -0.18642291095E+03  0.18642291095E+03  0.00000000000E+00 0. -1.
          2    1    1    2  501    0  0.71697208897E+01 -0.31988034870E+02 -0.27879892295E+02  0.43034029173E+02  0.00000000000E+00 0.  1.
         -2    1    1    2    0  503 -0.71697208897E+01  0.31988034870E+02 -0.14918634483E+03  0.15274555560E+03  0.00000000000E+00 0. -1.
</event>
<event>
 4    1  0.1874565E+004  0.2944390E+02  0.7546771E-02  0.1424491E+00
         21   -1    0    0  501  502  0.00000000000E+00  0.00000000000E+00  0.44063262576E+01  0.44063262576E+01  0.00000000000E+00 0.  1.
         21   -1    0    0  502  503 -0.00000000000E+00 -0.00000000000E+00 -0.52331727665E+03  0.52331727665E+03  0.00000000000E+00 0. -1.
          2    1    1    2  501    0  0.29182992943E+02 -0.39110587139E+01 -0.51015743591E+02  0.58902882370E+02  0.00000000000E+00 0.  1.
         -2    1    1    2    0  503 -0.29182992943E+02  0.39110587139E+01 -0.46789520680E+03  0.46882072054E+03  0.00000000000E+00 0. -1.
</event>
<event>
 4    1  0.1874565E+004  0.2546542E+02  0.7546771E-02  0.1463663E+00
         21   -1    0    0  503  502  0.00000000000E+00  0.00000000000E+00  0.35909601734E+02  0.35909601734E+02  0.00000000000E+00 0.  1.
         21   -1    0    0  501  503 -0.00000000000E+00 -0.00000000000E+00 -0.18837421383E+02  0.18837421383E+02  0.00000000000E+00 0. -1.
          2    1    1    2  501    0  0.17564012032E+02 -0.18438908481E+02  0.14100964839E+02  0.29108848723E+02  0.00000000000E+00 0.  1.
         -2    1    1    2    0  502 -0.17564012032E+02  0.18438908481E+02  0.29712155133E+01  0.25638174394E+02  0.00000000000E+00 0. -1.
</event>
<event>
 4    1  0.1874565E+004  0.2440222E+02  0.7546771E-02  0.1475603E+00
         21   -1    0    0  501  502  0.00000000000E+00  0.00000000000E+00  0.66115491669E+01  0.66115491669E+01  0.00000000000E+00 0. -1.
         21   -1    0    0  502  503 -0.00000000000E+00 -0.00000000000E+00 -0.19062853164E+03  0.19062853164E+03  0.00000000000E+00 0.  1.
          2    1    1    2  501    0  0.88191413083E+01  0.22752822471E+02 -0.16363797268E+03  0.16544743662E+03  0.00000000000E+00 0.  1.
         -2    1    1    2    0  503 -0.88191413083E+01 -0.22752822471E+02 -0.20379009795E+02  0.31792644181E+02  0.00000000000E+00 0. -1.
</event>
<event>
 4    1  0.1874565E+004  0.5577728E+02  0.7546771E-02  0.1274897E+00
         21   -1    0    0  503  502  0.00000000000E+00  0.00000000000E+00  0.84364438008E+03  0.84364438008E+03  0.00000000000E+00 0. -1.
         21   -1    0    0  501  503 -0.00000000000E+00 -0.00000000000E+00 -0.72898542595E+02  0.72898542595E+02  0.00000000000E+00 0.  1.
          2    1    1    2  501    0  0.56611751936E+01 -0.55489242581E+02 -0.61156901101E+02  0.82772407837E+02  0.00000000000E+00 0.  1.
         -2    1    1    2    0  502 -0.56611751936E+01  0.55489242581E+02  0.83190273859E+03  0.83377051484E+03  0.00000000000E+00 0. -1.
</event>
<event>
 4    1  0.1874565E+004  0.2080671E+02  0.7546771E-02  0.1522043E+00
         21   -1    0    0  501  502  0.00000000000E+00  0.00000000000E+00  0.95641074518E+02  0.95641074518E+02  0.00000000000E+00 0.  1.
         21   -1    0    0  502  503 -0.00000000000E+00 -0.00000000000E+00 -0.18800385304E+02  0.18800385304E+02  0.00000000000E+00 0. -1.
          2    1    1    2  501    0  0.91544042085E+01 -0.18684646411E+02  0.88279067596E+02  0.90697921165E+02  0.00000000000E+00 0.  1.
         -2    1    1    2    0  503 -0.91544042085E+01  0.18684646411E+02 -0.11438378383E+02  0.23743538657E+02  0.00000000000E+00 0. -1.
</event>
<event>
 4    1  0.1874565E+004  0.2280592E+02  0.7546771E-02  0.1494950E+00
         21   -1    0    0  501  502  0.00000000000E+00  0.00000000000E+00  0.61193332579E+01  0.61193332579E+01  0.00000000000E+00 0.  1.
         21   -1    0    0  502  503 -0.00000000000E+00 -0.00000000000E+00 -0.21672938147E+03  0.21672938147E+03  0.00000000000E+00 0. -1.
          2    1    1    2  501    0 -0.17505721105E+02 -0.14617098738E+02 -0.18434670919E+02  0.29324851898E+02  0.00000000000E+00 0.  1.
         -2    1    1    2    0  503  0.17505721105E+02  0.14617098738E+02 -0.19217537730E+03  0.19352386283E+03  0.00000000000E+00 0. -1.
</event>
<event>
 4    1  0.1874565E+004  0.3295035E+02  0.7546771E-02  0.1395575E+00
         21   -1    0    0  503  502  0.00000000000E+00  0.00000000000E+00  0.60149617439E+03  0.60149617439E+03  0.00000000000E+00 0.  1.
         21   -1    0    0  501  503 -0.00000000000E+00 -0.00000000000E+00 -0.24073585924E+01  0.24073585924E+01  0.00000000000E+00 0. -1.
          2    1    1    2  501    0  0.27824498280E+02 -0.17650002378E+02  0.14850859538E+03  0.15212011106E+03  0.00000000000E+00 0. -1.
         -2    1    1    2    0  502 -0.27824498280E+02  0.17650002378E+02  0.45058022042E+03  0.45178342192E+03  0.00000000000E+00 0.  1.
</event>
<event>
 4    1  0.1874565E+004  0.2243961E+02  0.7546771E-02  0.1499657E+00
         21   -1    0    0  503  502  0.00000000000E+00  0.00000000000E+00  0.10431953991E+03  0.10431953991E+03  0.00000000000E+00 0. -1.
         21   -1    0    0  501  503 -0.00000000000E+00 -0.00000000000E+00 -0.56383188342E+01  0.56383188342E+01  0.00000000000E+00 0.  1.
          2    1    1    2  501    0  0.22282380962E+02 -0.26517189895E+01  0.28483509813E+02  0.36260811439E+02  0.00000000000E+00 0.  1.
         -2    1    1    2    0  502 -0.22282380962E+02  0.26517189895E+01  0.70197711259E+02  0.73697047302E+02  0.00000000000E+00 0. -1.
</event>
<event>
 4    1  0.1874565E+004  0.2001632E+02  0.7546771E-02  0.1533786E+00
         21   -1    0    0  501  502  0.00000000000E+00  0.00000000000E+00  0.13410571441E+02  0.13410571441E+02  0.00000000000E+00 0. -1.
         21   -1    0    0  502  503 -0.00000000000E+00 -0.00000000000E+00 -0.32175374791E+02  0.32175374791E+02  0.00000000000E+00 0.  1.
          2    1    1    2  501    0  0.60864438716E+01 -0.19068514083E+02 -0.32891020729E+01  0.20284753407E+02  0.00000000000E+00 0. -1.
         -2    1    1    2    0  503 -0.60864438716E+01  0.19068514083E+02 -0.15475701278E+02  0.25301192825E+02  0.00000000000E+00 0.  1.
</event>
<event>
 4    1  0.1874565E+004  0.2318893E+02  0.7546771E-02  0.1490139E+00
         21   -1    0    0  503  502  0.00000000000E+00  0.00000000000E+00  0.47895299135E+02  0.47895299135E+02  0.00000000000E+00 0.  1.
         21   -1    0    0  501  503 -0.00000000000E+00 -0.00000000000E+00 -0.11249035636E+02  0.11249035636E+02  0.00000000000E+00 0. -1.
          2    1    1    2  501    0 -0.20677314756E+02  0.10496437106E+02  0.19628242574E+02  0.30380823622E+02  0.00000000000E+00 0.  1.
         -2    1    1    2    0  502  0.20677314756E+02 -0.10496437106E+02  0.17018020925E+02  0.28763511149E+02  0.00000000000E+00 0. -1.
</event>
<event>
 4    1  0.1874565E+004  0.3611163E+02  0.7546771E-02  0.1372912E+00
         21   -1    0    0  501  502  0.00000000000E+00  0.00000000000E+00  0.27367194949E+02  0.27367194949E+02  0.00000000000E+00 0. -1.
         21   -1    0    0  502  503 -0.00000000000E+00 -0.00000000000E+00 -0.66712256200E+02  0.66712256200E+02  0.00000000000E+00 0.  1.
          2    1    1    2  501    0 -0.36100059759E+02 -0.91408671870E+00  0.54722502372E+01  0.36523901651E+02  0.00000000000E+00 0. -1.
         -2    1    1    2    0  503  0.36100059759E+02  0.91408671870E+00 -0.44817311488E+02  0.57555549499E+02  0.00000000000E+00 0.  1.
</event>
<event>
 4    1  0.1874565E+004  0.2873368E+02  0.7546771E-02  0.1430929E+00
         21   -1    0    0  501  502  0.00000000000E+00  0.00000000000E+00  0.47987825707E+02  0.47987825707E+02  0.00000000000E+00 0.  1.
         21   -1    0    0  502  503 -0.00000000000E+00 -0.00000000000E+00 -0.18329939662E+02  0.18329939662E+02  0.00000000000E+00 0. -1.
          2    1    1    2  501    0 -0.42353615074E+01 -0.28419815722E+02  0.23043978435E+02  0.36832718538E+02  0.00000000000E+00 0. -1.
         -2    1    1    2    0  503  0.42353615074E+01  0.28419815722E+02  0.66139076099E+01  0.29485046832E+02  0.00000000000E+00 0.  1.
</event>
<event>
 4    1  0.1874565E+004  0.2931303E+02  0.7546771E-02  0.1425662E+00
         21   -1    0    0  503  502  0.00000000000E+00  0.00000000000E+00  0.87274260116E+01  0.87274260116E+01  0.00000000000E+00 0. -1.
         21   -1    0    0  501  503 -0.00000000000E+00 -0.00000000000E+00 -0.14566070378E+03  0.14566070378E+03  0.00000000000E+00 0.  1.
          2    1    1    2  501    0  0.76841653706E+00  0.29302955199E+02 -0.11241195825E+03  0.11617100328E+03  0.00000000000E+00 0.  1.
         -2    1    1    2    0  502 -0.76841653706E+00 -0.29302955199E+02 -0.24521319523E+02  0.38217126508E+02  0.00000000000E+00 0. -1.
</event>
<event>
 4    1  0.1874565E+004  0.2667288E+02  0.7546771E-02  0.1450922E+00
         21   -1    0    0  501  502  0.00000000000E+00  0.00000000000E+00  0.92010180970E+02  0.92010180970E+02  0.00000000000E+00 0. -1.
         21   -1    0    0  502  503 -0.00000000000E+00 -0.00000000000E+00 -0.19305020895E+02  0.19305020895E+02  0.00000000000E+00 0.  1.
          2    1    1    2  501    0 -0.23139104889E+02 -0.13267422837E+02  0.79445769804E+02  0.83803776905E+02  0.00000000000E+00 0. -1.
         -2    1    1    2    0  503  0.23139104889E+02  0.13267422837E+02 -0.67406097288E+01  0.27511424960E+02  0.00000000000E+00 0.  1.
</event>
<event>
 4    1  0.1874565E+004  0.3486736E+02  0.7546771E-02  0.1381498E+00
         21   -1    0    0  503  502  0.00000000000E+00  0.00000000000E+00  0.24745238608E+02  0.24745238608E+02  0.00000000000E+00 0. -1.
         21   -1    0    0  501  503 -0.00000000000E+00 -0.00000000000E+00 -0.49154680961E+02  0.49154680961E+02  0.00000000000E+00 0.  1.
          2    1    1    2  501    0  0.32803700101E+02 -0.11817367866E+02 -0.13033127211E+02  0.37223585648E+02  0.00000000000E+00 0.  1.
         -2    1    1    2    0  502 -0.32803700101E+02  0.11817367866E+02 -0.11376315142E+02  0.36676333920E+02  0.00000000000E+00 0. -1.
</event>
<event>
 4    1  0.1874565E+004  0.2920865E+02  0.7546771E-02  0.1426600E+00
         21   -1    0    0  503  502  0.00000000000E+00  0.00000000000E+00  0.86940643622E+02  0.86940643622E+02  0.00000000000E+00 0.  1.
         21   -1    0    0  501  503 -0.00000000000E+00 -0.00000000000E+00 -0.10099696626E+02  0.10099696626E+02  0.00000000000E+00 0. -1.
          2    1    1    2  501    0 -0.25074227066E+02 -0.14980928266E+02  0.30245062540E+02  0.42046508567E+02  0.00000000000E+00 0.  1.
         -2    1    1    2    0  502  0.25074227066E+02  0.14980928266E+02  0.46595884457E+02  0.54993831681E+02  0.00000000000E+00 0. -1.
</event>
<event>
 4    1  0.1874565E+004  0.2055785E+02  0.7546771E-02  0.1525672E+00
         21   -1    0    0  501  502  0.00000000000E+00  0.00000000000E+00  0.90392263271E+02  0.90392263271E+02  0.00000000000E+00 0.  1.
         21   -1    0    0  502  503 -0.00000000000E+00 -0.00000000000E+00 -0.24341116220E+02  0.24341116220E+02  0.00000000000E+00 0. -1.
          2    1    1    2  501    0 -0.46818813943E+01  0.20017625090E+02  0.84589238383E+02  0.87051505316E+02  0.00000000000E+00 0.  1.
         -2    1    1    2    0  503  0.46818813943E+01 -0.20017625090E+02 -0.18538091332E+02  0.27681874175E+02  0.00000000000E+00 0. -1.
</event>
<event>
 4    1  0.1874565E+004  0.2096846E+02  0.7546771E-02  0.1519716E+00
         21   -1    0    0  501  502  0.00000000000E+00  0.00000000000E+00  0.27760905079E+02  0.27760905079E+02  0.00000000000E+00 0. -1.
         21   -1    0    0  502  503 -0.00000000000E+00 -0.00000000000E+00 -0.19475018004E+02  0.19475018004E+02  0.00000000000E+00 0.  1.
          2    1    1    2  501    0  0.19562245700E+02 -0.75495053610E+01 -0.60635782113E+01  0.21827585042E+02  0.00000000000E+00 0.  1.
         -2    1    1    2    0  503 -0.19562245700E+02  0.75495053610E+01  0.14349465286E+02  0.25408338041E+02  0.00000000000E+00 0. -1.
</event>
<event>
 4    1  0.1874565E+004  0.2684887E+02  0.7546771E-02  0.1449132E+00
         21   -1    0    0  503  502  0.00000000000E+00  0.00000000000E+00  0.36299393565E+01  0.36299393565E+01  0.00000000000E+00 0.  1.
         21   -1    0    0  501  503 -0.00000000000E+00 -0.00000000000E+00 -0.24043074628E+03  0.24043074628E+03  0.00000000000E+00 0. -1.
          2    1    1    2  501    0 -0.26270001685E+02 -0.55451732136E+01 -0.16930811572E+03  0.17142374393E+03  0.00000000000E+00 0. -1.
         -2    1    1    2    0  502  0.26270001685E+02  0.55451732136E+01 -0.67492691198E+02  0.72636941701E+02  0.00000000000E+00 0.  1.
</event>
<event>
 4    1  0.1874565E+004  0.4746744E+02  0.7546771E-02  0.1309543E+00
         21   -1    0    0  501  502  0.00000000000E+00  0.00000000000E+00  0.21589643001E+02  0.21589643001E+02  0.00000000000E+00 0.  1.
         21   -1    0    0  502  503 -0.00000000000E+00 -0.00000000000E+00 -0.19280230993E+03  0.19280230993E+03  0.00000000000E+00 0. -1.
          2    1    1    2  501    0 -0.22355550262E+02  0.41873461743E+02 -0.13004878588E+02  0.49216707458E+02  0.00000000000E+00 0.  1.
         -2    1    1    2    0  503  0.22355550262E+02 -0.41873461743E+02 -0.15820778834E+03  0.16517524547E+03  0.00000000000E+00 0. -1.
</event>
<event>
 4    1  0.1874565E+004  0.2161422E+02  0.7546771E-02  0.1510673E+00
         21   -1    0    0  503  502  0.00000000000E+00  0.00000000000E+00  0.90483829020E+01  0.90483829020E+01  0.00000000000E+00 0.  1.
         21   -1    0    0  501  503 -0.00000000000E+00 -0.00000000000E+00 -0.11495171978E+03  0.11495171978E+03  0.00000000000E+00 0. -1.
          2    1    1    2  501    0 -0.21216717822E+02  0.41261647505E+01 -0.69357324783E+01  0.22699751886E+02  0.00000000000E+00 0.  1.
         -2    1    1    2    0  502  0.21216717822E+02 -0.41261647505E+01 -0.98967604398E+02  0.10130035079E+03  0.00000000000E+00 0. -1.
</event>
<event>
 4    1  0.1874565E+004  0.2869294E+02  0.7546771E-02  0.1431305E+00
         21   -1    0    0  503  502  0.00000000000E+00  0.00000000000E+00  0.27695700194E+02  0.27695700194E+02  0.00000000000E+00 0. -1.
         21   -1    0    0  501  503 -0.00000000000E+00 -0.00000000000E+00 -0.49515830613E+02  0.49515830613E+02  0.00000000000E+00 0.  1.
          2    1    1    2  501    0  0.96663176242E+01 -0.27015682494E+02 -0.35316267997E+02  0.45503006299E+02  0.00000000000E+00 0.  1.
         -2    1    1    2    0  502 -0.96663176242E+01  0.27015682494E+02  0.13496137578E+02  0.31708524509E+02  0.00000000000E+00 0. -1.
</event>
<event>
 4    1  0.1874565E+004  0.2703397E+02  0.7546771E-02  0.1447267E+00
         21   -1    0    0  503  502  0.00000000000E+00  0.00000000000E+00  0.89566091295E+02  0.89566091295E+02  0.00000000000E+00 0. -1.
         21   -1    0    0  501  503 -0.00000000000E+00 -0.00000000000E+00 -0.82031353008E+01  0.82031353008E+01  0.00000000000E+00 0.  1.
          2    1    1    2  501    0  0.85465162068E+00 -0.27020456992E+02  0.37125728958E+02  0.45925540564E+02  0.00000000000E+00 0.  1.
         -2    1    1    2    0  502 -0.85465162068E+00  0.27020456992E+02  0.44237227036E+02  0.51843686031E+02  0.00000000000E+00 0. -1.
</event>
<event>
 4    1  0.1874565E+004  0.3371823E+02  0.7546771E-02  0.1389805E+00
         21   -1    0    0  503  502  0.00000000000E+00  0.00000000000E+00  0.43728441073E+00  0.43728441073E+00  0.00000000000E+00 0.  1.
         21   -1    0    0  501  503 -0.00000000000E+00 -0.00000000000E+00 -0.27030826310E+04  0.27030826310E+04  0.00000000000E+00 0. -1.
          2    1    1    2  501    0 -0.16032348157E+02  0.29662817320E+02 -0.10872875927E+04  0.10878102905E+04  0.00000000000E+00 0.  1.
         -2    1    1    2    0  502  0.16032348157E+02 -0.29662817320E+02 -0.16153577539E+04  0.16157096249E+04  0.00000000000E+00 0. -1.
</event>
<event>
 4    1  0.1874565E+004  0.4204307E+02  0.7546771E-02  0.1336912E+00
         21   -1    0    0  501  502  0.00000000000E+00  0.00000000000E+00  0.35242985249E+02  0.35242985249E+02  0.00000000000E+00 0. -1.
         21   -1    0    0  502  503 -0.00000000000E+00 -0.00000000000E+00 -0.10528770345E+03  0.10528770345E+03  0.00000000000E+00 0.  1.
          2    1    1    2  501    0  0.17890784690E+02 -0.38046542594E+02  0.15823564596E+02  0.44922208057E+02  0.00000000000E+00 0. -1.
         -2    1    1    2    0  503 -0.17890784690E+02  0.38046542594E+02 -0.85868282795E+02  0.95608480640E+02  0.00000000000E+00 0.  1.
</event>
<event>
 4    1  0.1874565E+004  0.2150356E+02  0.7546771E-02  0.1512195E+00
         21   -1    0    0  501  502  0.00000000000E+00  0.00000000000E+00  0.30778723813E+02  0.30778723813E+02  0.00000000000E+00 0. -1.
         21   -1    0    0  502  503 -0.00000000000E+00 -0.00000000000E+00 -0.44080690127E+02  0.44080690127E+02  0.00000000000E+00 0.  1.
          2    1    1    2  501    0  0.27359477407E+01 -0.21328799609E+02  0.23738218991E+02  0.32029769647E+02  0.00000000000E+00 0. -1.
         -2    1    1    2    0  503 -0.27359477407E+01  0.21328799609E+02 -0.37040185305E+02  0.42829644293E+02  0.00000000000E+00 0.  1.
</event>
<event>
 4    1  0.1874565E+004  0.3945617E+02  0.7546771E-02  0.1351702E+00
         21   -1    0    0  501  502  0.00000000000E+00  0.00000000000E+00  0.45296315504E+03  0.45296315504E+03  0.00000000000E+00 0. -1.
         21   -1    0    0  502  503 -0.00000000000E+00 -0.00000000000E+00 -0.36969652003E+01  0.36969652003E+01  0.00000000000E+00 0.  1.
          2    1    1    2  501    0 -0.39229167689E+02 -0.42263145085E+01  0.28519242242E+03  0.28790885214E+03  0.00000000000E+00 0. -1.
         -2    1    1    2    0  503  0.39229167689E+02  0.42263145085E+01  0.16407376742E+03  0.16875126810E+03  0.00000000000E+00 0.  1.
</event>
<event>
 4    1  0.1874565E+004  0.2204953E+02  0.7546771E-02  0.1504791E+00
         21   -1    0    0  503  502  0.00000000000E+00  0.00000000000E+00  0.14279445878E+01  0.14279445878E+01  0.00000000000E+00 0.  1.
         21   -1    0    0  501  503 -0.00000000000E+00 -0.00000000000E+00 -0.56521095008E+03  0.56521095008E+03  0.00000000000E+00 0. -1.
          2    1    1    2  501    0 -0.50263375515E+01 -0.21468992094E+02 -0.46054266676E+03  0.46107020029E+03  0.00000000000E+00 0. -1.
         -2    1    1    2    0  502  0.50263375515E+01  0.21468992094E+02 -0.10324033873E+03  0.10556869438E+03  0.00000000000E+00 0.  1.
</event>
<event>
 4    1  0.1874565E+004  0.4153025E+02  0.7546771E-02  0.1339745E+00
         21   -1    0    0  501  502  0.00000000000E+00  0.00000000000E+00  0.17250490266E+01  0.17250490266E+01  0.00000000000E+00 0. -1.
         21   -1    0    0  502  503 -0.00000000000E+00 -0.00000000000E+00 -0.12775044635E+04  0.12775044635E+04  0.00000000000E+00 0.  1.
          2    1    1    2  501    0 -0.25570562901E+02 -0.32724729324E+02 -0.93608624050E+03  0.93700704973E+03  0.00000000000E+00 0.  1.
         -2    1    1    2    0  503  0.25570562901E+02  0.32724729324E+02 -0.33969317402E+03  0.34222246284E+03  0.00000000000E+00 0. -1.
</event>
<event>
 4    1  0.1874565E+004  0.2489749E+02  0.7546771E-02  0.1469954E+00
         21   -1    0    0  501  502  0.00000000000E+00  0.00000000000E+00  0.14590476568E+02  0.14590476568E+02  0.00000000000E+00 0.  1.
         21   -1    0    0  502  503 -0.00000000000E+00 -0.00000000000E+00 -0.42843594251E+02  0.42843594251E+02  0.00000000000E+00 0. -1.
          2    1    1    2  501    0 -0.13324048064E+02 -0.21032226736E+02 -0.16751674993E+02  0.30008389383E+02  0.00000000000E+00 0. -1.
         -2    1    1    2    0  503  0.13324048064E+02  0.21032226736E+02 -0.11501442689E+02  0.27425681436E+02  0.00000000000E+00 0.  1.
</event>
<event>
 4    1  0.1874565E+004  0.2278126E+02  0.7546771E-02  0.1495263E+00
         21   -1    0    0  503  502  0.00000000000E+00  0.00000000000E+00  0.12302296670E+02  0.12302296670E+02  0.00000000000E+00 0. -1.
         21   -1    0    0  501  503 -0.00000000000E+00 -0.00000000000E+00 -0.84967542541E+02  0.84967542541E+02  0.00000000000E+00 0.  1.
          2    1    1    2  501    0 -0.17164789494E+02  0.14978505782E+02 -0.70842983970E+02  0.74415818289E+02  0.00000000000E+00 0.  1.
         -2    1    1    2    0  502  0.17164789494E+02 -0.14978505782E+02 -0.18222619005E+01  0.22854020921E+02  0.00000000000E+00 0. -1.
</event>
<event>
 4    1  0.1874565E+004  0.2033473E+02  0.7546771E-02  0.1528979E+00
         21   -1    0    0  501  502  0.00000000000E+00  0.00000000000E+00  0.29618346492E+01  0.29618346492E+01  0.00000000000E+00 0.  1.
         21   -1    0    0  502  503 -0.00000000000E+00 -0.00000000000E+00 -0.17975616917E+03  0.17975616917E+03  0.00000000000E+00 0. -1.
          2    1    1    2  501    0 -0.19447447075E+02  0.59412315759E+01 -0.45222196079E+02  0.49583751860E+02  0.00000000000E+00 0.  1.
         -2    1    1    2    0  503  0.19447447075E+02 -0.59412315759E+01 -0.13157213845E+03  0.13313425196E+03  0.00000000000E+00 0. -1.
</event>
<event>
 4    1  0.1874565E+004  0.2087168E+02  0.7546771E-02  0.1521105E+00
         21   -1    0    0  503  502  0.00000000000E+00  0.00000000000E+00  0.25442592309E+01  0.25442592309E+01  0.00000000000E+00 0. -1.
         21   -1    0    0  501  503 -0.00000000000E+00 -0.00000000000E+00 -0.18304261619E+03  0.18304261619E+03  0.00000000000E+00 0.  1.
          2    1    1    2  501    0 -0.20722942141E+02 -0.24872925543E+01 -0.11383255407E+03  0.11573019191E+03  0.00000000000E+00 0.  1.
         -2    1    1    2    0  502  0.20722942141E+02  0.24872925543E+01 -0.66665802892E+02  0.69856683506E+02  0.00000000000E+00 0. -1.
</event>
<event>
 4    1  0.1874565E+004  0.2409715E+02  0.7546771E-02  0.1479162E+00
         21   -1    0    0  503  502  0.00000000000E+00  0.00000000000E+00  0.19975808605E+02  0.19975808605E+02  0.00000000000E+00 0.  1.
         21   -1    0    0  501  503 -0.00000000000E+00 -0.00000000000E+00 -0.35070963378E+02  0.35070963378E+02  0.00000000000E+00 0. -1.
          2    1    1    2  501    0  0.47269495331E+01  0.23628975176E+02 -0.18933871559E+02  0.30645782939E+02  0.00000000000E+00 0.  1.
         -2    1    1    2    0  502 -0.47269495331E+01 -0.23628975176E+02  0.38387167858E+01  0.24400989044E+02  0.00000000000E+00 0. -1.
</event>
<event>
 4    1  0.1874565E+004  0.2047785E+02  0.7546771E-02  0.1526852E+00
         21   -1    0    0  501  502  0.00000000000E+00  0.00000000000E+00  0.10936816570E+03  0.10936816570E+03  0.00000000000E+00 0. -1.
         21   -1    0    0  502  503 -0.00000000000E+00 -0.00000000000E+00 -0.60955675167E+01  0.60955675167E+01  0.00000000000E+00 0.  1.
          2    1    1    2  501    0  0.67565832469E+00  0.20466697937E+02  0.86799761140E+02  0.89182625957E+02  0.00000000000E+00 0. -1.
         -2    1    1    2    0  503 -0.67565832469E+00 -0.20466697937E+02  0.16472837046E+02  0.26281107263E+02  0.00000000000E+00 0.  1.
</event>
<event>
 4    1  0.1874565E+004  0.3532801E+02  0.7546771E-02  0.1378272E+00
         21   -1    0    0  501  502  0.00000000000E+00  0.00000000000E+00  0.35557529372E+02  0.35557529372E+02  0.00000000000E+00 0. -1.
         21   -1    0    0  502  503 -0.00000000000E+00 -0.00000000000E+00 -0.41673865478E+02  0.41673865478E+02  0.00000000000E+00 0.  1.
          2    1    1    2  501    0  0.73471775413E+01 -0.34555570621E+02  0.12278928150E+02  0.37401076927E+02  0.00000000000E+00 0.  1.
         -2    1    1    2    0  503 -0.73471775413E+01  0.34555570621E+02 -0.18395264256E+02  0.39830317923E+02  0.00000000000E+00 0. -1.
</event>
<event>
 4    1  0.1874565E+004  0.2021994E+02  0.7546771E-02  0.1530700E+00
         21   -1    0    0  501  502  0.00000000000E+00  0.00000000000E+00  0.44892599373E+02  0.44892599373E+02  0.00000000000E+00 0. -1.
         21   -1    0    0  502  503 -0.00000000000E+00 -0.00000000000E+00 -0.21320307023E+02  0.21320307023E+02  0.00000000000E+00 0.  1.
          2    1    1    2  501    0  0.20072973248E+02 -0.24334632283E+01  0.36843139863E+02  0.42026931286E+02  0.00000000000E+00 0. -1.
         -2    1    1    2    0  503 -0.20072973248E+02  0.24334632283E+01 -0.13270847514E+02  0.24185975110E+02  0.00000000000E+00 0.  1.
</event>
<event>
 4    1  0.1874565E+004  0.2143074E+02  0.7546771E-02  0.1513203E+00
         21   -1    0    0  503  502  0.00000000000E+00  0.00000000000E+00  0.34593350800E+02  0.34593350800E+02  0.00000000000E+00 0. -1.
         21   -1    0    0  501  503 -0.00000000000E+00 -0.00000000000E+00 -0.16608238808E+02  0.16608238808E+02  0.00000000000E+00 0.  1.
          2    1    1    2  501    0  0.20612066325E+02 -0.58667968541E+01 -0.24739465637E+01  0.21573061792E+02  0.00000000000E+00 0.  1.
         -2    1    1    2    0  502 -0.20612066325E+02  0.58667968541E+01  0.20459058556E+02  0.29628527815E+02  0.00000000000E+00 0. -1.
</event>
<event>
 4    1  0.1874565E+004  0.3336475E+02  0.7546771E-02  0.1392439E+00
         21   -1    0    0  503  502  0.00000000000E+00  0.00000000000E+00  0.14556893649E+04  0.14556893649E+04  0.00000000000E+00 0.  1.
         21   -1    0    0  501  503 -0.00000000000E+00 -0.00000000000E+00 -0.10249382793E+01  0.10249382793E+01  0.00000000000E+00 0. -1.
          2    1    1    2  501    0 -0.31932937424E+02 -0.96692457818E+01  0.36033942250E+03  0.36188079006E+03  0.00000000000E+00 0.  1.
         -2    1    1    2    0  502  0.31932937424E+02  0.96692457818E+01  0.10943250041E+04  0.10948335131E+04  0.00000000000E+00 0. -1.
</event>
<event>
 4    1  0.1874565E+004  0.2594987E+02  0.7546771E-02  0.1458452E+00
         21   -1    0    0  503  502  0.00000000000E+00  0.00000000000E+00  0.21109496596E+02  0.21109496596E+02  0.00000000000E+00 0. -1.
         21   -1    0    0  501  503 -0.00000000000E+00 -0.00000000000E+00 -0.38553840197E+02  0.38553840197E+02  0.00000000000E+00 0.  1.
          2    1    1    2  501    0  0.25931752496E+02  0.96941487243E+00 -0.21115155187E+02  0.33455124140E+02  0.00000000000E+00 0.  1.
         -2    1    1    2    0  502 -0.25931752496E+02 -0.96941487243E+00  0.36708115854E+01  0.26208212652E+02  0.00000000000E+00 0. -1.
</event>
<event>
 4    1  0.1874565E+004  0.2257888E+02  0.7546771E-02  0.1497855E+00
         21   -1    0    0  501  502  0.00000000000E+00  0.00000000000E+00  0.49661878510E+02  0.49661878510E+02  0.00000000000E+00 0. -1.
         21   -1    0    0  502  503 -0.00000000000E+00 -0.00000000000E+00 -0.11839416206E+02  0.11839416206E+02  0.00000000000E+00 0.  1.
          2    1    1    2  501    0  0.21231925774E+01  0.22478828831E+02  0.30123029017E+02  0.37645751015E+02  0.00000000000E+00 0.  1.
         -2    1    1    2    0  503 -0.21231925774E+01 -0.22478828831E+02  0.76994332861E+01  0.23855543701E+02  0.00000000000E+00 0. -1.
</event>
<event>
 4    1  0.1874565E+004  0.3605403E+02  0.7546771E-02  0.1373301E+00
         21   -1    0    0  503  502  0.00000000000E+00  0.00000000000E+00  0.14628697765E+03  0.14628697765E+03  0.00000000000E+00 0. -1.
         21   -1    0    0  501  503 -0.00000000000E+00 -0.00000000000E+00 -0.11493953394E+02  0.11493953394E+02  0.00000000000E+00 0.  1.
          2    1    1    2  501    0 -0.66795384934E+01 -0.35429886145E+02  0.29817347253E+02  0.46786400417E+02  0.00000000000E+00 0.  1.
         -2    1    1    2    0  502  0.66795384934E+01  0.35429886145E+02  0.10497567700E+03  0.11099453062E+03  0.00000000000E+00 0. -1.
</event>
<event>
 4    1  0.1874565E+004  0.2002343E+02  0.7546771E-02  0.1533678E+00
         21   -1    0    0  503  502  0.00000000000E+00  0.00000000000E+00  0.61628501129E+02  0.61628501129E+02  0.00000000000E+00 0.  1.
         21   -1    0    0  501  503 -0.00000000000E+00 -0.00000000000E+00 -0.11064760699E+02  0.11064760699E+02  0.00000000000E+00 0. -1.
          2    1    1    2  501    0  0.20016849325E+02  0.51318521902E+00  0.19510501917E+01  0.20118255710E+02  0.00000000000E+00 0. -1.
         -2    1    1    2    0  502 -0.20016849325E+02 -0.51318521902E+00  0.48612690239E+02  0.52575006117E+02  0.00000000000E+00 0.  1.
</event>
<event>
 4    1  0.1874565E+004  0.2690216E+02  0.7546771E-02  0.1448593E+00
         21   -1    0    0  501  502  0.00000000000E+00  0.00000000000E+00  0.66425441304E+01  0.66425441304E+01  0.00000000000E+00 0. -1.
         21   -1    0    0  502  503 -0.00000000000E+00 -0.00000000000E+00 -0.17694769778E+03  0.17694769778E+03  0.00000000000E+00 0.  1.
          2    1    1    2  501    0  0.19644792114E+02  0.18379558853E+02 -0.28249700868E+02  0.39009891566E+02  0.00000000000E+00 0. -1.
         -2    1    1    2    0  503 -0.19644792114E+02 -0.18379558853E+02 -0.14205545278E+03  0.14458035034E+03  0.00000000000E+00 0.  1.
</event>
<event>
 4    1  0.1874565E+004  0.2254504E+02  0.7546771E-02  0.1498291E+00
         21   -1    0    0  503  502  0.00000000000E+00  0.00000000000E+00  0.25497676836E+02  0.25497676836E+02  0.00000000000E+00 0.  1.
         21   -1    0    0  501  503 -0.00000000000E+00 -0.00000000000E+00 -0.25213676545E+02  0.25213676545E+02  0.00000000000E+00 0. -1.
          2    1    1    2  501    0  0.17054071121E+02 -0.14745765801E+02 -0.11460389589E+02  0.25290699484E+02  0.00000000000E+00 0. -1.
         -2    1    1    2    0  502 -0.17054071121E+02  0.14745765801E+02  0.11744389879E+02  0.25420653896E+02  0.00000000000E+00 0.  1.
</event>
<event>
 4    1  0.1874565E+004  0.2571809E+02  0.7546771E-02  0.1460928E+00
         21   -1    0    0  503  502  0.00000000000E+00  0.00000000000E+00  0.12670967057E+04  0.12670967057E+04  0.00000000000E+00 0. -1.
         21   -1    0    0  501  503 -0.00000000000E+00 -0.00000000000E+00 -0.53963839290E+00  0.53963839290E+00  0.00000000000E+00 0.  1.
          2    1    1    2  501    0 -0.11714265272E+02 -0.22895333839E+02  0.74787815081E+03  0.74832021808E+03  0.00000000000E+00 0. -1.
         -2    1    1    2    0  502  0.11714265272E+02  0.22895333839E+02  0.51867891649E+03  0.51931612601E+03  0.00000000000E+00 0.  1.
</event>
<event>
 4    1  0.1874565E+004  0.2170592E+02  0.7546771E-02  0.1509420E+00
         21   -1    0    0  503  502  0.00000000000E+00  0.00000000000E+00  0.64285097096E+02  0.64285097096E+02  0.00000000000E+00 0. -1.
         21   -1    0    0  501  503 -0.00000000000E+00 -0.00000000000E+00 -0.10327763527E+03  0.10327763527E+03  0.00000000000E+00 0.  1.
          2    1    1    2  501    0  0.15285600708E+02  0.15410956005E+02 -0.10025019352E+03  0.10257313710E+03  0.00000000000E+00 0.  1.
         -2    1    1    2    0  502 -0.15285600708E+02 -0.15410956005E+02  0.61257655347E+02  0.64989595264E+02  0.00000000000E+00 0. -1.
</event>
<event>
 4    1  0.1874565E+004  0.2100819E+02  0.7546771E-02  0.1519148E+00
         21   -1    0    0  503  502  0.00000000000E+00  0.00000000000E+00  0.51563149647E+02  0.51563149647E+02  0.00000000000E+00 0. -1.
         21   -1    0    0  501  503 -0.00000000000E+00 -0.00000000000E+00 -0.15751709946E+02  0.15751709946E+02  0.00000000000E+00 0.  1.
          2    1    1    2  501    0  0.20074813221E+02  0.61924135940E+01 -0.48376345986E+01  0.21557987394E+02  0.00000000000E+00 0.  1.
         -2    1    1    2    0  502 -0.20074813221E+02 -0.61924135940E+01  0.40649074300E+02  0.45756872198E+02  0.00000000000E+00 0. -1.
</event>
<event>
 4    1  0.1874565E+004  0.2766233E+02  0.7546771E-02  0.1441066E+00
         21   -1    0    0  503  502  0.00000000000E+00  0.00000000000E+00  0.18531645050E+03  0.18531645050E+03  0.00000000000E+00 0.  1.
         21   -1    0    0  501  503 -0.00000000000E+00 -0.00000000000E+00 -0.50226650295E+01  0.50226650295E+01  0.00000000000E+00 0. -1.
          2    1    1    2  501    0  0.47838107526E+01 -0.27245542530E+02  0.50007083665E+02  0.57148165760E+02  0.00000000000E+00 0. -1.
         -2    1    1    2    0  502 -0.47838107526E+01  0.27245542530E+02  0.13028670180E+03  0.13319094977E+03  0.00000000000E+00 0.  1.
</event>
<event>
 4    1  0.1874565E+004  0.2447375E+02  0.7546771E-02  0.1474777E+00
         21   -1    0    0  501  502  0.00000000000E+00  0.00000000000E+00  0.64278139197E+01  0.64278139197E+01  0.00000000000E+00 0.  1.
         21   -1    0    0  502  503 -0.00000000000E+00 -0.00000000000E+00 -0.13032265574E+03  0.13032265574E+03  0.00000000000E+00 0. -1.
          2    1    1    2  501    0 -0.63065065987E+01  0.23647248131E+02 -0.25446270946E+02  0.35305482219E+02  0.00000000000E+00 0.  1.
         -2    1    1    2    0  503  0.63065065987E+01 -0.23647248131E+02 -0.98448570877E+02  0.10144498744E+03  0.00000000000E+00 0. -1.
</event>
<event>
 4    1  0.1874565E+004  0.2887085E+02  0.7546771E-02  0.1429669E+00
         21   -1    0    0  503  502  0.00000000000E+00  0.00000000000E+00  0.12850209845E+02  0.12850209845E+02  0.00000000000E+00 0.  1.
         21   -1    0    0  501  503 -0.00000000000E+00 -0.00000000000E+00 -0.93756915617E+02  0.93756915617E+02  0.00000000000E+00 0. -1.
          2    1    1    2  501    0 -0.25516521917E+02  0.13506769666E+02 -0.70043327293E+02  0.75760104381E+02  0.00000000000E+00 0. -1.
         -2    1    1    2    0  502  0.25516521917E+02 -0.13506769666E+02 -0.10863378480E+02  0.30847021081E+02  0.00000000000E+00 0.  1.
</event>
<event>
 4    1  0.1874565E+004  0.2377613E+02  0.7546771E-02  0.1482976E+00
         21   -1    0    0  503  502  0.00000000000E+00  0.00000000000E+00  0.27308205186E+03  0.27308205186E+03  0.00000000000E+00 0. -1.
         21   -1    0    0  501  503 -0.00000000000E+00 -0.00000000000E+00 -0.27943822176E+01  0.27943822176E+01  0.00000000000E+00 0.  1.
          2    1    1    2  501    0  0.20321618516E+02 -0.12342462876E+02  0.64917750332E+02  0.69134787749E+02  0.00000000000E+00 0.  1.
         -2    1    1    2    0  502 -0.20321618516E+02  0.12342462876E+02  0.20536991931E+03  0.20674164633E+03  0.00000000000E+00 0. -1.
</event>
<event>
 4    1  0.1874565E+004  0.2357755E+02  0.7546771E-02  0.1485370E+00
         21   -1    0    0  501  502  0.00000000000E+00  0.00000000000E+00  0.11812843227E+03  0.11812843227E+03  0.00000000000E+00 0. -1.
         21   -1    0    0  502  503 -0.00000000000E+00 -0.00000000000E+00 -0.85336475122E+01  0.85336475122E+01  0.00000000000E+00 0.  1.
          2    1    1    2  501    0 -0.16369727662E+02  0.16968589923E+02  0.97212512389E+02  0.10003086320E+03  0.00000000000E+00 0. -1.
         -2    1    1    2    0  503  0.16369727662E+02 -0.16968589923E+02  0.12382272372E+02  0.26631216585E+02  0.00000000000E+00 0.  1.
</event>
<event>
 4    1  0.1874565E+004  0.2035182E+02  0.7546771E-02  0.1528724E+00
         21   -1    0    0  501  502  0.00000000000E+00  0.00000000000E+00  0.77737243769E+02  0.77737243769E+02  0.00000000000E+00 0. -1.
         21   -1    0    0  502  503 -0.00000000000E+00 -0.00000000000E+00 -0.94711789818E+01  0.94711789818E+01  0.00000000000E+00 0.  1.
          2    1    1    2  501    0  0.12828314798E+02  0.15799711308E+02  0.62972340173E+02  0.66179393809E+02  0.00000000000E+00 0.  1.
         -2    1    1    2    0  503 -0.12828314798E+02 -0.15799711308E+02  0.52937246141E+01  0.21029028943E+02  0.00000000000E+00 0. -1.
</event>
<event>
 4    1  0.1874565E+004  0.2675107E+02  0.7546771E-02  0.1450125E+00
         21   -1    0    0  503  502  0.00000000000E+00  0.00000000000E+00  0.22623547802E+03  0.22623547802E+03  0.00000000000E+00 0. -1.
         21   -1    0    0  501  503 -0.00000000000E+00 -0.00000000000E+00 -0.13817275665E+02  0.13817275665E+02  0.00000000000E+00 0.  1.
          2    1    1    2  501    0 -0.12234592652E+02  0.23789382527E+02  0.81310760948E+00  0.26763428822E+02  0.00000000000E+00 0.  1.
         -2    1    1    2    0  502  0.12234592652E+02 -0.23789382527E+02  0.21160509474E+03  0.21328932486E+03  0.00000000000E+00 0. -1.
</event>
<event>
 4    1  0.1874565E+004  0.2023694E+02  0.7546771E-02  0.1530444E+00
         21   -1    0    0  501  502  0.00000000000E+00  0.00000000000E+00  0.13226248299E+02  0.13226248299E+02  0.00000000000E+00 0. -1.
         21   -1    0    0  502  503 -0.00000000000E+00 -0.00000000000E+00 -0.31153440163E+02  0.31153440163E+02  0.00000000000E+00 0.  1.
          2    1    1    2  501    0 -0.11645147617E+02  0.16550653941E+02 -0.72318715681E+01  0.21490313522E+02  0.00000000000E+00 0.  1.
         -2    1    1    2    0  503  0.11645147617E+02 -0.16550653941E+02 -0.10695320296E+02  0.22889374940E+02  0.00000000000E+00 0. -1.
</event>
<event>
 4    1  0.1874565E+004  0.3077965E+02  0.7546771E-02  0.1412940E+00
         21   -1    0    0  503  502  0.00000000000E+00  0.00000000000E+00  0.32518167511E+03  0.32518167511E+03  0.00000000000E+00 0. -1.
         21   -1    0    0  501  503 -0.00000000000E+00 -0.00000000000E+00 -0.33596801045E+01  0.33596801045E+01  0.00000000000E+00 0.  1.
          2    1    1    2  501    0  0.32312783824E+01  0.30609566507E+02  0.10104072807E+03  0.10562488083E+03  0.00000000000E+00 0.  1.
         -2    1    1    2    0  502 -0.32312783824E+01 -0.30609566507E+02  0.22078126694E+03  0.22291647438E+03  0.00000000000E+00 0. -1.
</event>
<event>
 4    1  0.1874565E+004  0.2451656E+02  0.7546771E-02  0.1474285E+00
         21   -1    0    0  503  502  0.00000000000E+00  0.00000000000E+00  0.10106586330E+03  0.10106586330E+03  0.00000000000E+00 0. -1.
         21   -1    0    0  501  503 -0.00000000000E+00 -0.00000000000E+00 -0.43403550956E+02  0.43403550956E+02  0.00000000000E+00 0.  1.
          2    1    1    2  501    0 -0.14545650851E+02  0.19735387764E+02 -0.38272451534E+02  0.45451535016E+02  0.00000000000E+00 0.  1.
         -2    1    1    2    0  502  0.14545650851E+02 -0.19735387764E+02  0.95934763878E+02  0.99017879240E+02  0.00000000000E+00 0. -1.
</event>
<event>
 4    1  0.1874565E+004  0.2466437E+02  0.7546771E-02  0.1472593E+00
         21   -1    0    0  503  502  0.00000000000E+00  0.00000000000E+00  0.12631192348E+02  0.12631192348E+02  0.00000000000E+00 0.  1.
         21   -1    0    0  501  503 -0.00000000000E+00 -0.00000000000E+00 -0.27161354649E+03  0.27161354649E+03  0.00000000000E+00 0. -1.
          2    1    1    2  501    0  0.33735079080E+01  0.24432567629E+02 -0.25839903019E+03  0.25957347654E+03  0.00000000000E+00 0. -1.
         -2    1    1    2    0  502 -0.33735079080E+01 -0.24432567629E+02 -0.58332394594E+00  0.24671262298E+02  0.00000000000E+00 0.  1.
</event>
<event>
 4    1  0.1874565E+004  0.3278949E+02  0.7546771E-02  0.1396807E+00
         21   -1    0    0  501  502  0.00000000000E+00  0.00000000000E+00  0.26875393191E+02  0.26875393191E+02  0.00000000000E+00 0.  1.
         21   -1    0    0  502  503 -0.00000000000E+00 -0.00000000000E+00 -0.40029649138E+02  0.40029649138E+02  0.00000000000E+00 0. -1.
          2    1    1    2  501    0 -0.38875173946E+01 -0.32558224675E+02 -0.57474385938E+01  0.33289395247E+02  0.00000000000E+00 0.  1.
         -2    1    1    2    0  503  0.38875173946E+01  0.32558224675E+02 -0.74068173530E+01  0.33615647083E+02  0.00000000000E+00 0. -1.
</event>
<event>
 4    1  0.1874565E+004  0.2451127E+02  0.7546771E-02  0.1474346E+00
         21   -1    0    0  503  502  0.00000000000E+00  0.00000000000E+00  0.21877781921E+01  0.21877781921E+01  0.00000000000E+00 0.  1.
         21   -1    0    0  501  503 -0.00000000000E+00 -0.00000000000E+00 -0.36644073612E+03  0.36644073612E+03  0.00000000000E+00 0. -1.
          2    1    1    2  501    0 -0.80623601568E+01  0.23147372030E+02 -0.27439063720E+03  0.27548325587E+03  0.00000000000E+00 0. -1.
         -2    1    1    2    0  502  0.80623601568E+01 -0.23147372030E+02 -0.89862320733E+02  0.93145258445E+02  0.00000000000E+00 0.  1.
</event>
<event>
 4    1  0.1874565E+004  0.2538141E+02  0.7546771E-02  0.1464581E+00
         21   -1    0    0  503  502  0.00000000000E+00  0.00000000000E+00  0.10750753630E+03  0.10750753630E+03  0.00000000000E+00 0. -1.
         21   -1    0    0  501  503 -0.00000000000E+00 -0.00000000000E+00 -0.63782759663E+01  0.63782759663E+01  0.00000000000E+00 0.  1.
          2    1    1    2  501    0 -0.19414618364E+01 -0.25307050710E+02  0.36556666240E+02  0.44503999105E+02  0.00000000000E+00 0.  1.
         -2    1    1    2    0  502  0.19414618364E+01  0.25307050710E+02  0.64572594096E+02  0.69381813164E+02  0.00000000000E+00 0. -1.
</event>
<event>
 4    1  0.1874565E+004  0.3584814E+02  0.7546771E-02  0.1374697E+00
         21   -1    0    0  503  502  0.00000000000E+00  0.00000000000E+00  0.35505765193E+03  0.35505765193E+03  0.00000000000E+00 0. -1.
         21   -1    0    0  501  503 -0.00000000000E+00 -0.00000000000E+00 -0.54146850144E+01  0.54146850144E+01  0.00000000000E+00 0.  1.
          2    1    1    2  501    0 -0.88691557179E+01 -0.34733663626E+02  0.71038962756E+02  0.79571499555E+02  0.00000000000E+00 0.  1.
         -2    1    1    2    0  502  0.88691557179E+01  0.34733663626E+02  0.27860400416E+03  0.28090083738E+03  0.00000000000E+00 0. -1.
</event>
<event>
 4    1  0.1874565E+004  0.2682484E+02  0.7546771E-02  0.1449376E+00
         21   -1    0    0  501  502  0.00000000000E+00  0.00000000000E+00  0.12663071948E+03  0.12663071948E+03  0.00000000000E+00 0.  1.
         21   -1    0    0  502  503 -0.00000000000E+00 -0.00000000000E+00 -0.42868281756E+02  0.42868281756E+02  0.00000000000E+00 0. -1.
          2    1    1    2  501    0 -0.19781805730E+02 -0.18117727210E+02  0.12081408977E+03  0.12375627727E+03  0.00000000000E+00 0.  1.
         -2    1    1    2    0  503  0.19781805730E+02  0.18117727210E+02 -0.37051652041E+02  0.45742723970E+02  0.00000000000E+00 0. -1.
</event>
<event>
 4    1  0.1874565E+004  0.2944936E+02  0.7546771E-02  0.1424443E+00
         21   -1    0    0  503  502  0.00000000000E+00  0.00000000000E+00  0.14799126923E+03  0.14799126923E+03  0.00000000000E+00 0. -1.
         21   -1    0    0  501  503 -0.00000000000E+00 -0.00000000000E+00 -0.19149101935E+02  0.19149101935E+02  0.00000000000E+00 0.  1.
          2    1    1    2  501    0 -0.24182635810E+02  0.16806689321E+02 -0.51968325533E+01  0.29904376757E+02  0.00000000000E+00 0.  1.
         -2    1    1    2    0  502  0.24182635810E+02 -0.16806689321E+02  0.13403899985E+03  0.13723599441E+03  0.00000000000E+00 0. -1.
</event>
<event>
 4    1  0.1874565E+004  0.2015649E+02  0.7546771E-02  0.1531657E+00
         21   -1    0    0  503  502  0.00000000000E+00  0.00000000000E+00  0.42120396453E+02  0.42120396453E+02  0.00000000000E+00 0.  1.
         21   -1    0    0  501  503 -0.00000000000E+00 -0.00000000000E+00 -0.10271932513E+02  0.10271932513E+02  0.00000000000E+00 0. -1.
          2    1    1    2  501    0 -0.91579340845E+01  0.17955951804E+02  0.94564905648E+01  0.22264527296E+02  0.00000000000E+00 0. -1.
         -2    1    1    2    0  502  0.91579340845E+01 -0.17955951804E+02  0.22391973374E+02  0.30127801670E+02  0.00000000000E+00 0.  1.
</event>
<event>
 4    1  0.1874565E+004  0.2469115E+02  0.7546771E-02  0.1472288E+00
         21   -1    0    0  501  502  0.00000000000E+00  0.00000000000E+00  0.46675091353E+02  0.46675091353E+02  0.00000000000E+00 0.  1.
         21   -1    0    0  502  503 -0.00000000000E+00 -0.00000000000E+00 -0.15715288324E+03  0.15715288324E+03  0.00000000000E+00 0. -1.
          2    1    1    2  501    0 -0.24536273531E+01  0.24568937068E+02  0.42347981122E+02  0.49020449416E+02  0.00000000000E+00 0.  1.
         -2    1    1    2    0  503  0.24536273531E+01 -0.24568937068E+02 -0.15282577301E+03  0.15480752518E+03  0.00000000000E+00 0. -1.
</event>
<event>
 4    1  0.1874565E+004  0.4010937E+02  0.7546771E-02  0.1347846E+00
         21   -1    0    0  501  502  0.00000000000E+00  0.00000000000E+00  0.30751466957E+02  0.30751466957E+02  0.00000000000E+00 0.  1.
         21   -1    0    0  502  503 -0.00000000000E+00 -0.00000000000E+00 -0.91302847763E+02  0.91302847763E+02  0.00000000000E+00 0. -1.
          2    1    1    2  501    0 -0.27900539664E+02  0.28815300910E+02  0.96034554647E+01  0.41243036223E+02  0.00000000000E+00 0.  1.
         -2    1    1    2    0  503  0.27900539664E+02 -0.28815300910E+02 -0.70154836271E+02  0.80811278496E+02  0.00000000000E+00 0. -1.
</event>
<event>
 4    1  0.1874565E+004  0.2620319E+02  0.7546771E-02  0.1455781E+00
         21   -1    0    0  503  502  0.00000000000E+00  0.00000000000E+00  0.94292100985E+02  0.94292100985E+02  0.00000000000E+00 0.  1.
         21   -1    0    0  501  503 -0.00000000000E+00 -0.00000000000E+00 -0.16417470715E+02  0.16417470715E+02  0.00000000000E+00 0. -1.
          2    1    1    2  501    0  0.19045731599E+02  0.17996309270E+02 -0.23555086664E+01  0.26308847572E+02  0.00000000000E+00 0. -1.
         -2    1    1    2    0  502 -0.19045731599E+02 -0.17996309270E+02  0.80230138936E+02  0.84400724127E+02  0.00000000000E+00 0.  1.
</event>
<event>
 4    1  0.1874565E+004  0.2289525E+02  0.7546771E-02  0.1493818E+00
         21   -1    0    0  501  502  0.00000000000E+00  0.00000000000E+00  0.10242110426E+02  0.10242110426E+02  0.00000000000E+00 0.  1.
         21   -1    0    0  502  503 -0.00000000000E+00 -0.00000000000E+00 -0.52031680736E+02  0.52031680736E+02  0.00000000000E+00 0. -1.
          2    1    1    2  501    0  0.22262319605E+02 -0.53461613662E+01 -0.16911399893E+02  0.28463797391E+02  0.00000000000E+00 0.  1.
         -2    1    1    2    0  503 -0.22262319605E+02  0.53461613662E+01 -0.24878170416E+02  0.33809993772E+02  0.00000000000E+00 0. -1.
</event>
<event>
 4    1  0.1874565E+004  0.2626426E+02  0.7546771E-02  0.1455142E+00
         21   -1    0    0  503  502  0.00000000000E+00  0.00000000000E+00  0.36960474314E+02  0.36960474314E+02  0.00000000000E+00 0.  1.
         21   -1    0    0  501  503 -0.00000000000E+00 -0.00000000000E+00 -0.24214496345E+02  0.24214496345E+02  0.00000000000E+00 0. -1.
          2    1    1    2  501    0  0.26246339870E+02 -0.97011044332E+00 -0.82720956571E+01  0.27536140569E+02  0.00000000000E+00 0. -1.
         -2    1    1    2    0  502 -0.26246339870E+02  0.97011044332E+00  0.21018073626E+02  0.33638830090E+02  0.00000000000E+00 0.  1.
</event>
<event>
 4    1  0.1874565E+004  0.2923066E+02  0.7546771E-02  0.1426402E+00
         21   -1    0    0  501  502  0.00000000000E+00  0.00000000000E+00  0.15119932958E+02  0.15119932958E+02  0.00000000000E+00 0. -1.
         21   -1    0    0  502  503 -0.00000000000E+00 -0.00000000000E+00 -0.57517609996E+02  0.57517609996E+02  0.00000000000E+00 0.  1.
          2    1    1    2  501    0 -0.24525149319E+02  0.15904355337E+02 -0.26005230030E+02  0.39124205509E+02  0.00000000000E+00 0.  1.
         -2    1    1    2    0  503  0.24525149319E+02 -0.15904355337E+02 -0.16392447008E+02  0.33513337445E+02  0.00000000000E+00 0. -1.
</event>
<event>
 4    1  0.1874565E+004  0.2955515E+02  0.7546771E-02  0.1423502E+00
         21   -1    0    0  503  502  0.00000000000E+00  0.00000000000E+00  0.10307361503E+03  0.10307361503E+03  0.00000000000E+00 0.  1.
         21   -1    0    0  501  503 -0.00000000000E+00 -0.00000000000E+00 -0.21319796677E+02  0.21319796677E+02  0.00000000000E+00 0. -1.
          2    1    1    2  501    0 -0.95023129083E+01  0.27985944006E+02 -0.74007649922E+01  0.30467660478E+02  0.00000000000E+00 0. -1.
         -2    1    1    2    0  502  0.95023129083E+01 -0.27985944006E+02  0.89154583345E+02  0.93925751229E+02  0.00000000000E+00 0.  1.
</event>
<event>
 4    1  0.1874565E+004  0.3816816E+02  0.7546771E-02  0.1359568E+00
         21   -1    0    0  503  502  0.00000000000E+00  0.00000000000E+00  0.49198324257E+01  0.49198324257E+01  0.00000000000E+00 0.  1.
         21   -1    0    0  501  503 -0.00000000000E+00 -0.00000000000E+00 -0.35961832399E+03  0.35961832399E+03  0.00000000000E+00 0. -1.
          2    1    1    2  501    0 -0.27182432655E+02  0.26794105666E+02 -0.25394582732E+03  0.25679815411E+03  0.00000000000E+00 0. -1.
         -2    1    1    2    0  502  0.27182432655E+02 -0.26794105666E+02 -0.10075266424E+03  0.10774000230E+03  0.00000000000E+00 0.  1.
</event>
<event>
 4    1  0.1874565E+004  0.2379272E+02  0.7546771E-02  0.1482777E+00
         21   -1    0    0  501  502  0.00000000000E+00  0.00000000000E+00  0.73810449961E+02  0.73810449961E+02  0.00000000000E+00 0. -1.
         21   -1    0    0  502  503 -0.00000000000E+00 -0.00000000000E+00 -0.10980868976E+02  0.10980868976E+02  0.00000000000E+00 0.  1.
          2    1    1    2  501    0 -0.20681387558E+02 -0.11763227412E+02  0.54695875523E+02  0.59646727569E+02  0.00000000000E+00 0. -1.
         -2    1    1    2    0  503  0.20681387558E+02  0.11763227412E+02  0.81337054622E+01  0.25144591367E+02  0.00000000000E+00 0.  1.
</event>
<event>
 4    1  0.1874565E+004  0.2931886E+02  0.7546771E-02  0.1425609E+00
         21   -1    0    0  503  502  0.00000000000E+00  0.00000000000E+00  0.23460481091E+02  0.23460481091E+02  0.00000000000E+00 0. -1.
         21   -1    0    0  501  503 -0.00000000000E+00 -0.00000000000E+00 -0.77058820340E+02  0.77058820340E+02  0.00000000000E+00 0.  1.
          2    1    1    2  501    0  0.30772739408E+00  0.29317244032E+02 -0.63198995920E+02  0.69668562344E+02  0.00000000000E+00 0.  1.
         -2    1    1    2    0  502 -0.30772739408E+00 -0.29317244032E+02  0.96006566699E+01  0.30850739088E+02  0.00000000000E+00 0. -1.
</event>
<event>
 4    1  0.1874565E+004  0.2395581E+02  0.7546771E-02  0.1480833E+00
         21   -1    0    0  501  502  0.00000000000E+00  0.00000000000E+00  0.15772332790E+02  0.15772332790E+02  0.00000000000E+00 0. -1.
         21   -1    0    0  502  503 -0.00000000000E+00 -0.00000000000E+00 -0.36390185279E+02  0.36390185279E+02  0.00000000000E+00 0.  1.
          2    1    1    2  501    0 -0.57198414232E+01  0.23262937650E+02 -0.10006331376E+02  0.25961654833E+02  0.00000000000E+00 0.  1.
         -2    1    1    2    0  503  0.57198414232E+01 -0.23262937650E+02 -0.10611521112E+02  0.26200863237E+02  0.00000000000E+00 0. -1.
</event>
<event>
 4    1  0.1874565E+004  0.4034410E+02  0.7546771E-02  0.1346481E+00
         21   -1    0    0  501  502  0.00000000000E+00  0.00000000000E+00  0.58993053172E+01  0.58993053172E+01  0.00000000000E+00 0.  1.
         21   -1    0    0  502  503 -0.00000000000E+00 -0.00000000000E+00 -0.71499234186E+03  0.71499234186E+03  0.00000000000E+00 0. -1.
          2    1    1    2  501    0  0.40309160618E+02  0.16787960349E+01 -0.72081383785E+02  0.82603708599E+02  0.00000000000E+00 0.  1.
         -2    1    1    2    0  503 -0.40309160618E+02 -0.16787960349E+01 -0.63701165276E+03  0.63828793858E+03  0.00000000000E+00 0. -1.
</event>
<event>
 4    1  0.1874565E+004  0.3887932E+02  0.7546771E-02  0.1355181E+00
         21   -1    0    0  503  502  0.00000000000E+00  0.00000000000E+00  0.39108685635E+02  0.39108685635E+02  0.00000000000E+00 0.  1.
         21   -1    0    0  501  503 -0.00000000000E+00 -0.00000000000E+00 -0.14459482661E+03  0.14459482661E+03  0.00000000000E+00 0. -1.
          2    1    1    2  501    0 -0.12677225749E+02 -0.36754446275E+02 -0.13136583461E+03  0.13699848130E+03  0.00000000000E+00 0. -1.
         -2    1    1    2    0  502  0.12677225749E+02  0.36754446275E+02  0.25879693634E+02  0.46705030953E+02  0.00000000000E+00 0.  1.
</event>
<event>
 4    1  0.1874565E+004  0.2150222E+02  0.7546771E-02  0.1512214E+00
         21   -1    0    0  503  502  0.00000000000E+00  0.00000000000E+00  0.62317280372E+02  0.62317280372E+02  0.00000000000E+00 0. -1.
         21   -1    0    0  501  503 -0.00000000000E+00 -0.00000000000E+00 -0.74857949494E+01  0.74857949494E+01  0.00000000000E+00 0.  1.
          2    1    1    2  501    0  0.18269397169E+02 -0.11339065475E+02  0.30707277929E+02  0.37487093734E+02  0.00000000000E+00 0.  1.
         -2    1    1    2    0  502 -0.18269397169E+02  0.11339065475E+02  0.24124207493E+02  0.32315981587E+02  0.00000000000E+00 0. -1.
</event>
<event>
 4    1  0.1874565E+004  0.2052334E+02  0.7546771E-02  0.1526180E+00
         21   -1    0    0  501  502  0.00000000000E+00  0.00000000000E+00  0.59684319024E+01  0.59684319024E+01  0.00000000000E+00 0.  1.
         21   -1    0    0  502  503 -0.00000000000E+00 -0.00000000000E+00 -0.73030460692E+02  0.73030460692E+02  0.00000000000E+00 0. -1.
          2    1    1    2  501    0  0.17017164123E+02 -0.11472728605E+02 -0.26284598489E+02  0.33347975864E+02  0.00000000000E+00 0.  1.
         -2    1    1    2    0  503 -0.17017164123E+02  0.11472728605E+02 -0.40777430300E+02  0.45650916730E+02  0.00000000000E+00 0. -1.
</event>
<event>
 4    1  0.1874565E+004  0.2007967E+02  0.7546771E-02  0.1532821E+00
         21   -1    0    0  503  502  0.00000000000E+00  0.00000000000E+00  0.12783114013E+01  0.12783114013E+01  0.00000000000E+00 0. -1.
         21   -1    0    0  501  503 -0.00000000000E+00 -0.00000000000E+00 -0.38821979391E+03  0.38821979391E+03  0.00000000000E+00 0.  1.
          2    1    1    2  501    0  0.15806230656E+02 -0.12383709849E+02 -0.27780986580E+03  0.27853458444E+03  0.00000000000E+00 0. -1.
         -2    1    1    2    0  502 -0.15806230656E+02  0.12383709849E+02 -0.10913161671E+03  0.11096352087E+03  0.00000000000E+00 0.  1.
</event>
<event>
 4    1  0.1874565E+004  0.2085648E+02  0.7546771E-02  0.1521324E+00
         21   -1    0    0  501  502  0.00000000000E+00  0.00000000000E+00  0.18616457048E+02  0.18616457048E+02  0.00000000000E+00 0. -1.
         21   -1    0    0  502  503 -0.00000000000E+00 -0.00000000000E+00 -0.28855825574E+02  0.28855825574E+02  0.00000000000E+00 0.  1.
          2    1    1    2  501    0 -0.10329513569E+02 -0.18118881429E+02  0.52334395722E+01  0.21503060353E+02  0.00000000000E+00 0. -1.
         -2    1    1    2    0  503  0.10329513569E+02  0.18118881429E+02 -0.15472808098E+02  0.25969222269E+02  0.00000000000E+00 0.  1.
</event>
<event>
 4    1  0.1874565E+004  0.2153169E+02  0.7546771E-02  0.1511807E+00
         21   -1    0    0  503  502  0.00000000000E+00  0.00000000000E+00  0.14122393633E+02  0.14122393633E+02  0.00000000000E+00 0.  1.
         21   -1    0    0  501  503 -0.00000000000E+00 -0.00000000000E+00 -0.84175769108E+02  0.84175769108E+02  0.00000000000E+00 0. -1.
          2    1    1    2  501    0  0.20918833377E+02  0.51005946143E+01 -0.73413454607E+02  0.76505875413E+02  0.00000000000E+00 0. -1.
         -2    1    1    2    0  502 -0.20918833377E+02 -0.51005946143E+01  0.33600791323E+01  0.21792287329E+02  0.00000000000E+00 0.  1.
</event>
<event>
 4    1  0.1874565E+004  0.2073644E+02  0.7546771E-02  0.1523061E+00
         21   -1    0    0  503  502  0.00000000000E+00  0.00000000000E+00  0.48145450643E+01  0.48145450643E+01  0.00000000000E+00 0. -1.
         21   -1    0    0  501  503 -0.00000000000E+00 -0.00000000000E+00 -0.13448453097E+03  0.13448453097E+03  0.00000000000E+00 0.  1.
          2    1    1    2  501    0 -0.13894593891E+01 -0.20689836966E+02 -0.10520101832E+03  0.10722524986E+03  0.00000000000E+00 0.  1.
         -2    1    1    2    0  502  0.13894593891E+01  0.20689836966E+02 -0.24468967589E+02  0.32073826182E+02  0.00000000000E+00 0. -1.
</event>
<event>
 4    1  0.1874565E+004  0.5052530E+02  0.7546771E-02  0.1295911E+00
         21   -1    0    0  503  502  0.00000000000E+00  0.00000000000E+00  0.70379142291E+02  0.70379142291E+02  0.00000000000E+00 0. -1.
         21   -1    0    0  501  503 -0.00000000000E+00 -0.00000000000E+00 -0.45322142264E+02  0.45322142264E+02  0.00000000000E+00 0.  1.
          2    1    1    2  501    0  0.38020671536E+02  0.33275127884E+02 -0.13322427012E+02  0.52252202453E+02  0.00000000000E+00 0.  1.
         -2    1    1    2    0  502 -0.38020671536E+02 -0.33275127884E+02  0.38379427040E+02  0.63449082102E+02  0.00000000000E+00 0. -1.
</event>
<event>
 4    1  0.1874565E+004  0.2193725E+02  0.7546771E-02  0.1506292E+00
         21   -1    0    0  501  502  0.00000000000E+00  0.00000000000E+00  0.28024311776E+01  0.28024311776E+01  0.00000000000E+00 0. -1.
         21   -1    0    0  502  503 -0.00000000000E+00 -0.00000000000E+00 -0.50226630347E+03  0.50226630347E+03  0.00000000000E+00 0.  1.
          2    1    1    2  501    0 -0.15058781493E+02  0.15952310534E+02 -0.44867127148E+02  0.49942989597E+02  0.00000000000E+00 0.  1.
         -2    1    1    2    0  503  0.15058781493E+02 -0.15952310534E+02 -0.45459674515E+03  0.45512574505E+03  0.00000000000E+00 0. -1.
</event>
<event>
 4    1  0.1874565E+004  0.2230444E+02  0.7546771E-02  0.1501422E+00
         21   -1    0    0  501  502  0.00000000000E+00  0.00000000000E+00  0.15845156812E+02  0.15845156812E+02  0.00000000000E+00 0. -1.
         21   -1    0    0  502  503 -0.00000000000E+00 -0.00000000000E+00 -0.35754761675E+03  0.35754761675E+03  0.00000000000E+00 0.  1.
          2    1    1    2  501    0 -0.61694605545E+01  0.21434223909E+02  0.74597813712E+01  0.23518854909E+02  0.00000000000E+00 0. -1.
         -2    1    1    2    0  503  0.61694605545E+01 -0.21434223909E+02 -0.34916224131E+03  0.34987391865E+03  0.00000000000E+00 0.  1.
</event>
<event>
 4    1  0.1874565E+004  0.3452498E+02  0.7546771E-02  0.1383934E+00
         21   -1    0    0  501  502  0.00000000000E+00  0.00000000000E+00  0.80193866180E+01  0.80193866180E+01  0.00000000000E+00 0. -1.
         21   -1    0    0  502  503 -0.00000000000E+00 -0.00000000000E+00 -0.14949318444E+03  0.14949318444E+03  0.00000000000E+00 0.  1.
          2    1    1    2  501    0 -0.17858879495E+02  0.29547159538E+02 -0.64775279048E+02  0.73401709716E+02  0.00000000000E+00 0. -1.
         -2    1    1    2    0  503  0.17858879495E+02 -0.29547159538E+02 -0.76698518778E+02  0.84110861346E+02  0.00000000000E+00 0.  1.
</event>
<event>
 4    1  0.1874565E+004  0.2131750E+02  0.7546771E-02  0.1514780E+00
         21   -1    0    0  503  502  0.00000000000E+00  0.00000000000E+00  0.11762385607E+03  0.11762385607E+03  0.00000000000E+00 0.  1.
         21   -1    0    0  501  503 -0.00000000000E+00 -0.00000000000E+00 -0.50598350619E+01  0.50598350619E+01  0.00000000000E+00 0. -1.
          2    1    1    2  501    0  0.65461931751E+01 -0.20287510435E+02  0.26454204289E+02  0.33974411684E+02  0.00000000000E+00 0. -1.
         -2    1    1    2    0  502 -0.65461931751E+01  0.20287510435E+02  0.86109816716E+02  0.88709279444E+02  0.00000000000E+00 0.  1.
</event>
<event>
 4    1  0.1874565E+004  0.3130868E+02  0.7546771E-02  0.1408555E+00
         21   -1    0    0  503  502  0.00000000000E+00  0.00000000000E+00  0.29009828186E+03  0.29009828186E+03  0.00000000000E+00 0.  1.
         21   -1    0    0  501  503 -0.00000000000E+00 -0.00000000000E+00 -0.90222408980E+01  0.90222408980E+01  0.00000000000E+00 0. -1.
          2    1    1    2  501    0  0.28336045416E+01  0.31180183061E+02  0.22254432458E+02  0.38412145142E+02  0.00000000000E+00 0. -1.
         -2    1    1    2    0  502 -0.28336045416E+01 -0.31180183061E+02  0.25882160851E+03  0.26070837762E+03  0.00000000000E+00 0.  1.
</event>
<event>
 4    1  0.1874565E+004  0.2778729E+02  0.7546771E-02  0.1439856E+00
         21   -1    0    0  501  502  0.00000000000E+00  0.00000000000E+00  0.15740143839E+02  0.15740143839E+02  0.00000000000E+00 0.  1.
         21   -1    0    0  502  503 -0.00000000000E+00 -0.00000000000E+00 -0.79497068524E+02  0.79497068524E+02  0.00000000000E+00 0. -1.
          2    1    1    2  501    0 -0.27765847110E+02  0.10915480167E+01 -0.24113380782E+01  0.27891724474E+02  0.00000000000E+00 0.  1.
         -2    1    1    2    0  503  0.27765847110E+02 -0.10915480167E+01 -0.61345586607E+02  0.67345487889E+02  0.00000000000E+00 0. -1.
</event>
<event>
 4    1  0.1874565E+004  0.6159705E+02  0.7546771E-02  0.1254501E+00
         21   -1    0    0  503  502  0.00000000000E+00  0.00000000000E+00  0.61250843205E+02  0.61250843205E+02  0.00000000000E+00 0. -1.
         21   -1    0    0  501  503 -0.00000000000E+00 -0.00000000000E+00 -0.71923844412E+02  0.71923844412E+02  0.00000000000E+00 0.  1.
          2    1    1    2  501    0 -0.43902784845E+02 -0.43205815572E+02 -0.30138720974E+02  0.68575064844E+02  0.00000000000E+00 0.  1.
         -2    1    1    2    0  502  0.43902784845E+02  0.43205815572E+02  0.19465719766E+02  0.64599622773E+02  0.00000000000E+00 0. -1.
</event>
<event>
 4    1  0.1874565E+004  0.2151849E+02  0.7546771E-02  0.1511989E+00
         21   -1    0    0  503  502  0.00000000000E+00  0.00000000000E+00  0.66139877328E+01  0.66139877328E+01  0.00000000000E+00 0.  1.
         21   -1    0    0  501  503 -0.00000000000E+00 -0.00000000000E+00 -0.74888148066E+02  0.74888148066E+02  0.00000000000E+00 0. -1.
          2    1    1    2  501    0  0.66096722353E+01 -0.20478227726E+02 -0.23736491013E+02  0.32038517186E+02  0.00000000000E+00 0.  1.
         -2    1    1    2    0  502 -0.66096722353E+01  0.20478227726E+02 -0.44537669319E+02  0.49463618613E+02  0.00000000000E+00 0. -1.
</event>
<event>
 4    1  0.1874565E+004  0.2023605E+02  0.7546771E-02  0.1530457E+00
         21   -1    0    0  501  502  0.00000000000E+00  0.00000000000E+00  0.10875850299E+03  0.10875850299E+03  0.00000000000E+00 0. -1.
         21   -1    0    0  502  503 -0.00000000000E+00 -0.00000000000E+00 -0.37685618800E+01  0.37685618800E+01  0.00000000000E+00 0.  1.
          2    1    1    2  501    0  0.66531927792E+01  0.19111068168E+02  0.50815387873E+02  0.54696449111E+02  0.00000000000E+00 0. -1.
         -2    1    1    2    0  503 -0.66531927792E+01 -0.19111068168E+02  0.54174553240E+02  0.57830615762E+02  0.00000000000E+00 0.  1.
</event>
<event>
 4    1  0.1874565E+004  0.3213809E+02  0.7546771E-02  0.1401883E+00
         21   -1    0    0  503  502  0.00000000000E+00  0.00000000000E+00  0.15110921384E+03  0.15110921384E+03  0.00000000000E+00 0. -1.
         21   -1    0    0  501  503 -0.00000000000E+00 -0.00000000000E+00 -0.12344455947E+03  0.12344455947E+03  0.00000000000E+00 0.  1.
          2    1    1    2  501    0  0.17983596931E+02 -0.26635448449E+02 -0.11958990689E+03  0.12383296291E+03  0.00000000000E+00 0.  1.
         -2    1    1    2    0  502 -0.17983596931E+02  0.26635448449E+02  0.14725456127E+03  0.15072081040E+03  0.00000000000E+00 0. -1.
</event>
<event>
 4    1  0.1874565E+004  0.2302697E+02  0.7546771E-02  0.1492160E+00
         21   -1    0    0  503  502  0.00000000000E+00  0.00000000000E+00  0.23219043208E+02  0.23219043208E+02  0.00000000000E+00 0. -1.
         21   -1    0    0  501  503 -0.00000000000E+00 -0.00000000000E+00 -0.30323206324E+02  0.30323206324E+02  0.00000000000E+00 0.  1.
          2    1    1    2  501    0 -0.23013598407E+02 -0.78471634840E+00 -0.16854318900E+02  0.28536109703E+02  0.00000000000E+00 0.  1.
         -2    1    1    2    0  502  0.23013598407E+02  0.78471634840E+00  0.97501557835E+01  0.25006139830E+02  0.00000000000E+00 0. -1.
</event>
<event>
 4    1  0.1874565E+004  0.2146426E+02  0.7546771E-02  0.1512739E+00
         21   -1    0    0  501  502  0.00000000000E+00  0.00000000000E+00  0.13472751252E+03  0.13472751252E+03  0.00000000000E+00 0. -1.
         21   -1    0    0  502  503 -0.00000000000E+00 -0.00000000000E+00 -0.10894681841E+02  0.10894681841E+02  0.00000000000E+00 0.  1.
          2    1    1    2  501    0 -0.20121988976E+02  0.74712716680E+01  0.12222765364E+03  0.12409800020E+03  0.00000000000E+00 0. -1.
         -2    1    1    2    0  503  0.20121988976E+02 -0.74712716680E+01  0.16051770374E+01  0.21524194154E+02  0.00000000000E+00 0.  1.
</event>
<event>
 4    1  0.1874565E+004  0.2002504E+02  0.7546771E-02  0.1533653E+00
         21   -1    0    0  503  502  0.00000000000E+00  0.00000000000E+00  0.34945875602E+02  0.34945875602E+02  0.00000000000E+00 0. -1.
         21   -1    0    0  501  503 -0.00000000000E+00 -0.00000000000E+00 -0.12623318511E+02  0.12623318511E+02  0.00000000000E+00 0.  1.
          2    1    1    2  501    0 -0.15759140139E+02 -0.12355233750E+02  0.39874829751E+01  0.20418185997E+02  0.00000000000E+00 0.  1.
         -2    1    1    2    0  502  0.15759140139E+02  0.12355233750E+02  0.18335074115E+02  0.27151008116E+02  0.00000000000E+00 0. -1.
</event>
<event>
 4    1  0.1874565E+004  0.2845062E+02  0.7546771E-02  0.1433556E+00
         21   -1    0    0  503  502  0.00000000000E+00  0.00000000000E+00  0.24458141921E+02  0.24458141921E+02  0.00000000000E+00 0.  1.
         21   -1    0    0  501  503 -0.00000000000E+00 -0.00000000000E+00 -0.40333072346E+02  0.40333072346E+02  0.00000000000E+00 0. -1.
          2    1    1    2  501    0 -0.13914159597E+02 -0.24815999485E+02 -0.21661205743E+02  0.35758152944E+02  0.00000000000E+00 0. -1.
         -2    1    1    2    0  502  0.13914159597E+02  0.24815999485E+02  0.57862753171E+01  0.29033061323E+02  0.00000000000E+00 0.  1.
</event>
<event>
 4    1  0.1874565E+004  0.2470757E+02  0.7546771E-02  0.1472101E+00
         21   -1    0    0  503  502  0.00000000000E+00  0.00000000000E+00  0.24348656196E+02  0.24348656196E+02  0.00000000000E+00 0. -1.
         21   -1    0    0  501  503 -0.00000000000E+00 -0.00000000000E+00 -0.26061603922E+02  0.26061603922E+02  0.00000000000E+00 0.  1.
          2    1    1    2  501    0  0.60611128814E+01 -0.23952598492E+02 -0.57685844366E+01  0.25372044267E+02  0.00000000000E+00 0. -1.
         -2    1    1    2    0  502 -0.60611128814E+01  0.23952598492E+02  0.40556367106E+01  0.25038215851E+02  0.00000000000E+00 0.  1.
</event>
<event>
 4    1  0.1874565E+004  0.4187143E+02  0.7546771E-02  0.1337855E+00
         21   -1    0    0  501  502  0.00000000000E+00  0.00000000000E+00  0.79944141670E+01  0.79944141670E+01  0.00000000000E+00 0. -1.
         21   -1    0    0  502  503 -0.00000000000E+00 -0.00000000000E+00 -0.40730614694E+03  0.40730614694E+03  0.00000000000E+00 0.  1.
          2    1    1    2  501    0  0.12750818061E+02 -0.39882744180E+02 -0.58580219078E+02  0.72005963029E+02  0.00000000000E+00 0. -1.
         -2    1    1    2    0  503 -0.12750818061E+02  0.39882744180E+02 -0.34073151369E+03  0.34329459807E+03  0.00000000000E+00 0.  1.
</event>
<event>
 4    1  0.1874565E+004  0.7801051E+02  0.7546771E-02  0.1208543E+00
         21   -1    0    0  503  502  0.00000000000E+00  0.00000000000E+00  0.96980489619E+01  0.96980489619E+01  0.00000000000E+00 0.  1.
         21   -1    0    0  501  503 -0.00000000000E+00 -0.00000000000E+00 -0.10876948688E+04  0.10876948688E+04  0.00000000000E+00 0. -1.
          2    1    1    2  501    0  0.55128348222E+02  0.55195159599E+02 -0.89589625256E+03  0.89928623684E+03  0.00000000000E+00 0. -1.
         -2    1    1    2    0  502 -0.55128348222E+02 -0.55195159599E+02 -0.18210056723E+03  0.19810668087E+03  0.00000000000E+00 0.  1.
</event>
<event>
 4    1  0.1874565E+004  0.3731847E+02  0.7546771E-02  0.1364959E+00
         21   -1    0    0  503  502  0.00000000000E+00  0.00000000000E+00  0.12692223751E+02  0.12692223751E+02  0.00000000000E+00 0. -1.
         21   -1    0    0  501  503 -0.00000000000E+00 -0.00000000000E+00 -0.11899425266E+03  0.11899425266E+03  0.00000000000E+00 0.  1.
          2    1    1    2  501    0 -0.19097955743E+02  0.32061449525E+02 -0.71526732675E+02  0.80676774516E+02  0.00000000000E+00 0.  1.
         -2    1    1    2    0  502  0.19097955743E+02 -0.32061449525E+02 -0.34775296233E+02  0.51009701894E+02  0.00000000000E+00 0. -1.
</event>
<event>
 4    1  0.1874565E+004  0.2324126E+02  0.7546771E-02  0.1489491E+00
         21   -1    0    0  501  502  0.00000000000E+00  0.00000000000E+00  0.73720395387E+02  0.73720395387E+02  0.00000000000E+00 0. -1.
         21   -1    0    0  502  503 -0.00000000000E+00 -0.00000000000E+00 -0.79678488043E+01  0.79678488043E+01  0.00000000000E+00 0.  1.
          2    1    1    2  501    0 -0.97931592394E+01 -0.21077246795E+02  0.44458839852E+02  0.50167167962E+02  0.00000000000E+00 0. -1.
         -2    1    1    2    0  503  0.97931592394E+01  0.21077246795E+02  0.21293706731E+02  0.31521076229E+02  0.00000000000E+00 0.  1.
</event>
<event>
 4    1  0.1874565E+004  0.2267228E+02  0.7546771E-02  0.1496655E+00
         21   -1    0    0  503  502  0.00000000000E+00  0.00000000000E+00  0.75946273324E+02  0.75946273324E+02  0.00000000000E+00 0.  1.
         21   -1    0    0  501  503 -0.00000000000E+00 -0.00000000000E+00 -0.10939301423E+02  0.10939301423E+02  0.00000000000E+00 0. -1.
          2    1    1    2  501    0  0.19427726616E+01  0.22588887773E+02  0.56784945093E+01  0.23372580438E+02  0.00000000000E+00 0. -1.
         -2    1    1    2    0  502 -0.19427726616E+01 -0.22588887773E+02  0.59328477392E+02  0.63512994309E+02  0.00000000000E+00 0.  1.
</event>
<event>
 4    1  0.1874565E+004  0.2310547E+02  0.7546771E-02  0.1491178E+00
         21   -1    0    0  501  502  0.00000000000E+00  0.00000000000E+00  0.18406024573E+02  0.18406024573E+02  0.00000000000E+00 0.  1.
         21   -1    0    0  502  503 -0.00000000000E+00 -0.00000000000E+00 -0.35336040718E+02  0.35336040718E+02  0.00000000000E+00 0. -1.
          2    1    1    2  501    0  0.22712027088E+02 -0.42457857299E+01  0.29091741450E+01  0.23287897395E+02  0.00000000000E+00 0.  1.
         -2    1    1    2    0  503 -0.22712027088E+02  0.42457857299E+01 -0.19839190289E+02  0.30454167896E+02  0.00000000000E+00 0. -1.
</event>
<event>
 4    1  0.1874565E+004  0.2420186E+02  0.7546771E-02  0.1477934E+00
         21   -1    0    0  503  502  0.00000000000E+00  0.00000000000E+00  0.68327259920E+01  0.68327259920E+01  0.00000000000E+00 0. -1.
         21   -1    0    0  501  503 -0.00000000000E+00 -0.00000000000E+00 -0.54604491068E+03  0.54604491068E+03  0.00000000000E+00 0.  1.
          2    1    1    2  501    0 -0.26965072504E+01  0.24051171171E+02 -0.52341981705E+03  0.52397904048E+03  0.00000000000E+00 0.  1.
         -2    1    1    2    0  502  0.26965072504E+01 -0.24051171171E+02 -0.15792367640E+02  0.28898596190E+02  0.00000000000E+00 0. -1.
</event>
<event>
 4    1  0.1874565E+004  0.2965169E+02  0.7546771E-02  0.1422648E+00
         21   -1    0    0  503  502  0.00000000000E+00  0.00000000000E+00  0.75504193304E+02  0.75504193304E+02  0.00000000000E+00 0.  1.
         21   -1    0    0  501  503 -0.00000000000E+00 -0.00000000000E+00 -0.83316451842E+02  0.83316451842E+02  0.00000000000E+00 0. -1.
          2    1    1    2  501    0  0.30947707056E+01  0.29489746984E+02 -0.77558312142E+02  0.83033213627E+02  0.00000000000E+00 0. -1.
         -2    1    1    2    0  502 -0.30947707056E+01 -0.29489746984E+02  0.69746053604E+02  0.75787431519E+02  0.00000000000E+00 0.  1.
</event>
<event>
 4    1  0.1874565E+004  0.4012100E+02  0.7546771E-02  0.1347778E+00
         21   -1    0    0  501  502  0.00000000000E+00  0.00000000000E+00  0.36262221864E+02  0.36262221864E+02  0.00000000000E+00 0. -1.
         21   -1    0    0  502  503 -0.00000000000E+00 -0.00000000000E+00 -0.68341004714E+02  0.68341004714E+02  0.00000000000E+00 0.  1.
          2    1    1    2  501    0 -0.22855240134E+01 -0.40055849915E+02  0.14922864598E+02  0.42806385274E+02  0.00000000000E+00 0. -1.
         -2    1    1    2    0  503  0.22855240134E+01  0.40055849915E+02 -0.47001647448E+02  0.61796841304E+02  0.00000000000E+00 0.  1.
</event>
<event>
 4    1  0.1874565E+004  0.2574227E+02  0.7546771E-02  0.1460668E+00
         21   -1    0    0  503  502  0.00000000000E+00  0.00000000000E+00  0.81988870989E+02  0.81988870989E+02  0.00000000000E+00 0. -1.
         21   -1    0    0  501  503 -0.00000000000E+00 -0.00000000000E+00 -0.19177565713E+03  0.19177565713E+03  0.00000000000E+00 0.  1.
          2    1    1    2  501    0  0.18618570436E+02 -0.17776764156E+02 -0.18886016149E+03  0.19060646659E+03  0.00000000000E+00 0.  1.
         -2    1    1    2    0  502 -0.18618570436E+02  0.17776764156E+02  0.79073375345E+02  0.83158061530E+02  0.00000000000E+00 0. -1.
</event>
<event>
 4    1  0.1874565E+004  0.2567010E+02  0.7546771E-02  0.1461445E+00
         21   -1    0    0  501  502  0.00000000000E+00  0.00000000000E+00  0.29099688640E+01  0.29099688640E+01  0.00000000000E+00 0.  1.
         21   -1    0    0  502  503 -0.00000000000E+00 -0.00000000000E+00 -0.27795542402E+03  0.27795542402E+03  0.00000000000E+00 0. -1.
          2    1    1    2  501    0 -0.20926003465E+02  0.14867964956E+02 -0.77069515910E+02  0.81232162876E+02  0.00000000000E+00 0.  1.
         -2    1    1    2    0  503  0.20926003465E+02 -0.14867964956E+02 -0.19797593925E+03  0.19963323001E+03  0.00000000000E+00 0. -1.
</event>
<event>
 4    1  0.1874565E+004  0.3033195E+02  0.7546771E-02  0.1416733E+00
         21   -1    0    0  501  502  0.00000000000E+00  0.00000000000E+00  0.58400304451E+01  0.58400304451E+01  0.00000000000E+00 0.  1.
         21   -1    0    0  502  503 -0.00000000000E+00 -0.00000000000E+00 -0.18938710482E+03  0.18938710482E+03  0.00000000000E+00 0. -1.
          2    1    1    2  501    0  0.25836255709E+02  0.15890729611E+02 -0.51743793975E+02  0.59978726325E+02  0.00000000000E+00 0.  1.
         -2    1    1    2    0  503 -0.25836255709E+02 -0.15890729611E+02 -0.13180328040E+03  0.13524840894E+03  0.00000000000E+00 0. -1.
</event>
<event>
 4    1  0.1874565E+004  0.3088767E+02  0.7546771E-02  0.1412036E+00
         21   -1    0    0  501  502  0.00000000000E+00  0.00000000000E+00  0.33239887424E+01  0.33239887424E+01  0.00000000000E+00 0. -1.
         21   -1    0    0  502  503 -0.00000000000E+00 -0.00000000000E+00 -0.59183461300E+03  0.59183461300E+03  0.00000000000E+00 0.  1.
          2    1    1    2  501    0  0.11891499376E+01 -0.30864767476E+02 -0.80694709532E+02  0.86404190266E+02  0.00000000000E+00 0. -1.
         -2    1    1    2    0  503 -0.11891499376E+01  0.30864767476E+02 -0.50781591473E+03  0.50875441148E+03  0.00000000000E+00 0.  1.
</event>
<event>
 4    1  0.1874565E+004  0.3338025E+02  0.7546771E-02  0.1392323E+00
         21   -1    0    0  503  502  0.00000000000E+00  0.00000000000E+00  0.40689774855E+02  0.40689774855E+02  0.00000000000E+00 0.  1.
         21   -1    0    0  501  503 -0.00000000000E+00 -0.00000000000E+00 -0.38942815036E+02  0.38942815036E+02  0.00000000000E+00 0. -1.
          2    1    1    2  501    0 -0.79232810460E+01 -0.32426268370E+02 -0.20818905319E+02  0.39340412830E+02  0.00000000000E+00 0. -1.
         -2    1    1    2    0  502  0.79232810460E+01  0.32426268370E+02  0.22565865137E+02  0.40292177062E+02  0.00000000000E+00 0.  1.
</event>
<event>
 4    1  0.1874565E+004  0.5617647E+02  0.7546771E-02  0.1273408E+00
         21   -1    0    0  501  502  0.00000000000E+00  0.00000000000E+00  0.34700722068E+03  0.34700722068E+03  0.00000000000E+00 0. -1.
         21   -1    0    0  502  503 -0.00000000000E+00 -0.00000000000E+00 -0.17430250000E+02  0.17430250000E+02  0.00000000000E+00 0.  1.
          2    1    1    2  501    0 -0.54782169580E+02  0.12438230866E+02  0.29080230496E+03  0.29617862222E+03  0.00000000000E+00 0. -1.
         -2    1    1    2    0  503  0.54782169580E+02 -0.12438230866E+02  0.38774665718E+02  0.68258848456E+02  0.00000000000E+00 0.  1.
</event>
<event>
 4    1  0.1874565E+004  0.2493260E+02  0.7546771E-02  0.1469559E+00
         21   -1    0    0  501  502  0.00000000000E+00  0.00000000000E+00  0.22325345018E+02  0.22325345018E+02  0.00000000000E+00 0. -1.
         21   -1    0    0  502  503 -0.00000000000E+00 -0.00000000000E+00 -0.46501106304E+02  0.46501106304E+02  0.00000000000E+00 0.  1.
          2    1    1    2  501    0 -0.20545172431E+02  0.14125531022E+02  0.97098760451E+01  0.26756614690E+02  0.00000000000E+00 0. -1.
         -2    1    1    2    0  503  0.20545172431E+02 -0.14125531022E+02 -0.33885637332E+02  0.42069836632E+02  0.00000000000E+00 0.  1.
</event>
<event>
 4    1  0.1874565E+004  0.2722905E+02  0.7546771E-02  0.1445321E+00
         21   -1    0    0  501  502  0.00000000000E+00  0.00000000000E+00  0.61222692484E+01  0.61222692484E+01  0.00000000000E+00 0. -1.
         21   -1    0    0  502  503 -0.00000000000E+00 -0.00000000000E+00 -0.19780387982E+03  0.19780387982E+03  0.00000000000E+00 0.  1.
          2    1    1    2  501    0 -0.26954474836E+02 -0.38571404554E+01 -0.32347562528E+02  0.42282219049E+02  0.00000000000E+00 0. -1.
         -2    1    1    2    0  503  0.26954474836E+02  0.38571404554E+01 -0.15933404804E+03  0.16164393002E+03  0.00000000000E+00 0.  1.
</event>
<event>
 4    1  0.1874565E+004  0.2482378E+02  0.7546771E-02  0.1470784E+00
         21   -1    0    0  503  502  0.00000000000E+00  0.00000000000E+00  0.13360569091E+01  0.13360569091E+01  0.00000000000E+00 0.  1.
         21   -1    0    0  501  503 -0.00000000000E+00 -0.00000000000E+00 -0.76556680540E+03  0.76556680540E+03  0.00000000000E+00 0. -1.
          2    1    1    2  501    0 -0.38086191522E+01 -0.24529869249E+02 -0.62388464924E+03  0.62437831130E+03  0.00000000000E+00 0. -1.
         -2    1    1    2    0  502  0.38086191522E+01  0.24529869249E+02 -0.14034609925E+03  0.14252455100E+03  0.00000000000E+00 0.  1.
</event>
<event>
 4    1  0.1874565E+004  0.2686801E+02  0.7546771E-02  0.1448938E+00
         21   -1    0    0  501  502  0.00000000000E+00  0.00000000000E+00  0.41649357766E+02  0.41649357766E+02  0.00000000000E+00 0. -1.
         21   -1    0    0  502  503 -0.00000000000E+00 -0.00000000000E+00 -0.20787996769E+02  0.20787996769E+02  0.00000000000E+00 0.  1.
          2    1    1    2  501    0 -0.89227425343E+00 -0.26853192859E+02  0.23158659799E+02  0.35471307330E+02  0.00000000000E+00 0. -1.
         -2    1    1    2    0  503  0.89227425343E+00  0.26853192859E+02 -0.22972988025E+01  0.26966047204E+02  0.00000000000E+00 0.  1.
</event>
<event>
 4    1  0.1874565E+004  0.2157924E+02  0.7546771E-02  0.1511153E+00
         21   -1    0    0  503  502  0.00000000000E+00  0.00000000000E+00  0.34375200814E+02  0.34375200814E+02  0.00000000000E+00 0.  1.
         21   -1    0    0  501  503 -0.00000000000E+00 -0.00000000000E+00 -0.26109821952E+02  0.26109821952E+02  0.00000000000E+00 0. -1.
          2    1    1    2  501    0  0.40298127414E+01 -0.21199628315E+02 -0.16845507382E+02  0.27375805931E+02  0.00000000000E+00 0. -1.
         -2    1    1    2    0  502 -0.40298127414E+01  0.21199628315E+02  0.25110886244E+02  0.33109216835E+02  0.00000000000E+00 0.  1.
</event>
<event>
 4    1  0.1874565E+004  0.2710223E+02  0.7546771E-02  0.1446584E+00
         21   -1    0    0  503  502  0.00000000000E+00  0.00000000000E+00  0.19974889868E+03  0.19974889868E+03  0.00000000000E+00 0. -1.
         21   -1    0    0  501  503 -0.00000000000E+00 -0.00000000000E+00 -0.37083349159E+02  0.37083349159E+02  0.00000000000E+00 0.  1.
          2    1    1    2  501    0 -0.23758068348E+02  0.13041672214E+02 -0.31058890586E+02  0.41221180359E+02  0.00000000000E+00 0.  1.
         -2    1    1    2    0  502  0.23758068348E+02 -0.13041672214E+02  0.19372444011E+03  0.19561106748E+03  0.00000000000E+00 0. -1.
</event>
<event>
 4    1  0.1874565E+004  0.2667829E+02  0.7546771E-02  0.1450867E+00
         21   -1    0    0  503  502  0.00000000000E+00  0.00000000000E+00  0.29105082435E+03  0.29105082435E+03  0.00000000000E+00 0. -1.
         21   -1    0    0  501  503 -0.00000000000E+00 -0.00000000000E+00 -0.46965944845E+01  0.46965944845E+01  0.00000000000E+00 0.  1.
          2    1    1    2  501    0  0.17390157638E+02 -0.20231502500E+02  0.40798934890E+02  0.48747147242E+02  0.00000000000E+00 0.  1.
         -2    1    1    2    0  502 -0.17390157638E+02  0.20231502500E+02  0.24555529497E+03  0.24700027159E+03  0.00000000000E+00 0. -1.
</event>
<event>
 4    1  0.1874565E+004  0.2417378E+02  0.7546771E-02  0.1478262E+00
         21   -1    0    0  503  502  0.00000000000E+00  0.00000000000E+00  0.53635455407E+02  0.53635455407E+02  0.00000000000E+00 0.  1.
         21   -1    0    0  501  503 -0.00000000000E+00 -0.00000000000E+00 -0.18364911112E+02  0.18364911112E+02  0.00000000000E+00 0. -1.
          2    1    1    2  501    0 -0.19367040592E+02  0.14466835445E+02 -0.53241420716E+01  0.24753142788E+02  0.00000000000E+00 0. -1.
         -2    1    1    2    0  502  0.19367040592E+02 -0.14466835445E+02  0.40594686366E+02  0.47247223731E+02  0.00000000000E+00 0.  1.
</event>
<event>
 4    1  0.1874565E+004  0.2698216E+02  0.7546771E-02  0.1447787E+00
         21   -1    0    0  503  502  0.00000000000E+00  0.00000000000E+00  0.31640085160E+03  0.31640085160E+03  0.00000000000E+00 0. -1.
         21   -1    0    0  501  503 -0.00000000000E+00 -0.00000000000E+00 -0.32780929535E+01  0.32780929535E+01  0.00000000000E+00 0.  1.
          2    1    1    2  501    0 -0.17322003720E+02  0.20687808192E+02  0.69295966913E+02  0.74363756301E+02  0.00000000000E+00 0.  1.
         -2    1    1    2    0  502  0.17322003720E+02 -0.20687808192E+02  0.24382679173E+03  0.24531518825E+03  0.00000000000E+00 0. -1.
</event>
<event>
 4    1  0.1874565E+004  0.2314787E+02  0.7546771E-02  0.1490650E+00
         21   -1    0    0  503  502  0.00000000000E+00  0.00000000000E+00  0.14576943693E+03  0.14576943693E+03  0.00000000000E+00 0. -1.
         21   -1    0    0  501  503 -0.00000000000E+00 -0.00000000000E+00 -0.38812155070E+01  0.38812155070E+01  0.00000000000E+00 0.  1.
          2    1    1    2  501    0 -0.22525595632E+02  0.53311961694E+01  0.88156708972E+02  0.91145101063E+02  0.00000000000E+00 0.  1.
         -2    1    1    2    0  502  0.22525595632E+02 -0.53311961694E+01  0.53731512447E+02  0.58505551369E+02  0.00000000000E+00 0. -1.
</event>
<event>
 4    1  0.1874565E+004  0.2547173E+02  0.7546771E-02  0.1463595E+00
         21   -1    0    0  503  502  0.00000000000E+00  0.00000000000E+00  0.11280943095E+02  0.11280943095E+02  0.00000000000E+00 0.  1.
         21   -1    0    0  501  503 -0.00000000000E+00 -0.00000000000E+00 -0.10348023560E+03  0.10348023560E+03  0.00000000000E+00 0. -1.
          2    1    1    2  501    0  0.13801398364E+02  0.21408651454E+02 -0.84343100546E+02  0.88105434359E+02  0.00000000000E+00 0. -1.
         -2    1    1    2    0  502 -0.13801398364E+02 -0.21408651454E+02 -0.78561919558E+01  0.26655744333E+02  0.00000000000E+00 0.  1.
</event>
<event>
 4    1  0.1874565E+004  0.2738690E+02  0.7546771E-02  0.1443760E+00
         21   -1    0    0  503  502  0.00000000000E+00  0.00000000000E+00  0.51161930632E+01  0.51161930632E+01  0.00000000000E+00 0.  1.
         21   -1    0    0  501  503 -0.00000000000E+00 -0.00000000000E+00 -0.23611009072E+03  0.23611009072E+03  0.00000000000E+00 0. -1.
          2    1    1    2  501    0 -0.27348605108E+02 -0.14478490895E+01 -0.18975940240E+03  0.19172551543E+03  0.00000000000E+00 0. -1.
         -2    1    1    2    0  502  0.27348605108E+02  0.14478490895E+01 -0.41234495259E+02  0.49500768354E+02  0.00000000000E+00 0.  1.
</event>
<event>
 4    1  0.1874565E+004  0.6093313E+02  0.7546771E-02  0.1256695E+00
         21   -1    0    0  501  502  0.00000000000E+00  0.00000000000E+00  0.80878572450E+02  0.80878572450E+02  0.00000000000E+00 0.  1.
         21   -1    0    0  502  503 -0.00000000000E+00 -0.00000000000E+00 -0.63196764893E+02  0.63196764893E+02  0.00000000000E+00 0. -1.
          2    1    1    2  501    0  0.51223951354E+02 -0.32999289086E+02  0.46521170452E+02  0.76662021710E+02  0.00000000000E+00 0.  1.
         -2    1    1    2    0  503 -0.51223951354E+02  0.32999289086E+02 -0.28839362895E+02  0.67413315633E+02  0.00000000000E+00 0. -1.
</event>
<event>
 4    1  0.1874565E+004  0.3106275E+02  0.7546771E-02  0.1410580E+00
         21   -1    0    0  503  502  0.00000000000E+00  0.00000000000E+00  0.10824563266E+04  0.10824563266E+04  0.00000000000E+00 0. -1.
         21   -1    0    0  501  503 -0.00000000000E+00 -0.00000000000E+00 -0.98727972543E+00  0.98727972543E+00  0.00000000000E+00 0.  1.
          2    1    1    2  501    0 -0.16129945940E+02  0.26546554224E+02  0.37191060532E+03  0.37320556406E+03  0.00000000000E+00 0.  1.
         -2    1    1    2    0  502  0.16129945940E+02 -0.26546554224E+02  0.70955844160E+03  0.71023804231E+03  0.00000000000E+00 0. -1.
</event>
<event>
 4    1  0.1874565E+004  0.2245558E+02  0.7546771E-02  0.1499450E+00
         21   -1    0    0  501  502  0.00000000000E+00  0.00000000000E+00  0.13262592263E+02  0.13262592263E+02  0.00000000000E+00 0. -1.
         21   -1    0    0  502  503 -0.00000000000E+00 -0.00000000000E+00 -0.11104452352E+03  0.11104452352E+03  0.00000000000E+00 0.  1.
          2    1    1    2  501    0  0.22453237685E+02  0.32440684503E+00  0.15112569768E+01  0.22506377318E+02  0.00000000000E+00 0. -1.
         -2    1    1    2    0  503 -0.22453237685E+02 -0.32440684503E+00 -0.99293188231E+02  0.10180073846E+03  0.00000000000E+00 0.  1.
</event>
<event>
 4    1  0.1874565E+004  0.2092099E+02  0.7546771E-02  0.1520396E+00
         21   -1    0    0  503  502  0.00000000000E+00  0.00000000000E+00  0.29834233847E+03  0.29834233847E+03  0.00000000000E+00 0.  1.
         21   -1    0    0  501  503 -0.00000000000E+00 -0.00000000000E+00 -0.32610498950E+01  0.32610498950E+01  0.00000000000E+00 0. -1.
          2    1    1    2  501    0  0.28516141078E+01 -0.20725738347E+02  0.35690446649E+02  0.41370229817E+02  0.00000000000E+00 0. -1.
         -2    1    1    2    0  502 -0.28516141078E+01  0.20725738347E+02  0.25939084192E+03  0.26023315854E+03  0.00000000000E+00 0.  1.
</event>
<event>
 4    1  0.1874565E+004  0.3116508E+02  0.7546771E-02  0.1409735E+00
         21   -1    0    0  503  502  0.00000000000E+00  0.00000000000E+00  0.46227362957E+02  0.46227362957E+02  0.00000000000E+00 0. -1.
         21   -1    0    0  501  503 -0.00000000000E+00 -0.00000000000E+00 -0.11036765303E+03  0.11036765303E+03  0.00000000000E+00 0.  1.
          2    1    1    2  501    0  0.19204842827E+02 -0.24544575929E+02 -0.10252186221E+03  0.10715406864E+03  0.00000000000E+00 0.  1.
         -2    1    1    2    0  502 -0.19204842827E+02  0.24544575929E+02  0.38381572132E+02  0.49440947350E+02  0.00000000000E+00 0. -1.
</event>
<event>
 4    1  0.1874565E+004  0.2148786E+02  0.7546771E-02  0.1512412E+00
         21   -1    0    0  503  502  0.00000000000E+00  0.00000000000E+00  0.12982435040E+03  0.12982435040E+03  0.00000000000E+00 0. -1.
         21   -1    0    0  501  503 -0.00000000000E+00 -0.00000000000E+00 -0.17957121964E+02  0.17957121964E+02  0.00000000000E+00 0.  1.
          2    1    1    2  501    0 -0.20442084808E+02  0.66218793806E+01 -0.10236417741E+02  0.23801520245E+02  0.00000000000E+00 0.  1.
         -2    1    1    2    0  502  0.20442084808E+02 -0.66218793806E+01  0.12210364618E+03  0.12397995212E+03  0.00000000000E+00 0. -1.
</event>
<event>
 4    1  0.1874565E+004  0.2557888E+02  0.7546771E-02  0.1462430E+00
         21   -1    0    0  503  502  0.00000000000E+00  0.00000000000E+00  0.27392256865E+03  0.27392256865E+03  0.00000000000E+00 0. -1.
         21   -1    0    0  501  503 -0.00000000000E+00 -0.00000000000E+00 -0.31343305582E+01  0.31343305582E+01  0.00000000000E+00 0.  1.
          2    1    1    2  501    0  0.62121188697E+01  0.24813077620E+02  0.67821536160E+02  0.72484757080E+02  0.00000000000E+00 0.  1.
         -2    1    1    2    0  502 -0.62121188697E+01 -0.24813077620E+02  0.20296670193E+03  0.20457214213E+03  0.00000000000E+00 0. -1.
</event>
<event>
 4    1  0.1874565E+004  0.2084081E+02  0.7546771E-02  0.1521550E+00
         21   -1    0    0  503  502  0.00000000000E+00  0.00000000000E+00  0.17438337365E+02  0.17438337365E+02  0.00000000000E+00 0. -1.
         21   -1    0    0  501  503 -0.00000000000E+00 -0.00000000000E+00 -0.49556785958E+02  0.49556785958E+02  0.00000000000E+00 0.  1.
          2    1    1    2  501    0 -0.12551913325E+02  0.16636974452E+02 -0.39683951475E+02  0.44823603734E+02  0.00000000000E+00 0.  1.
         -2    1    1    2    0  502  0.12551913325E+02 -0.16636974452E+02  0.75655028820E+01  0.22171519589E+02  0.00000000000E+00 0. -1.
</event>
<event>
 4    1  0.1874565E+004  0.2946688E+02  0.7546771E-02  0.1424287E+00
         21   -1    0    0  503  502  0.00000000000E+00  0.00000000000E+00  0.13361064761E+03  0.13361064761E+03  0.00000000000E+00 0. -1.
         21   -1    0    0  501  503 -0.00000000000E+00 -0.00000000000E+00 -0.71860553450E+01  0.71860553450E+01  0.00000000000E+00 0.  1.
          2    1    1    2  501    0  0.30256347348E+01  0.29311130513E+02  0.41439974462E+02  0.50848483958E+02  0.00000000000E+00 0.  1.
         -2    1    1    2    0  502 -0.30256347348E+01 -0.29311130513E+02  0.84984617803E+02  0.89948218997E+02  0.00000000000E+00 0. -1.
</event>
<event>
 4    1  0.1874565E+004  0.2864401E+02  0.7546771E-02  0.1431758E+00
         21   -1    0    0  503  502  0.00000000000E+00  0.00000000000E+00  0.46946338673E+01  0.46946338673E+01  0.00000000000E+00 0.  1.
         21   -1    0    0  501  503 -0.00000000000E+00 -0.00000000000E+00 -0.20312998496E+03  0.20312998496E+03  0.00000000000E+00 0. -1.
          2    1    1    2  501    0 -0.22940022880E+02  0.17153270538E+02 -0.13804486430E+03  0.14098533221E+03  0.00000000000E+00 0. -1.
         -2    1    1    2    0  502  0.22940022880E+02 -0.17153270538E+02 -0.60390486791E+02  0.66839286611E+02  0.00000000000E+00 0.  1.
</event>
<event>
 4    1  0.1874565E+004  0.3179878E+02  0.7546771E-02  0.1404583E+00
         21   -1    0    0  503  502  0.00000000000E+00  0.00000000000E+00  0.20156858301E+03  0.20156858301E+03  0.00000000000E+00 0.  1.
         21   -1    0    0  501  503 -0.00000000000E+00 -0.00000000000E+00 -0.59051948321E+01  0.59051948321E+01  0.00000000000E+00 0. -1.
          2    1    1    2  501    0  0.23197718391E+02 -0.21749211582E+02  0.13807561197E+03  0.14168993248E+03  0.00000000000E+00 0.  1.
         -2    1    1    2    0  502 -0.23197718391E+02  0.21749211582E+02  0.57587776202E+02  0.65783845365E+02  0.00000000000E+00 0. -1.
</event>
<event>
 4    1  0.1874565E+004  0.2031266E+02  0.7546771E-02  0.1529309E+00
         21   -1    0    0  501  502  0.00000000000E+00  0.00000000000E+00  0.11055440722E+02  0.11055440722E+02  0.00000000000E+00 0. -1.
         21   -1    0    0  502  503 -0.00000000000E+00 -0.00000000000E+00 -0.40809769197E+02  0.40809769197E+02  0.00000000000E+00 0.  1.
          2    1    1    2  501    0 -0.19620918861E+02 -0.52558209622E+01 -0.72952716043E+01  0.21582981692E+02  0.00000000000E+00 0. -1.
         -2    1    1    2    0  503  0.19620918861E+02  0.52558209622E+01 -0.22459056871E+02  0.30282228228E+02  0.00000000000E+00 0.  1.
</event>
<event>
 4    1  0.1874565E+004  0.2165888E+02  0.7546771E-02  0.1510062E+00
         21   -1    0    0  501  502  0.00000000000E+00  0.00000000000E+00  0.69157240665E+01  0.69157240665E+01  0.00000000000E+00 0. -1.
         21   -1    0    0  502  503 -0.00000000000E+00 -0.00000000000E+00 -0.18011969709E+03  0.18011969709E+03  0.00000000000E+00 0.  1.
          2    1    1    2  501    0 -0.86960991348E+00  0.21641412047E+02 -0.12764062488E+02  0.25140171599E+02  0.00000000000E+00 0. -1.
         -2    1    1    2    0  503  0.86960991348E+00 -0.21641412047E+02 -0.16043991054E+03  0.16189524956E+03  0.00000000000E+00 0.  1.
</event>
<event>
 4    1  0.1874565E+004  0.2467868E+02  0.7546771E-02  0.1472430E+00
         21   -1    0    0  503  502  0.00000000000E+00  0.00000000000E+00  0.60402075287E+00  0.60402075287E+00  0.00000000000E+00 0.  1.
         21   -1    0    0  501  503 -0.00000000000E+00 -0.00000000000E+00 -0.11528897515E+04  0.11528897515E+04  0.00000000000E+00 0. -1.
          2    1    1    2  501    0  0.14634919938E+02 -0.19870994022E+02 -0.78038825774E+03  0.78077837451E+03  0.00000000000E+00 0. -1.
         -2    1    1    2    0  502 -0.14634919938E+02  0.19870994022E+02 -0.37189747300E+03  0.37271539773E+03  0.00000000000E+00 0.  1.
</event>
<event>
 4    1  0.1874565E+004  0.2166995E+02  0.7546771E-02  0.1509911E+00
         21   -1    0    0  501  502  0.00000000000E+00  0.00000000000E+00  0.66870582995E+01  0.66870582995E+01  0.00000000000E+00 0. -1.
         21   -1    0    0  502  503 -0.00000000000E+00 -0.00000000000E+00 -0.81564485046E+02  0.81564485046E+02  0.00000000000E+00 0.  1.
          2    1    1    2  501    0 -0.20534134974E+02  0.69235765142E+01 -0.20984657845E+02  0.30165252788E+02  0.00000000000E+00 0. -1.
         -2    1    1    2    0  503  0.20534134974E+02 -0.69235765142E+01 -0.53892768901E+02  0.58086290557E+02  0.00000000000E+00 0.  1.
</event>
<event>
 4    1  0.1874565E+004  0.3097906E+02  0.7546771E-02  0.1411275E+00
         21   -1    0    0  503  502  0.00000000000E+00  0.00000000000E+00  0.11162671314E+02  0.11162671314E+02  0.00000000000E+00 0.  1.
         21   -1    0    0  501  503 -0.00000000000E+00 -0.00000000000E+00 -0.29805780091E+03  0.29805780091E+03  0.00000000000E+00 0. -1.
          2    1    1    2  501    0  0.53243555769E+01  0.30518079174E+02 -0.27386676258E+03  0.27561332617E+03  0.00000000000E+00 0. -1.
         -2    1    1    2    0  502 -0.53243555769E+01 -0.30518079174E+02 -0.13028367022E+02  0.33607146056E+02  0.00000000000E+00 0.  1.
</event>
<event>
 4    1  0.1874565E+004  0.2035550E+02  0.7546771E-02  0.1528669E+00
         21   -1    0    0  501  502  0.00000000000E+00  0.00000000000E+00  0.29042051407E+02  0.29042051407E+02  0.00000000000E+00 0.  1.
         21   -1    0    0  502  503 -0.00000000000E+00 -0.00000000000E+00 -0.14478957731E+02  0.14478957731E+02  0.00000000000E+00 0. -1.
          2    1    1    2  501    0  0.17932271663E+02  0.96322288366E+01  0.99136941840E+01  0.22641279375E+02  0.00000000000E+00 0.  1.
         -2    1    1    2    0  503 -0.17932271663E+02 -0.96322288366E+01  0.46493994924E+01  0.20879729763E+02  0.00000000000E+00 0. -1.
</event>
<event>
 4    1  0.1874565E+004  0.6430719E+02  0.7546771E-02  0.1245861E+00
         21   -1    0    0  501  502  0.00000000000E+00  0.00000000000E+00  0.43378559609E+02  0.43378559609E+02  0.00000000000E+00 0.  1.
         21   -1    0    0  502  503 -0.00000000000E+00 -0.00000000000E+00 -0.14045717731E+03  0.14045717731E+03  0.00000000000E+00 0. -1.
          2    1    1    2  501    0  0.59610025444E+02  0.24125902791E+02  0.35599984140E+01  0.64405651209E+02  0.00000000000E+00 0.  1.
         -2    1    1    2    0  503 -0.59610025444E+02 -0.24125902791E+02 -0.10063861611E+03  0.11943008571E+03  0.00000000000E+00 0. -1.
</event>
<event>
 4    1  0.1874565E+004  0.2427938E+02  0.7546771E-02  0.1477029E+00
         21   -1    0    0  503  502  0.00000000000E+00  0.00000000000E+00  0.73024146118E+02  0.73024146118E+02  0.00000000000E+00 0. -1.
         21   -1    0    0  501  503 -0.00000000000E+00 -0.00000000000E+00 -0.81199157576E+01  0.81199157576E+01  0.00000000000E+00 0.  1.
          2    1    1    2  501    0 -0.24234794000E+02  0.14707231567E+01  0.29352133045E+02  0.38092466199E+02  0.00000000000E+00 0.  1.
         -2    1    1    2    0  502  0.24234794000E+02 -0.14707231567E+01  0.35552097315E+02  0.43051595677E+02  0.00000000000E+00 0. -1.
</event>
<event>
 4    1  0.1874565E+004  0.2146810E+02  0.7546771E-02  0.1512685E+00
         21   -1    0    0  501  502  0.00000000000E+00  0.00000000000E+00  0.15884698827E+01  0.15884698827E+01  0.00000000000E+00 0.  1.
         21   -1    0    0  502  503 -0.00000000000E+00 -0.00000000000E+00 -0.30461025301E+03  0.30461025301E+03  0.00000000000E+00 0. -1.
          2    1    1    2  501    0 -0.26938877954E+01 -0.21298407163E+02 -0.11814258239E+03  0.12007726244E+03  0.00000000000E+00 0.  1.
         -2    1    1    2    0  503  0.26938877954E+01  0.21298407163E+02 -0.18487920073E+03  0.18612146045E+03  0.00000000000E+00 0. -1.
</event>
<event>
 4    1  0.1874565E+004  0.2620028E+02  0.7546771E-02  0.1455811E+00
         21   -1    0    0  501  502  0.00000000000E+00  0.00000000000E+00  0.53484878644E+02  0.53484878644E+02  0.00000000000E+00 0.  1.
         21   -1    0    0  502  503 -0.00000000000E+00 -0.00000000000E+00 -0.43034276601E+02  0.43034276601E+02  0.00000000000E+00 0. -1.
          2    1    1    2  501    0  0.26191596422E+02  0.67454606076E+00  0.45652878378E+02  0.52636869585E+02  0.00000000000E+00 0.  1.
         -2    1    1    2    0  503 -0.26191596422E+02 -0.67454606076E+00 -0.35202276336E+02  0.43882285660E+02  0.00000000000E+00 0. -1.
</event>
<event>
 4    1  0.1874565E+004  0.2348183E+02  0.7546771E-02  0.1486535E+00
         21   -1    0    0  503  502  0.00000000000E+00  0.00000000000E+00  0.14677056514E+02  0.14677056514E+02  0.00000000000E+00 0.  1.
         21   -1    0    0  501  503 -0.00000000000E+00 -0.00000000000E+00 -0.40652886660E+02  0.40652886660E+02  0.00000000000E+00 0. -1.
          2    1    1    2  501    0  0.60001440513E+01  0.22702306978E+02 -0.20608036218E+02  0.31242401116E+02  0.00000000000E+00 0. -1.
         -2    1    1    2    0  502 -0.60001440513E+01 -0.22702306978E+02 -0.53677939289E+01  0.24087542058E+02  0.00000000000E+00 0.  1.
</event>
<event>
 4    1  0.1874565E+004  0.3925155E+02  0.7546771E-02  0.1352928E+00
         21   -1    0    0  503  502  0.00000000000E+00  0.00000000000E+00  0.54098096095E+02  0.54098096095E+02  0.00000000000E+00 0.  1.
         21   -1    0    0  501  503 -0.00000000000E+00 -0.00000000000E+00 -0.28953599698E+02  0.28953599698E+02  0.00000000000E+00 0. -1.
          2    1    1    2  501    0  0.35647705983E+02  0.16429411275E+02  0.72582554937E+01  0.39916998503E+02  0.00000000000E+00 0. -1.
         -2    1    1    2    0  502 -0.35647705983E+02 -0.16429411275E+02  0.17886240903E+02  0.43134697290E+02  0.00000000000E+00 0.  1.
</event>
<event>
 4    1  0.1874565E+004  0.2255330E+02  0.7546771E-02  0.1498185E+00
         21   -1    0    0  503  502  0.00000000000E+00  0.00000000000E+00  0.10165913016E+03  0.10165913016E+03  0.00000000000E+00 0. -1.
         21   -1    0    0  501  503 -0.00000000000E+00 -0.00000000000E+00 -0.17287974057E+02  0.17287974057E+02  0.00000000000E+00 0.  1.
          2    1    1    2  501    0 -0.21886189935E+02  0.54448173728E+01 -0.79481649001E+01  0.23912855776E+02  0.00000000000E+00 0.  1.
         -2    1    1    2    0  502  0.21886189935E+02 -0.54448173728E+01  0.92319321004E+02  0.95034248441E+02  0.00000000000E+00 0. -1.
</event>
<event>
 4    1  0.1874565E+004  0.2149575E+02  0.7546771E-02  0.1512303E+00
         21   -1    0    0  501  502  0.00000000000E+00  0.00000000000E+00  0.95194959394E+01  0.95194959394E+01  0.00000000000E+00 0. -1.
         21   -1    0    0  502  503 -0.00000000000E+00 -0.00000000000E+00 -0.48558334571E+02  0.48558334571E+02  0.00000000000E+00 0.  1.
          2    1    1    2  501    0  0.16202581353E+02 -0.14125992332E+02 -0.18940738976E+02  0.28649937082E+02  0.00000000000E+00 0.  1.
         -2    1    1    2    0  503 -0.16202581353E+02  0.14125992332E+02 -0.20098099656E+02  0.29427893429E+02  0.00000000000E+00 0. -1.
</event>
<event>
 4    1  0.1874565E+004  0.4224291E+02  0.7546771E-02  0.1335821E+00
         21   -1    0    0  501  502  0.00000000000E+00  0.00000000000E+00  0.15091634390E+02  0.15091634390E+02  0.00000000000E+00 0. -1.
         21   -1    0    0  502  503 -0.00000000000E+00 -0.00000000000E+00 -0.13042488080E+03  0.13042488080E+03  0.00000000000E+00 0.  1.
          2    1    1    2  501    0  0.23099213831E+02  0.35367923520E+02 -0.35429497772E+02  0.55133592356E+02  0.00000000000E+00 0. -1.
         -2    1    1    2    0  503 -0.23099213831E+02 -0.35367923520E+02 -0.79903748634E+02  0.90382922831E+02  0.00000000000E+00 0.  1.
</event>
<event>
 4    1  0.1874565E+004  0.5462568E+02  0.7546771E-02  0.1279273E+00
         21   -1    0    0  503  502  0.00000000000E+00  0.00000000000E+00  0.27455309879E+04  0.27455309879E+04  0.00000000000E+00 0.  1.
         21   -1    0    0  501  503 -0.00000000000E+00 -0.00000000000E+00 -0.14099689359E+01  0.14099689359E+01  0.00000000000E+00 0. -1.
          2    1    1    2  501    0  0.18639757874E+02 -0.51347094952E+02  0.71455471388E+03  0.71663966110E+03  0.00000000000E+00 0. -1.
         -2    1    1    2    0  502 -0.18639757874E+02  0.51347094952E+02  0.20295663051E+04  0.20303012957E+04  0.00000000000E+00 0.  1.
</event>
<event>
 4    1  0.1874565E+004  0.2483969E+02  0.7546771E-02  0.1470605E+00
         21   -1    0    0  503  502  0.00000000000E+00  0.00000000000E+00  0.21110345871E+01  0.21110345871E+01  0.00000000000E+00 0.  1.
         21   -1    0    0  501  503 -0.00000000000E+00 -0.00000000000E+00 -0.43882787605E+03  0.43882787605E+03  0.00000000000E+00 0. -1.
          2    1    1    2  501    0 -0.24254442212E+02 -0.53602363727E+01 -0.34576541116E+03  0.34665650096E+03  0.00000000000E+00 0. -1.
         -2    1    1    2    0  502  0.24254442212E+02  0.53602363727E+01 -0.90951430305E+02  0.94282409683E+02  0.00000000000E+00 0.  1.
</event>
<event>
 4    1  0.1874565E+004  0.2594752E+02  0.7546771E-02  0.1458477E+00
         21   -1    0    0  503  502  0.00000000000E+00  0.00000000000E+00  0.49370330140E+03  0.49370330140E+03  0.00000000000E+00 0.  1.
         21   -1    0    0  501  503 -0.00000000000E+00 -0.00000000000E+00 -0.23082363642E+01  0.23082363642E+01  0.00000000000E+00 0. -1.
          2    1    1    2  501    0  0.97292802120E+01  0.24054411686E+02  0.87052626578E+02  0.90837400938E+02  0.00000000000E+00 0.  1.
         -2    1    1    2    0  502 -0.97292802120E+01 -0.24054411686E+02  0.40434243846E+03  0.40517413683E+03  0.00000000000E+00 0. -1.
</event>
<event>
 4    1  0.1874565E+004  0.2031624E+02  0.7546771E-02  0.1529255E+00
         21   -1    0    0  501  502  0.00000000000E+00  0.00000000000E+00  0.22930662466E+03  0.22930662466E+03  0.00000000000E+00 0. -1.
         21   -1    0    0  502  503 -0.00000000000E+00 -0.00000000000E+00 -0.10830919640E+02  0.10830919640E+02  0.00000000000E+00 0.  1.
          2    1    1    2  501    0  0.15371065546E+02  0.13284570037E+02  0.21887649517E+03  0.21981735508E+03  0.00000000000E+00 0. -1.
         -2    1    1    2    0  503 -0.15371065546E+02 -0.13284570037E+02 -0.40079015150E+00  0.20320189217E+02  0.00000000000E+00 0.  1.
</event>
<event>
 4    1  0.1874565E+004  0.2028416E+02  0.7546771E-02  0.1529735E+00
         21   -1    0    0  501  502  0.00000000000E+00  0.00000000000E+00  0.49541039158E+03  0.49541039158E+03  0.00000000000E+00 0.  1.
         21   -1    0    0  502  503 -0.00000000000E+00 -0.00000000000E+00 -0.20735629206E+01  0.20735629206E+01  0.00000000000E+00 0. -1.
          2    1    1    2  501    0  0.19430293773E+02 -0.58233165955E+01  0.43925846831E+03  0.43972656198E+03  0.00000000000E+00 0.  1.
         -2    1    1    2    0  503 -0.19430293773E+02  0.58233165955E+01  0.54078360354E+02  0.57757392522E+02  0.00000000000E+00 0. -1.
</event>
<event>
 4    1  0.1874565E+004  0.2066184E+02  0.7546771E-02  0.1524148E+00
         21   -1    0    0  503  502  0.00000000000E+00  0.00000000000E+00  0.93113209662E+02  0.93113209662E+02  0.00000000000E+00 0. -1.
         21   -1    0    0  501  503 -0.00000000000E+00 -0.00000000000E+00 -0.62274100862E+01  0.62274100862E+01  0.00000000000E+00 0.  1.
          2    1    1    2  501    0  0.20451999208E+02 -0.29372097604E+01  0.17933407252E+02  0.27359067390E+02  0.00000000000E+00 0. -1.
         -2    1    1    2    0  502 -0.20451999208E+02  0.29372097604E+01  0.68952392324E+02  0.71981552359E+02  0.00000000000E+00 0.  1.
</event>
<event>
 4    1  0.1874565E+004  0.2418690E+02  0.7546771E-02  0.1478109E+00
         21   -1    0    0  503  502  0.00000000000E+00  0.00000000000E+00  0.35429934262E+02  0.35429934262E+02  0.00000000000E+00 0.  1.
         21   -1    0    0  501  503 -0.00000000000E+00 -0.00000000000E+00 -0.33683088189E+02  0.33683088189E+02  0.00000000000E+00 0. -1.
          2    1    1    2  501    0 -0.23634694135E+02  0.51388087854E+01 -0.23799890149E+02  0.33932888084E+02  0.00000000000E+00 0. -1.
         -2    1    1    2    0  502  0.23634694135E+02 -0.51388087854E+01  0.25546736222E+02  0.35180134368E+02  0.00000000000E+00 0.  1.
</event>
<event>
 4    1  0.1874565E+004  0.2161715E+02  0.7546771E-02  0.1510633E+00
         21   -1    0    0  503  502  0.00000000000E+00  0.00000000000E+00  0.15289777518E+03  0.15289777518E+03  0.00000000000E+00 0.  1.
         21   -1    0    0  501  503 -0.00000000000E+00 -0.00000000000E+00 -0.37782856652E+01  0.37782856652E+01  0.00000000000E+00 0. -1.
          2    1    1    2  501    0 -0.42306289673E+01  0.21199123792E+02  0.40315284474E+02  0.45745199018E+02  0.00000000000E+00 0. -1.
         -2    1    1    2    0  502  0.42306289673E+01 -0.21199123792E+02  0.10880420504E+03  0.11093086182E+03  0.00000000000E+00 0.  1.
</event>
<event>
 4    1  0.1874565E+004  0.2299221E+02  0.7546771E-02  0.1492596E+00
         21   -1    0    0  501  502  0.00000000000E+00  0.00000000000E+00  0.18858195003E+02  0.18858195003E+02  0.00000000000E+00 0.  1.
         21   -1    0    0  502  503 -0.00000000000E+00 -0.00000000000E+00 -0.40760003138E+02  0.40760003138E+02  0.00000000000E+00 0. -1.
          2    1    1    2  501    0 -0.93108573900E+01 -0.21022601774E+02  0.57063651701E+01  0.23689754202E+02  0.00000000000E+00 0.  1.
         -2    1    1    2    0  503  0.93108573900E+01  0.21022601774E+02 -0.27608173305E+02  0.35928443940E+02  0.00000000000E+00 0. -1.
</event>
<event>
 4    1  0.1874565E+004  0.2695790E+02  0.7546771E-02  0.1448031E+00
         21   -1    0    0  501  502  0.00000000000E+00  0.00000000000E+00  0.21219050941E+02  0.21219050941E+02  0.00000000000E+00 0.  1.
         21   -1    0    0  502  503 -0.00000000000E+00 -0.00000000000E+00 -0.40625887177E+02  0.40625887177E+02  0.00000000000E+00 0. -1.
          2    1    1    2  501    0 -0.26707486349E+02  0.36658933099E+01  0.25478598538E+01  0.27078038900E+02  0.00000000000E+00 0. -1.
         -2    1    1    2    0  503  0.26707486349E+02 -0.36658933099E+01 -0.21954696090E+02  0.34766899218E+02  0.00000000000E+00 0.  1.
</event>
<event>
 4    1  0.1874565E+004  0.2479753E+02  0.7546771E-02  0.1471081E+00
         21   -1    0    0  501  502  0.00000000000E+00  0.00000000000E+00  0.10756301574E+03  0.10756301574E+03  0.00000000000E+00 0.  1.
         21   -1    0    0  502  503 -0.00000000000E+00 -0.00000000000E+00 -0.11484528188E+02  0.11484528188E+02  0.00000000000E+00 0. -1.
          2    1    1    2  501    0  0.22641640613E+02  0.10113046780E+02  0.90222080620E+02  0.93567844028E+02  0.00000000000E+00 0.  1.
         -2    1    1    2    0  503 -0.22641640613E+02 -0.10113046780E+02  0.58564069337E+01  0.25479699900E+02  0.00000000000E+00 0. -1.
</event>
<event>
 4    1  0.1874565E+004  0.2735187E+02  0.7546771E-02  0.1444105E+00
         21   -1    0    0  501  502  0.00000000000E+00  0.00000000000E+00  0.98061490245E+01  0.98061490245E+01  0.00000000000E+00 0. -1.
         21   -1    0    0  502  503 -0.00000000000E+00 -0.00000000000E+00 -0.15317906530E+03  0.15317906530E+03  0.00000000000E+00 0.  1.
          2    1    1    2  501    0  0.17835841710E+02  0.20736622435E+02 -0.13950435302E+02  0.30704061695E+02  0.00000000000E+00 0. -1.
         -2    1    1    2    0  503 -0.17835841710E+02 -0.20736622435E+02 -0.12942248098E+03  0.13228115263E+03  0.00000000000E+00 0.  1.
</event>
<event>
 4    1  0.1874565E+004  0.2143891E+02  0.7546771E-02  0.1513090E+00
         21   -1    0    0  501  502  0.00000000000E+00  0.00000000000E+00  0.50780813984E+03  0.50780813984E+03  0.00000000000E+00 0. -1.
         21   -1    0    0  502  503 -0.00000000000E+00 -0.00000000000E+00 -0.10182150991E+01  0.10182150991E+01  0.00000000000E+00 0.  1.
          2    1    1    2  501    0 -0.19041626589E+02 -0.98510577426E+01  0.33818470614E+03  0.33886357483E+03  0.00000000000E+00 0. -1.
         -2    1    1    2    0  503  0.19041626589E+02  0.98510577426E+01  0.16860521861E+03  0.16996278011E+03  0.00000000000E+00 0.  1.
</event>
<event>
 4    1  0.1874565E+004  0.2646004E+02  0.7546771E-02  0.1453109E+00
         21   -1    0    0  501  502  0.00000000000E+00  0.00000000000E+00  0.19115791618E+01  0.19115791618E+01  0.00000000000E+00 0.  1.
         21   -1    0    0  502  503 -0.00000000000E+00 -0.00000000000E+00 -0.45063068527E+03  0.45063068527E+03  0.00000000000E+00 0. -1.
          2    1    1    2  501    0  0.88995682438E+01 -0.24918492555E+02 -0.12645194528E+03  0.12919066549E+03  0.00000000000E+00 0.  1.
         -2    1    1    2    0  503 -0.88995682438E+01  0.24918492555E+02 -0.32226716084E+03  0.32335159894E+03  0.00000000000E+00 0. -1.
</event>
<event>
 4    1  0.1874565E+004  0.3553375E+02  0.7546771E-02  0.1376849E+00
         21   -1    0    0  503  502  0.00000000000E+00  0.00000000000E+00  0.10027080993E+03  0.10027080993E+03  0.00000000000E+00 0.  1.
         21   -1    0    0  501  503 -0.00000000000E+00 -0.00000000000E+00 -0.13291402258E+02  0.13291402258E+02  0.00000000000E+00 0. -1.
          2    1    1    2  501    0  0.29073783948E+02 -0.20429448335E+02  0.30468035116E+02  0.46807568150E+02  0.00000000000E+00 0.  1.
         -2    1    1    2    0  502 -0.29073783948E+02  0.20429448335E+02  0.56511372552E+02  0.66754644033E+02  0.00000000000E+00 0. -1.
</event>
<event>
 4    1  0.1874565E+004  0.5332455E+02  0.7546771E-02  0.1284368E+00
         21   -1    0    0  501  502  0.00000000000E+00  0.00000000000E+00  0.23730539687E+03  0.23730539687E+03  0.00000000000E+00 0.  1.
         21   -1    0    0  502  503 -0.00000000000E+00 -0.00000000000E+00 -0.16622038016E+02  0.16622038016E+02  0.00000000000E+00 0. -1.
          2    1    1    2  501    0  0.12190512455E+02 -0.51912412655E+02  0.17741901406E+03  0.18525931483E+03  0.00000000000E+00 0.  1.
         -2    1    1    2    0  503 -0.12190512455E+02  0.51912412655E+02  0.43264344795E+02  0.68668120056E+02  0.00000000000E+00 0. -1.
</event>
<event>
 4    1  0.1874565E+004  0.2372932E+02  0.7546771E-02  0.1483538E+00
         21   -1    0    0  503  502  0.00000000000E+00  0.00000000000E+00  0.17942772505E+02  0.17942772505E+02  0.00000000000E+00 0.  1.
         21   -1    0    0  501  503 -0.00000000000E+00 -0.00000000000E+00 -0.81896199729E+02  0.81896199729E+02  0.00000000000E+00 0. -1.
          2    1    1    2  501    0  0.23396637346E+02  0.39595216374E+01 -0.71182022744E+02  0.75033064795E+02  0.00000000000E+00 0. -1.
         -2    1    1    2    0  502 -0.23396637346E+02 -0.39595216374E+01  0.72285955190E+01  0.24805907439E+02  0.00000000000E+00 0.  1.
</event>
<event>
 4    1  0.1874565E+004  0.2018587E+02  0.7546771E-02  0.1531213E+00
         21   -1    0    0  503  502  0.00000000000E+00  0.00000000000E+00  0.51863237625E+01  0.51863237625E+01  0.00000000000E+00 0. -1.
         21   -1    0    0  501  503 -0.00000000000E+00 -0.00000000000E+00 -0.11316542684E+03  0.11316542684E+03  0.00000000000E+00 0.  1.
          2    1    1    2  501    0  0.16871257838E+02  0.11082869403E+02 -0.86710170210E+02  0.89028775983E+02  0.00000000000E+00 0.  1.
         -2    1    1    2    0  502 -0.16871257838E+02 -0.11082869403E+02 -0.21268932871E+02  0.29322974623E+02  0.00000000000E+00 0. -1.
</event>
<event>
 4    1  0.1874565E+004  0.2515130E+02  0.7546771E-02  0.1467118E+00
         21   -1    0    0  501  502  0.00000000000E+00  0.00000000000E+00  0.43381690841E+02  0.43381690841E+02  0.00000000000E+00 0. -1.
         21   -1    0    0  502  503 -0.00000000000E+00 -0.00000000000E+00 -0.27177805252E+02  0.27177805252E+02  0.00000000000E+00 0.  1.
          2    1    1    2  501    0 -0.22795860111E+02  0.10627174728E+02 -0.15915830249E+02  0.29764101421E+02  0.00000000000E+00 0.  1.
         -2    1    1    2    0  503  0.22795860111E+02 -0.10627174728E+02  0.32119715838E+02  0.40795394672E+02  0.00000000000E+00 0. -1.
</event>
<event>
 4    1  0.1874565E+004  0.6825347E+02  0.7546771E-02  0.1234105E+00
         21   -1    0    0  503  502  0.00000000000E+00  0.00000000000E+00  0.63113832137E+02  0.63113832137E+02  0.00000000000E+00 0. -1.
         21   -1    0    0  501  503 -0.00000000000E+00 -0.00000000000E+00 -0.15403376934E+03  0.15403376934E+03  0.00000000000E+00 0.  1.
          2    1    1    2  501    0  0.27459314139E+02  0.62486175943E+02 -0.12381450292E+03  0.14138092958E+03  0.00000000000E+00 0.  1.
         -2    1    1    2    0  502 -0.27459314139E+02 -0.62486175943E+02  0.32894565711E+02  0.75766671897E+02  0.00000000000E+00 0. -1.
</event>
<event>
 4    1  0.1874565E+004  0.3196727E+02  0.7546771E-02  0.1403237E+00
         21   -1    0    0  503  502  0.00000000000E+00  0.00000000000E+00  0.10769655578E+02  0.10769655578E+02  0.00000000000E+00 0.  1.
         21   -1    0    0  501  503 -0.00000000000E+00 -0.00000000000E+00 -0.12799977968E+03  0.12799977968E+03  0.00000000000E+00 0. -1.
          2    1    1    2  501    0  0.12871902573E+02 -0.29261246748E+02 -0.93905195635E+02  0.99197238894E+02  0.00000000000E+00 0. -1.
         -2    1    1    2    0  502 -0.12871902573E+02  0.29261246748E+02 -0.23324928470E+02  0.39572196365E+02  0.00000000000E+00 0.  1.
</event>
<event>
 4    1  0.1874565E+004  0.2261642E+02  0.7546771E-02  0.1497372E+00
         21   -1    0    0  501  502  0.00000000000E+00  0.00000000000E+00  0.82725054713E+01  0.82725054713E+01  0.00000000000E+00 0.  1.
         21   -1    0    0  502  503 -0.00000000000E+00 -0.00000000000E+00 -0.90012581788E+02  0.90012581788E+02  0.00000000000E+00 0. -1.
          2    1    1    2  501    0  0.12116857441E+02 -0.19096711816E+02 -0.13373138951E+02  0.26274388324E+02  0.00000000000E+00 0.  1.
         -2    1    1    2    0  503 -0.12116857441E+02  0.19096711816E+02 -0.68366937365E+02  0.72010698935E+02  0.00000000000E+00 0. -1.
</event>
<event>
 4    1  0.1874565E+004  0.2993902E+02  0.7546771E-02  0.1420127E+00
         21   -1    0    0  501  502  0.00000000000E+00  0.00000000000E+00  0.16182590888E+03  0.16182590888E+03  0.00000000000E+00 0.  1.
         21   -1    0    0  502  503 -0.00000000000E+00 -0.00000000000E+00 -0.60740639368E+01  0.60740639368E+01  0.00000000000E+00 0. -1.
          2    1    1    2  501    0  0.22720285599E+02 -0.19497015221E+02  0.10279349213E+03  0.10706468608E+03  0.00000000000E+00 0. -1.
         -2    1    1    2    0  503 -0.22720285599E+02  0.19497015221E+02  0.52958352815E+02  0.60835286743E+02  0.00000000000E+00 0.  1.
</event>
<event>
 4    1  0.1874565E+004  0.2778872E+02  0.7546771E-02  0.1439842E+00
         21   -1    0    0  503  502  0.00000000000E+00  0.00000000000E+00  0.28181330870E+02  0.28181330870E+02  0.00000000000E+00 0. -1.
         21   -1    0    0  501  503 -0.00000000000E+00 -0.00000000000E+00 -0.51383736468E+02  0.51383736468E+02  0.00000000000E+00 0.  1.
          2    1    1    2  501    0 -0.13143606529E+02  0.24483840753E+02 -0.38779594893E+02  0.47708173626E+02  0.00000000000E+00 0.  1.
         -2    1    1    2    0  502  0.13143606529E+02 -0.24483840753E+02  0.15577189295E+02  0.31856893712E+02  0.00000000000E+00 0. -1.
</event>
<event>
 4    1  0.1874565E+004  0.2227591E+02  0.7546771E-02  0.1501796E+00
         21   -1    0    0  501  502  0.00000000000E+00  0.00000000000E+00  0.12829248358E+02  0.12829248358E+02  0.00000000000E+00 0.  1.
         21   -1    0    0  502  503 -0.00000000000E+00 -0.00000000000E+00 -0.50642102642E+02  0.50642102642E+02  0.00000000000E+00 0. -1.
          2    1    1    2  501    0  0.22122084381E+02 -0.26133514946E+01 -0.34815159234E+01  0.22546333993E+02  0.00000000000E+00 0.  1.
         -2    1    1    2    0  503 -0.22122084381E+02  0.26133514946E+01 -0.34331338361E+02  0.40925017007E+02  0.00000000000E+00 0. -1.
</event>
<event>
 4    1  0.1874565E+004  0.2240507E+02  0.7546771E-02  0.1500107E+00
         21   -1    0    0  503  502  0.00000000000E+00  0.00000000000E+00  0.12688188385E+03  0.12688188385E+03  0.00000000000E+00 0.  1.
         21   -1    0    0  501  503 -0.00000000000E+00 -0.00000000000E+00 -0.84050812562E+01  0.84050812562E+01  0.00000000000E+00 0. -1.
          2    1    1    2  501    0 -0.33180472707E+01 -0.22158021007E+02  0.10026087808E+02  0.24546074419E+02  0.00000000000E+00 0. -1.
         -2    1    1    2    0  502  0.33180472707E+01  0.22158021007E+02  0.10845071479E+03  0.11074089069E+03  0.00000000000E+00 0.  1.
</event>
<event>
 4    1  0.1874565E+004  0.2622068E+02  0.7546771E-02  0.1455598E+00
         21   -1    0    0  501  502  0.00000000000E+00  0.00000000000E+00  0.54354445983E+02  0.54354445983E+02  0.00000000000E+00 0. -1.
         21   -1    0    0  502  503 -0.00000000000E+00 -0.00000000000E+00 -0.18335975128E+03  0.18335975128E+03  0.00000000000E+00 0.  1.
          2    1    1    2  501    0 -0.23158842329E+02 -0.12296017403E+02  0.50181571654E+02  0.56619026446E+02  0.00000000000E+00 0. -1.
         -2    1    1    2    0  503  0.23158842329E+02  0.12296017403E+02 -0.17918687696E+03  0.18109517082E+03  0.00000000000E+00 0.  1.
</event>
<event>
 4    1  0.1874565E+004  0.3046305E+02  0.7546771E-02  0.1415614E+00
         21   -1    0    0  501  502  0.00000000000E+00  0.00000000000E+00  0.17942790315E+01  0.17942790315E+01  0.00000000000E+00 0. -1.
         21   -1    0    0  502  503 -0.00000000000E+00 -0.00000000000E+00 -0.51732804217E+03  0.51732804217E+03  0.00000000000E+00 0.  1.
          2    1    1    2  501    0  0.20570241701E+02 -0.22469144315E+02 -0.25364952106E+03  0.25547226234E+03  0.00000000000E+00 0. -1.
         -2    1    1    2    0  503 -0.20570241701E+02  0.22469144315E+02 -0.26188424208E+03  0.26365005886E+03  0.00000000000E+00 0.  1.
</event>
<event>
 4    1  0.1874565E+004  0.3560264E+02  0.7546771E-02  0.1376375E+00
         21   -1    0    0  501  502  0.00000000000E+00  0.00000000000E+00  0.40161138594E+02  0.40161138594E+02  0.00000000000E+00 0.  1.
         21   -1    0    0  502  503 -0.00000000000E+00 -0.00000000000E+00 -0.49266030468E+02  0.49266030468E+02  0.00000000000E+00 0. -1.
          2    1    1    2  501    0  0.27991252397E+01  0.35492437075E+02  0.22252020738E+02  0.41984528324E+02  0.00000000000E+00 0.  1.
         -2    1    1    2    0  503 -0.27991252397E+01 -0.35492437075E+02 -0.31356912613E+02  0.47442640738E+02  0.00000000000E+00 0. -1.
</event>
<event>
 4    1  0.1874565E+004  0.2451415E+02  0.7546771E-02  0.1474312E+00
         21   -1    0    0  501  502  0.00000000000E+00  0.00000000000E+00  0.17646702489E+02  0.17646702489E+02  0.00000000000E+00 0.  1.
         21   -1    0    0  502  503 -0.00000000000E+00 -0.00000000000E+00 -0.56340896577E+02  0.56340896577E+02  0.00000000000E+00 0. -1.
          2    1    1    2  501    0 -0.23493629668E+02 -0.69995110631E+01  0.39198935063E+01  0.24825578648E+02  0.00000000000E+00 0.  1.
         -2    1    1    2    0  503  0.23493629668E+02  0.69995110631E+01 -0.42614087595E+02  0.49162020418E+02  0.00000000000E+00 0. -1.
</event>
<event>
 4    1  0.1874565E+004  0.2449421E+02  0.7546771E-02  0.1474542E+00
         21   -1    0    0  503  502  0.00000000000E+00  0.00000000000E+00  0.85396777642E+00  0.85396777642E+00  0.00000000000E+00 0. -1.
         21   -1    0    0  501  503 -0.00000000000E+00 -0.00000000000E+00 -0.71075632017E+03  0.71075632017E+03  0.00000000000E+00 0.  1.
          2    1    1    2  501    0  0.60705695257E+01  0.23730036155E+02 -0.31675028257E+03  0.31769593629E+03  0.00000000000E+00 0.  1.
         -2    1    1    2    0  502 -0.60705695257E+01 -0.23730036155E+02 -0.39315206982E+03  0.39391435165E+03  0.00000000000E+00 0. -1.
</event>
<event>
 4    1  0.1874565E+004  0.2052490E+02  0.7546771E-02  0.1526157E+00
         21   -1    0    0  503  502  0.00000000000E+00  0.00000000000E+00  0.19622775960E+01  0.19622775960E+01  0.00000000000E+00 0.  1.
         21   -1    0    0  501  503 -0.00000000000E+00 -0.00000000000E+00 -0.61903180537E+03  0.61903180537E+03  0.00000000000E+00 0. -1.
          2    1    1    2  501    0  0.19811841040E+02  0.53630622744E+01 -0.55947945693E+03  0.55985581556E+03  0.00000000000E+00 0. -1.
         -2    1    1    2    0  502 -0.19811841040E+02 -0.53630622744E+01 -0.57590070840E+02  0.61138267409E+02  0.00000000000E+00 0.  1.
</event>
<event>
 4    1  0.1874565E+004  0.2090645E+02  0.7546771E-02  0.1520605E+00
         21   -1    0    0  501  502  0.00000000000E+00  0.00000000000E+00  0.28989256110E+01  0.28989256110E+01  0.00000000000E+00 0. -1.
         21   -1    0    0  502  503 -0.00000000000E+00 -0.00000000000E+00 -0.74388008405E+03  0.74388008405E+03  0.00000000000E+00 0.  1.
          2    1    1    2  501    0  0.17329446391E+02  0.11694872985E+02 -0.37081678489E+02  0.42569127850E+02  0.00000000000E+00 0. -1.
         -2    1    1    2    0  503 -0.17329446391E+02 -0.11694872985E+02 -0.70389947995E+03  0.70420988181E+03  0.00000000000E+00 0.  1.
</event>
<event>
 4    1  0.1874565E+004  0.2309172E+02  0.7546771E-02  0.1491350E+00
         21   -1    0    0  501  502  0.00000000000E+00  0.00000000000E+00  0.46764058451E+02  0.46764058451E+02  0.00000000000E+00 0. -1.
         21   -1    0    0  502  503 -0.00000000000E+00 -0.00000000000E+00 -0.11515107382E+02  0.11515107382E+02  0.00000000000E+00 0.  1.
          2    1    1    2  501    0 -0.61793136475E+01 -0.22249573787E+02  0.20505994289E+02  0.30882410085E+02  0.00000000000E+00 0.  1.
         -2    1    1    2    0  503  0.61793136475E+01  0.22249573787E+02  0.14742956780E+02  0.27396755747E+02  0.00000000000E+00 0. -1.
</event>
<event>
 4    1  0.1874565E+004  0.3592823E+02  0.7546771E-02  0.1374152E+00
         21   -1    0    0  501  502  0.00000000000E+00  0.00000000000E+00  0.71832135151E+01  0.71832135151E+01  0.00000000000E+00 0.  1.
         21   -1    0    0  502  503 -0.00000000000E+00 -0.00000000000E+00 -0.33197023344E+03  0.33197023344E+03  0.00000000000E+00 0. -1.
          2    1    1    2  501    0 -0.19057258065E+02 -0.30457491717E+02 -0.47546071785E+02  0.59594184522E+02  0.00000000000E+00 0.  1.
         -2    1    1    2    0  503  0.19057258065E+02  0.30457491717E+02 -0.27724094814E+03  0.27955926243E+03  0.00000000000E+00 0. -1.
</event>
<event>
 4    1  0.1874565E+004  0.4907932E+02  0.7546771E-02  0.1302214E+00
         21   -1    0    0  503  502  0.00000000000E+00  0.00000000000E+00  0.66482726104E+01  0.66482726104E+01  0.00000000000E+00 0.  1.
         21   -1    0    0  501  503 -0.00000000000E+00 -0.00000000000E+00 -0.36443278031E+03  0.36443278031E+03  0.00000000000E+00 0. -1.
          2    1    1    2  501    0  0.11707195037E+02 -0.47662575033E+02 -0.16475362707E+03  0.17190851377E+03  0.00000000000E+00 0. -1.
         -2    1    1    2    0  502 -0.11707195037E+02  0.47662575033E+02 -0.19303088062E+03  0.19917253914E+03  0.00000000000E+00 0.  1.
</event>
<event>
 4    1  0.1874565E+004  0.2027067E+02  0.7546771E-02  0.1529938E+00
         21   -1    0    0  503  502  0.00000000000E+00  0.00000000000E+00  0.10255447611E+03  0.10255447611E+03  0.00000000000E+00 0.  1.
         21   -1    0    0  501  503 -0.00000000000E+00 -0.00000000000E+00 -0.19030111512E+02  0.19030111512E+02  0.00000000000E+00 0. -1.
          2    1    1    2  501    0 -0.12345840938E+02 -0.16077315591E+02 -0.12252630092E+02  0.23686004502E+02  0.00000000000E+00 0. -1.
         -2    1    1    2    0  502  0.12345840938E+02  0.16077315591E+02  0.95776994690E+02  0.97898583120E+02  0.00000000000E+00 0.  1.
</event>
<event>
 4    1  0.1874565E+004  0.2177982E+02  0.7546771E-02  0.1508416E+00
         21   -1    0    0  501  502  0.00000000000E+00  0.00000000000E+00  0.85119644452E+00  0.85119644452E+00  0.00000000000E+00 0. -1.
         21   -1    0    0  502  503 -0.00000000000E+00 -0.00000000000E+00 -0.97547574015E+03  0.97547574015E+03  0.00000000000E+00 0.  1.
          2    1    1    2  501    0 -0.21140704365E+02 -0.52374589075E+01 -0.16768529716E+03  0.16909381787E+03  0.00000000000E+00 0. -1.
         -2    1    1    2    0  503  0.21140704365E+02  0.52374589075E+01 -0.80693924655E+03  0.80723311873E+03  0.00000000000E+00 0.  1.
</event>
<event>
 4    1  0.1874565E+004  0.2052537E+02  0.7546771E-02  0.1526150E+00
         21   -1    0    0  503  502  0.00000000000E+00  0.00000000000E+00  0.62001958411E+02  0.62001958411E+02  0.00000000000E+00 0.  1.
         21   -1    0    0  501  503 -0.00000000000E+00 -0.00000000000E+00 -0.20997737530E+02  0.20997737530E+02  0.00000000000E+00 0. -1.
          2    1    1    2  501    0 -0.11024554933E+02  0.17313284382E+02 -0.13628920906E+02  0.24638143450E+02  0.00000000000E+00 0. -1.
         -2    1    1    2    0  502  0.11024554933E+02 -0.17313284382E+02  0.54633141787E+02  0.58361552491E+02  0.00000000000E+00 0.  1.
</event>
<event>
 4    1  0.1874565E+004  0.2163001E+02  0.7546771E-02  0.1510457E+00
         21   -1    0    0  501  502  0.00000000000E+00  0.00000000000E+00  0.41043812705E+02  0.41043812705E+02  0.00000000000E+00 0. -1.
         21   -1    0    0  502  503 -0.00000000000E+00 -0.00000000000E+00 -0.12577655428E+02  0.12577655428E+02  0.00000000000E+00 0.  1.
          2    1    1    2  501    0 -0.39935134459E+01 -0.21258159922E+02  0.60256641787E+01  0.22453644286E+02  0.00000000000E+00 0. -1.
         -2    1    1    2    0  503  0.39935134459E+01  0.21258159922E+02  0.22440493097E+02  0.31167823847E+02  0.00000000000E+00 0.  1.
</event>
<event>
 4    1  0.1874565E+004  0.7300759E+02  0.7546771E-02  0.1221083E+00
         21   -1    0    0  501  502  0.00000000000E+00  0.00000000000E+00  0.80383475655E+03  0.80383475655E+03  0.00000000000E+00 0.  1.
         21   -1    0    0  502  503 -0.00000000000E+00 -0.00000000000E+00 -0.12692152526E+02  0.12692152526E+02  0.00000000000E+00 0. -1.
          2    1    1    2  501    0 -0.72142317456E+02 -0.11206887825E+02  0.67770555657E+03  0.68162667914E+03  0.00000000000E+00 0.  1.
         -2    1    1    2    0  503  0.72142317456E+02  0.11206887825E+02  0.11343704745E+03  0.13490022994E+03  0.00000000000E+00 0. -1.
</event>
<event>
 4    1  0.1874565E+004  0.2278368E+02  0.7546771E-02  0.1495232E+00
         21   -1    0    0  501  502  0.00000000000E+00  0.00000000000E+00  0.13756097857E+03  0.13756097857E+03  0.00000000000E+00 0.  1.
         21   -1    0    0  502  503 -0.00000000000E+00 -0.00000000000E+00 -0.53044303079E+01  0.53044303079E+01  0.00000000000E+00 0. -1.
          2    1    1    2  501    0 -0.11732285456E+02  0.19530739304E+02  0.10450298996E+03  0.10695780108E+03  0.00000000000E+00 0.  1.
         -2    1    1    2    0  503  0.11732285456E+02 -0.19530739304E+02  0.27753558297E+02  0.35907607800E+02  0.00000000000E+00 0. -1.
</event>
<event>
 4    1  0.1874565E+004  0.5017207E+02  0.7546771E-02  0.1297428E+00
         21   -1    0    0  503  502  0.00000000000E+00  0.00000000000E+00  0.19272063434E+03  0.19272063434E+03  0.00000000000E+00 0.  1.
         21   -1    0    0  501  503 -0.00000000000E+00 -0.00000000000E+00 -0.15666487467E+02  0.15666487467E+02  0.00000000000E+00 0. -1.
          2    1    1    2  501    0 -0.71332874050E+01 -0.49662389412E+02  0.46040579066E+02  0.68095312849E+02  0.00000000000E+00 0. -1.
         -2    1    1    2    0  502  0.71332874050E+01  0.49662389412E+02  0.13101356781E+03  0.14029180896E+03  0.00000000000E+00 0.  1.
</event>
<event>
 4    1  0.1874565E+004  0.2176036E+02  0.7546771E-02  0.1508680E+00
         21   -1    0    0  501  502  0.00000000000E+00  0.00000000000E+00  0.32006686061E+01  0.32006686061E+01  0.00000000000E+00 0.  1.
         21   -1    0    0  502  503 -0.00000000000E+00 -0.00000000000E+00 -0.41701003951E+03  0.41701003951E+03  0.00000000000E+00 0. -1.
          2    1    1    2  501    0  0.17292851894E+02 -0.13208728394E+02 -0.38134805226E+02  0.43906452852E+02  0.00000000000E+00 0.  1.
         -2    1    1    2    0  503 -0.17292851894E+02  0.13208728394E+02 -0.37567456568E+03  0.37630425527E+03  0.00000000000E+00 0. -1.
</event>
<event>
 4    1  0.1874565E+004  0.2035477E+02  0.7546771E-02  0.1528680E+00
         21   -1    0    0  501  502  0.00000000000E+00  0.00000000000E+00  0.19463529528E+03  0.19463529528E+03  0.00000000000E+00 0. -1.
         21   -1    0    0  502  503 -0.00000000000E+00 -0.00000000000E+00 -0.37111068923E+02  0.37111068923E+02  0.00000000000E+00 0.  1.
          2    1    1    2  501    0  0.16020127080E+02  0.12556764611E+02  0.19126299232E+03  0.19234305041E+03  0.00000000000E+00 0. -1.
         -2    1    1    2    0  503 -0.16020127080E+02 -0.12556764611E+02 -0.33738765964E+02  0.39403313794E+02  0.00000000000E+00 0.  1.
</event>
<event>
 4    1  0.1874565E+004  0.6740095E+02  0.7546771E-02  0.1236568E+00
         21   -1    0    0  501  502  0.00000000000E+00  0.00000000000E+00  0.11729348874E+03  0.11729348874E+03  0.00000000000E+00 0. -1.
         21   -1    0    0  502  503 -0.00000000000E+00 -0.00000000000E+00 -0.54657723483E+02  0.54657723483E+02  0.00000000000E+00 0.  1.
          2    1    1    2  501    0  0.10325290638E+01  0.67393041220E+02  0.77728077609E+02  0.10288120416E+03  0.00000000000E+00 0. -1.
         -2    1    1    2    0  503 -0.10325290638E+01 -0.67393041220E+02 -0.15092312354E+02  0.69070008059E+02  0.00000000000E+00 0.  1.
</event>
<event>
 4    1  0.1874565E+004  0.3314400E+02  0.7546771E-02  0.1394103E+00
         21   -1    0    0  501  502  0.00000000000E+00  0.00000000000E+00  0.49057500834E+01  0.49057500834E+01  0.00000000000E+00 0.  1.
         21   -1    0    0  502  503 -0.00000000000E+00 -0.00000000000E+00 -0.24789950058E+03  0.24789950058E+03  0.00000000000E+00 0. -1.
          2    1    1    2  501    0  0.23717374095E+02  0.23151904214E+02 -0.82188517429E+02  0.88619844842E+02  0.00000000000E+00 0. -1.
         -2    1    1    2    0  503 -0.23717374095E+02 -0.23151904214E+02 -0.16080523307E+03  0.16418540582E+03  0.00000000000E+00 0.  1.
</event>
<event>
 4    1  0.1874565E+004  0.2888544E+02  0.7546771E-02  0.1429536E+00
         21   -1    0    0  501  502  0.00000000000E+00  0.00000000000E+00  0.11784570325E+02  0.11784570325E+02  0.00000000000E+00 0.  1.
         21   -1    0    0  502  503 -0.00000000000E+00 -0.00000000000E+00 -0.90496657524E+02  0.90496657524E+02  0.00000000000E+00 0. -1.
          2    1    1    2  501    0 -0.28808997178E+02 -0.21000540607E+01 -0.15498467410E+02  0.32780650352E+02  0.00000000000E+00 0.  1.
         -2    1    1    2    0  503  0.28808997178E+02  0.21000540607E+01 -0.63213619789E+02  0.69500577496E+02  0.00000000000E+00 0. -1.
</event>
<event>
 4    1  0.1874565E+004  0.2869120E+02  0.7546771E-02  0.1431321E+00
         21   -1    0    0  503  502  0.00000000000E+00  0.00000000000E+00  0.36169438980E+02  0.36169438980E+02  0.00000000000E+00 0. -1.
         21   -1    0    0  501  503 -0.00000000000E+00 -0.00000000000E+00 -0.25954720932E+02  0.25954720932E+02  0.00000000000E+00 0.  1.
          2    1    1    2  501    0  0.24889315853E+02 -0.14272597089E+02 -0.57919192155E+01  0.29269974368E+02  0.00000000000E+00 0.  1.
         -2    1    1    2    0  502 -0.24889315853E+02  0.14272597089E+02  0.16006637263E+02  0.32854185544E+02  0.00000000000E+00 0. -1.
</event>
<event>
 4    1  0.1874565E+004  0.4037523E+02  0.7546771E-02  0.1346301E+00
         21   -1    0    0  501  502  0.00000000000E+00  0.00000000000E+00  0.64440434729E+02  0.64440434729E+02  0.00000000000E+00 0.  1.
         21   -1    0    0  502  503 -0.00000000000E+00 -0.00000000000E+00 -0.43622602697E+02  0.43622602697E+02  0.00000000000E+00 0. -1.
          2    1    1    2  501    0 -0.23366728364E+02  0.32926517496E+02  0.45429122799E+02  0.60777995583E+02  0.00000000000E+00 0.  1.
         -2    1    1    2    0  503  0.23366728364E+02 -0.32926517496E+02 -0.24611290767E+02  0.47285041842E+02  0.00000000000E+00 0. -1.
</event>
<event>
 4    1  0.1874565E+004  0.2998174E+02  0.7546771E-02  0.1419755E+00
         21   -1    0    0  501  502  0.00000000000E+00  0.00000000000E+00  0.27033625645E+03  0.27033625645E+03  0.00000000000E+00 0. -1.
         21   -1    0    0  502  503 -0.00000000000E+00 -0.00000000000E+00 -0.33687157572E+01  0.33687157572E+01  0.00000000000E+00 0.  1.
          2    1    1    2  501    0 -0.29781413694E+02 -0.34600540962E+01  0.11791811607E+03  0.12166999085E+03  0.00000000000E+00 0. -1.
         -2    1    1    2    0  503  0.29781413694E+02  0.34600540962E+01  0.14904942463E+03  0.15203498136E+03  0.00000000000E+00 0.  1.
</event>
<event>
 4    1  0.1874565E+004  0.2218016E+02  0.7546771E-02  0.1503058E+00
         21   -1    0    0  503  502  0.00000000000E+00  0.00000000000E+00  0.16850549306E+01  0.16850549306E+01  0.00000000000E+00 0. -1.
         21   -1    0    0  501  503 -0.00000000000E+00 -0.00000000000E+00 -0.30467530610E+03  0.30467530610E+03  0.00000000000E+00 0.  1.
          2    1    1    2  501    0  0.30632679231E+01 -0.21967613200E+02 -0.12019554439E+03  0.12222490961E+03  0.00000000000E+00 0. -1.
         -2    1    1    2    0  502 -0.30632679231E+01  0.21967613200E+02 -0.18279470678E+03  0.18413545141E+03  0.00000000000E+00 0.  1.
</event>
<event>
 4    1  0.1874565E+004  0.2007696E+02  0.7546771E-02  0.1532863E+00
         21   -1    0    0  503  502  0.00000000000E+00  0.00000000000E+00  0.41518421650E+03  0.41518421650E+03  0.00000000000E+00 0.  1.
         21   -1    0    0  501  503 -0.00000000000E+00 -0.00000000000E+00 -0.55065496763E+01  0.55065496763E+01  0.00000000000E+00 0. -1.
          2    1    1    2  501    0  0.12381511605E+02 -0.15804503073E+02  0.13934821827E+02  0.24438973104E+02  0.00000000000E+00 0. -1.
         -2    1    1    2    0  502 -0.12381511605E+02  0.15804503073E+02  0.39574284499E+03  0.39625179307E+03  0.00000000000E+00 0.  1.
</event>
<event>
 4    1  0.1874565E+004  0.2062478E+02  0.7546771E-02  0.1524690E+00
         21   -1    0    0  501  502  0.00000000000E+00  0.00000000000E+00  0.72615351437E+03  0.72615351437E+03  0.00000000000E+00 0.  1.
         21   -1    0    0  502  503 -0.00000000000E+00 -0.00000000000E+00 -0.64041939149E+00  0.64041939149E+00  0.00000000000E+00 0. -1.
          2    1    1    2  501    0 -0.20622833433E+02 -0.28364258520E+00  0.46888140180E+03  0.46933479592E+03  0.00000000000E+00 0.  1.
         -2    1    1    2    0  503  0.20622833433E+02  0.28364258520E+00  0.25663169318E+03  0.25745913784E+03  0.00000000000E+00 0. -1.
</event>
<event>
 4    1  0.1874565E+004  0.2627977E+02  0.7546771E-02  0.1454980E+00
         21   -1    0    0  503  502  0.00000000000E+00  0.00000000000E+00  0.59489034387E+01  0.59489034387E+01  0.00000000000E+00 0. -1.
         21   -1    0    0  501  503 -0.00000000000E+00 -0.00000000000E+00 -0.14166994332E+03  0.14166994332E+03  0.00000000000E+00 0.  1.
          2    1    1    2  501    0 -0.64147057801E+01 -0.25484856589E+02 -0.99222019335E+02  0.10264324374E+03  0.00000000000E+00 0.  1.
         -2    1    1    2    0  502  0.64147057801E+01  0.25484856589E+02 -0.36499020545E+02  0.44975603012E+02  0.00000000000E+00 0. -1.
</event>
<event>
 4    1  0.1874565E+004  0.2441127E+02  0.7546771E-02  0.1475498E+00
         21   -1    0    0  503  502  0.00000000000E+00  0.00000000000E+00  0.94282491585E+02  0.94282491585E+02  0.00000000000E+00 0.  1.
         21   -1    0    0  501  503 -0.00000000000E+00 -0.00000000000E+00 -0.12774266679E+02  0.12774266679E+02  0.00000000000E+00 0. -1.
          2    1    1    2  501    0 -0.20960343595E+02 -0.12512959693E+02  0.27068369334E+01  0.24560886183E+02  0.00000000000E+00 0.  1.
         -2    1    1    2    0  502  0.20960343595E+02  0.12512959693E+02  0.78801387973E+02  0.82495872080E+02  0.00000000000E+00 0. -1.
</event>
<event>
 4    1  0.1874565E+004  0.2508833E+02  0.7546771E-02  0.1467818E+00
         21   -1    0    0  501  502  0.00000000000E+00  0.00000000000E+00  0.60140754265E+01  0.60140754265E+01  0.00000000000E+00 0. -1.
         21   -1    0    0  502  503 -0.00000000000E+00 -0.00000000000E+00 -0.13113857142E+04  0.13113857142E+04  0.00000000000E+00 0.  1.
          2    1    1    2  501    0  0.18707040001E+02  0.16717378850E+02 -0.20817001565E+02  0.32600178763E+02  0.00000000000E+00 0. -1.
         -2    1    1    2    0  503 -0.18707040001E+02 -0.16717378850E+02 -0.12845546372E+04  0.12847996109E+04  0.00000000000E+00 0.  1.
</event>
<event>
 4    1  0.1874565E+004  0.2330433E+02  0.7546771E-02  0.1488712E+00
         21   -1    0    0  503  502  0.00000000000E+00  0.00000000000E+00  0.22024895364E+01  0.22024895364E+01  0.00000000000E+00 0.  1.
         21   -1    0    0  501  503 -0.00000000000E+00 -0.00000000000E+00 -0.43382590815E+03  0.43382590815E+03  0.00000000000E+00 0. -1.
          2    1    1    2  501    0 -0.19311653495E+02 -0.13044225574E+02 -0.35904111780E+03  0.35979663152E+03  0.00000000000E+00 0. -1.
         -2    1    1    2    0  502  0.19311653495E+02  0.13044225574E+02 -0.72582300808E+02  0.76231766162E+02  0.00000000000E+00 0.  1.
</event>
<event>
 4    1  0.1874565E+004  0.2478005E+02  0.7546771E-02  0.1471279E+00
         21   -1    0    0  501  502  0.00000000000E+00  0.00000000000E+00  0.69305675755E+01  0.69305675755E+01  0.00000000000E+00 0. -1.
         21   -1    0    0  502  503 -0.00000000000E+00 -0.00000000000E+00 -0.12092621865E+03  0.12092621865E+03  0.00000000000E+00 0.  1.
          2    1    1    2  501    0 -0.23245980338E+02 -0.85834232653E+01 -0.23944998479E+02  0.34458869816E+02  0.00000000000E+00 0. -1.
         -2    1    1    2    0  503  0.23245980338E+02  0.85834232653E+01 -0.90050652594E+02  0.93397916408E+02  0.00000000000E+00 0.  1.
</event>
<event>
 4    1  0.1874565E+004  0.4419280E+02  0.7546771E-02  0.1325525E+00
         21   -1    0    0  501  502  0.00000000000E+00  0.00000000000E+00  0.72159621661E+03  0.72159621661E+03  0.00000000000E+00 0. -1.
         21   -1    0    0  502  503 -0.00000000000E+00 -0.00000000000E+00 -0.27703053176E+01  0.27703053176E+01  0.00000000000E+00 0.  1.
          2    1    1    2  501    0  0.43658799211E+02 -0.68492923874E+01  0.30444912609E+03  0.30763984451E+03  0.00000000000E+00 0. -1.
         -2    1    1    2    0  503 -0.43658799211E+02  0.68492923874E+01  0.41437678521E+03  0.41672667742E+03  0.00000000000E+00 0.  1.
</event>
<event>
 4    1  0.1874565E+004  0.2219193E+02  0.7546771E-02  0.1502902E+00
         21   -1    0    0  503  502  0.00000000000E+00  0.00000000000E+00  0.43608235022E+01  0.43608235022E+01  0.00000000000E+00 0. -1.
         21   -1    0    0  501  503 -0.00000000000E+00 -0.00000000000E+00 -0.15613527118E+03  0.15613527118E+03  0.00000000000E+00 0.  1.
          2    1    1    2  501    0  0.22187530453E+02 -0.44197981718E+00 -0.11809924336E+03  0.12016618966E+03  0.00000000000E+00 0.  1.
         -2    1    1    2    0  502 -0.22187530453E+02  0.44197981718E+00 -0.33675204319E+02  0.40329905029E+02  0.00000000000E+00 0. -1.
</event>
<event>
 4    1  0.1874565E+004  0.2019854E+02  0.7546771E-02  0.1531022E+00
         21   -1    0    0  501  502  0.00000000000E+00  0.00000000000E+00  0.69216226446E+02  0.69216226446E+02  0.00000000000E+00 0.  1.
         21   -1    0    0  502  503 -0.00000000000E+00 -0.00000000000E+00 -0.58963862612E+01  0.58963862612E+01  0.00000000000E+00 0. -1.
          2    1    1    2  501    0  0.15301277405E+02 -0.13185291195E+02  0.32366870418E+02  0.38152264609E+02  0.00000000000E+00 0. -1.
         -2    1    1    2    0  503 -0.15301277405E+02  0.13185291195E+02  0.30952969767E+02  0.36960348098E+02  0.00000000000E+00 0.  1.
</event>
<event>
 4    1  0.1874565E+004  0.2540978E+02  0.7546771E-02  0.1464271E+00
         21   -1    0    0  503  502  0.00000000000E+00  0.00000000000E+00  0.74658888380E+02  0.74658888380E+02  0.00000000000E+00 0. -1.
         21   -1    0    0  501  503 -0.00000000000E+00 -0.00000000000E+00 -0.43996194768E+02  0.43996194768E+02  0.00000000000E+00 0.  1.
          2    1    1    2  501    0  0.25201881728E+02 -0.32437370026E+01 -0.37846637370E+02  0.45585355462E+02  0.00000000000E+00 0.  1.
         -2    1    1    2    0  502 -0.25201881728E+02  0.32437370026E+01  0.68509330982E+02  0.73069727685E+02  0.00000000000E+00 0. -1.
</event>
<event>
 4    1  0.1874565E+004  0.2210653E+02  0.7546771E-02  0.1504033E+00
         21   -1    0    0  501  502  0.00000000000E+00  0.00000000000E+00  0.55578117849E+02  0.55578117849E+02  0.00000000000E+00 0. -1.
         21   -1    0    0  502  503 -0.00000000000E+00 -0.00000000000E+00 -0.88183093194E+01  0.88183093194E+01  0.00000000000E+00 0.  1.
          2    1    1    2  501    0 -0.17303775785E+00 -0.22105855598E+02  0.21655190455E+02  0.30945857032E+02  0.00000000000E+00 0.  1.
         -2    1    1    2    0  503  0.17303775785E+00  0.22105855598E+02  0.25104618075E+02  0.33450570137E+02  0.00000000000E+00 0. -1.
</event>
<event>
 4    1  0.1874565E+004  0.2098115E+02  0.7546771E-02  0.1519534E+00
         21   -1    0    0  501  502  0.00000000000E+00  0.00000000000E+00  0.36894873613E+01  0.36894873613E+01  0.00000000000E+00 0. -1.
         21   -1    0    0  502  503 -0.00000000000E+00 -0.00000000000E+00 -0.39258333266E+03  0.39258333266E+03  0.00000000000E+00 0.  1.
          2    1    1    2  501    0 -0.78324440208E+01 -0.19464359195E+02 -0.29139025330E+02  0.35906702095E+02  0.00000000000E+00 0. -1.
         -2    1    1    2    0  503  0.78324440208E+01  0.19464359195E+02 -0.35975481997E+03  0.36036611793E+03  0.00000000000E+00 0.  1.
</event>
<event>
 4    1  0.1874565E+004  0.2251061E+02  0.7546771E-02  0.1498737E+00
         21   -1    0    0  503  502  0.00000000000E+00  0.00000000000E+00  0.19598548029E+02  0.19598548029E+02  0.00000000000E+00 0.  1.
         21   -1    0    0  501  503 -0.00000000000E+00 -0.00000000000E+00 -0.46309341397E+02  0.46309341397E+02  0.00000000000E+00 0. -1.
          2    1    1    2  501    0  0.12356426588E+02  0.18816112701E+02 -0.35256304157E+02  0.41829826177E+02  0.00000000000E+00 0. -1.
         -2    1    1    2    0  502 -0.12356426588E+02 -0.18816112701E+02  0.85455107899E+01  0.24078063249E+02  0.00000000000E+00 0.  1.
</event>
<event>
 4    1  0.1874565E+004  0.2201211E+02  0.7546771E-02  0.1505290E+00
         21   -1    0    0  503  502  0.00000000000E+00  0.00000000000E+00  0.25358659363E+03  0.25358659363E+03  0.00000000000E+00 0. -1.
         21   -1    0    0  501  503 -0.00000000000E+00 -0.00000000000E+00 -0.19622985221E+01  0.19622985221E+01  0.00000000000E+00 0.  1.
          2    1    1    2  501    0 -0.20119829773E+02  0.89289157588E+01  0.14652758365E+03  0.14817174447E+03  0.00000000000E+00 0.  1.
         -2    1    1    2    0  502  0.20119829773E+02 -0.89289157588E+01  0.10509671145E+03  0.10737714768E+03  0.00000000000E+00 0. -1.
</event>
<event>
 4    1  0.1874565E+004  0.2351823E+02  0.7546771E-02  0.1486091E+00
         21   -1    0    0  501  502  0.00000000000E+00  0.00000000000E+00  0.61222580747E+03  0.61222580747E+03  0.00000000000E+00 0. -1.
         21   -1    0    0  502  503 -0.00000000000E+00 -0.00000000000E+00 -0.90477169512E+00  0.90477169512E+00  0.00000000000E+00 0.  1.
          2    1    1    2  501    0 -0.15180368587E+02  0.17962837376E+02  0.31743744912E+03  0.31830746335E+03  0.00000000000E+00 0.  1.
         -2    1    1    2    0  503  0.15180368587E+02 -0.17962837376E+02  0.29388358665E+03  0.29482311581E+03  0.00000000000E+00 0. -1.
</event>
<event>
 4    1  0.1874565E+004  0.3320066E+02  0.7546771E-02  0.1393674E+00
         21   -1    0    0  503  502  0.00000000000E+00  0.00000000000E+00  0.12235880531E+03  0.12235880531E+03  0.00000000000E+00 0.  1.
         21   -1    0    0  501  503 -0.00000000000E+00 -0.00000000000E+00 -0.96593068710E+01  0.96593068710E+01  0.00000000000E+00 0. -1.
          2    1    1    2  501    0  0.30343220808E+02  0.13474897579E+02  0.39217406827E+02  0.51383741709E+02  0.00000000000E+00 0.  1.
         -2    1    1    2    0  502 -0.30343220808E+02 -0.13474897579E+02  0.73482091609E+02  0.80634370470E+02  0.00000000000E+00 0. -1.
</event>
<event>
 4    1  0.1874565E+004  0.6664104E+02  0.7546771E-02  0.1238798E+00
         21   -1    0    0  503  502  0.00000000000E+00  0.00000000000E+00  0.24055180984E+03  0.24055180984E+03  0.00000000000E+00 0.  1.
         21   -1    0    0  501  503 -0.00000000000E+00 -0.00000000000E+00 -0.45496719475E+02  0.45496719475E+02  0.00000000000E+00 0. -1.
          2    1    1    2  501    0 -0.19664032271E+02  0.63673811790E+02 -0.12723297936E+02  0.67844755017E+02  0.00000000000E+00 0. -1.
         -2    1    1    2    0  502  0.19664032271E+02 -0.63673811790E+02  0.20777838830E+03  0.21820377430E+03  0.00000000000E+00 0.  1.
</event>
<event>
 4    1  0.1874565E+004  0.2087363E+02  0.7546771E-02  0.1521077E+00
         21   -1    0    0  501  502  0.00000000000E+00  0.00000000000E+00  0.20051877966E+02  0.20051877966E+02  0.00000000000E+00 0. -1.
         21   -1    0    0  502  503 -0.00000000000E+00 -0.00000000000E+00 -0.63577876215E+02  0.63577876215E+02  0.00000000000E+00 0.  1.
          2    1    1    2  501    0  0.17206442915E+02 -0.11817225678E+02  0.12161964799E+02  0.24158267493E+02  0.00000000000E+00 0. -1.
         -2    1    1    2    0  503 -0.17206442915E+02  0.11817225678E+02 -0.55687963048E+02  0.59471486688E+02  0.00000000000E+00 0.  1.
</event>
<event>
 4    1  0.1874565E+004  0.6998951E+02  0.7546771E-02  0.1229213E+00
         21   -1    0    0  501  502  0.00000000000E+00  0.00000000000E+00  0.44143563375E+03  0.44143563375E+03  0.00000000000E+00 0. -1.
         21   -1    0    0  502  503 -0.00000000000E+00 -0.00000000000E+00 -0.19604362591E+02  0.19604362591E+02  0.00000000000E+00 0.  1.
          2    1    1    2  501    0  0.16019793050E+02 -0.68131470396E+02  0.36277247376E+03  0.36946231031E+03  0.00000000000E+00 0. -1.
         -2    1    1    2    0  503 -0.16019793050E+02  0.68131470396E+02  0.59058797406E+02  0.91577686030E+02  0.00000000000E+00 0.  1.
</event>
<event>
 4    1  0.1874565E+004  0.2399101E+02  0.7546771E-02  0.1480415E+00
         21   -1    0    0  501  502  0.00000000000E+00  0.00000000000E+00  0.30065897907E+01  0.30065897907E+01  0.00000000000E+00 0.  1.
         21   -1    0    0  502  503 -0.00000000000E+00 -0.00000000000E+00 -0.19657768844E+03  0.19657768844E+03  0.00000000000E+00 0. -1.
          2    1    1    2  501    0  0.37072272512E+01  0.23702850101E+02 -0.11292521555E+03  0.11544554103E+03  0.00000000000E+00 0. -1.
         -2    1    1    2    0  503 -0.37072272512E+01 -0.23702850101E+02 -0.80645883102E+02  0.84138737203E+02  0.00000000000E+00 0.  1.
</event>
<event>
 4    1  0.1874565E+004  0.3181298E+02  0.7546771E-02  0.1404470E+00
         21   -1    0    0  501  502  0.00000000000E+00  0.00000000000E+00  0.40939965311E+01  0.40939965311E+01  0.00000000000E+00 0.  1.
         21   -1    0    0  502  503 -0.00000000000E+00 -0.00000000000E+00 -0.31380885663E+03  0.31380885663E+03  0.00000000000E+00 0. -1.
          2    1    1    2  501    0 -0.27070326622E+02 -0.16711161155E+02 -0.81629915989E+02  0.87609980453E+02  0.00000000000E+00 0. -1.
         -2    1    1    2    0  503  0.27070326622E+02  0.16711161155E+02 -0.22808494411E+03  0.23029287271E+03  0.00000000000E+00 0.  1.
</event>
<event>
 4    1  0.1874565E+004  0.2277585E+02  0.7546771E-02  0.1495332E+00
         21   -1    0    0  503  502  0.00000000000E+00  0.00000000000E+00  0.18835400225E+02  0.18835400225E+02  0.00000000000E+00 0. -1.
         21   -1    0    0  501  503 -0.00000000000E+00 -0.00000000000E+00 -0.32610876125E+02  0.32610876125E+02  0.00000000000E+00 0.  1.
          2    1    1    2  501    0  0.16753756287E+02 -0.15428900717E+02 -0.17030494782E+02  0.28439006304E+02  0.00000000000E+00 0.  1.
         -2    1    1    2    0  502 -0.16753756287E+02  0.15428900717E+02  0.32550188816E+01  0.23007270046E+02  0.00000000000E+00 0. -1.
</event>
<event>
 4    1  0.1874565E+004  0.2933665E+02  0.7546771E-02  0.1425450E+00
         21   -1    0    0  503  502  0.00000000000E+00  0.00000000000E+00  0.14341458425E+03  0.14341458425E+03  0.00000000000E+00 0.  1.
         21   -1    0    0  501  503 -0.00000000000E+00 -0.00000000000E+00 -0.92830473266E+01  0.92830473266E+01  0.00000000000E+00 0. -1.
          2    1    1    2  501    0 -0.22158689609E+02  0.19225809966E+02  0.21668933059E+02  0.36471659600E+02  0.00000000000E+00 0. -1.
         -2    1    1    2    0  502  0.22158689609E+02 -0.19225809966E+02  0.11246260386E+03  0.11622597197E+03  0.00000000000E+00 0.  1.
</event>
<event>
 4    1  0.1874565E+004  0.2452870E+02  0.7546771E-02  0.1474145E+00
         21   -1    0    0  503  502  0.00000000000E+00  0.00000000000E+00  0.45899846332E+03  0.45899846332E+03  0.00000000000E+00 0. -1.
         21   -1    0    0  501  503 -0.00000000000E+00 -0.00000000000E+00 -0.26208902437E+01  0.26208902437E+01  0.00000000000E+00 0.  1.
          2    1    1    2  501    0 -0.24300431529E+02 -0.33385811487E+01  0.65004058536E+02  0.69477944146E+02  0.00000000000E+00 0.  1.
         -2    1    1    2    0  502  0.24300431529E+02  0.33385811487E+01  0.39137351454E+03  0.39214140941E+03  0.00000000000E+00 0. -1.
</event>
<event>
 4    1  0.1874565E+004  0.2019948E+02  0.7546771E-02  0.1531008E+00
         21   -1    0    0  503  502  0.00000000000E+00  0.00000000000E+00  0.61449940323E+01  0.61449940323E+01  0.00000000000E+00 0. -1.
         21   -1    0    0  501  503 -0.00000000000E+00 -0.00000000000E+00 -0.10735781469E+03  0.10735781469E+03  0.00000000000E+00 0.  1.
          2    1    1    2  501    0  0.27438982055E+00 -0.20197612636E+02 -0.85660260482E+02  0.88009653287E+02  0.00000000000E+00 0.  1.
         -2    1    1    2    0  502 -0.27438982055E+00  0.20197612636E+02 -0.15552560174E+02  0.25493155433E+02  0.00000000000E+00 0. -1.
</event>
<event>
 4    1  0.1874565E+004  0.3308101E+02  0.7546771E-02  0.1394580E+00
         21   -1    0    0  503  502  0.00000000000E+00  0.00000000000E+00  0.11341260899E+03  0.11341260899E+03  0.00000000000E+00 0.  1.
         21   -1    0    0  501  503 -0.00000000000E+00 -0.00000000000E+00 -0.24829077917E+02  0.24829077917E+02  0.00000000000E+00 0. -1.
          2    1    1    2  501    0 -0.32514662757E+02  0.60950848458E+01 -0.97539545790E+01  0.34489027000E+02  0.00000000000E+00 0. -1.
         -2    1    1    2    0  502  0.32514662757E+02 -0.60950848458E+01  0.98337485657E+02  0.10375265991E+03  0.00000000000E+00 0.  1.
</event>
<event>
 4    1  0.1874565E+004  0.2409122E+02  0.7546771E-02  0.1479232E+00
         21   -1    0    0  503  502  0.00000000000E+00  0.00000000000E+00  0.10102559904E+02  0.10102559904E+02  0.00000000000E+00 0.  1.
         21   -1    0    0  501  503 -0.00000000000E+00 -0.00000000000E+00 -0.64892643548E+02  0.64892643548E+02  0.00000000000E+00 0. -1.
          2    1    1    2  501    0 -0.18179497339E+02  0.15808000794E+02 -0.40094464074E+02  0.46775560520E+02  0.00000000000E+00 0. -1.
         -2    1    1    2    0  502  0.18179497339E+02 -0.15808000794E+02 -0.14695619570E+02  0.28219642931E+02  0.00000000000E+00 0.  1.
</event>
<event>
 4    1  0.1874565E+004  0.2080978E+02  0.7546771E-02  0.1521998E+00
         21   -1    0    0  501  502  0.00000000000E+00  0.00000000000E+00  0.55774259289E+01  0.55774259289E+01  0.00000000000E+00 0.  1.
         21   -1    0    0  502  503 -0.00000000000E+00 -0.00000000000E+00 -0.10588193041E+03  0.10588193041E+03  0.00000000000E+00 0. -1.
          2    1    1    2  501    0 -0.20493792439E+02  0.36126710547E+01 -0.21371553628E+02  0.29829351739E+02  0.00000000000E+00 0.  1.
         -2    1    1    2    0  503  0.20493792439E+02 -0.36126710547E+01 -0.78932950849E+02  0.81630004597E+02  0.00000000000E+00 0. -1.
</event>
<event>
 4    1  0.1874565E+004  0.2160298E+02  0.7546771E-02  0.1510827E+00
         21   -1    0    0  503  502  0.00000000000E+00  0.00000000000E+00  0.14984608667E+03  0.14984608667E+03  0.00000000000E+00 0. -1.
         21   -1    0    0  501  503 -0.00000000000E+00 -0.00000000000E+00 -0.81916264638E+01  0.81916264638E+01  0.00000000000E+00 0.  1.
          2    1    1    2  501    0 -0.14951255374E+02  0.15593225038E+02  0.86177402250E+01  0.23258421076E+02  0.00000000000E+00 0.  1.
         -2    1    1    2    0  502  0.14951255374E+02 -0.15593225038E+02  0.13303671998E+03  0.13477929206E+03  0.00000000000E+00 0. -1.
</event>
<event>
 4    1  0.1874565E+004  0.2021051E+02  0.7546771E-02  0.1530842E+00
         21   -1    0    0  501  502  0.00000000000E+00  0.00000000000E+00  0.15203096037E+02  0.15203096037E+02  0.00000000000E+00 0. -1.
         21   -1    0    0  502  503 -0.00000000000E+00 -0.00000000000E+00 -0.26925736179E+02  0.26925736179E+02  0.00000000000E+00 0.  1.
          2    1    1    2  501    0 -0.10290711394E+01 -0.20184294955E+02 -0.68433992222E+01  0.21337686452E+02  0.00000000000E+00 0. -1.
         -2    1    1    2    0  503  0.10290711394E+01  0.20184294955E+02 -0.48792409199E+01  0.20791145764E+02  0.00000000000E+00 0.  1.
</event>
<event>
 4    1  0.1874565E+004  0.2099244E+02  0.7546771E-02  0.1519373E+00
         21   -1    0    0  503  502  0.00000000000E+00  0.00000000000E+00  0.17883335183E+02  0.17883335183E+02  0.00000000000E+00 0.  1.
         21   -1    0    0  501  503 -0.00000000000E+00 -0.00000000000E+00 -0.41267326995E+02  0.41267326995E+02  0.00000000000E+00 0. -1.
          2    1    1    2  501    0  0.14158520773E+02 -0.15499000123E+02 -0.30463989488E+02  0.36996450787E+02  0.00000000000E+00 0. -1.
         -2    1    1    2    0  502 -0.14158520773E+02  0.15499000123E+02  0.70799976756E+01  0.22154211392E+02  0.00000000000E+00 0.  1.
</event>
<event>
 4    1  0.1874565E+004  0.2089350E+02  0.7546771E-02  0.1520791E+00
         21   -1    0    0  503  502  0.00000000000E+00  0.00000000000E+00  0.58049390876E+01  0.58049390876E+01  0.00000000000E+00 0. -1.
         21   -1    0    0  501  503 -0.00000000000E+00 -0.00000000000E+00 -0.13308138593E+03  0.13308138593E+03  0.00000000000E+00 0.  1.
          2    1    1    2  501    0  0.20492964063E+02 -0.40714646373E+01 -0.10943509188E+03  0.11141174864E+03  0.00000000000E+00 0.  1.
         -2    1    1    2    0  502 -0.20492964063E+02  0.40714646373E+01 -0.17841354971E+02  0.27474576385E+02  0.00000000000E+00 0. -1.
</event>
<event>
 4    1  0.1874565E+004  0.2194503E+02  0.7546771E-02  0.1506188E+00
         21   -1    0    0  501  502  0.00000000000E+00  0.00000000000E+00  0.44819501715E+01  0.44819501715E+01  0.00000000000E+00 0. -1.
         21   -1    0    0  502  503 -0.00000000000E+00 -0.00000000000E+00 -0.12537932785E+03  0.12537932785E+03  0.00000000000E+00 0.  1.
          2    1    1    2  501    0 -0.12757842764E+02  0.17855587271E+02 -0.35894736574E+02  0.42071565962E+02  0.00000000000E+00 0. -1.
         -2    1    1    2    0  503  0.12757842764E+02 -0.17855587271E+02 -0.85002641104E+02  0.87789712059E+02  0.00000000000E+00 0.  1.
</event>
<event>
 4    1  0.1874565E+004  0.2335342E+02  0.7546771E-02  0.1488107E+00
         21   -1    0    0  501  502  0.00000000000E+00  0.00000000000E+00  0.99530135794E+02  0.99530135794E+02  0.00000000000E+00 0. -1.
         21   -1    0    0  502  503 -0.00000000000E+00 -0.00000000000E+00 -0.65747248877E+01  0.65747248877E+01  0.00000000000E+00 0.  1.
          2    1    1    2  501    0  0.22303396272E+02 -0.69239271077E+01  0.68130026211E+02  0.72021404620E+02  0.00000000000E+00 0. -1.
         -2    1    1    2    0  503 -0.22303396272E+02  0.69239271077E+01  0.24825384695E+02  0.34083456062E+02  0.00000000000E+00 0.  1.
</event>
<event>
 4    1  0.1874565E+004  0.2313225E+02  0.7546771E-02  0.1490844E+00
         21   -1    0    0  501  502  0.00000000000E+00  0.00000000000E+00  0.14662400211E+02  0.14662400211E+02  0.00000000000E+00 0.  1.
         21   -1    0    0  502  503 -0.00000000000E+00 -0.00000000000E+00 -0.88427716012E+02  0.88427716012E+02  0.00000000000E+00 0. -1.
          2    1    1    2  501    0  0.16998078231E+02  0.15689692177E+02  0.26189030765E+01  0.23280029156E+02  0.00000000000E+00 0.  1.
         -2    1    1    2    0  503 -0.16998078231E+02 -0.15689692177E+02 -0.76384218878E+02  0.79810087068E+02  0.00000000000E+00 0. -1.
</event>
<event>
 4    1  0.1874565E+004  0.2100569E+02  0.7546771E-02  0.1519183E+00
         21   -1    0    0  501  502  0.00000000000E+00  0.00000000000E+00  0.95933223950E+01  0.95933223950E+01  0.00000000000E+00 0.  1.
         21   -1    0    0  502  503 -0.00000000000E+00 -0.00000000000E+00 -0.46046337507E+02  0.46046337507E+02  0.00000000000E+00 0. -1.
          2    1    1    2  501    0  0.11273103443E+02 -0.17724456354E+02 -0.17292283687E+02  0.27207761565E+02  0.00000000000E+00 0. -1.
         -2    1    1    2    0  503 -0.11273103443E+02  0.17724456354E+02 -0.19160731424E+02  0.28431898336E+02  0.00000000000E+00 0.  1.
</event>
<event>
 4    1  0.1874565E+004  0.2150956E+02  0.7546771E-02  0.1512112E+00
         21   -1    0    0  503  502  0.00000000000E+00  0.00000000000E+00  0.74457578917E+00  0.74457578917E+00  0.00000000000E+00 0.  1.
         21   -1    0    0  501  503 -0.00000000000E+00 -0.00000000000E+00 -0.14847429400E+04  0.14847429400E+04  0.00000000000E+00 0. -1.
          2    1    1    2  501    0 -0.21473078133E+02 -0.12523025327E+01 -0.13083834010E+04  0.13085601956E+04  0.00000000000E+00 0. -1.
         -2    1    1    2    0  502  0.21473078133E+02  0.12523025327E+01 -0.17561496322E+03  0.17692732026E+03  0.00000000000E+00 0.  1.
</event>
<event>
 4    1  0.1874565E+004  0.2391658E+02  0.7546771E-02  0.1481299E+00
         21   -1    0    0  501  502  0.00000000000E+00  0.00000000000E+00  0.52829710722E+02  0.52829710722E+02  0.00000000000E+00 0.  1.
         21   -1    0    0  502  503 -0.00000000000E+00 -0.00000000000E+00 -0.11909723328E+02  0.11909723328E+02  0.00000000000E+00 0. -1.
          2    1    1    2  501    0 -0.14166282177E+02  0.19269645750E+02  0.30218602011E+02  0.38537860677E+02  0.00000000000E+00 0.  1.
         -2    1    1    2    0  503  0.14166282177E+02 -0.19269645750E+02  0.10701385383E+02  0.26201573373E+02  0.00000000000E+00 0. -1.
</event>
<event>
 4    1  0.1874565E+004  0.2749709E+02  0.7546771E-02  0.1442678E+00
         21   -1    0    0  503  502  0.00000000000E+00  0.00000000000E+00  0.55943304853E+02  0.55943304853E+02  0.00000000000E+00 0.  1.
         21   -1    0    0  501  503 -0.00000000000E+00 -0.00000000000E+00 -0.14903477654E+02  0.14903477654E+02  0.00000000000E+00 0. -1.
          2    1    1    2  501    0 -0.22377538507E+02 -0.15979222127E+02  0.97087851486E+01  0.29160766082E+02  0.00000000000E+00 0. -1.
         -2    1    1    2    0  502  0.22377538507E+02  0.15979222127E+02  0.31331042050E+02  0.41686016425E+02  0.00000000000E+00 0.  1.
</event>
<event>
 4    1  0.1874565E+004  0.2903602E+02  0.7546771E-02  0.1428162E+00
         21   -1    0    0  501  502  0.00000000000E+00  0.00000000000E+00  0.41054537503E+02  0.41054537503E+02  0.00000000000E+00 0.  1.
         21   -1    0    0  502  503 -0.00000000000E+00 -0.00000000000E+00 -0.24309961733E+02  0.24309961733E+02  0.00000000000E+00 0. -1.
          2    1    1    2  501    0  0.23891979929E+02  0.16500424530E+02  0.21249621098E+02  0.35981066013E+02  0.00000000000E+00 0. -1.
         -2    1    1    2    0  503 -0.23891979929E+02 -0.16500424530E+02 -0.45050453275E+01  0.29383433224E+02  0.00000000000E+00 0.  1.
</event>
<event>
 4    1  0.1874565E+004  0.4994155E+02  0.7546771E-02  0.1298426E+00
         21   -1    0    0  503  502  0.00000000000E+00  0.00000000000E+00  0.48854233400E+02  0.48854233400E+02  0.00000000000E+00 0. -1.
         21   -1    0    0  501  503 -0.00000000000E+00 -0.00000000000E+00 -0.11918454993E+03  0.11918454993E+03  0.00000000000E+00 0.  1.
          2    1    1    2  501    0  0.35397774633E+02 -0.35230043889E+02 -0.98689982756E+02  0.11060683133E+03  0.00000000000E+00 0.  1.
         -2    1    1    2    0  502 -0.35397774633E+02  0.35230043889E+02  0.28359666227E+02  0.57431951995E+02  0.00000000000E+00 0. -1.
</event>
<event>
 4    1  0.1874565E+004  0.2704597E+02  0.7546771E-02  0.1447147E+00
         21   -1    0    0  503  502  0.00000000000E+00  0.00000000000E+00  0.33753220278E+02  0.33753220278E+02  0.00000000000E+00 0.  1.
         21   -1    0    0  501  503 -0.00000000000E+00 -0.00000000000E+00 -0.40435161893E+02  0.40435161893E+02  0.00000000000E+00 0. -1.
          2    1    1    2  501    0  0.20483415512E+02  0.17661099641E+02 -0.28609762820E+02  0.39370081029E+02  0.00000000000E+00 0. -1.
         -2    1    1    2    0  502 -0.20483415512E+02 -0.17661099641E+02  0.21927821206E+02  0.34818301142E+02  0.00000000000E+00 0.  1.
</event>
<event>
 4    1  0.1874565E+004  0.2323961E+02  0.7546771E-02  0.1489511E+00
         21   -1    0    0  501  502  0.00000000000E+00  0.00000000000E+00  0.32329598645E+03  0.32329598645E+03  0.00000000000E+00 0.  1.
         21   -1    0    0  502  503 -0.00000000000E+00 -0.00000000000E+00 -0.29555095619E+01  0.29555095619E+01  0.00000000000E+00 0. -1.
          2    1    1    2  501    0 -0.22097140923E+02  0.71969232458E+01  0.26773066340E+03  0.26873739499E+03  0.00000000000E+00 0.  1.
         -2    1    1    2    0  503  0.22097140923E+02 -0.71969232458E+01  0.52609813492E+02  0.57514101026E+02  0.00000000000E+00 0. -1.
</event>
<event>
 4    1  0.1874565E+004  0.2482073E+02  0.7546771E-02  0.1470819E+00
         21   -1    0    0  503  502  0.00000000000E+00  0.00000000000E+00  0.39870561106E+01  0.39870561106E+01  0.00000000000E+00 0. -1.
         21   -1    0    0  501  503 -0.00000000000E+00 -0.00000000000E+00 -0.15470371559E+03  0.15470371559E+03  0.00000000000E+00 0.  1.
          2    1    1    2  501    0  0.24811514675E+02  0.67639145405E+00 -0.72603319570E+02  0.76728813222E+02  0.00000000000E+00 0.  1.
         -2    1    1    2    0  502 -0.24811514675E+02 -0.67639145405E+00 -0.78113339908E+02  0.81961958478E+02  0.00000000000E+00 0. -1.
</event>
<event>
 4    1  0.1874565E+004  0.2611276E+02  0.7546771E-02  0.1456730E+00
         21   -1    0    0  503  502  0.00000000000E+00  0.00000000000E+00  0.64609758306E+03  0.64609758306E+03  0.00000000000E+00 0. -1.
         21   -1    0    0  501  503 -0.00000000000E+00 -0.00000000000E+00 -0.10678844391E+01  0.10678844391E+01  0.00000000000E+00 0.  1.
          2    1    1    2  501    0 -0.26091987300E+02  0.10413895578E+01  0.28749504336E+03  0.28867849981E+03  0.00000000000E+00 0.  1.
         -2    1    1    2    0  502  0.26091987300E+02 -0.10413895578E+01  0.35753465526E+03  0.35848696770E+03  0.00000000000E+00 0. -1.
</event>
<event>
 4    1  0.1874565E+004  0.2677883E+02  0.7546771E-02  0.1449843E+00
         21   -1    0    0  501  502  0.00000000000E+00  0.00000000000E+00  0.51448960011E+01  0.51448960011E+01  0.00000000000E+00 0.  1.
         21   -1    0    0  502  503 -0.00000000000E+00 -0.00000000000E+00 -0.21768766171E+03  0.21768766171E+03  0.00000000000E+00 0. -1.
          2    1    1    2  501    0 -0.22385144667E+02  0.14697309051E+02 -0.39447995678E+02  0.47678611118E+02  0.00000000000E+00 0.  1.
         -2    1    1    2    0  503  0.22385144667E+02 -0.14697309051E+02 -0.17309477003E+03  0.17515394659E+03  0.00000000000E+00 0. -1.
</event>
<event>
 4    1  0.1874565E+004  0.2199805E+02  0.7546771E-02  0.1505478E+00
         21   -1    0    0  501  502  0.00000000000E+00  0.00000000000E+00  0.90181956697E+00  0.90181956697E+00  0.00000000000E+00 0.  1.
         21   -1    0    0  502  503 -0.00000000000E+00 -0.00000000000E+00 -0.12165507902E+04  0.12165507902E+04  0.00000000000E+00 0. -1.
          2    1    1    2  501    0  0.13195515995E+02 -0.17600919956E+02 -0.15273529304E+03  0.15431132092E+03  0.00000000000E+00 0.  1.
         -2    1    1    2    0  503 -0.13195515995E+02  0.17600919956E+02 -0.10629136776E+04  0.10631412889E+04  0.00000000000E+00 0. -1.
</event>
<event>
 4    1  0.1874565E+004  0.2107445E+02  0.7546771E-02  0.1518204E+00
         21   -1    0    0  503  502  0.00000000000E+00  0.00000000000E+00  0.23565546607E+01  0.23565546607E+01  0.00000000000E+00 0. -1.
         21   -1    0    0  501  503 -0.00000000000E+00 -0.00000000000E+00 -0.22858191537E+03  0.22858191537E+03  0.00000000000E+00 0.  1.
          2    1    1    2  501    0 -0.17689090076E+02  0.11455507759E+02 -0.64740150220E+02  0.68083915988E+02  0.00000000000E+00 0. -1.
         -2    1    1    2    0  502  0.17689090076E+02 -0.11455507759E+02 -0.16148521049E+03  0.16285455405E+03  0.00000000000E+00 0.  1.
</event>
<event>
 4    1  0.1874565E+004  0.2528936E+02  0.7546771E-02  0.1465592E+00
         21   -1    0    0  503  502  0.00000000000E+00  0.00000000000E+00  0.70391502515E+01  0.70391502515E+01  0.00000000000E+00 0.  1.
         21   -1    0    0  501  503 -0.00000000000E+00 -0.00000000000E+00 -0.91161354195E+02  0.91161354195E+02  0.00000000000E+00 0. -1.
          2    1    1    2  501    0 -0.62479271198E+01 -0.24505412098E+02 -0.39221226876E+02  0.46667509608E+02  0.00000000000E+00 0. -1.
         -2    1    1    2    0  502  0.62479271198E+01  0.24505412098E+02 -0.44900977068E+02  0.51532994839E+02  0.00000000000E+00 0.  1.
</event>
<event>
 4    1  0.1874565E+004  0.3283354E+02  0.7546771E-02  0.1396469E+00
         21   -1    0    0  501  502  0.00000000000E+00  0.00000000000E+00  0.64226905916E+02  0.64226905916E+02  0.00000000000E+00 0. -1.
         21   -1    0    0  502  503 -0.00000000000E+00 -0.00000000000E+00 -0.17886213034E+02  0.17886213034E+02  0.00000000000E+00 0.  1.
          2    1    1    2  501    0  0.31763372661E+02 -0.83144267828E+01  0.12982538208E+02  0.35307050767E+02  0.00000000000E+00 0.  1.
         -2    1    1    2    0  503 -0.31763372661E+02  0.83144267828E+01  0.33358154674E+02  0.46806068183E+02  0.00000000000E+00 0. -1.
</event>
<event>
 4    1  0.1874565E+004  0.2055411E+02  0.7546771E-02  0.1525727E+00
         21   -1    0    0  501  502  0.00000000000E+00  0.00000000000E+00  0.19072208532E+03  0.19072208532E+03  0.00000000000E+00 0.  1.
         21   -1    0    0  502  503 -0.00000000000E+00 -0.00000000000E+00 -0.50250171683E+01  0.50250171683E+01  0.00000000000E+00 0. -1.
          2    1    1    2  501    0 -0.10247667540E+02  0.17817310982E+02  0.16603692656E+03  0.16730431029E+03  0.00000000000E+00 0.  1.
         -2    1    1    2    0  503  0.10247667540E+02 -0.17817310982E+02  0.19660141598E+02  0.28442792203E+02  0.00000000000E+00 0. -1.
</event>
<event>
 4    1  0.1874565E+004  0.2201640E+02  0.7546771E-02  0.1505233E+00
         21   -1    0    0  503  502  0.00000000000E+00  0.00000000000E+00  0.16322226729E+02  0.16322226729E+02  0.00000000000E+00 0.  1.
         21   -1    0    0  501  503 -0.00000000000E+00 -0.00000000000E+00 -0.67828976833E+02  0.67828976833E+02  0.00000000000E+00 0. -1.
          2    1    1    2  501    0  0.17828571215E+02  0.12917579491E+02 -0.57301034105E+02  0.61385098525E+02  0.00000000000E+00 0. -1.
         -2    1    1    2    0  502 -0.17828571215E+02 -0.12917579491E+02  0.57942840012E+01  0.22766105037E+02  0.00000000000E+00 0.  1.
</event>
<event>
 4    1  0.1874565E+004  0.3820420E+02  0.7546771E-02  0.1359343E+00
         21   -1    0    0  501  502  0.00000000000E+00  0.00000000000E+00  0.38281753522E+03  0.38281753522E+03  0.00000000000E+00 0. -1.
         21   -1    0    0  502  503 -0.00000000000E+00 -0.00000000000E+00 -0.48753888487E+01  0.48753888487E+01  0.00000000000E+00 0.  1.
          2    1    1    2  501    0 -0.34439626976E+02 -0.16537021285E+02  0.27947351160E+03  0.28207269394E+03  0.00000000000E+00 0. -1.
         -2    1    1    2    0  503  0.34439626976E+02  0.16537021285E+02  0.98468634773E+02  0.10562023013E+03  0.00000000000E+00 0.  1.
</event>
<event>
 4    1  0.1874565E+004  0.6259030E+02  0.7546771E-02  0.1251277E+00
         21   -1    0    0  501  502  0.00000000000E+00  0.00000000000E+00  0.14763087496E+02  0.14763087496E+02  0.00000000000E+00 0. -1.
         21   -1    0    0  502  503 -0.00000000000E+00 -0.00000000000E+00 -0.71302085436E+03  0.71302085436E+03  0.00000000000E+00 0.  1.
          2    1    1    2  501    0 -0.15273445289E+02  0.60698163646E+02 -0.60795112090E+02  0.87255892953E+02  0.00000000000E+00 0. -1.
         -2    1    1    2    0  503  0.15273445289E+02 -0.60698163646E+02 -0.63746265478E+03  0.64052804891E+03  0.00000000000E+00 0.  1.
</event>
<event>
 4    1  0.1874565E+004  0.3233640E+02  0.7546771E-02  0.1400323E+00
         21   -1    0    0  503  502  0.00000000000E+00  0.00000000000E+00  0.73749882009E+02  0.73749882009E+02  0.00000000000E+00 0. -1.
         21   -1    0    0  501  503 -0.00000000000E+00 -0.00000000000E+00 -0.16858142726E+02  0.16858142726E+02  0.00000000000E+00 0.  1.
          2    1    1    2  501    0  0.23047173604E+02  0.22681938008E+02  0.10382763976E+02  0.33962395539E+02  0.00000000000E+00 0.  1.
         -2    1    1    2    0  502 -0.23047173604E+02 -0.22681938008E+02  0.46508975307E+02  0.56645629197E+02  0.00000000000E+00 0. -1.
</event>
<event>
 4    1  0.1874565E+004  0.2102145E+02  0.7546771E-02  0.1518959E+00
         21   -1    0    0  503  502  0.00000000000E+00  0.00000000000E+00  0.63603208956E+01  0.63603208956E+01  0.00000000000E+00 0. -1.
         21   -1    0    0  501  503 -0.00000000000E+00 -0.00000000000E+00 -0.12117881946E+03  0.12117881946E+03  0.00000000000E+00 0.  1.
          2    1    1    2  501    0 -0.48685200761E+01 -0.20449910588E+02 -0.99062560777E+02  0.10126841698E+03  0.00000000000E+00 0.  1.
         -2    1    1    2    0  502  0.48685200761E+01  0.20449910588E+02 -0.15755937784E+02  0.26270723368E+02  0.00000000000E+00 0. -1.
</event>
<event>
 4    1  0.1874565E+004  0.4296352E+02  0.7546771E-02  0.1331943E+00
         21   -1    0    0  503  502  0.00000000000E+00  0.00000000000E+00  0.51489321886E+03  0.51489321886E+03  0.00000000000E+00 0.  1.
         21   -1    0    0  501  503 -0.00000000000E+00 -0.00000000000E+00 -0.79185318086E+01  0.79185318086E+01  0.00000000000E+00 0. -1.
          2    1    1    2  501    0  0.16113875627E+02  0.39827218701E+02  0.60105045591E+02  0.73881532487E+02  0.00000000000E+00 0. -1.
         -2    1    1    2    0  502 -0.16113875627E+02 -0.39827218701E+02  0.44686964146E+03  0.44893021818E+03  0.00000000000E+00 0.  1.
</event>
<event>
 4    1  0.1874565E+004  0.3049001E+02  0.7546771E-02  0.1415385E+00
         21   -1    0    0  503  502  0.00000000000E+00  0.00000000000E+00  0.31130867557E+02  0.31130867557E+02  0.00000000000E+00 0. -1.
         21   -1    0    0  501  503 -0.00000000000E+00 -0.00000000000E+00 -0.69968875694E+02  0.69968875694E+02  0.00000000000E+00 0.  1.
          2    1    1    2  501    0  0.30067359825E+02 -0.50590964920E+01 -0.57690477156E+02  0.65252063099E+02  0.00000000000E+00 0.  1.
         -2    1    1    2    0  502 -0.30067359825E+02  0.50590964920E+01  0.18852469020E+02  0.35847680152E+02  0.00000000000E+00 0. -1.
</event>
<event>
 4    1  0.1874565E+004  0.6873453E+02  0.7546771E-02  0.1232733E+00
         21   -1    0    0  503  502  0.00000000000E+00  0.00000000000E+00  0.44198363104E+03  0.44198363104E+03  0.00000000000E+00 0.  1.
         21   -1    0    0  501  503 -0.00000000000E+00 -0.00000000000E+00 -0.57415753936E+02  0.57415753936E+02  0.00000000000E+00 0. -1.
          2    1    1    2  501    0  0.88428602596E+01 -0.68163327809E+02 -0.32976287840E+02  0.76235628122E+02  0.00000000000E+00 0. -1.
         -2    1    1    2    0  502 -0.88428602596E+01  0.68163327809E+02  0.41754416494E+03  0.42316375685E+03  0.00000000000E+00 0.  1.
</event>
<event>
 4    1  0.1874565E+004  0.2841511E+02  0.7546771E-02  0.1433888E+00
         21   -1    0    0  503  502  0.00000000000E+00  0.00000000000E+00  0.97567554097E+02  0.97567554097E+02  0.00000000000E+00 0. -1.
         21   -1    0    0  501  503 -0.00000000000E+00 -0.00000000000E+00 -0.19135565235E+02  0.19135565235E+02  0.00000000000E+00 0.  1.
          2    1    1    2  501    0  0.13592073869E+02 -0.24953441909E+02 -0.47430615684E+01  0.28808251738E+02  0.00000000000E+00 0.  1.
         -2    1    1    2    0  502 -0.13592073869E+02  0.24953441909E+02  0.83175050430E+02  0.87894867593E+02  0.00000000000E+00 0. -1.
</event>
<event>
 4    1  0.1874565E+004  0.2144912E+02  0.7546771E-02  0.1512948E+00
         21   -1    0    0  501  502  0.00000000000E+00  0.00000000000E+00  0.71897802278E+02  0.71897802278E+02  0.00000000000E+00 0.  1.
         21   -1    0    0  502  503 -0.00000000000E+00 -0.00000000000E+00 -0.71406010909E+01  0.71406010909E+01  0.00000000000E+00 0. -1.
          2    1    1    2  501    0 -0.15526382542E+02 -0.14798514837E+02  0.19641681183E+02  0.29083676451E+02  0.00000000000E+00 0. -1.
         -2    1    1    2    0  503  0.15526382542E+02  0.14798514837E+02  0.45115520003E+02  0.49954726917E+02  0.00000000000E+00 0.  1.
</event>
<event>
 4    1  0.1874565E+004  0.2100140E+02  0.7546771E-02  0.1519245E+00
         21   -1    0    0  501  502  0.00000000000E+00  0.00000000000E+00  0.38383040841E+01  0.38383040841E+01  0.00000000000E+00 0. -1.
         21   -1    0    0  502  503 -0.00000000000E+00 -0.00000000000E+00 -0.25847819816E+03  0.25847819816E+03  0.00000000000E+00 0.  1.
          2    1    1    2  501    0 -0.55890313973E+01 -0.20244051145E+02 -0.29570786399E+02  0.36269688267E+02  0.00000000000E+00 0. -1.
         -2    1    1    2    0  503  0.55890313973E+01  0.20244051145E+02 -0.22506910768E+03  0.22604681398E+03  0.00000000000E+00 0.  1.
</event>
<event>
 4    1  0.1874565E+004  0.2677714E+02  0.7546771E-02  0.1449860E+00
         21   -1    0    0  501  502  0.00000000000E+00  0.00000000000E+00  0.27931411152E+02  0.27931411152E+02  0.00000000000E+00 0. -1.
         21   -1    0    0  502  503 -0.00000000000E+00 -0.00000000000E+00 -0.78927188528E+02  0.78927188528E+02  0.00000000000E+00 0.  1.
          2    1    1    2  501    0  0.20417814713E+02  0.17324206128E+02  0.18390835462E+02  0.32484428648E+02  0.00000000000E+00 0. -1.
         -2    1    1    2    0  503 -0.20417814713E+02 -0.17324206128E+02 -0.69386612838E+02  0.74374171032E+02  0.00000000000E+00 0.  1.
</event>
<event>
 4    1  0.1874565E+004  0.2210327E+02  0.7546771E-02  0.1504076E+00
         21   -1    0    0  503  502  0.00000000000E+00  0.00000000000E+00  0.51448669002E+02  0.51448669002E+02  0.00000000000E+00 0. -1.
         21   -1    0    0  501  503 -0.00000000000E+00 -0.00000000000E+00 -0.12007500976E+02  0.12007500976E+02  0.00000000000E+00 0.  1.
          2    1    1    2  501    0  0.16048727408E+02  0.15198455314E+02  0.52099176877E+01  0.22708983633E+02  0.00000000000E+00 0.  1.
         -2    1    1    2    0  502 -0.16048727408E+02 -0.15198455314E+02  0.34231250338E+02  0.40747186345E+02  0.00000000000E+00 0. -1.
</event>
<event>
 4    1  0.1874565E+004  0.2477650E+02  0.7546771E-02  0.1471319E+00
         21   -1    0    0  501  502  0.00000000000E+00  0.00000000000E+00  0.13499527160E+02  0.13499527160E+02  0.00000000000E+00 0. -1.
         21   -1    0    0  502  503 -0.00000000000E+00 -0.00000000000E+00 -0.20910895818E+03  0.20910895818E+03  0.00000000000E+00 0.  1.
          2    1    1    2  501    0 -0.20365253725E+02 -0.14111394925E+02  0.65615877073E+00  0.24785188527E+02  0.00000000000E+00 0. -1.
         -2    1    1    2    0  503  0.20365253725E+02  0.14111394925E+02 -0.19626558979E+03  0.19782329681E+03  0.00000000000E+00 0.  1.
</event>
<event>
 4    1  0.1874565E+004  0.2082081E+02  0.7546771E-02  0.1521839E+00
         21   -1    0    0  503  502  0.00000000000E+00  0.00000000000E+00  0.13611621338E+02  0.13611621338E+02  0.00000000000E+00 0. -1.
         21   -1    0    0  501  503 -0.00000000000E+00 -0.00000000000E+00 -0.32089925313E+02  0.32089925313E+02  0.00000000000E+00 0.  1.
          2    1    1    2  501    0 -0.76282061952E+01 -0.19373086947E+02 -0.11222285464E+02  0.23652604902E+02  0.00000000000E+00 0.  1.
         -2    1    1    2    0  502  0.76282061952E+01  0.19373086947E+02 -0.72560185105E+01  0.22048941749E+02  0.00000000000E+00 0. -1.
</event>
<event>
 4    1  0.1874565E+004  0.2227672E+02  0.7546771E-02  0.1501786E+00
         21   -1    0    0  501  502  0.00000000000E+00  0.00000000000E+00  0.42711871447E+01  0.42711871447E+01  0.00000000000E+00 0.  1.
         21   -1    0    0  502  503 -0.00000000000E+00 -0.00000000000E+00 -0.13295257543E+03  0.13295257543E+03  0.00000000000E+00 0. -1.
          2    1    1    2  501    0 -0.13804186152E+02  0.17484189937E+02 -0.39975368869E+02  0.45763332148E+02  0.00000000000E+00 0. -1.
         -2    1    1    2    0  503  0.13804186152E+02 -0.17484189937E+02 -0.88706019411E+02  0.91460430422E+02  0.00000000000E+00 0.  1.
</event>
<event>
 4    1  0.1874565E+004  0.4707730E+02  0.7546771E-02  0.1311367E+00
         21   -1    0    0  503  502  0.00000000000E+00  0.00000000000E+00  0.73424978701E+02  0.73424978701E+02  0.00000000000E+00 0. -1.
         21   -1    0    0  501  503 -0.00000000000E+00 -0.00000000000E+00 -0.46849072308E+02  0.46849072308E+02  0.00000000000E+00 0.  1.
          2    1    1    2  501    0 -0.26029333930E+02  0.39226857699E+02 -0.22578855289E+02  0.52211850149E+02  0.00000000000E+00 0.  1.
         -2    1    1    2    0  502  0.26029333930E+02 -0.39226857699E+02  0.49154761683E+02  0.68062200860E+02  0.00000000000E+00 0. -1.
</event>
<event>
 4    1  0.1874565E+004  0.2224267E+02  0.7546771E-02  0.1502233E+00
         21   -1    0    0  503  502  0.00000000000E+00  0.00000000000E+00  0.33286833881E+03  0.33286833881E+03  0.00000000000E+00 0. -1.
         21   -1    0    0  501  503 -0.00000000000E+00 -0.00000000000E+00 -0.41497020190E+01  0.41497020190E+01  0.00000000000E+00 0.  1.
          2    1    1    2  501    0 -0.29219589548E+01 -0.22049906037E+02  0.29359080863E+02  0.36833297836E+02  0.00000000000E+00 0.  1.
         -2    1    1    2    0  502  0.29219589548E+01  0.22049906037E+02  0.29935955593E+03  0.30018474299E+03  0.00000000000E+00 0. -1.
</event>
<event>
 4    1  0.1874565E+004  0.2917485E+02  0.7546771E-02  0.1426905E+00
         21   -1    0    0  501  502  0.00000000000E+00  0.00000000000E+00  0.43660489188E+02  0.43660489188E+02  0.00000000000E+00 0. -1.
         21   -1    0    0  502  503 -0.00000000000E+00 -0.00000000000E+00 -0.28085715823E+02  0.28085715823E+02  0.00000000000E+00 0.  1.
          2    1    1    2  501    0  0.22708740690E+02 -0.18316249205E+02  0.27627068346E+02  0.40179930239E+02  0.00000000000E+00 0. -1.
         -2    1    1    2    0  503 -0.22708740690E+02  0.18316249205E+02 -0.12052294982E+02  0.31566274772E+02  0.00000000000E+00 0.  1.
</event>
<event>
 4    1  0.1874565E+004  0.2607268E+02  0.7546771E-02  0.1457152E+00
         21   -1    0    0  501  502  0.00000000000E+00  0.00000000000E+00  0.41024019014E+03  0.41024019014E+03  0.00000000000E+00 0. -1.
         21   -1    0    0  502  503 -0.00000000000E+00 -0.00000000000E+00 -0.30153754017E+02  0.30153754017E+02  0.00000000000E+00 0.  1.
          2    1    1    2  501    0  0.24572368582E+02 -0.87168394500E+01  0.40410445835E+03  0.40494468493E+03  0.00000000000E+00 0. -1.
         -2    1    1    2    0  503 -0.24572368582E+02  0.87168394500E+01 -0.24018022235E+02  0.35449259228E+02  0.00000000000E+00 0.  1.
</event>
<event>
 4    1  0.1874565E+004  0.2663186E+02  0.7546771E-02  0.1451342E+00
         21   -1    0    0  503  502  0.00000000000E+00  0.00000000000E+00  0.12242276708E+03  0.12242276708E+03  0.00000000000E+00 0.  1.
         21   -1    0    0  501  503 -0.00000000000E+00 -0.00000000000E+00 -0.75936723970E+01  0.75936723970E+01  0.00000000000E+00 0. -1.
          2    1    1    2  501    0  0.18642237739E+01  0.26566537195E+02  0.25762670681E+02  0.37053629099E+02  0.00000000000E+00 0. -1.
         -2    1    1    2    0  502 -0.18642237739E+01 -0.26566537195E+02  0.89066423999E+02  0.92962810374E+02  0.00000000000E+00 0.  1.
</event>
<event>
 4    1  0.1874565E+004  0.5704889E+02  0.7546771E-02  0.1270203E+00
         21   -1    0    0  503  502  0.00000000000E+00  0.00000000000E+00  0.14275519788E+02  0.14275519788E+02  0.00000000000E+00 0. -1.
         21   -1    0    0  501  503 -0.00000000000E+00 -0.00000000000E+00 -0.39362866153E+03  0.39362866153E+03  0.00000000000E+00 0.  1.
          2    1    1    2  501    0 -0.38615139334E+02  0.41993408456E+02 -0.32198115208E+03  0.32699608199E+03  0.00000000000E+00 0.  1.
         -2    1    1    2    0  502  0.38615139334E+02 -0.41993408456E+02 -0.57371989658E+02  0.80908099328E+02  0.00000000000E+00 0. -1.
</event>
<event>
 4    1  0.1874565E+004  0.2062088E+02  0.7546771E-02  0.1524747E+00
         21   -1    0    0  503  502  0.00000000000E+00  0.00000000000E+00  0.13142953664E+02  0.13142953664E+02  0.00000000000E+00 0.  1.
         21   -1    0    0  501  503 -0.00000000000E+00 -0.00000000000E+00 -0.36432209526E+02  0.36432209526E+02  0.00000000000E+00 0. -1.
          2    1    1    2  501    0  0.14726994340E+02  0.14433864845E+02 -0.33508631297E+01  0.20891364254E+02  0.00000000000E+00 0.  1.
         -2    1    1    2    0  502 -0.14726994340E+02 -0.14433864845E+02 -0.19938392732E+02  0.28683798936E+02  0.00000000000E+00 0. -1.
</event>
<event>
 4    1  0.1874565E+004  0.3400844E+02  0.7546771E-02  0.1387671E+00
         21   -1    0    0  503  502  0.00000000000E+00  0.00000000000E+00  0.60172866252E+02  0.60172866252E+02  0.00000000000E+00 0.  1.
         21   -1    0    0  501  503 -0.00000000000E+00 -0.00000000000E+00 -0.19609390677E+02  0.19609390677E+02  0.00000000000E+00 0. -1.
          2    1    1    2  501    0  0.22799623043E+02 -0.25233932585E+02  0.14666636276E+02  0.37036257698E+02  0.00000000000E+00 0. -1.
         -2    1    1    2    0  502 -0.22799623043E+02  0.25233932585E+02  0.25896839299E+02  0.42745999231E+02  0.00000000000E+00 0.  1.
</event>
<event>
 4    1  0.1874565E+004  0.2161782E+02  0.7546771E-02  0.1510624E+00
         21   -1    0    0  501  502  0.00000000000E+00  0.00000000000E+00  0.77625888694E+03  0.77625888694E+03  0.00000000000E+00 0. -1.
         21   -1    0    0  502  503 -0.00000000000E+00 -0.00000000000E+00 -0.81271953360E+00  0.81271953360E+00  0.00000000000E+00 0.  1.
          2    1    1    2  501    0  0.94382919799E+01 -0.19448623894E+02  0.58554903062E+03  0.58594794785E+03  0.00000000000E+00 0. -1.
         -2    1    1    2    0  503 -0.94382919799E+01  0.19448623894E+02  0.18989713678E+03  0.19112365862E+03  0.00000000000E+00 0.  1.
</event>
<event>
 4    1  0.1874565E+004  0.2076119E+02  0.7546771E-02  0.1522702E+00
         21   -1    0    0  501  502  0.00000000000E+00  0.00000000000E+00  0.24601398840E+02  0.24601398840E+02  0.00000000000E+00 0.  1.
         21   -1    0    0  502  503 -0.00000000000E+00 -0.00000000000E+00 -0.52319618972E+02  0.52319618972E+02  0.00000000000E+00 0. -1.
          2    1    1    2  501    0 -0.18147789556E+02  0.10083877173E+02  0.17507483946E+02  0.27157666298E+02  0.00000000000E+00 0.  1.
         -2    1    1    2    0  503  0.18147789556E+02 -0.10083877173E+02 -0.45225704078E+02  0.49763351515E+02  0.00000000000E+00 0. -1.
</event>
<event>
 4    1  0.1874565E+004  0.2898825E+02  0.7546771E-02  0.1428597E+00
         21   -1    0    0  503  502  0.00000000000E+00  0.00000000000E+00  0.35334568041E+02  0.35334568041E+02  0.00000000000E+00 0. -1.
         21   -1    0    0  501  503 -0.00000000000E+00 -0.00000000000E+00 -0.29658836874E+02  0.29658836874E+02  0.00000000000E+00 0.  1.
          2    1    1    2  501    0  0.17911306473E+02  0.22792622596E+02 -0.11627938520E+02  0.31233435587E+02  0.00000000000E+00 0.  1.
         -2    1    1    2    0  502 -0.17911306473E+02 -0.22792622596E+02  0.17303669687E+02  0.33759969328E+02  0.00000000000E+00 0. -1.
</event>
<event>
 4    1  0.1874565E+004  0.2707423E+02  0.7546771E-02  0.1446864E+00
         21   -1    0    0  501  502  0.00000000000E+00  0.00000000000E+00  0.89987862545E+00  0.89987862545E+00  0.00000000000E+00 0. -1.
         21   -1    0    0  502  503 -0.00000000000E+00 -0.00000000000E+00 -0.13329184530E+04  0.13329184530E+04  0.00000000000E+00 0.  1.
          2    1    1    2  501    0 -0.12686105966E+02  0.23918126932E+02 -0.25012182926E+03  0.25158287611E+03  0.00000000000E+00 0. -1.
         -2    1    1    2    0  503  0.12686105966E+02 -0.23918126932E+02 -0.10818967451E+04  0.10822354555E+04  0.00000000000E+00 0.  1.
</event>
<event>
 4    1  0.1874565E+004  0.2297124E+02  0.7546771E-02  0.1492860E+00
         21   -1    0    0  501  502  0.00000000000E+00  0.00000000000E+00  0.46780962729E+02  0.46780962729E+02  0.00000000000E+00 0.  1.
         21   -1    0    0  502  503 -0.00000000000E+00 -0.00000000000E+00 -0.16013583147E+02  0.16013583147E+02  0.00000000000E+00 0. -1.
          2    1    1    2  501    0 -0.19928543023E+02 -0.11425021572E+02 -0.16871060623E+01  0.23033112508E+02  0.00000000000E+00 0. -1.
         -2    1    1    2    0  503  0.19928543023E+02  0.11425021572E+02  0.32454485645E+02  0.39761433367E+02  0.00000000000E+00 0.  1.
</event>
<event>
 4    1  0.1874565E+004  0.2213789E+02  0.7546771E-02  0.1503617E+00
         21   -1    0    0  503  502  0.00000000000E+00  0.00000000000E+00  0.67795773535E+02  0.67795773535E+02  0.00000000000E+00 0. -1.
         21   -1    0    0  501  503 -0.00000000000E+00 -0.00000000000E+00 -0.11857696102E+02  0.11857696102E+02  0.00000000000E+00 0.  1.
          2    1    1    2  501    0 -0.11031366541E+02  0.19193622880E+02  0.30855991969E+01  0.22351893196E+02  0.00000000000E+00 0.  1.
         -2    1    1    2    0  502  0.11031366541E+02 -0.19193622880E+02  0.52852478236E+02  0.57301576442E+02  0.00000000000E+00 0. -1.
</event>
<event>
 4    1  0.1874565E+004  0.2480148E+02  0.7546771E-02  0.1471037E+00
         21   -1    0    0  501  502  0.00000000000E+00  0.00000000000E+00  0.20411950499E+03  0.20411950499E+03  0.00000000000E+00 0. -1.
         21   -1    0    0  502  503 -0.00000000000E+00 -0.00000000000E+00 -0.20359058159E+02  0.20359058159E+02  0.00000000000E+00 0.  1.
          2    1    1    2  501    0  0.22334010362E+02 -0.10784498013E+02  0.19548033426E+03  0.19704739151E+03  0.00000000000E+00 0. -1.
         -2    1    1    2    0  503 -0.22334010362E+02  0.10784498013E+02 -0.11719887431E+02  0.27431171642E+02  0.00000000000E+00 0.  1.
</event>
<event>
 4    1  0.1874565E+004  0.2233877E+02  0.7546771E-02  0.1500972E+00
         21   -1    0    0  503  502  0.00000000000E+00  0.00000000000E+00  0.25484971970E+02  0.25484971970E+02  0.00000000000E+00 0. -1.
         21   -1    0    0  501  503 -0.00000000000E+00 -0.00000000000E+00 -0.42021076161E+02  0.42021076161E+02  0.00000000000E+00 0.  1.
          2    1    1    2  501    0  0.10775578388E+01  0.22312766503E+02 -0.32933640395E+02  0.39795041772E+02  0.00000000000E+00 0.  1.
         -2    1    1    2    0  502 -0.10775578388E+01 -0.22312766503E+02  0.16397536205E+02  0.27711006360E+02  0.00000000000E+00 0. -1.
</event>
<event>
 4    1  0.1874565E+004  0.3110279E+02  0.7546771E-02  0.1410249E+00
         21   -1    0    0  503  502  0.00000000000E+00  0.00000000000E+00  0.34552777347E+01  0.34552777347E+01  0.00000000000E+00 0.  1.
         21   -1    0    0  501  503 -0.00000000000E+00 -0.00000000000E+00 -0.28531319658E+03  0.28531319658E+03  0.00000000000E+00 0. -1.
          2    1    1    2  501    0 -0.24623723267E+02  0.19001464531E+02 -0.12117518532E+03  0.12510319316E+03  0.00000000000E+00 0. -1.
         -2    1    1    2    0  502  0.24623723267E+02 -0.19001464531E+02 -0.16068273352E+03  0.16366528115E+03  0.00000000000E+00 0.  1.
</event>
<event>
 4    1  0.1874565E+004  0.3581614E+02  0.7546771E-02  0.1374915E+00
         21   -1    0    0  503  502  0.00000000000E+00  0.00000000000E+00  0.45170940438E+03  0.45170940438E+03  0.00000000000E+00 0. -1.
         21   -1    0    0  501  503 -0.00000000000E+00 -0.00000000000E+00 -0.15599686524E+02  0.15599686524E+02  0.00000000000E+00 0.  1.
          2    1    1    2  501    0 -0.41379736611E+01 -0.35576303330E+02  0.67358789152E+01  0.36444042715E+02  0.00000000000E+00 0.  1.
         -2    1    1    2    0  502  0.41379736611E+01  0.35576303330E+02  0.42937383894E+03  0.43086504819E+03  0.00000000000E+00 0. -1.
</event>
<event>
 4    1  0.1874565E+004  0.2524128E+02  0.7546771E-02  0.1466122E+00
         21   -1    0    0  501  502  0.00000000000E+00  0.00000000000E+00  0.49212230997E+01  0.49212230997E+01  0.00000000000E+00 0. -1.
         21   -1    0    0  502  503 -0.00000000000E+00 -0.00000000000E+00 -0.16563706816E+03  0.16563706816E+03  0.00000000000E+00 0.  1.
          2    1    1    2  501    0  0.18584854413E+02 -0.17079970149E+02 -0.40505422773E+02  0.47726423162E+02  0.00000000000E+00 0. -1.
         -2    1    1    2    0  503 -0.18584854413E+02  0.17079970149E+02 -0.12021042228E+03  0.12283186809E+03  0.00000000000E+00 0.  1.
</event>
<event>
 4    1  0.1874565E+004  0.2102710E+02  0.7546771E-02  0.1518878E+00
         21   -1    0    0  501  502  0.00000000000E+00  0.00000000000E+00  0.21895763014E+03  0.21895763014E+03  0.00000000000E+00 0.  1.
         21   -1    0    0  502  503 -0.00000000000E+00 -0.00000000000E+00 -0.27093386759E+01  0.27093386759E+01  0.00000000000E+00 0. -1.
          2    1    1    2  501    0 -0.15279221180E+02 -0.14445906936E+02  0.16405859714E+03  0.16540061101E+03  0.00000000000E+00 0.  1.
         -2    1    1    2    0  503  0.15279221180E+02  0.14445906936E+02  0.52189694328E+02  0.56266357810E+02  0.00000000000E+00 0. -1.
</event>
<event>
 4    1  0.1874565E+004  0.2499658E+02  0.7546771E-02  0.1468842E+00
         21   -1    0    0  503  502  0.00000000000E+00  0.00000000000E+00  0.48247267267E+02  0.48247267267E+02  0.00000000000E+00 0.  1.
         21   -1    0    0  501  503 -0.00000000000E+00 -0.00000000000E+00 -0.18395491409E+02  0.18395491409E+02  0.00000000000E+00 0. -1.
          2    1    1    2  501    0 -0.22302211121E+02  0.11288952950E+02 -0.32026809799E+01  0.25200917544E+02  0.00000000000E+00 0. -1.
         -2    1    1    2    0  502  0.22302211121E+02 -0.11288952950E+02  0.33054456838E+02  0.41441841132E+02  0.00000000000E+00 0.  1.
</event>
<event>
 4    1  0.1874565E+004  0.2198958E+02  0.7546771E-02  0.1505591E+00
         21   -1    0    0  503  502  0.00000000000E+00  0.00000000000E+00  0.12686028765E+02  0.12686028765E+02  0.00000000000E+00 0. -1.
         21   -1    0    0  501  503 -0.00000000000E+00 -0.00000000000E+00 -0.11223272821E+03  0.11223272821E+03  0.00000000000E+00 0.  1.
          2    1    1    2  501    0  0.10137491427E+02  0.19513403972E+02  0.98363196830E+00  0.22011569659E+02  0.00000000000E+00 0. -1.
         -2    1    1    2    0  502 -0.10137491427E+02 -0.19513403972E+02 -0.10053033141E+03  0.10290718731E+03  0.00000000000E+00 0.  1.
</event>
<event>
 4    1  0.1874565E+004  0.3105710E+02  0.7546771E-02  0.1410627E+00
         21   -1    0    0  503  502  0.00000000000E+00  0.00000000000E+00  0.57992681335E+03  0.57992681335E+03  0.00000000000E+00 0. -1.
         21   -1    0    0  501  503 -0.00000000000E+00 -0.00000000000E+00 -0.20963095366E+01  0.20963095366E+01  0.00000000000E+00 0.  1.
          2    1    1    2  501    0 -0.13336721534E+02 -0.28047734150E+02  0.42118892357E+03  0.42233239619E+03  0.00000000000E+00 0. -1.
         -2    1    1    2    0  502  0.13336721534E+02  0.28047734150E+02  0.15664158024E+03  0.15969072669E+03  0.00000000000E+00 0.  1.
</event>
<event>
 4    1  0.1874565E+004  0.2326901E+02  0.7546771E-02  0.1489148E+00
         21   -1    0    0  501  502  0.00000000000E+00  0.00000000000E+00  0.15979402666E+04  0.15979402666E+04  0.00000000000E+00 0.  1.
         21   -1    0    0  502  503 -0.00000000000E+00 -0.00000000000E+00 -0.10798559504E+01  0.10798559504E+01  0.00000000000E+00 0. -1.
          2    1    1    2  501    0 -0.22559435813E+02 -0.57025010057E+01  0.14607301091E+04  0.14609154316E+04  0.00000000000E+00 0.  1.
         -2    1    1    2    0  503  0.22559435813E+02  0.57025010057E+01  0.13613030155E+03  0.13810469095E+03  0.00000000000E+00 0. -1.
</event>
<event>
 4    1  0.1874565E+004  0.3429709E+02  0.7546771E-02  0.1385573E+00
         21   -1    0    0  503  502  0.00000000000E+00  0.00000000000E+00  0.41582361138E+01  0.41582361138E+01  0.00000000000E+00 0.  1.
         21   -1    0    0  501  503 -0.00000000000E+00 -0.00000000000E+00 -0.34973446448E+03  0.34973446448E+03  0.00000000000E+00 0. -1.
          2    1    1    2  501    0  0.98336340287E+01 -0.32857113529E+02 -0.25015070600E+03  0.25249092257E+03  0.00000000000E+00 0.  1.
         -2    1    1    2    0  502 -0.98336340287E+01  0.32857113529E+02 -0.95425522365E+02  0.10140177802E+03  0.00000000000E+00 0. -1.
</event>
<event>
 4    1  0.1874565E+004  0.2189755E+02  0.7546771E-02  0.1506826E+00
         21   -1    0    0  503  502  0.00000000000E+00  0.00000000000E+00  0.11522892253E+03  0.11522892253E+03  0.00000000000E+00 0. -1.
         21   -1    0    0  501  503 -0.00000000000E+00 -0.00000000000E+00 -0.50278275148E+01  0.50278275148E+01  0.00000000000E+00 0.  1.
          2    1    1    2  501    0 -0.85708666053E+01  0.20150510727E+02  0.30138575524E+02  0.37253678631E+02  0.00000000000E+00 0. -1.
         -2    1    1    2    0  502  0.85708666053E+01 -0.20150510727E+02  0.80062519494E+02  0.83003071417E+02  0.00000000000E+00 0.  1.
</event>
<event>
 4    1  0.1874565E+004  0.2350091E+02  0.7546771E-02  0.1486302E+00
         21   -1    0    0  503  502  0.00000000000E+00  0.00000000000E+00  0.10684405107E+01  0.10684405107E+01  0.00000000000E+00 0.  1.
         21   -1    0    0  501  503 -0.00000000000E+00 -0.00000000000E+00 -0.52777867689E+03  0.52777867689E+03  0.00000000000E+00 0. -1.
          2    1    1    2  501    0 -0.22684110678E+02 -0.61419631390E+01 -0.22541759520E+03  0.22663932760E+03  0.00000000000E+00 0.  1.
         -2    1    1    2    0  502  0.22684110678E+02  0.61419631390E+01 -0.30129264118E+03  0.30220778980E+03  0.00000000000E+00 0. -1.
</event>
<event>
 4    1  0.1874565E+004  0.2239402E+02  0.7546771E-02  0.1500251E+00
         21   -1    0    0  503  502  0.00000000000E+00  0.00000000000E+00  0.14924657391E+01  0.14924657391E+01  0.00000000000E+00 0.  1.
         21   -1    0    0  501  503 -0.00000000000E+00 -0.00000000000E+00 -0.35478396040E+03  0.35478396040E+03  0.00000000000E+00 0. -1.
          2    1    1    2  501    0 -0.22390672988E+02 -0.38694483148E+00 -0.21761771100E+03  0.21876690816E+03  0.00000000000E+00 0. -1.
         -2    1    1    2    0  502  0.22390672988E+02  0.38694483148E+00 -0.13567378366E+03  0.13750951798E+03  0.00000000000E+00 0.  1.
</event>
<event>
 4    1  0.1874565E+004  0.2248464E+02  0.7546771E-02  0.1499073E+00
         21   -1    0    0  501  502  0.00000000000E+00  0.00000000000E+00  0.92234865749E+03  0.92234865749E+03  0.00000000000E+00 0. -1.
         21   -1    0    0  502  503 -0.00000000000E+00 -0.00000000000E+00 -0.10375668815E+01  0.10375668815E+01  0.00000000000E+00 0.  1.
          2    1    1    2  501    0 -0.22171029600E+02 -0.37422513268E+01  0.14355460812E+03  0.14530479865E+03  0.00000000000E+00 0.  1.
         -2    1    1    2    0  503  0.22171029600E+02  0.37422513268E+01  0.77775648249E+03  0.77808142572E+03  0.00000000000E+00 0. -1.
</event>
<event>
 4    1  0.1874565E+004  0.2005674E+02  0.7546771E-02  0.1533170E+00
         21   -1    0    0  501  502  0.00000000000E+00  0.00000000000E+00  0.10006626417E+03  0.10006626417E+03  0.00000000000E+00 0. -1.
         21   -1    0    0  502  503 -0.00000000000E+00 -0.00000000000E+00 -0.61166597518E+01  0.61166597518E+01  0.00000000000E+00 0.  1.
          2    1    1    2  501    0  0.11420166734E+02  0.16487952821E+02  0.78057940683E+02  0.80593516490E+02  0.00000000000E+00 0. -1.
         -2    1    1    2    0  503 -0.11420166734E+02 -0.16487952821E+02  0.15891663735E+02  0.25589407432E+02  0.00000000000E+00 0.  1.
</event>
<event>
 4    1  0.1874565E+004  0.2997321E+02  0.7546771E-02  0.1419829E+00
         21   -1    0    0  503  502  0.00000000000E+00  0.00000000000E+00  0.83565282304E+02  0.83565282304E+02  0.00000000000E+00 0. -1.
         21   -1    0    0  501  503 -0.00000000000E+00 -0.00000000000E+00 -0.15398111891E+02  0.15398111891E+02  0.00000000000E+00 0.  1.
          2    1    1    2  501    0  0.28588282901E+02 -0.90057460780E+01  0.68996764634E+01  0.30757095392E+02  0.00000000000E+00 0.  1.
         -2    1    1    2    0  502 -0.28588282901E+02  0.90057460780E+01  0.61267493950E+02  0.68206298804E+02  0.00000000000E+00 0. -1.
</event>
<event>
 4    1  0.1874565E+004  0.2923817E+02  0.7546771E-02  0.1426334E+00
         21   -1    0    0  503  502  0.00000000000E+00  0.00000000000E+00  0.11282130574E+03  0.11282130574E+03  0.00000000000E+00 0. -1.
         21   -1    0    0  501  503 -0.00000000000E+00 -0.00000000000E+00 -0.27376351666E+02  0.27376351666E+02  0.00000000000E+00 0.  1.
          2    1    1    2  501    0 -0.21229320501E+01 -0.29161001239E+02 -0.16891232458E+02  0.33766619133E+02  0.00000000000E+00 0.  1.
         -2    1    1    2    0  502  0.21229320501E+01  0.29161001239E+02  0.10233618653E+03  0.10643103827E+03  0.00000000000E+00 0. -1.
</event>
<event>
 4    1  0.1874565E+004  0.2420957E+02  0.7546771E-02  0.1477844E+00
         21   -1    0    0  503  502  0.00000000000E+00  0.00000000000E+00  0.22553297896E+03  0.22553297896E+03  0.00000000000E+00 0. -1.
         21   -1    0    0  501  503 -0.00000000000E+00 -0.00000000000E+00 -0.88520727935E+01  0.88520727935E+01  0.00000000000E+00 0.  1.
          2    1    1    2  501    0  0.14815194756E+02 -0.19147146749E+02  0.98411986369E+01  0.26133358278E+02  0.00000000000E+00 0.  1.
         -2    1    1    2    0  502 -0.14815194756E+02  0.19147146749E+02  0.20683970753E+03  0.20825169348E+03  0.00000000000E+00 0. -1.
</event>
<event>
 4    1  0.1874565E+004  0.2846338E+02  0.7546771E-02  0.1433437E+00
         21   -1    0    0  501  502  0.00000000000E+00  0.00000000000E+00  0.17204154255E+03  0.17204154255E+03  0.00000000000E+00 0.  1.
         21   -1    0    0  502  503 -0.00000000000E+00 -0.00000000000E+00 -0.10814714759E+02  0.10814714759E+02  0.00000000000E+00 0. -1.
          2    1    1    2  501    0 -0.60196770853E+01  0.27819552636E+02  0.14931018666E+03  0.15199899954E+03  0.00000000000E+00 0.  1.
         -2    1    1    2    0  503  0.60196770853E+01 -0.27819552636E+02  0.11916641130E+02  0.30857257767E+02  0.00000000000E+00 0. -1.
</event>
<event>
 4    1  0.1874565E+004  0.2795458E+02  0.7546771E-02  0.1438248E+00
         21   -1    0    0  503  502  0.00000000000E+00  0.00000000000E+00  0.10152998285E+02  0.10152998285E+02  0.00000000000E+00 0. -1.
         21   -1    0    0  501  503 -0.00000000000E+00 -0.00000000000E+00 -0.79598302163E+02  0.79598302163E+02  0.00000000000E+00 0.  1.
          2    1    1    2  501    0  0.47393289941E+01  0.27549906110E+02 -0.26565461904E+02  0.38564003062E+02  0.00000000000E+00 0.  1.
         -2    1    1    2    0  502 -0.47393289941E+01 -0.27549906110E+02 -0.42879841975E+02  0.51187297387E+02  0.00000000000E+00 0. -1.
</event>
<event>
 4    1  0.1874565E+004  0.2688561E+02  0.7546771E-02  0.1448761E+00
         21   -1    0    0  503  502  0.00000000000E+00  0.00000000000E+00  0.40456667485E+02  0.40456667485E+02  0.00000000000E+00 0. -1.
         21   -1    0    0  501  503 -0.00000000000E+00 -0.00000000000E+00 -0.24688877108E+02  0.24688877108E+02  0.00000000000E+00 0.  1.
          2    1    1    2  501    0  0.28428335724E+01  0.26734894035E+02  0.25006048177E+02  0.36717008419E+02  0.00000000000E+00 0. -1.
         -2    1    1    2    0  502 -0.28428335724E+01 -0.26734894035E+02 -0.92382578003E+01  0.28428536174E+02  0.00000000000E+00 0.  1.
</event>
<event>
 4    1  0.1874565E+004  0.4721334E+02  0.7546771E-02  0.1310729E+00
         21   -1    0    0  501  502  0.00000000000E+00  0.00000000000E+00  0.46367489209E+02  0.46367489209E+02  0.00000000000E+00 0. -1.
         21   -1    0    0  502  503 -0.00000000000E+00 -0.00000000000E+00 -0.49086883997E+02  0.49086883997E+02  0.00000000000E+00 0.  1.
          2    1    1    2  501    0  0.43519489564E+02 -0.18307194873E+02  0.54940850155E+01  0.47531929544E+02  0.00000000000E+00 0.  1.
         -2    1    1    2    0  503 -0.43519489564E+02  0.18307194873E+02 -0.82134798036E+01  0.47922443662E+02  0.00000000000E+00 0. -1.
</event>
<event>
 4    1  0.1874565E+004  0.2364602E+02  0.7546771E-02  0.1484541E+00
         21   -1    0    0  503  502  0.00000000000E+00  0.00000000000E+00  0.18339272618E+02  0.18339272618E+02  0.00000000000E+00 0.  1.
         21   -1    0    0  501  503 -0.00000000000E+00 -0.00000000000E+00 -0.10381415344E+03  0.10381415344E+03  0.00000000000E+00 0. -1.
          2    1    1    2  501    0  0.23617596806E+02  0.11591436488E+01 -0.94067968810E+02  0.96994418648E+02  0.00000000000E+00 0. -1.
         -2    1    1    2    0  502 -0.23617596806E+02 -0.11591436488E+01  0.85930879854E+01  0.25159007413E+02  0.00000000000E+00 0.  1.
</event>
<event>
 4    1  0.1874565E+004  0.2655648E+02  0.7546771E-02  0.1452115E+00
         21   -1    0    0  501  502  0.00000000000E+00  0.00000000000E+00  0.16922116687E+03  0.16922116687E+03  0.00000000000E+00 0. -1.
         21   -1    0    0  502  503 -0.00000000000E+00 -0.00000000000E+00 -0.82918252133E+01  0.82918252133E+01  0.00000000000E+00 0.  1.
          2    1    1    2  501    0  0.13219345449E+02  0.23032490250E+02  0.14306059987E+03  0.14550457703E+03  0.00000000000E+00 0. -1.
         -2    1    1    2    0  503 -0.13219345449E+02 -0.23032490250E+02  0.17868741786E+02  0.32008415053E+02  0.00000000000E+00 0.  1.
</event>
<event>
 4    1  0.1874565E+004  0.2195538E+02  0.7546771E-02  0.1506049E+00
         21   -1    0    0  501  502  0.00000000000E+00  0.00000000000E+00  0.87625291769E+03  0.87625291769E+03  0.00000000000E+00 0.  1.
         21   -1    0    0  502  503 -0.00000000000E+00 -0.00000000000E+00 -0.12742102983E+01  0.12742102983E+01  0.00000000000E+00 0. -1.
          2    1    1    2  501    0  0.21951378086E+02  0.41892261015E+00  0.76824581391E+03  0.76855947661E+03  0.00000000000E+00 0.  1.
         -2    1    1    2    0  503 -0.21951378086E+02 -0.41892261015E+00  0.10673289348E+03  0.10896765138E+03  0.00000000000E+00 0. -1.
</event>
<event>
 4    1  0.1874565E+004  0.2248832E+02  0.7546771E-02  0.1499025E+00
         21   -1    0    0  501  502  0.00000000000E+00  0.00000000000E+00  0.14066444751E+01  0.14066444751E+01  0.00000000000E+00 0.  1.
         21   -1    0    0  502  503 -0.00000000000E+00 -0.00000000000E+00 -0.62173327592E+03  0.62173327592E+03  0.00000000000E+00 0. -1.
          2    1    1    2  501    0  0.15882093882E+02  0.15921163045E+02 -0.51250084168E+03  0.51299399320E+03  0.00000000000E+00 0. -1.
         -2    1    1    2    0  503 -0.15882093882E+02 -0.15921163045E+02 -0.10782578976E+03  0.11014592719E+03  0.00000000000E+00 0.  1.
</event>
<event>
 4    1  0.1874565E+004  0.2126273E+02  0.7546771E-02  0.1515547E+00
         21   -1    0    0  503  502  0.00000000000E+00  0.00000000000E+00  0.81917696353E+00  0.81917696353E+00  0.00000000000E+00 0.  1.
         21   -1    0    0  501  503 -0.00000000000E+00 -0.00000000000E+00 -0.86761861624E+03  0.86761861624E+03  0.00000000000E+00 0. -1.
          2    1    1    2  501    0  0.71306324845E+01  0.20031424518E+02 -0.69533517106E+03  0.69566019291E+03  0.00000000000E+00 0. -1.
         -2    1    1    2    0  502 -0.71306324845E+01 -0.20031424518E+02 -0.17146426822E+03  0.17277760030E+03  0.00000000000E+00 0.  1.
</event>
<event>
 4    1  0.1874565E+004  0.2456530E+02  0.7546771E-02  0.1473725E+00
         21   -1    0    0  501  502  0.00000000000E+00  0.00000000000E+00  0.18992307063E+02  0.18992307063E+02  0.00000000000E+00 0.  1.
         21   -1    0    0  502  503 -0.00000000000E+00 -0.00000000000E+00 -0.74319229743E+02  0.74319229743E+02  0.00000000000E+00 0. -1.
          2    1    1    2  501    0 -0.20156299357E+02  0.14041999217E+02  0.76371459522E+01  0.25725087835E+02  0.00000000000E+00 0.  1.
         -2    1    1    2    0  503  0.20156299357E+02 -0.14041999217E+02 -0.62964068633E+02  0.67586448972E+02  0.00000000000E+00 0. -1.
</event>
<event>
 4    1  0.1874565E+004  0.2978296E+02  0.7546771E-02  0.1421492E+00
         21   -1    0    0  503  502  0.00000000000E+00  0.00000000000E+00  0.11654648248E+01  0.11654648248E+01  0.00000000000E+00 0.  1.
         21   -1    0    0  501  503 -0.00000000000E+00 -0.00000000000E+00 -0.82992427227E+03  0.82992427227E+03  0.00000000000E+00 0. -1.
          2    1    1    2  501    0  0.14448390010E+02  0.26043589231E+02 -0.53405308292E+03  0.53488290297E+03  0.00000000000E+00 0. -1.
         -2    1    1    2    0  502 -0.14448390010E+02 -0.26043589231E+02 -0.29470572453E+03  0.29620683413E+03  0.00000000000E+00 0.  1.
</event>
<event>
 4    1  0.1874565E+004  0.3997923E+02  0.7546771E-02  0.1348608E+00
         21   -1    0    0  501  502  0.00000000000E+00  0.00000000000E+00  0.41741510239E+03  0.41741510239E+03  0.00000000000E+00 0. -1.
         21   -1    0    0  502  503 -0.00000000000E+00 -0.00000000000E+00 -0.64045718982E+01  0.64045718982E+01  0.00000000000E+00 0.  1.
          2    1    1    2  501    0 -0.38954729635E+02 -0.89926427148E+01  0.33988431355E+03  0.34222753422E+03  0.00000000000E+00 0. -1.
         -2    1    1    2    0  503  0.38954729635E+02  0.89926427148E+01  0.71126216949E+02  0.81592140071E+02  0.00000000000E+00 0.  1.
</event>
<event>
 4    1  0.1874565E+004  0.2872899E+02  0.7546771E-02  0.1430973E+00
         21   -1    0    0  501  502  0.00000000000E+00  0.00000000000E+00  0.12997756903E+03  0.12997756903E+03  0.00000000000E+00 0.  1.
         21   -1    0    0  502  503 -0.00000000000E+00 -0.00000000000E+00 -0.76292137272E+01  0.76292137272E+01  0.00000000000E+00 0. -1.
          2    1    1    2  501    0  0.27747805784E+02 -0.74440590478E+01  0.89347962675E+02  0.93853146857E+02  0.00000000000E+00 0.  1.
         -2    1    1    2    0  503 -0.27747805784E+02  0.74440590478E+01  0.33000392631E+02  0.43753635903E+02  0.00000000000E+00 0. -1.
</event>
<event>
 4    1  0.1874565E+004  0.2180104E+02  0.7546771E-02  0.1508128E+00
         21   -1    0    0  501  502  0.00000000000E+00  0.00000000000E+00  0.28178338110E+03  0.28178338110E+03  0.00000000000E+00 0. -1.
         21   -1    0    0  502  503 -0.00000000000E+00 -0.00000000000E+00 -0.36096399169E+01  0.36096399169E+01  0.00000000000E+00 0.  1.
          2    1    1    2  501    0 -0.10463288347E+02 -0.19126028719E+02  0.24323793905E+03  0.24421298158E+03  0.00000000000E+00 0. -1.
         -2    1    1    2    0  503  0.10463288347E+02  0.19126028719E+02  0.34935802133E+02  0.41180039440E+02  0.00000000000E+00 0.  1.
</event>
<event>
 4    1  0.1874565E+004  0.2345374E+02  0.7546771E-02  0.1486878E+00
         21   -1    0    0  501  502  0.00000000000E+00  0.00000000000E+00  0.19802526401E+03  0.19802526401E+03  0.00000000000E+00 0.  1.
         21   -1    0    0  502  503 -0.00000000000E+00 -0.00000000000E+00 -0.43577901119E+01  0.43577901119E+01  0.00000000000E+00 0. -1.
          2    1    1    2  501    0  0.88025827528E+01 -0.21739190130E+02  0.15776440063E+03  0.15949822556E+03  0.00000000000E+00 0.  1.
         -2    1    1    2    0  503 -0.88025827528E+01  0.21739190130E+02  0.35903073266E+02  0.42884828559E+02  0.00000000000E+00 0. -1.
</event>
<event>
 4    1  0.1874565E+004  0.5136902E+02  0.7546771E-02  0.1292344E+00
         21   -1    0    0  501  502  0.00000000000E+00  0.00000000000E+00  0.77650438285E+01  0.77650438285E+01  0.00000000000E+00 0. -1.
         21   -1    0    0  502  503 -0.00000000000E+00 -0.00000000000E+00 -0.34954267893E+03  0.34954267893E+03  0.00000000000E+00 0.  1.
          2    1    1    2  501    0 -0.42559461638E+02  0.28765742346E+02 -0.14110455102E+03  0.15016414361E+03  0.00000000000E+00 0. -1.
         -2    1    1    2    0  503  0.42559461638E+02 -0.28765742346E+02 -0.20067308408E+03  0.20714357915E+03  0.00000000000E+00 0.  1.
</event>
<event>
 4    1  0.1874565E+004  0.2670406E+02  0.7546771E-02  0.1450604E+00
         21   -1    0    0  501  502  0.00000000000E+00  0.00000000000E+00  0.15861664368E+01  0.15861664368E+01  0.00000000000E+00 0. -1.
         21   -1    0    0  502  503 -0.00000000000E+00 -0.00000000000E+00 -0.10951343592E+04  0.10951343592E+04  0.00000000000E+00 0.  1.
          2    1    1    2  501    0  0.25136829601E+02 -0.90136874144E+01 -0.12575761761E+03  0.12856160060E+03  0.00000000000E+00 0. -1.
         -2    1    1    2    0  503 -0.25136829601E+02  0.90136874144E+01 -0.96779057515E+03  0.96815892502E+03  0.00000000000E+00 0.  1.
</event>
<event>
 4    1  0.1874565E+004  0.2575067E+02  0.7546771E-02  0.1460578E+00
         21   -1    0    0  501  502  0.00000000000E+00  0.00000000000E+00  0.75011891667E+02  0.75011891667E+02  0.00000000000E+00 0. -1.
         21   -1    0    0  502  503 -0.00000000000E+00 -0.00000000000E+00 -0.90633976244E+01  0.90633976244E+01  0.00000000000E+00 0.  1.
          2    1    1    2  501    0  0.10550641342E+02  0.23490017278E+02  0.39575677872E+02  0.47215794216E+02  0.00000000000E+00 0. -1.
         -2    1    1    2    0  503 -0.10550641342E+02 -0.23490017278E+02  0.26372816171E+02  0.36859495076E+02  0.00000000000E+00 0.  1.
</event>
<event>
 4    1  0.1874565E+004  0.2291748E+02  0.7546771E-02  0.1493537E+00
         21   -1    0    0  503  502  0.00000000000E+00  0.00000000000E+00  0.15306836436E+02  0.15306836436E+02  0.00000000000E+00 0. -1.
         21   -1    0    0  501  503 -0.00000000000E+00 -0.00000000000E+00 -0.34774911798E+02  0.34774911798E+02  0.00000000000E+00 0.  1.
          2    1    1    2  501    0  0.12297877289E+02 -0.19338383878E+02 -0.12622606224E+02  0.26163735680E+02  0.00000000000E+00 0. -1.
         -2    1    1    2    0  502 -0.12297877289E+02  0.19338383878E+02 -0.68454691380E+01  0.23918012554E+02  0.00000000000E+00 0.  1.
</event>
<event>
 4    1  0.1874565E+004  0.2271402E+02  0.7546771E-02  0.1496121E+00
         21   -1    0    0  501  502  0.00000000000E+00  0.00000000000E+00  0.26106767279E+01  0.26106767279E+01  0.00000000000E+00 0. -1.
         21   -1    0    0  502  503 -0.00000000000E+00 -0.00000000000E+00 -0.20015833598E+03  0.20015833598E+03  0.00000000000E+00 0.  1.
          2    1    1    2  501    0  0.13317698253E+00 -0.22713625318E+02 -0.87360580523E+02  0.90265151307E+02  0.00000000000E+00 0.  1.
         -2    1    1    2    0  503 -0.13317698253E+00  0.22713625318E+02 -0.11018707873E+03  0.11250386140E+03  0.00000000000E+00 0. -1.
</event>
<event>
 4    1  0.1874565E+004  0.2348690E+02  0.7546771E-02  0.1486473E+00
         21   -1    0    0  501  502  0.00000000000E+00  0.00000000000E+00  0.23632212190E+02  0.23632212190E+02  0.00000000000E+00 0.  1.
         21   -1    0    0  502  503 -0.00000000000E+00 -0.00000000000E+00 -0.34801588325E+02  0.34801588325E+02  0.00000000000E+00 0. -1.
          2    1    1    2  501    0 -0.99378921369E+01  0.21280804615E+02  0.11180564255E+02  0.26012292522E+02  0.00000000000E+00 0.  1.
         -2    1    1    2    0  503  0.99378921369E+01 -0.21280804615E+02 -0.22349940390E+02  0.32421507994E+02  0.00000000000E+00 0. -1.
</event>
<event>
 4    1  0.1874565E+004  0.2135737E+02  0.7546771E-02  0.1514223E+00
         21   -1    0    0  501  502  0.00000000000E+00  0.00000000000E+00  0.61833729773E+03  0.61833729773E+03  0.00000000000E+00 0. -1.
         21   -1    0    0  502  503 -0.00000000000E+00 -0.00000000000E+00 -0.16007940808E+01  0.16007940808E+01  0.00000000000E+00 0.  1.
          2    1    1    2  501    0  0.15966832985E+02 -0.14184414409E+02  0.53597427604E+03  0.53639962895E+03  0.00000000000E+00 0. -1.
         -2    1    1    2    0  503 -0.15966832985E+02  0.14184414409E+02  0.80762227608E+02  0.83538462854E+02  0.00000000000E+00 0.  1.
</event>
<event>
 4    1  0.1874565E+004  0.3163886E+02  0.7546771E-02  0.1405870E+00
         21   -1    0    0  501  502  0.00000000000E+00  0.00000000000E+00  0.41267875808E+03  0.41267875808E+03  0.00000000000E+00 0. -1.
         21   -1    0    0  502  503 -0.00000000000E+00 -0.00000000000E+00 -0.52749867212E+01  0.52749867212E+01  0.00000000000E+00 0.  1.
          2    1    1    2  501    0 -0.27938045408E+01 -0.31515271790E+02  0.35729041664E+03  0.35868852717E+03  0.00000000000E+00 0. -1.
         -2    1    1    2    0  503  0.27938045408E+01  0.31515271790E+02  0.50113354717E+02  0.59265217630E+02  0.00000000000E+00 0.  1.
</event>
<event>
 4    1  0.1874565E+004  0.2380042E+02  0.7546771E-02  0.1482685E+00
         21   -1    0    0  503  502  0.00000000000E+00  0.00000000000E+00  0.15313969682E+02  0.15313969682E+02  0.00000000000E+00 0.  1.
         21   -1    0    0  501  503 -0.00000000000E+00 -0.00000000000E+00 -0.40024983515E+02  0.40024983515E+02  0.00000000000E+00 0. -1.
          2    1    1    2  501    0 -0.84882391109E+01 -0.22235328625E+02 -0.19975082825E+02  0.31071916196E+02  0.00000000000E+00 0. -1.
         -2    1    1    2    0  502  0.84882391109E+01  0.22235328625E+02 -0.47359310081E+01  0.24267037000E+02  0.00000000000E+00 0.  1.
</event>
<event>
 4    1  0.1874565E+004  0.3002924E+02  0.7546771E-02  0.1419343E+00
         21   -1    0    0  503  502  0.00000000000E+00  0.00000000000E+00  0.16605485460E+04  0.16605485460E+04  0.00000000000E+00 0.  1.
         21   -1    0    0  501  503 -0.00000000000E+00 -0.00000000000E+00 -0.54364013691E+00  0.54364013691E+00  0.00000000000E+00 0. -1.
          2    1    1    2  501    0  0.12881542954E+02 -0.27126027412E+02  0.80256319517E+03  0.80312479587E+03  0.00000000000E+00 0. -1.
         -2    1    1    2    0  502 -0.12881542954E+02  0.27126027412E+02  0.85744171074E+03  0.85796739031E+03  0.00000000000E+00 0.  1.
</event>
<event>
 4    1  0.1874565E+004  0.2111665E+02  0.7546771E-02  0.1517606E+00
         21   -1    0    0  501  502  0.00000000000E+00  0.00000000000E+00  0.21505997931E+02  0.21505997931E+02  0.00000000000E+00 0. -1.
         21   -1    0    0  502  503 -0.00000000000E+00 -0.00000000000E+00 -0.49117610782E+02  0.49117610782E+02  0.00000000000E+00 0.  1.
          2    1    1    2  501    0  0.98240530620E+00 -0.21093786535E+02  0.13037277828E+02  0.24817001505E+02  0.00000000000E+00 0. -1.
         -2    1    1    2    0  503 -0.98240530620E+00  0.21093786535E+02 -0.40648890678E+02  0.45806607208E+02  0.00000000000E+00 0.  1.
</event>
<event>
 4    1  0.1874565E+004  0.2540861E+02  0.7546771E-02  0.1464284E+00
         21   -1    0    0  501  502  0.00000000000E+00  0.00000000000E+00  0.24779210040E+01  0.24779210040E+01  0.00000000000E+00 0.  1.
         21   -1    0    0  502  503 -0.00000000000E+00 -0.00000000000E+00 -0.48150296500E+03  0.48150296500E+03  0.00000000000E+00 0. -1.
          2    1    1    2  501    0 -0.25305865052E+02 -0.22827105641E+01 -0.40344253081E+03  0.40424184993E+03  0.00000000000E+00 0. -1.
         -2    1    1    2    0  503  0.25305865052E+02  0.22827105641E+01 -0.75582513190E+02  0.79739036072E+02  0.00000000000E+00 0.  1.
</event>
<event>
 4    1  0.1874565E+004  0.4819332E+02  0.7546771E-02  0.1306201E+00
         21   -1    0    0  501  502  0.00000000000E+00  0.00000000000E+00  0.21516993955E+01  0.21516993955E+01  0.00000000000E+00 0.  1.
         21   -1    0    0  502  503 -0.00000000000E+00 -0.00000000000E+00 -0.14797219495E+04  0.14797219495E+04  0.00000000000E+00 0. -1.
          2    1    1    2  501    0 -0.38791409193E+02 -0.28597601745E+02 -0.35341083939E+03  0.35668167552E+03  0.00000000000E+00 0.  1.
         -2    1    1    2    0  503  0.38791409193E+02  0.28597601745E+02 -0.11241594107E+04  0.11251919734E+04  0.00000000000E+00 0. -1.
</event>
<event>
 4    1  0.1874565E+004  0.2069481E+02  0.7546771E-02  0.1523667E+00
         21   -1    0    0  503  502  0.00000000000E+00  0.00000000000E+00  0.62253105637E+02  0.62253105637E+02  0.00000000000E+00 0. -1.
         21   -1    0    0  501  503 -0.00000000000E+00 -0.00000000000E+00 -0.14716197967E+02  0.14716197967E+02  0.00000000000E+00 0.  1.
          2    1    1    2  501    0  0.18013838757E+02 -0.10187087174E+02 -0.43152334216E+01  0.21139923636E+02  0.00000000000E+00 0.  1.
         -2    1    1    2    0  502 -0.18013838757E+02  0.10187087174E+02  0.51852141092E+02  0.55829379968E+02  0.00000000000E+00 0. -1.
</event>
<event>
 4    1  0.1874565E+004  0.2386787E+02  0.7546771E-02  0.1481879E+00
         21   -1    0    0  503  502  0.00000000000E+00  0.00000000000E+00  0.72534185455E+02  0.72534185455E+02  0.00000000000E+00 0. -1.
         21   -1    0    0  501  503 -0.00000000000E+00 -0.00000000000E+00 -0.78543235534E+01  0.78543235534E+01  0.00000000000E+00 0.  1.
          2    1    1    2  501    0 -0.23802734138E+02  0.17620845693E+01  0.32640543604E+02  0.40436124706E+02  0.00000000000E+00 0.  1.
         -2    1    1    2    0  502  0.23802734138E+02 -0.17620845693E+01  0.32039318297E+02  0.39952384302E+02  0.00000000000E+00 0. -1.
</event>
<event>
 4    1  0.1874565E+004  0.3622429E+02  0.7546771E-02  0.1372155E+00
         21   -1    0    0  501  502  0.00000000000E+00  0.00000000000E+00  0.12816071564E+02  0.12816071564E+02  0.00000000000E+00 0.  1.
         21   -1    0    0  502  503 -0.00000000000E+00 -0.00000000000E+00 -0.20825946285E+03  0.20825946285E+03  0.00000000000E+00 0. -1.
          2    1    1    2  501    0 -0.55726291882E+01 -0.35793081249E+02 -0.18908331605E+02  0.40862254777E+02  0.00000000000E+00 0.  1.
         -2    1    1    2    0  503  0.55726291882E+01  0.35793081249E+02 -0.17653505968E+03  0.18021327964E+03  0.00000000000E+00 0. -1.
</event>
<event>
 4    1  0.1874565E+004  0.2252488E+02  0.7546771E-02  0.1498552E+00
         21   -1    0    0  503  502  0.00000000000E+00  0.00000000000E+00  0.23920684592E+02  0.23920684592E+02  0.00000000000E+00 0. -1.
         21   -1    0    0  501  503 -0.00000000000E+00 -0.00000000000E+00 -0.26153267667E+02  0.26153267667E+02  0.00000000000E+00 0.  1.
          2    1    1    2  501    0 -0.10171794092E+02 -0.20097385892E+02 -0.12000649835E+02  0.25522263051E+02  0.00000000000E+00 0.  1.
         -2    1    1    2    0  502  0.10171794092E+02  0.20097385892E+02  0.97680667609E+01  0.24551689209E+02  0.00000000000E+00 0. -1.
</event>
<event>
 4    1  0.1874565E+004  0.2028066E+02  0.7546771E-02  0.1529788E+00
         21   -1    0    0  501  502  0.00000000000E+00  0.00000000000E+00  0.22888637046E+03  0.22888637046E+03  0.00000000000E+00 0. -1.
         21   -1    0    0  502  503 -0.00000000000E+00 -0.00000000000E+00 -0.31598796117E+01  0.31598796117E+01  0.00000000000E+00 0.  1.
          2    1    1    2  501    0  0.12670403516E+02  0.15835593383E+02  0.18906072195E+03  0.19014536999E+03  0.00000000000E+00 0. -1.
         -2    1    1    2    0  503 -0.12670403516E+02 -0.15835593383E+02  0.36665768902E+02  0.41900880089E+02  0.00000000000E+00 0.  1.
</event>
<event>
 4    1  0.1874565E+004  0.2645079E+02  0.7546771E-02  0.1453204E+00
         21   -1    0    0  503  502  0.00000000000E+00  0.00000000000E+00  0.61056039560E+02  0.61056039560E+02  0.00000000000E+00 0.  1.
         21   -1    0    0  501  503 -0.00000000000E+00 -0.00000000000E+00 -0.12856083795E+02  0.12856083795E+02  0.00000000000E+00 0. -1.
          2    1    1    2  501    0 -0.67348795215E+01 -0.25579004382E+02  0.36282442412E+02  0.44900553390E+02  0.00000000000E+00 0.  1.
         -2    1    1    2    0  502  0.67348795215E+01  0.25579004382E+02  0.11917513353E+02  0.29011569966E+02  0.00000000000E+00 0. -1.
</event>
<event>
 4    1  0.1874565E+004  0.3270430E+02  0.7546771E-02  0.1397463E+00
         21   -1    0    0  501  502  0.00000000000E+00  0.00000000000E+00  0.65286293102E+02  0.65286293102E+02  0.00000000000E+00 0. -1.
         21   -1    0    0  502  503 -0.00000000000E+00 -0.00000000000E+00 -0.49706460488E+02  0.49706460488E+02  0.00000000000E+00 0.  1.
          2    1    1    2  501    0 -0.32637442577E+02  0.20901124566E+01  0.54867104363E+02  0.63874645746E+02  0.00000000000E+00 0. -1.
         -2    1    1    2    0  503  0.32637442577E+02 -0.20901124566E+01 -0.39287271749E+02  0.51118107844E+02  0.00000000000E+00 0.  1.
</event>
<event>
 4    1  0.1874565E+004  0.2501406E+02  0.7546771E-02  0.1468646E+00
         21   -1    0    0  503  502  0.00000000000E+00  0.00000000000E+00  0.21878618410E+03  0.21878618410E+03  0.00000000000E+00 0. -1.
         21   -1    0    0  501  503 -0.00000000000E+00 -0.00000000000E+00 -0.50468700735E+01  0.50468700735E+01  0.00000000000E+00 0.  1.
          2    1    1    2  501    0  0.19998128408E+02 -0.15025920417E+02  0.33197051788E+02  0.41566184232E+02  0.00000000000E+00 0.  1.
         -2    1    1    2    0  502 -0.19998128408E+02  0.15025920417E+02  0.18054226224E+03  0.18226686995E+03  0.00000000000E+00 0. -1.
</event>
<event>
 4    1  0.1874565E+004  0.2222265E+02  0.7546771E-02  0.1502497E+00
         21   -1    0    0  501  502  0.00000000000E+00  0.00000000000E+00  0.35346424451E+02  0.35346424451E+02  0.00000000000E+00 0. -1.
         21   -1    0    0  502  503 -0.00000000000E+00 -0.00000000000E+00 -0.15953150669E+02  0.15953150669E+02  0.00000000000E+00 0.  1.
          2    1    1    2  501    0  0.73286308638E+01 -0.20979449597E+02  0.18736524503E+02  0.29067223572E+02  0.00000000000E+00 0. -1.
         -2    1    1    2    0  503 -0.73286308638E+01  0.20979449597E+02  0.65674927924E+00  0.22232351548E+02  0.00000000000E+00 0.  1.
</event>
<event>
 4    1  0.1874565E+004  0.5804558E+02  0.7546771E-02  0.1266622E+00
         21   -1    0    0  501  502  0.00000000000E+00  0.00000000000E+00  0.21998215430E+03  0.21998215430E+03  0.00000000000E+00 0.  1.
         21   -1    0    0  502  503 -0.00000000000E+00 -0.00000000000E+00 -0.20213888152E+02  0.20213888152E+02  0.00000000000E+00 0. -1.
          2    1    1    2  501    0  0.57091963423E+02  0.10478406664E+02  0.15900036781E+03  0.16926430887E+03  0.00000000000E+00 0.  1.
         -2    1    1    2    0  503 -0.57091963423E+02 -0.10478406664E+02  0.40767898336E+02  0.70931733578E+02  0.00000000000E+00 0. -1.
</event>
<event>
 4    1  0.1874565E+004  0.2872066E+02  0.7546771E-02  0.1431049E+00
         21   -1    0    0  501  502  0.00000000000E+00  0.00000000000E+00  0.45027820478E+02  0.45027820478E+02  0.00000000000E+00 0. -1.
         21   -1    0    0  502  503 -0.00000000000E+00 -0.00000000000E+00 -0.41097789930E+02  0.41097789930E+02  0.00000000000E+00 0.  1.
          2    1    1    2  501    0  0.28710435428E+02  0.76636090813E+00  0.34024454135E+02  0.44525721675E+02  0.00000000000E+00 0. -1.
         -2    1    1    2    0  503 -0.28710435428E+02 -0.76636090813E+00 -0.30094423587E+02  0.41599888733E+02  0.00000000000E+00 0.  1.
</event>
<event>
 4    1  0.1874565E+004  0.4147893E+02  0.7546771E-02  0.1340031E+00
         21   -1    0    0  503  502  0.00000000000E+00  0.00000000000E+00  0.29000251842E+03  0.29000251842E+03  0.00000000000E+00 0. -1.
         21   -1    0    0  501  503 -0.00000000000E+00 -0.00000000000E+00 -0.63207385491E+01  0.63207385491E+01  0.00000000000E+00 0.  1.
          2    1    1    2  501    0  0.41557439740E+01  0.41270225705E+02  0.10513109663E+03  0.11301791547E+03  0.00000000000E+00 0.  1.
         -2    1    1    2    0  502 -0.41557439740E+01 -0.41270225705E+02  0.17855068324E+03  0.18330534151E+03  0.00000000000E+00 0. -1.
</event>
<event>
 4    1  0.1874565E+004  0.1143627E+03  0.7546771E-02  0.1141010E+00
         21   -1    0    0  501  502  0.00000000000E+00  0.00000000000E+00  0.82095168981E+02  0.82095168981E+02  0.00000000000E+00 0. -1.
         21   -1    0    0  502  503 -0.00000000000E+00 -0.00000000000E+00 -0.46060286952E+03  0.46060286952E+03  0.00000000000E+00 0.  1.
          2    1    1    2  501    0 -0.10622843768E+03 -0.42359753673E+02  0.30207063580E+02  0.11828481049E+03  0.00000000000E+00 0. -1.
         -2    1    1    2    0  503  0.10622843768E+03  0.42359753673E+02 -0.40871476412E+03  0.42441322801E+03  0.00000000000E+00 0.  1.
</event>
<event>
 4    1  0.1874565E+004  0.2071902E+02  0.7546771E-02  0.1523315E+00
         21   -1    0    0  501  502  0.00000000000E+00  0.00000000000E+00  0.51764114712E+01  0.51764114712E+01  0.00000000000E+00 0. -1.
         21   -1    0    0  502  503 -0.00000000000E+00 -0.00000000000E+00 -0.10006753768E+03  0.10006753768E+03  0.00000000000E+00 0.  1.
          2    1    1    2  501    0 -0.19503716750E+02  0.69916388385E+01 -0.25668505180E+02  0.32987120803E+02  0.00000000000E+00 0. -1.
         -2    1    1    2    0  503  0.19503716750E+02 -0.69916388385E+01 -0.69222621026E+02  0.72256828344E+02  0.00000000000E+00 0.  1.
</event>
<event>
 4    1  0.1874565E+004  0.2509185E+02  0.7546771E-02  0.1467778E+00
         21   -1    0    0  503  502  0.00000000000E+00  0.00000000000E+00  0.54492207151E+02  0.54492207151E+02  0.00000000000E+00 0. -1.
         21   -1    0    0  501  503 -0.00000000000E+00 -0.00000000000E+00 -0.11596281348E+02  0.11596281348E+02  0.00000000000E+00 0.  1.
          2    1    1    2  501    0 -0.21683905389E+02  0.12625730136E+02  0.19451721222E+02  0.31748547572E+02  0.00000000000E+00 0.  1.
         -2    1    1    2    0  502  0.21683905389E+02 -0.12625730136E+02  0.23444204581E+02  0.34339940926E+02  0.00000000000E+00 0. -1.
</event>
<event>
 4    1  0.1874565E+004  0.2438824E+02  0.7546771E-02  0.1475765E+00
         21   -1    0    0  501  502  0.00000000000E+00  0.00000000000E+00  0.25021535284E+01  0.25021535284E+01  0.00000000000E+00 0. -1.
         21   -1    0    0  502  503 -0.00000000000E+00 -0.00000000000E+00 -0.36027212348E+03  0.36027212348E+03  0.00000000000E+00 0.  1.
          2    1    1    2  501    0  0.20308647060E+02  0.13503515856E+02 -0.73088829642E+02  0.77050393278E+02  0.00000000000E+00 0. -1.
         -2    1    1    2    0  503 -0.20308647060E+02 -0.13503515856E+02 -0.28468114031E+03  0.28572388373E+03  0.00000000000E+00 0.  1.
</event>
<event>
 4    1  0.1874565E+004  0.2008389E+02  0.7546771E-02  0.1532757E+00
         21   -1    0    0  503  502  0.00000000000E+00  0.00000000000E+00  0.44362294791E+03  0.44362294791E+03  0.00000000000E+00 0. -1.
         21   -1    0    0  501  503 -0.00000000000E+00 -0.00000000000E+00 -0.15456380491E+01  0.15456380491E+01  0.00000000000E+00 0.  1.
          2    1    1    2  501    0  0.15602958093E+02  0.12645562193E+02  0.78214103517E+02  0.80751523412E+02  0.00000000000E+00 0.  1.
         -2    1    1    2    0  502 -0.15602958093E+02 -0.12645562193E+02  0.36386320635E+03  0.36441706255E+03  0.00000000000E+00 0. -1.
</event>
<event>
 4    1  0.1874565E+004  0.2513533E+02  0.7546771E-02  0.1467295E+00
         21   -1    0    0  503  502  0.00000000000E+00  0.00000000000E+00  0.91587395268E+03  0.91587395268E+03  0.00000000000E+00 0. -1.
         21   -1    0    0  501  503 -0.00000000000E+00 -0.00000000000E+00 -0.86443025463E+00  0.86443025463E+00  0.00000000000E+00 0.  1.
          2    1    1    2  501    0 -0.23969623837E+02 -0.75658501019E+01  0.25149410808E+03  0.25274705013E+03  0.00000000000E+00 0.  1.
         -2    1    1    2    0  502  0.23969623837E+02  0.75658501019E+01  0.66351541435E+03  0.66399133280E+03  0.00000000000E+00 0. -1.
</event>
<event>
 4    1  0.1874565E+004  0.2457457E+02  0.7546771E-02  0.1473619E+00
         21   -1    0    0  501  502  0.00000000000E+00  0.00000000000E+00  0.47392743237E+02  0.47392743237E+02  0.00000000000E+00 0. -1.
         21   -1    0    0  502  503 -0.00000000000E+00 -0.00000000000E+00 -0.12747202402E+02  0.12747202402E+02  0.00000000000E+00 0.  1.
          2    1    1    2  501    0  0.23195018781E+02 -0.81179088833E+01  0.17890763669E+02  0.30397183514E+02  0.00000000000E+00 0. -1.
         -2    1    1    2    0  503 -0.23195018781E+02  0.81179088833E+01  0.16754777166E+02  0.29742762124E+02  0.00000000000E+00 0.  1.
</event>
<event>
 4    1  0.1874565E+004  0.2583492E+02  0.7546771E-02  0.1459676E+00
         21   -1    0    0  501  502  0.00000000000E+00  0.00000000000E+00  0.42239716053E+02  0.42239716053E+02  0.00000000000E+00 0. -1.
         21   -1    0    0  502  503 -0.00000000000E+00 -0.00000000000E+00 -0.35533349530E+02  0.35533349530E+02  0.00000000000E+00 0.  1.
          2    1    1    2  501    0  0.25663071969E+02  0.29748829827E+01  0.32331092448E+02  0.41385296067E+02  0.00000000000E+00 0. -1.
         -2    1    1    2    0  503 -0.25663071969E+02 -0.29748829827E+01 -0.25624725925E+02  0.36387769516E+02  0.00000000000E+00 0.  1.
</event>
<event>
 4    1  0.1874565E+004  0.2186045E+02  0.7546771E-02  0.1507326E+00
         21   -1    0    0  503  502  0.00000000000E+00  0.00000000000E+00  0.21778999496E+03  0.21778999496E+03  0.00000000000E+00 0.  1.
         21   -1    0    0  501  503 -0.00000000000E+00 -0.00000000000E+00 -0.15228639205E+02  0.15228639205E+02  0.00000000000E+00 0. -1.
          2    1    1    2  501    0 -0.17244252501E+02  0.13435593611E+02 -0.65086913295E+01  0.22808824670E+02  0.00000000000E+00 0. -1.
         -2    1    1    2    0  502  0.17244252501E+02 -0.13435593611E+02  0.20907004708E+03  0.21020980949E+03  0.00000000000E+00 0.  1.
</event>
<event>
 4    1  0.1874565E+004  0.2347760E+02  0.7546771E-02  0.1486586E+00
         21   -1    0    0  501  502  0.00000000000E+00  0.00000000000E+00  0.31197407332E+02  0.31197407332E+02  0.00000000000E+00 0.  1.
         21   -1    0    0  502  503 -0.00000000000E+00 -0.00000000000E+00 -0.17900436355E+02  0.17900436355E+02  0.00000000000E+00 0. -1.
          2    1    1    2  501    0  0.22061788604E+02 -0.80296537610E+01  0.94454750797E+01  0.25306419253E+02  0.00000000000E+00 0.  1.
         -2    1    1    2    0  503 -0.22061788604E+02  0.80296537610E+01  0.38514958977E+01  0.23791424434E+02  0.00000000000E+00 0. -1.
</event>
<event>
 4    1  0.1874565E+004  0.2000215E+02  0.7546771E-02  0.1534003E+00
         21   -1    0    0  501  502  0.00000000000E+00  0.00000000000E+00  0.26153731996E+03  0.26153731996E+03  0.00000000000E+00 0. -1.
         21   -1    0    0  502  503 -0.00000000000E+00 -0.00000000000E+00 -0.15872548052E+01  0.15872548052E+01  0.00000000000E+00 0.  1.
          2    1    1    2  501    0  0.12656353404E+02 -0.15488793679E+02  0.15501710829E+03  0.15630223887E+03  0.00000000000E+00 0.  1.
         -2    1    1    2    0  503 -0.12656353404E+02  0.15488793679E+02  0.10493295686E+03  0.10682233590E+03  0.00000000000E+00 0. -1.
</event>
<event>
 4    1  0.1874565E+004  0.3112794E+02  0.7546771E-02  0.1410041E+00
         21   -1    0    0  503  502  0.00000000000E+00  0.00000000000E+00  0.61528095293E+02  0.61528095293E+02  0.00000000000E+00 0.  1.
         21   -1    0    0  501  503 -0.00000000000E+00 -0.00000000000E+00 -0.16856394306E+02  0.16856394306E+02  0.00000000000E+00 0. -1.
          2    1    1    2  501    0 -0.26388477391E+02 -0.16510514312E+02  0.32385502035E+02  0.44919589979E+02  0.00000000000E+00 0. -1.
         -2    1    1    2    0  502  0.26388477391E+02  0.16510514312E+02  0.12286198952E+02  0.33464899620E+02  0.00000000000E+00 0.  1.
</event>
<event>
 4    1  0.1874565E+004  0.2112115E+02  0.7546771E-02  0.1517542E+00
         21   -1    0    0  503  502  0.00000000000E+00  0.00000000000E+00  0.12186201140E+01  0.12186201140E+01  0.00000000000E+00 0. -1.
         21   -1    0    0  501  503 -0.00000000000E+00 -0.00000000000E+00 -0.10415677642E+04  0.10415677642E+04  0.00000000000E+00 0.  1.
          2    1    1    2  501    0  0.54340270367E+01  0.20410151774E+02 -0.94006197165E+03  0.94029921487E+03  0.00000000000E+00 0.  1.
         -2    1    1    2    0  502 -0.54340270367E+01 -0.20410151774E+02 -0.10028717246E+03  0.10248716947E+03  0.00000000000E+00 0. -1.
</event>
<event>
 4    1  0.1874565E+004  0.2533529E+02  0.7546771E-02  0.1465087E+00
         21   -1    0    0  501  502  0.00000000000E+00  0.00000000000E+00  0.12731968918E+03  0.12731968918E+03  0.00000000000E+00 0.  1.
         21   -1    0    0  502  503 -0.00000000000E+00 -0.00000000000E+00 -0.52870256718E+01  0.52870256718E+01  0.00000000000E+00 0. -1.
          2    1    1    2  501    0 -0.15999801886E+02  0.19643913964E+02  0.75305743849E+02  0.79453332673E+02  0.00000000000E+00 0.  1.
         -2    1    1    2    0  503  0.15999801886E+02 -0.19643913964E+02  0.46726919661E+02  0.53153382181E+02  0.00000000000E+00 0. -1.
</event>
<event>
 4    1  0.1874565E+004  0.2554522E+02  0.7546771E-02  0.1462795E+00
         21   -1    0    0  501  502  0.00000000000E+00  0.00000000000E+00  0.93743248130E+02  0.93743248130E+02  0.00000000000E+00 0. -1.
         21   -1    0    0  502  503 -0.00000000000E+00 -0.00000000000E+00 -0.71256077380E+01  0.71256077380E+01  0.00000000000E+00 0.  1.
          2    1    1    2  501    0 -0.23831435600E+02 -0.91989689125E+01  0.50971451773E+02  0.57014447710E+02  0.00000000000E+00 0. -1.
         -2    1    1    2    0  503  0.23831435600E+02  0.91989689125E+01  0.35646188619E+02  0.43854408158E+02  0.00000000000E+00 0.  1.
</event>
<event>
 4    1  0.1874565E+004  0.2248334E+02  0.7546771E-02  0.1499090E+00
         21   -1    0    0  503  502  0.00000000000E+00  0.00000000000E+00  0.74757675400E+00  0.74757675400E+00  0.00000000000E+00 0.  1.
         21   -1    0    0  501  503 -0.00000000000E+00 -0.00000000000E+00 -0.98957198523E+03  0.98957198523E+03  0.00000000000E+00 0. -1.
          2    1    1    2  501    0 -0.25252276158E+00 -0.22481920503E+02 -0.77306399523E+03  0.77339087222E+03  0.00000000000E+00 0. -1.
         -2    1    1    2    0  502  0.25252276158E+00  0.22481920503E+02 -0.21576041325E+03  0.21692868976E+03  0.00000000000E+00 0.  1.
</event>
<event>
 4    1  0.1874565E+004  0.2065949E+02  0.7546771E-02  0.1524182E+00
         21   -1    0    0  503  502  0.00000000000E+00  0.00000000000E+00  0.30445813346E+00  0.30445813346E+00  0.00000000000E+00 0.  1.
         21   -1    0    0  501  503 -0.00000000000E+00 -0.00000000000E+00 -0.15058786716E+04  0.15058786716E+04  0.00000000000E+00 0. -1.
          2    1    1    2  501    0 -0.19423018142E+02 -0.70399441651E+01 -0.55487970909E+03  0.55526417678E+03  0.00000000000E+00 0. -1.
         -2    1    1    2    0  502  0.19423018142E+02  0.70399441651E+01 -0.95069450433E+03  0.95091895291E+03  0.00000000000E+00 0.  1.
</event>
<event>
 4    1  0.1874565E+004  0.2010822E+02  0.7546771E-02  0.1532388E+00
         21   -1    0    0  503  502  0.00000000000E+00  0.00000000000E+00  0.17673500738E+03  0.17673500738E+03  0.00000000000E+00 0. -1.
         21   -1    0    0  501  503 -0.00000000000E+00 -0.00000000000E+00 -0.54064751395E+01  0.54064751395E+01  0.00000000000E+00 0.  1.
          2    1    1    2  501    0  0.17276724660E+02  0.10288605311E+02  0.16496401604E+02  0.26009073034E+02  0.00000000000E+00 0.  1.
         -2    1    1    2    0  502 -0.17276724660E+02 -0.10288605311E+02  0.15483213064E+03  0.15613240949E+03  0.00000000000E+00 0. -1.
</event>
<event>
 4    1  0.1874565E+004  0.2675604E+02  0.7546771E-02  0.1450074E+00
         21   -1    0    0  501  502  0.00000000000E+00  0.00000000000E+00  0.28325177711E+01  0.28325177711E+01  0.00000000000E+00 0.  1.
         21   -1    0    0  502  503 -0.00000000000E+00 -0.00000000000E+00 -0.27997127026E+03  0.27997127026E+03  0.00000000000E+00 0. -1.
          2    1    1    2  501    0 -0.89598641735E+01 -0.25211238190E+02 -0.94468615559E+02  0.98184545743E+02  0.00000000000E+00 0.  1.
         -2    1    1    2    0  503  0.89598641735E+01  0.25211238190E+02 -0.18267013692E+03  0.18461924228E+03  0.00000000000E+00 0. -1.
</event>
<event>
 4    1  0.1874565E+004  0.2047299E+02  0.7546771E-02  0.1526924E+00
         21   -1    0    0  503  502  0.00000000000E+00  0.00000000000E+00  0.35140730993E+01  0.35140730993E+01  0.00000000000E+00 0. -1.
         21   -1    0    0  501  503 -0.00000000000E+00 -0.00000000000E+00 -0.21478668943E+03  0.21478668943E+03  0.00000000000E+00 0.  1.
          2    1    1    2  501    0 -0.29762607105E+01 -0.20255494501E+02 -0.17842241142E+03  0.17959315155E+03  0.00000000000E+00 0.  1.
         -2    1    1    2    0  502  0.29762607105E+01  0.20255494501E+02 -0.32850204906E+02  0.38707610978E+02  0.00000000000E+00 0. -1.
</event>
<event>
 4    1  0.1874565E+004  0.2503894E+02  0.7546771E-02  0.1468368E+00
         21   -1    0    0  503  502  0.00000000000E+00  0.00000000000E+00  0.64750179183E+01  0.64750179183E+01  0.00000000000E+00 0. -1.
         21   -1    0    0  501  503 -0.00000000000E+00 -0.00000000000E+00 -0.11279742488E+03  0.11279742488E+03  0.00000000000E+00 0.  1.
          2    1    1    2  501    0 -0.19497830163E+02 -0.15709325559E+02 -0.75601889284E+02  0.79640404029E+02  0.00000000000E+00 0.  1.
         -2    1    1    2    0  502  0.19497830163E+02  0.15709325559E+02 -0.30720517673E+02  0.39632038765E+02  0.00000000000E+00 0. -1.
</event>
<event>
 4    1  0.1874565E+004  0.2402505E+02  0.7546771E-02  0.1480013E+00
         21   -1    0    0  503  502  0.00000000000E+00  0.00000000000E+00  0.22059359461E+02  0.22059359461E+02  0.00000000000E+00 0.  1.
         21   -1    0    0  501  503 -0.00000000000E+00 -0.00000000000E+00 -0.34905187166E+02  0.34905187166E+02  0.00000000000E+00 0. -1.
          2    1    1    2  501    0  0.19605809948E+02  0.13885785072E+02 -0.20674653341E+02  0.31696121238E+02  0.00000000000E+00 0. -1.
         -2    1    1    2    0  502 -0.19605809948E+02 -0.13885785072E+02  0.78288256364E+01  0.25268425389E+02  0.00000000000E+00 0.  1.
</event>
<event>
 4    1  0.1874565E+004  0.2190233E+02  0.7546771E-02  0.1506762E+00
         21   -1    0    0  501  502  0.00000000000E+00  0.00000000000E+00  0.24874972896E+02  0.24874972896E+02  0.00000000000E+00 0.  1.
         21   -1    0    0  502  503 -0.00000000000E+00 -0.00000000000E+00 -0.30443340192E+02  0.30443340192E+02  0.00000000000E+00 0. -1.
          2    1    1    2  501    0 -0.76823164944E+01  0.20510822927E+02  0.13961163378E+02  0.25973562072E+02  0.00000000000E+00 0.  1.
         -2    1    1    2    0  503  0.76823164944E+01 -0.20510822927E+02 -0.19529530673E+02  0.29344751016E+02  0.00000000000E+00 0. -1.
</event>
<event>
 4    1  0.1874565E+004  0.2159906E+02  0.7546771E-02  0.1510881E+00
         21   -1    0    0  501  502  0.00000000000E+00  0.00000000000E+00  0.54112900029E+02  0.54112900029E+02  0.00000000000E+00 0. -1.
         21   -1    0    0  502  503 -0.00000000000E+00 -0.00000000000E+00 -0.71033511950E+02  0.71033511950E+02  0.00000000000E+00 0.  1.
          2    1    1    2  501    0  0.21573524551E+02  0.10499130196E+01  0.50192909404E+02  0.54642908354E+02  0.00000000000E+00 0. -1.
         -2    1    1    2    0  503 -0.21573524551E+02 -0.10499130196E+01 -0.67113521325E+02  0.70503503626E+02  0.00000000000E+00 0.  1.
</event>
<event>
 4    1  0.1874565E+004  0.2663046E+02  0.7546771E-02  0.1451356E+00
         21   -1    0    0  501  502  0.00000000000E+00  0.00000000000E+00  0.56367841346E+01  0.56367841346E+01  0.00000000000E+00 0.  1.
         21   -1    0    0  502  503 -0.00000000000E+00 -0.00000000000E+00 -0.14541630114E+03  0.14541630114E+03  0.00000000000E+00 0. -1.
          2    1    1    2  501    0 -0.90603105962E+01  0.25041811910E+02 -0.42159367443E+02  0.49865758141E+02  0.00000000000E+00 0.  1.
         -2    1    1    2    0  503  0.90603105962E+01 -0.25041811910E+02 -0.97620149567E+02  0.10118732714E+03  0.00000000000E+00 0. -1.
</event>
<event>
 4    1  0.1874565E+004  0.2139112E+02  0.7546771E-02  0.1513753E+00
         21   -1    0    0  501  502  0.00000000000E+00  0.00000000000E+00  0.34726987851E+02  0.34726987851E+02  0.00000000000E+00 0.  1.
         21   -1    0    0  502  503 -0.00000000000E+00 -0.00000000000E+00 -0.16794963373E+02  0.16794963373E+02  0.00000000000E+00 0. -1.
          2    1    1    2  501    0 -0.18851466135E+02 -0.10109514874E+02  0.20923364405E+02  0.29922687788E+02  0.00000000000E+00 0. -1.
         -2    1    1    2    0  503  0.18851466135E+02  0.10109514874E+02 -0.29913399266E+01  0.21599263436E+02  0.00000000000E+00 0.  1.
</event>
<event>
 4    1  0.1874565E+004  0.4629311E+02  0.7546771E-02  0.1315097E+00
         21   -1    0    0  501  502  0.00000000000E+00  0.00000000000E+00  0.42839147165E+03  0.42839147165E+03  0.00000000000E+00 0. -1.
         21   -1    0    0  502  503 -0.00000000000E+00 -0.00000000000E+00 -0.80847419665E+01  0.80847419665E+01  0.00000000000E+00 0.  1.
          2    1    1    2  501    0 -0.23420464903E+02  0.39931620151E+02  0.75403946068E+02  0.88480548975E+02  0.00000000000E+00 0.  1.
         -2    1    1    2    0  503  0.23420464903E+02 -0.39931620151E+02  0.34490278362E+03  0.34799566465E+03  0.00000000000E+00 0. -1.
</event>
<event>
 4    1  0.1874565E+004  0.2044995E+02  0.7546771E-02  0.1527265E+00
         21   -1    0    0  501  502  0.00000000000E+00  0.00000000000E+00  0.11324213721E+01  0.11324213721E+01  0.00000000000E+00 0.  1.
         21   -1    0    0  502  503 -0.00000000000E+00 -0.00000000000E+00 -0.37975190264E+03  0.37975190264E+03  0.00000000000E+00 0. -1.
          2    1    1    2  501    0  0.57984516353E+01  0.19610671381E+02 -0.15771163459E+03  0.15903194697E+03  0.00000000000E+00 0.  1.
         -2    1    1    2    0  503 -0.57984516353E+01 -0.19610671381E+02 -0.22090784668E+03  0.22185237704E+03  0.00000000000E+00 0. -1.
</event>
<event>
 4    1  0.1874565E+004  0.2119225E+02  0.7546771E-02  0.1516538E+00
         21   -1    0    0  503  502  0.00000000000E+00  0.00000000000E+00  0.15544440691E+03  0.15544440691E+03  0.00000000000E+00 0.  1.
         21   -1    0    0  501  503 -0.00000000000E+00 -0.00000000000E+00 -0.97697877453E+01  0.97697877453E+01  0.00000000000E+00 0. -1.
          2    1    1    2  501    0 -0.17406160805E+02  0.12088717927E+02  0.35127289635E+01  0.21481405909E+02  0.00000000000E+00 0. -1.
         -2    1    1    2    0  502  0.17406160805E+02 -0.12088717927E+02  0.14216189021E+03  0.14373278875E+03  0.00000000000E+00 0.  1.
</event>
<event>
 4    1  0.1874565E+004  0.2472658E+02  0.7546771E-02  0.1471885E+00
         21   -1    0    0  503  502  0.00000000000E+00  0.00000000000E+00  0.19473346501E+02  0.19473346501E+02  0.00000000000E+00 0. -1.
         21   -1    0    0  501  503 -0.00000000000E+00 -0.00000000000E+00 -0.33625325088E+02  0.33625325088E+02  0.00000000000E+00 0.  1.
          2    1    1    2  501    0  0.13962045234E+02 -0.20407476221E+02 -0.13910603883E+02  0.28370912802E+02  0.00000000000E+00 0.  1.
         -2    1    1    2    0  502 -0.13962045234E+02  0.20407476221E+02 -0.24137470442E+00  0.24727758786E+02  0.00000000000E+00 0. -1.
</event>
<event>
 4    1  0.1874565E+004  0.2290375E+02  0.7546771E-02  0.1493710E+00
         21   -1    0    0  503  502  0.00000000000E+00  0.00000000000E+00  0.69605219419E+03  0.69605219419E+03  0.00000000000E+00 0. -1.
         21   -1    0    0  501  503 -0.00000000000E+00 -0.00000000000E+00 -0.14342331910E+01  0.14342331910E+01  0.00000000000E+00 0.  1.
          2    1    1    2  501    0 -0.20393363516E+02 -0.10425559992E+02  0.10707433104E+03  0.10949654764E+03  0.00000000000E+00 0.  1.
         -2    1    1    2    0  502  0.20393363516E+02  0.10425559992E+02  0.58754362996E+03  0.58798987975E+03  0.00000000000E+00 0. -1.
</event>
<event>
 4    1  0.1874565E+004  0.2318212E+02  0.7546771E-02  0.1490224E+00
         21   -1    0    0  501  502  0.00000000000E+00  0.00000000000E+00  0.14286425851E+03  0.14286425851E+03  0.00000000000E+00 0. -1.
         21   -1    0    0  502  503 -0.00000000000E+00 -0.00000000000E+00 -0.45632832008E+01  0.45632832008E+01  0.00000000000E+00 0.  1.
          2    1    1    2  501    0  0.23124314419E+02 -0.16360594359E+01  0.10004545731E+03  0.10269617391E+03  0.00000000000E+00 0. -1.
         -2    1    1    2    0  503 -0.23124314419E+02  0.16360594359E+01  0.38255518004E+02  0.44731367804E+02  0.00000000000E+00 0.  1.
</event>
<event>
 4    1  0.1874565E+004  0.2393010E+02  0.7546771E-02  0.1481138E+00
         21   -1    0    0  503  502  0.00000000000E+00  0.00000000000E+00  0.20401331933E+02  0.20401331933E+02  0.00000000000E+00 0.  1.
         21   -1    0    0  501  503 -0.00000000000E+00 -0.00000000000E+00 -0.10997656976E+03  0.10997656976E+03  0.00000000000E+00 0. -1.
          2    1    1    2  501    0 -0.16383235243E+02  0.17442454126E+02 -0.10104575340E+03  0.10384071400E+03  0.00000000000E+00 0. -1.
         -2    1    1    2    0  502  0.16383235243E+02 -0.17442454126E+02  0.11470515578E+02  0.26537187692E+02  0.00000000000E+00 0.  1.
</event>
<event>
 4    1  0.1874565E+004  0.3112912E+02  0.7546771E-02  0.1410032E+00
         21   -1    0    0  501  502  0.00000000000E+00  0.00000000000E+00  0.47449183233E+02  0.47449183233E+02  0.00000000000E+00 0.  1.
         21   -1    0    0  502  503 -0.00000000000E+00 -0.00000000000E+00 -0.31175899849E+03  0.31175899849E+03  0.00000000000E+00 0. -1.
          2    1    1    2  501    0 -0.29879306672E+02 -0.87320829390E+01  0.41466914781E+02  0.51851010223E+02  0.00000000000E+00 0.  1.
         -2    1    1    2    0  503  0.29879306672E+02  0.87320829390E+01 -0.30577673004E+03  0.30735717150E+03  0.00000000000E+00 0. -1.
</event>
<event>
 4    1  0.1874565E+004  0.2068778E+02  0.7546771E-02  0.1523770E+00
         21   -1    0    0  503  502  0.00000000000E+00  0.00000000000E+00  0.26475219537E+03  0.26475219537E+03  0.00000000000E+00 0. -1.
         21   -1    0    0  501  503 -0.00000000000E+00 -0.00000000000E+00 -0.34276730324E+01  0.34276730324E+01  0.00000000000E+00 0.  1.
          2    1    1    2  501    0  0.12186032872E+01  0.20651857395E+02  0.33192277679E+02  0.39111526502E+02  0.00000000000E+00 0.  1.
         -2    1    1    2    0  502 -0.12186032872E+01 -0.20651857395E+02  0.22813224466E+03  0.22906834190E+03  0.00000000000E+00 0. -1.
</event>
<event>
 4    1  0.1874565E+004  0.2279494E+02  0.7546771E-02  0.1495089E+00
         21   -1    0    0  501  502  0.00000000000E+00  0.00000000000E+00  0.98624601626E+03  0.98624601626E+03  0.00000000000E+00 0. -1.
         21   -1    0    0  502  503 -0.00000000000E+00 -0.00000000000E+00 -0.54535814400E+00  0.54535814400E+00  0.00000000000E+00 0.  1.
          2    1    1    2  501    0  0.19094501314E+02 -0.12450271624E+02  0.58373069849E+03  0.58417560510E+03  0.00000000000E+00 0.  1.
         -2    1    1    2    0  503 -0.19094501314E+02  0.12450271624E+02  0.40196995963E+03  0.40261576929E+03  0.00000000000E+00 0. -1.
</event>
<event>
 4    1  0.1874565E+004  0.2945438E+02  0.7546771E-02  0.1424398E+00
         21   -1    0    0  503  502  0.00000000000E+00  0.00000000000E+00  0.20646691210E+01  0.20646691210E+01  0.00000000000E+00 0. -1.
         21   -1    0    0  501  503 -0.00000000000E+00 -0.00000000000E+00 -0.74944313695E+03  0.74944313695E+03  0.00000000000E+00 0.  1.
          2    1    1    2  501    0 -0.26839550261E+02  0.12132557591E+02 -0.62274514379E+03  0.62344131602E+03  0.00000000000E+00 0.  1.
         -2    1    1    2    0  502  0.26839550261E+02 -0.12132557591E+02 -0.12463332404E+03  0.12806649005E+03  0.00000000000E+00 0. -1.
</event>
<event>
 4    1  0.1874565E+004  0.2512902E+02  0.7546771E-02  0.1467365E+00
         21   -1    0    0  501  502  0.00000000000E+00  0.00000000000E+00  0.79358374879E+01  0.79358374879E+01  0.00000000000E+00 0. -1.
         21   -1    0    0  502  503 -0.00000000000E+00 -0.00000000000E+00 -0.79571698681E+02  0.79571698681E+02  0.00000000000E+00 0.  1.
          2    1    1    2  501    0  0.11595232703E+02  0.22293910854E+02 -0.35794135908E+02  0.43734289156E+02  0.00000000000E+00 0.  1.
         -2    1    1    2    0  503 -0.11595232703E+02 -0.22293910854E+02 -0.35841725286E+02  0.43773247013E+02  0.00000000000E+00 0. -1.
</event>
<event>
 4    1  0.1874565E+004  0.2086840E+02  0.7546771E-02  0.1521152E+00
         21   -1    0    0  501  502  0.00000000000E+00  0.00000000000E+00  0.11639449094E+03  0.11639449094E+03  0.00000000000E+00 0. -1.
         21   -1    0    0  502  503 -0.00000000000E+00 -0.00000000000E+00 -0.38252312955E+01  0.38252312955E+01  0.00000000000E+00 0.  1.
          2    1    1    2  501    0  0.10600856143E+02 -0.17975319732E+02  0.65177756599E+02  0.68437053018E+02  0.00000000000E+00 0. -1.
         -2    1    1    2    0  503 -0.10600856143E+02  0.17975319732E+02  0.47391503043E+02  0.51782669216E+02  0.00000000000E+00 0.  1.
</event>
<event>
 4    1  0.1874565E+004  0.2097535E+02  0.7546771E-02  0.1519617E+00
         21   -1    0    0  501  502  0.00000000000E+00  0.00000000000E+00  0.14002594038E+02  0.14002594038E+02  0.00000000000E+00 0. -1.
         21   -1    0    0  502  503 -0.00000000000E+00 -0.00000000000E+00 -0.29101612809E+03  0.29101612809E+03  0.00000000000E+00 0.  1.
          2    1    1    2  501    0  0.11659545402E+02  0.17436175760E+02  0.55344743718E+01  0.21693216237E+02  0.00000000000E+00 0. -1.
         -2    1    1    2    0  503 -0.11659545402E+02 -0.17436175760E+02 -0.28254800842E+03  0.28332550589E+03  0.00000000000E+00 0.  1.
</event>
<event>
 4    1  0.1874565E+004  0.2157442E+02  0.7546771E-02  0.1511219E+00
         21   -1    0    0  503  502  0.00000000000E+00  0.00000000000E+00  0.15396995210E+02  0.15396995210E+02  0.00000000000E+00 0.  1.
         21   -1    0    0  501  503 -0.00000000000E+00 -0.00000000000E+00 -0.43081153235E+02  0.43081153235E+02  0.00000000000E+00 0. -1.
          2    1    1    2  501    0 -0.19160729741E+02 -0.99157372600E+01 -0.29811396329E+02  0.36799113586E+02  0.00000000000E+00 0. -1.
         -2    1    1    2    0  502  0.19160729741E+02  0.99157372600E+01  0.21272383030E+01  0.21679034859E+02  0.00000000000E+00 0.  1.
</event>
<event>
 4    1  0.1874565E+004  0.2187057E+02  0.7546771E-02  0.1507189E+00
         21   -1    0    0  501  502  0.00000000000E+00  0.00000000000E+00  0.15905424528E+03  0.15905424528E+03  0.00000000000E+00 0.  1.
         21   -1    0    0  502  503 -0.00000000000E+00 -0.00000000000E+00 -0.55023250979E+01  0.55023250979E+01  0.00000000000E+00 0. -1.
          2    1    1    2  501    0  0.15992115787E+02 -0.14918909634E+02  0.13218119129E+03  0.13397831527E+03  0.00000000000E+00 0.  1.
         -2    1    1    2    0  503 -0.15992115787E+02  0.14918909634E+02  0.21370728892E+02  0.30578255107E+02  0.00000000000E+00 0. -1.
</event>
<event>
 4    1  0.1874565E+004  0.2563536E+02  0.7546771E-02  0.1461820E+00
         21   -1    0    0  503  502  0.00000000000E+00  0.00000000000E+00  0.18669139529E+01  0.18669139529E+01  0.00000000000E+00 0. -1.
         21   -1    0    0  501  503 -0.00000000000E+00 -0.00000000000E+00 -0.35664896323E+03  0.35664896323E+03  0.00000000000E+00 0.  1.
          2    1    1    2  501    0  0.11822482814E+02  0.22746446578E+02 -0.15694637691E+03  0.15902621532E+03  0.00000000000E+00 0.  1.
         -2    1    1    2    0  502 -0.11822482814E+02 -0.22746446578E+02 -0.19783567236E+03  0.19948966186E+03  0.00000000000E+00 0. -1.
</event>
<event>
 4    1  0.1874565E+004  0.3001294E+02  0.7546771E-02  0.1419484E+00
         21   -1    0    0  501  502  0.00000000000E+00  0.00000000000E+00  0.14811154758E+01  0.14811154758E+01  0.00000000000E+00 0.  1.
         21   -1    0    0  502  503 -0.00000000000E+00 -0.00000000000E+00 -0.72916751009E+03  0.72916751009E+03  0.00000000000E+00 0. -1.
          2    1    1    2  501    0 -0.27901053528E+01  0.29882965108E+02 -0.21502860694E+03  0.21711305371E+03  0.00000000000E+00 0.  1.
         -2    1    1    2    0  503  0.27901053528E+01 -0.29882965108E+02 -0.51265778768E+03  0.51353557185E+03  0.00000000000E+00 0. -1.
</event>
<event>
 4    1  0.1874565E+004  0.2318176E+02  0.7546771E-02  0.1490228E+00
         21   -1    0    0  503  502  0.00000000000E+00  0.00000000000E+00  0.56799378775E+01  0.56799378775E+01  0.00000000000E+00 0.  1.
         21   -1    0    0  501  503 -0.00000000000E+00 -0.00000000000E+00 -0.16618648937E+03  0.16618648937E+03  0.00000000000E+00 0. -1.
          2    1    1    2  501    0 -0.17366379622E+01  0.23116617182E+02 -0.13664824869E+03  0.13860064131E+03  0.00000000000E+00 0. -1.
         -2    1    1    2    0  502  0.17366379622E+01 -0.23116617182E+02 -0.23858302797E+02  0.33265785933E+02  0.00000000000E+00 0.  1.
</event>
<event>
 4    1  0.1874565E+004  0.2106237E+02  0.7546771E-02  0.1518376E+00
         21   -1    0    0  503  502  0.00000000000E+00  0.00000000000E+00  0.30142755781E+02  0.30142755781E+02  0.00000000000E+00 0. -1.
         21   -1    0    0  501  503 -0.00000000000E+00 -0.00000000000E+00 -0.53008269828E+02  0.53008269828E+02  0.00000000000E+00 0.  1.
          2    1    1    2  501    0 -0.66547471185E+01 -0.19983439525E+02 -0.46768426024E+02  0.51292389174E+02  0.00000000000E+00 0.  1.
         -2    1    1    2    0  502  0.66547471185E+01  0.19983439525E+02  0.23902911978E+02  0.31858636435E+02  0.00000000000E+00 0. -1.
</event>
<event>
 4    1  0.1874565E+004  0.2253014E+02  0.7546771E-02  0.1498484E+00
         21   -1    0    0  501  502  0.00000000000E+00  0.00000000000E+00  0.17099677795E+02  0.17099677795E+02  0.00000000000E+00 0.  1.
         21   -1    0    0  502  503 -0.00000000000E+00 -0.00000000000E+00 -0.84281262954E+02  0.84281262954E+02  0.00000000000E+00 0. -1.
          2    1    1    2  501    0  0.21317794062E+02  0.72910210144E+01  0.72074515461E+01  0.23654908347E+02  0.00000000000E+00 0.  1.
         -2    1    1    2    0  503 -0.21317794062E+02 -0.72910210144E+01 -0.74389036705E+02  0.77726032403E+02  0.00000000000E+00 0. -1.
</event>
<event>
 4    1  0.1874565E+004  0.8416195E+02  0.7546771E-02  0.1194502E+00
         21   -1    0    0  501  502  0.00000000000E+00  0.00000000000E+00  0.51339790982E+02  0.51339790982E+02  0.00000000000E+00 0.  1.
         21   -1    0    0  502  503 -0.00000000000E+00 -0.00000000000E+00 -0.19807235987E+03  0.19807235987E+03  0.00000000000E+00 0. -1.
          2    1    1    2  501    0 -0.60739187650E+02 -0.58257923790E+02 -0.46705731251E+01  0.84291451844E+02  0.00000000000E+00 0.  1.
         -2    1    1    2    0  503  0.60739187650E+02  0.58257923790E+02 -0.14206199576E+03  0.16512069901E+03  0.00000000000E+00 0. -1.
</event>
<event>
 4    1  0.1874565E+004  0.3139024E+02  0.7546771E-02  0.1407888E+00
         21   -1    0    0  501  502  0.00000000000E+00  0.00000000000E+00  0.60995797653E+01  0.60995797653E+01  0.00000000000E+00 0.  1.
         21   -1    0    0  502  503 -0.00000000000E+00 -0.00000000000E+00 -0.17768768254E+03  0.17768768254E+03  0.00000000000E+00 0. -1.
          2    1    1    2  501    0  0.31289795930E+02  0.25091301759E+01 -0.58094951038E+02  0.66033100788E+02  0.00000000000E+00 0.  1.
         -2    1    1    2    0  503 -0.31289795930E+02 -0.25091301759E+01 -0.11349315174E+03  0.11775416152E+03  0.00000000000E+00 0. -1.
</event>
<event>
 4    1  0.1874565E+004  0.2341185E+02  0.7546771E-02  0.1487390E+00
         21   -1    0    0  501  502  0.00000000000E+00  0.00000000000E+00  0.44792905233E+02  0.44792905233E+02  0.00000000000E+00 0.  1.
         21   -1    0    0  502  503 -0.00000000000E+00 -0.00000000000E+00 -0.16625745604E+02  0.16625745604E+02  0.00000000000E+00 0. -1.
          2    1    1    2  501    0 -0.14094231167E+02 -0.18694044127E+02  0.29862153634E+02  0.37945524870E+02  0.00000000000E+00 0.  1.
         -2    1    1    2    0  503  0.14094231167E+02  0.18694044127E+02 -0.16949940043E+01  0.23473125967E+02  0.00000000000E+00 0. -1.
</event>
<event>
 4    1  0.1874565E+004  0.3063076E+02  0.7546771E-02  0.1414193E+00
         21   -1    0    0  503  502  0.00000000000E+00  0.00000000000E+00  0.37646838078E+01  0.37646838078E+01  0.00000000000E+00 0.  1.
         21   -1    0    0  501  503 -0.00000000000E+00 -0.00000000000E+00 -0.24999654337E+03  0.24999654337E+03  0.00000000000E+00 0. -1.
          2    1    1    2  501    0 -0.41979243541E+01 -0.30341738935E+02 -0.13017629715E+03  0.13373149229E+03  0.00000000000E+00 0. -1.
         -2    1    1    2    0  502  0.41979243541E+01  0.30341738935E+02 -0.11605556242E+03  0.12002973489E+03  0.00000000000E+00 0.  1.
</event>
<event>
 4    1  0.1874565E+004  0.3927440E+02  0.7546771E-02  0.1352791E+00
         21   -1    0    0  503  502  0.00000000000E+00  0.00000000000E+00  0.72236079118E+02  0.72236079118E+02  0.00000000000E+00 0. -1.
         21   -1    0    0  501  503 -0.00000000000E+00 -0.00000000000E+00 -0.37705186966E+02  0.37705186966E+02  0.00000000000E+00 0.  1.
          2    1    1    2  501    0 -0.12295964495E+02 -0.37299970085E+02 -0.18935019500E+02  0.43600613238E+02  0.00000000000E+00 0.  1.
         -2    1    1    2    0  502  0.12295964495E+02  0.37299970085E+02  0.53465911652E+02  0.66340652846E+02  0.00000000000E+00 0. -1.
</event>
<event>
 4    1  0.1874565E+004  0.2357170E+02  0.7546771E-02  0.1485441E+00
         21   -1    0    0  503  502  0.00000000000E+00  0.00000000000E+00  0.90697330047E+01  0.90697330047E+01  0.00000000000E+00 0.  1.
         21   -1    0    0  501  503 -0.00000000000E+00 -0.00000000000E+00 -0.61346765514E+02  0.61346765514E+02  0.00000000000E+00 0. -1.
          2    1    1    2  501    0 -0.83375757744E+01  0.22047897947E+02 -0.24825504587E+02  0.34233472679E+02  0.00000000000E+00 0. -1.
         -2    1    1    2    0  502  0.83375757744E+01 -0.22047897947E+02 -0.27451527922E+02  0.36183025840E+02  0.00000000000E+00 0.  1.
</event>
<event>
 4    1  0.1874565E+004  0.3682322E+02  0.7546771E-02  0.1368179E+00
         21   -1    0    0  501  502  0.00000000000E+00  0.00000000000E+00  0.11874861937E+03  0.11874861937E+03  0.00000000000E+00 0. -1.
         21   -1    0    0  502  503 -0.00000000000E+00 -0.00000000000E+00 -0.54249805972E+02  0.54249805972E+02  0.00000000000E+00 0.  1.
          2    1    1    2  501    0  0.35724174094E+02  0.89293111349E+01  0.10910809093E+03  0.11515435172E+03  0.00000000000E+00 0. -1.
         -2    1    1    2    0  503 -0.35724174094E+02 -0.89293111349E+01 -0.44609277532E+02  0.57844073629E+02  0.00000000000E+00 0.  1.
</event>
<event>
 4    1  0.1874565E+004  0.2916780E+02  0.7546771E-02  0.1426969E+00
         21   -1    0    0  503  502  0.00000000000E+00  0.00000000000E+00  0.84564282794E+01  0.84564282794E+01  0.00000000000E+00 0.  1.
         21   -1    0    0  501  503 -0.00000000000E+00 -0.00000000000E+00 -0.12577904867E+03  0.12577904867E+03  0.00000000000E+00 0. -1.
          2    1    1    2  501    0  0.21696194303E+02  0.19494500977E+02 -0.88688052579E+02  0.93361293296E+02  0.00000000000E+00 0. -1.
         -2    1    1    2    0  502 -0.21696194303E+02 -0.19494500977E+02 -0.28634567811E+02  0.40874183653E+02  0.00000000000E+00 0.  1.
</event>
<event>
 4    1  0.1874565E+004  0.2276334E+02  0.7546771E-02  0.1495491E+00
         21   -1    0    0  501  502  0.00000000000E+00  0.00000000000E+00  0.25764908242E+02  0.25764908242E+02  0.00000000000E+00 0. -1.
         21   -1    0    0  502  503 -0.00000000000E+00 -0.00000000000E+00 -0.28991221129E+02  0.28991221129E+02  0.00000000000E+00 0.  1.
          2    1    1    2  501    0 -0.21010699893E+02 -0.87590069953E+01  0.13538856406E+02  0.26485285468E+02  0.00000000000E+00 0. -1.
         -2    1    1    2    0  503  0.21010699893E+02  0.87590069953E+01 -0.16765169293E+02  0.28270843903E+02  0.00000000000E+00 0.  1.
</event>
<event>
 4    1  0.1874565E+004  0.2283381E+02  0.7546771E-02  0.1494596E+00
         21   -1    0    0  501  502  0.00000000000E+00  0.00000000000E+00  0.20360071994E+00  0.20360071994E+00  0.00000000000E+00 0. -1.
         21   -1    0    0  502  503 -0.00000000000E+00 -0.00000000000E+00 -0.25886734655E+04  0.25886734655E+04  0.00000000000E+00 0.  1.
          2    1    1    2  501    0  0.22485859832E+02  0.39710440700E+01 -0.11599436043E+04  0.11601683276E+04  0.00000000000E+00 0.  1.
         -2    1    1    2    0  503 -0.22485859832E+02 -0.39710440700E+01 -0.14285262604E+04  0.14287087386E+04  0.00000000000E+00 0. -1.
</event>
<event>
 4    1  0.1874565E+004  0.2495066E+02  0.7546771E-02  0.1469356E+00
         21   -1    0    0  503  502  0.00000000000E+00  0.00000000000E+00  0.66171761167E+02  0.66171761167E+02  0.00000000000E+00 0. -1.
         21   -1    0    0  501  503 -0.00000000000E+00 -0.00000000000E+00 -0.28644418970E+03  0.28644418970E+03  0.00000000000E+00 0.  1.
          2    1    1    2  501    0 -0.22194683172E+02  0.11398741840E+02 -0.28352472042E+03  0.28462045317E+03  0.00000000000E+00 0.  1.
         -2    1    1    2    0  502  0.22194683172E+02 -0.11398741840E+02  0.63252291890E+02  0.67995497688E+02  0.00000000000E+00 0. -1.
</event>
<event>
 4    1  0.1874565E+004  0.2086564E+02  0.7546771E-02  0.1521192E+00
         21   -1    0    0  503  502  0.00000000000E+00  0.00000000000E+00  0.34425179440E+03  0.34425179440E+03  0.00000000000E+00 0.  1.
         21   -1    0    0  501  503 -0.00000000000E+00 -0.00000000000E+00 -0.27022131921E+01  0.27022131921E+01  0.00000000000E+00 0. -1.
          2    1    1    2  501    0 -0.19754128776E+02  0.67193131487E+01  0.44246327150E+02  0.48919446431E+02  0.00000000000E+00 0. -1.
         -2    1    1    2    0  502  0.19754128776E+02 -0.67193131487E+01  0.29730325405E+03  0.29803456116E+03  0.00000000000E+00 0.  1.
</event>
<event>
 4    1  0.1874565E+004  0.2464804E+02  0.7546771E-02  0.1472779E+00
         21   -1    0    0  503  502  0.00000000000E+00  0.00000000000E+00  0.34788841681E+03  0.34788841681E+03  0.00000000000E+00 0.  1.
         21   -1    0    0  501  503 -0.00000000000E+00 -0.00000000000E+00 -0.28952008121E+01  0.28952008121E+01  0.00000000000E+00 0. -1.
          2    1    1    2  501    0  0.16194774452E+02  0.18581037693E+02  0.62010720820E+02  0.66729717353E+02  0.00000000000E+00 0. -1.
         -2    1    1    2    0  502 -0.16194774452E+02 -0.18581037693E+02  0.28298249517E+03  0.28405390026E+03  0.00000000000E+00 0.  1.
</event>
<event>
 4    1  0.1874565E+004  0.2115254E+02  0.7546771E-02  0.1517098E+00
         21   -1    0    0  501  502  0.00000000000E+00  0.00000000000E+00  0.55495798683E+03  0.55495798683E+03  0.00000000000E+00 0.  1.
         21   -1    0    0  502  503 -0.00000000000E+00 -0.00000000000E+00 -0.25617070359E+01  0.25617070359E+01  0.00000000000E+00 0. -1.
          2    1    1    2  501    0  0.19366141244E+02 -0.85077888454E+01  0.50695876091E+03  0.50739985727E+03  0.00000000000E+00 0.  1.
         -2    1    1    2    0  503 -0.19366141244E+02  0.85077888454E+01  0.45437518887E+02  0.50119836595E+02  0.00000000000E+00 0. -1.
</event>
<event>
 4    1  0.1874565E+004  0.2973170E+02  0.7546771E-02  0.1421943E+00
         21   -1    0    0  501  502  0.00000000000E+00  0.00000000000E+00  0.25278414765E+01  0.25278414765E+01  0.00000000000E+00 0.  1.
         21   -1    0    0  502  503 -0.00000000000E+00 -0.00000000000E+00 -0.41555674373E+03  0.41555674373E+03  0.00000000000E+00 0. -1.
          2    1    1    2  501    0 -0.16789358553E+02 -0.24537547051E+02 -0.12329300125E+03  0.12682719713E+03  0.00000000000E+00 0.  1.
         -2    1    1    2    0  503  0.16789358553E+02  0.24537547051E+02 -0.28973590101E+03  0.29125738808E+03  0.00000000000E+00 0. -1.
</event>
<event>
 4    1  0.1874565E+004  0.2189680E+02  0.7546771E-02  0.1506836E+00
         21   -1    0    0  503  502  0.00000000000E+00  0.00000000000E+00  0.32324491222E+02  0.32324491222E+02  0.00000000000E+00 0. -1.
         21   -1    0    0  501  503 -0.00000000000E+00 -0.00000000000E+00 -0.67381976692E+02  0.67381976692E+02  0.00000000000E+00 0.  1.
          2    1    1    2  501    0  0.58633701096E+01 -0.21097175951E+02  0.26496676116E+02  0.34373591423E+02  0.00000000000E+00 0. -1.
         -2    1    1    2    0  502 -0.58633701096E+01  0.21097175951E+02 -0.61554161586E+02  0.65332876492E+02  0.00000000000E+00 0.  1.
</event>
<event>
 4    1  0.1874565E+004  0.2191261E+02  0.7546771E-02  0.1506623E+00
         21   -1    0    0  501  502  0.00000000000E+00  0.00000000000E+00  0.22251816874E+02  0.22251816874E+02  0.00000000000E+00 0.  1.
         21   -1    0    0  502  503 -0.00000000000E+00 -0.00000000000E+00 -0.13187088086E+03  0.13187088086E+03  0.00000000000E+00 0. -1.
          2    1    1    2  501    0  0.10216028496E+02 -0.19385439618E+02  0.15665415426E+02  0.26936364786E+02  0.00000000000E+00 0.  1.
         -2    1    1    2    0  503 -0.10216028496E+02  0.19385439618E+02 -0.12528447942E+03  0.12718633295E+03  0.00000000000E+00 0. -1.
</event>
<event>
 4    1  0.1874565E+004  0.2307650E+02  0.7546771E-02  0.1491540E+00
         21   -1    0    0  501  502  0.00000000000E+00  0.00000000000E+00  0.10799398573E+01  0.10799398573E+01  0.00000000000E+00 0.  1.
         21   -1    0    0  502  503 -0.00000000000E+00 -0.00000000000E+00 -0.55052530723E+03  0.55052530723E+03  0.00000000000E+00 0. -1.
          2    1    1    2  501    0 -0.59761734557E+01 -0.22289242366E+02 -0.18565130103E+03  0.18708001109E+03  0.00000000000E+00 0.  1.
         -2    1    1    2    0  503  0.59761734557E+01  0.22289242366E+02 -0.36379406634E+03  0.36452523599E+03  0.00000000000E+00 0. -1.
</event>
<event>
 4    1  0.1874565E+004  0.2096020E+02  0.7546771E-02  0.1519834E+00
         21   -1    0    0  503  502  0.00000000000E+00  0.00000000000E+00  0.23957584847E+01  0.23957584847E+01  0.00000000000E+00 0.  1.
         21   -1    0    0  501  503 -0.00000000000E+00 -0.00000000000E+00 -0.18415927631E+03  0.18415927631E+03  0.00000000000E+00 0. -1.
          2    1    1    2  501    0 -0.16024472825E+02 -0.13510969842E+02 -0.96956233376E+02  0.99195973839E+02  0.00000000000E+00 0. -1.
         -2    1    1    2    0  502  0.16024472825E+02  0.13510969842E+02 -0.84807284446E+02  0.87359060952E+02  0.00000000000E+00 0.  1.
</event>
<event>
 4    1  0.1874565E+004  0.2106323E+02  0.7546771E-02  0.1518364E+00
         21   -1    0    0  503  502  0.00000000000E+00  0.00000000000E+00  0.73919041483E+01  0.73919041483E+01  0.00000000000E+00 0. -1.
         21   -1    0    0  501  503 -0.00000000000E+00 -0.00000000000E+00 -0.11651667070E+03  0.11651667070E+03  0.00000000000E+00 0.  1.
          2    1    1    2  501    0 -0.55446849789E+01 -0.20320337407E+02 -0.97703365734E+02  0.99948023090E+02  0.00000000000E+00 0.  1.
         -2    1    1    2    0  502  0.55446849789E+01  0.20320337407E+02 -0.11421400814E+02  0.23960551755E+02  0.00000000000E+00 0. -1.
</event>
<event>
 4    1  0.1874565E+004  0.2229841E+02  0.7546771E-02  0.1501501E+00
         21   -1    0    0  503  502  0.00000000000E+00  0.00000000000E+00  0.10904062296E+03  0.10904062296E+03  0.00000000000E+00 0.  1.
         21   -1    0    0  501  503 -0.00000000000E+00 -0.00000000000E+00 -0.53728510240E+01  0.53728510240E+01  0.00000000000E+00 0. -1.
          2    1    1    2  501    0  0.20182542690E+02 -0.94807158025E+01  0.29582065827E+02  0.37044805576E+02  0.00000000000E+00 0. -1.
         -2    1    1    2    0  502 -0.20182542690E+02  0.94807158025E+01  0.74085706113E+02  0.77368668412E+02  0.00000000000E+00 0.  1.
</event>
<event>
 4    1  0.1874565E+004  0.2067970E+02  0.7546771E-02  0.1523887E+00
         21   -1    0    0  501  502  0.00000000000E+00  0.00000000000E+00  0.57389919860E+03  0.57389919860E+03  0.00000000000E+00 0. -1.
         21   -1    0    0  502  503 -0.00000000000E+00 -0.00000000000E+00 -0.83622442320E+00  0.83622442320E+00  0.00000000000E+00 0.  1.
          2    1    1    2  501    0 -0.14376761217E+02  0.14864676259E+02  0.38135976928E+03  0.38192004856E+03  0.00000000000E+00 0. -1.
         -2    1    1    2    0  503  0.14376761217E+02 -0.14864676259E+02  0.19170320489E+03  0.19281537446E+03  0.00000000000E+00 0.  1.
</event>
<event>
 4    1  0.1874565E+004  0.2141768E+02  0.7546771E-02  0.1513384E+00
         21   -1    0    0  503  502  0.00000000000E+00  0.00000000000E+00  0.33704172970E+02  0.33704172970E+02  0.00000000000E+00 0.  1.
         21   -1    0    0  501  503 -0.00000000000E+00 -0.00000000000E+00 -0.17170219200E+02  0.17170219200E+02  0.00000000000E+00 0. -1.
          2    1    1    2  501    0 -0.16259808381E+02 -0.13940431891E+02 -0.33158313835E+01  0.21672834325E+02  0.00000000000E+00 0. -1.
         -2    1    1    2    0  502  0.16259808381E+02  0.13940431891E+02  0.19849785154E+02  0.29201557845E+02  0.00000000000E+00 0.  1.
</event>
<event>
 4    1  0.1874565E+004  0.6497229E+02  0.7546771E-02  0.1243814E+00
         21   -1    0    0  501  502  0.00000000000E+00  0.00000000000E+00  0.18871225587E+03  0.18871225587E+03  0.00000000000E+00 0. -1.
         21   -1    0    0  502  503 -0.00000000000E+00 -0.00000000000E+00 -0.46194643227E+02  0.46194643227E+02  0.00000000000E+00 0.  1.
          2    1    1    2  501    0  0.24460130137E+02  0.60192201403E+02  0.15560931671E+03  0.16862875948E+03  0.00000000000E+00 0. -1.
         -2    1    1    2    0  503 -0.24460130137E+02 -0.60192201403E+02 -0.13091704066E+02  0.66278139619E+02  0.00000000000E+00 0.  1.
</event>
<event>
 4    1  0.1874565E+004  0.3051975E+02  0.7546771E-02  0.1415133E+00
         21   -1    0    0  503  502  0.00000000000E+00  0.00000000000E+00  0.14769805318E+01  0.14769805318E+01  0.00000000000E+00 0.  1.
         21   -1    0    0  501  503 -0.00000000000E+00 -0.00000000000E+00 -0.65854948322E+03  0.65854948322E+03  0.00000000000E+00 0. -1.
          2    1    1    2  501    0 -0.30503442559E+02 -0.99763528589E+00 -0.39646417472E+03  0.39763714253E+03  0.00000000000E+00 0.  1.
         -2    1    1    2    0  502  0.30503442559E+02  0.99763528589E+00 -0.26060832797E+03  0.26238932122E+03  0.00000000000E+00 0. -1.
</event>
<event>
 4    1  0.1874565E+004  0.2054134E+02  0.7546771E-02  0.1525915E+00
         21   -1    0    0  503  502  0.00000000000E+00  0.00000000000E+00  0.32013373807E+03  0.32013373807E+03  0.00000000000E+00 0.  1.
         21   -1    0    0  501  503 -0.00000000000E+00 -0.00000000000E+00 -0.14355505587E+01  0.14355505587E+01  0.00000000000E+00 0. -1.
          2    1    1    2  501    0 -0.18756753341E+02  0.83744052263E+01  0.11334580791E+03  0.11519209448E+03  0.00000000000E+00 0. -1.
         -2    1    1    2    0  502  0.18756753341E+02 -0.83744052263E+01  0.20535237960E+03  0.20637719416E+03  0.00000000000E+00 0.  1.
</event>
<event>
 4    1  0.1874565E+004  0.2322836E+02  0.7546771E-02  0.1489650E+00
         21   -1    0    0  501  502  0.00000000000E+00  0.00000000000E+00  0.16077725319E+03  0.16077725319E+03  0.00000000000E+00 0.  1.
         21   -1    0    0  502  503 -0.00000000000E+00 -0.00000000000E+00 -0.11013047122E+02  0.11013047122E+02  0.00000000000E+00 0. -1.
          2    1    1    2  501    0 -0.42852362371E+01  0.22829663674E+02  0.32599103582E+01  0.23455997285E+02  0.00000000000E+00 0. -1.
         -2    1    1    2    0  503  0.42852362371E+01 -0.22829663674E+02  0.14650429571E+03  0.14833430303E+03  0.00000000000E+00 0.  1.
</event>
<event>
 4    1  0.1874565E+004  0.2881652E+02  0.7546771E-02  0.1430167E+00
         21   -1    0    0  501  502  0.00000000000E+00  0.00000000000E+00  0.18729592809E+03  0.18729592809E+03  0.00000000000E+00 0.  1.
         21   -1    0    0  502  503 -0.00000000000E+00 -0.00000000000E+00 -0.10654090630E+02  0.10654090630E+02  0.00000000000E+00 0. -1.
          2    1    1    2  501    0  0.28083771239E+02  0.64570545552E+01  0.16394851972E+03  0.16646173398E+03  0.00000000000E+00 0.  1.
         -2    1    1    2    0  503 -0.28083771239E+02 -0.64570545552E+01  0.12693317733E+02  0.31488284736E+02  0.00000000000E+00 0. -1.
</event>
<event>
 4    1  0.1874565E+004  0.2229250E+02  0.7546771E-02  0.1501579E+00
         21   -1    0    0  503  502  0.00000000000E+00  0.00000000000E+00  0.93135013593E+00  0.93135013593E+00  0.00000000000E+00 0.  1.
         21   -1    0    0  501  503 -0.00000000000E+00 -0.00000000000E+00 -0.75653741799E+03  0.75653741799E+03  0.00000000000E+00 0. -1.
          2    1    1    2  501    0 -0.12419082908E+02  0.18512749403E+02 -0.58340370393E+03  0.58382945906E+03  0.00000000000E+00 0. -1.
         -2    1    1    2    0  502  0.12419082908E+02 -0.18512749403E+02 -0.17220236392E+03  0.17363930906E+03  0.00000000000E+00 0.  1.
</event>
<event>
 4    1  0.1874565E+004  0.2400341E+02  0.7546771E-02  0.1480269E+00
         21   -1    0    0  501  502  0.00000000000E+00  0.00000000000E+00  0.51521536773E+00  0.51521536773E+00  0.00000000000E+00 0. -1.
         21   -1    0    0  502  503 -0.00000000000E+00 -0.00000000000E+00 -0.17333576283E+04  0.17333576283E+04  0.00000000000E+00 0.  1.
          2    1    1    2  501    0  0.23989906592E+02 -0.80501258910E+00 -0.35000219948E+03  0.35082431972E+03  0.00000000000E+00 0. -1.
         -2    1    1    2    0  503 -0.23989906592E+02  0.80501258910E+00 -0.13828402135E+04  0.13830485240E+04  0.00000000000E+00 0.  1.
</event>
<event>
 4    1  0.1874565E+004  0.2732522E+02  0.7546771E-02  0.1444368E+00
         21   -1    0    0  501  502  0.00000000000E+00  0.00000000000E+00  0.46393746373E+02  0.46393746373E+02  0.00000000000E+00 0.  1.
         21   -1    0    0  502  503 -0.00000000000E+00 -0.00000000000E+00 -0.85308894853E+02  0.85308894853E+02  0.00000000000E+00 0. -1.
          2    1    1    2  501    0  0.15101078546E+02  0.22773343576E+02  0.39857715085E+02  0.48324995631E+02  0.00000000000E+00 0.  1.
         -2    1    1    2    0  503 -0.15101078546E+02 -0.22773343576E+02 -0.78772863565E+02  0.83377645595E+02  0.00000000000E+00 0. -1.
</event>
<event>
 4    1  0.1874565E+004  0.3039880E+02  0.7546771E-02  0.1416162E+00
         21   -1    0    0  503  502  0.00000000000E+00  0.00000000000E+00  0.11886908470E+03  0.11886908470E+03  0.00000000000E+00 0.  1.
         21   -1    0    0  501  503 -0.00000000000E+00 -0.00000000000E+00 -0.12374920694E+02  0.12374920694E+02  0.00000000000E+00 0. -1.
          2    1    1    2  501    0  0.29866119704E+02 -0.56658367612E+01  0.13234072396E+02  0.33154599750E+02  0.00000000000E+00 0. -1.
         -2    1    1    2    0  502 -0.29866119704E+02  0.56658367612E+01  0.93260091608E+02  0.98089405641E+02  0.00000000000E+00 0.  1.
</event>
<event>
 4    1  0.1874565E+004  0.2480210E+02  0.7546771E-02  0.1471030E+00
         21   -1    0    0  503  502  0.00000000000E+00  0.00000000000E+00  0.14809515548E+02  0.14809515548E+02  0.00000000000E+00 0.  1.
         21   -1    0    0  501  503 -0.00000000000E+00 -0.00000000000E+00 -0.46247498043E+02  0.46247498043E+02  0.00000000000E+00 0. -1.
          2    1    1    2  501    0  0.19012085414E+02 -0.15927481849E+02 -0.25461954169E+02  0.35545114713E+02  0.00000000000E+00 0.  1.
         -2    1    1    2    0  502 -0.19012085414E+02  0.15927481849E+02 -0.59760283260E+01  0.25511898878E+02  0.00000000000E+00 0. -1.
</event>
<event>
 4    1  0.1874565E+004  0.2273184E+02  0.7546771E-02  0.1495893E+00
         21   -1    0    0  503  502  0.00000000000E+00  0.00000000000E+00  0.10119821847E+02  0.10119821847E+02  0.00000000000E+00 0. -1.
         21   -1    0    0  501  503 -0.00000000000E+00 -0.00000000000E+00 -0.43074759798E+03  0.43074759798E+03  0.00000000000E+00 0.  1.
          2    1    1    2  501    0  0.22628089042E+02  0.21693744057E+01 -0.41727022950E+03  0.41788895777E+03  0.00000000000E+00 0.  1.
         -2    1    1    2    0  502 -0.22628089042E+02 -0.21693744057E+01 -0.33575466309E+01  0.22978462054E+02  0.00000000000E+00 0. -1.
</event>
<event>
 4    1  0.1874565E+004  0.2900084E+02  0.7546771E-02  0.1428482E+00
         21   -1    0    0  503  502  0.00000000000E+00  0.00000000000E+00  0.90830547506E+01  0.90830547506E+01  0.00000000000E+00 0. -1.
         21   -1    0    0  501  503 -0.00000000000E+00 -0.00000000000E+00 -0.10270398208E+03  0.10270398208E+03  0.00000000000E+00 0.  1.
          2    1    1    2  501    0  0.27298707627E+02 -0.97892292688E+01 -0.64345813802E+02  0.70579261838E+02  0.00000000000E+00 0. -1.
         -2    1    1    2    0  502 -0.27298707627E+02  0.97892292688E+01 -0.29275113528E+02  0.41207774993E+02  0.00000000000E+00 0.  1.
</event>
<event>
 4    1  0.1874565E+004  0.2138909E+02  0.7546771E-02  0.1513782E+00
         21   -1    0    0  503  502  0.00000000000E+00  0.00000000000E+00  0.15590641769E+04  0.15590641769E+04  0.00000000000E+00 0.  1.
         21   -1    0    0  501  503 -0.00000000000E+00 -0.00000000000E+00 -0.46250201987E+00  0.46250201987E+00  0.00000000000E+00 0. -1.
          2    1    1    2  501    0  0.18063859646E+02 -0.11453824584E+02  0.30785921095E+03  0.30860133974E+03  0.00000000000E+00 0. -1.
         -2    1    1    2    0  502 -0.18063859646E+02  0.11453824584E+02  0.12507424639E+04  0.12509253391E+04  0.00000000000E+00 0.  1.
</event>
<event>
 4    1  0.1874565E+004  0.3124881E+02  0.7546771E-02  0.1409046E+00
         21   -1    0    0  503  502  0.00000000000E+00  0.00000000000E+00  0.67034772563E+01  0.67034772563E+01  0.00000000000E+00 0.  1.
         21   -1    0    0  501  503 -0.00000000000E+00 -0.00000000000E+00 -0.14648216647E+03  0.14648216647E+03  0.00000000000E+00 0. -1.
          2    1    1    2  501    0  0.24994577888E+02  0.18755250991E+02 -0.64182396232E+02  0.71385351086E+02  0.00000000000E+00 0. -1.
         -2    1    1    2    0  502 -0.24994577888E+02 -0.18755250991E+02 -0.75596292981E+02  0.81800292640E+02  0.00000000000E+00 0.  1.
</event>
<event>
 4    1  0.1874565E+004  0.3312189E+02  0.7546771E-02  0.1394270E+00
         21   -1    0    0  501  502  0.00000000000E+00  0.00000000000E+00  0.57093302164E+01  0.57093302164E+01  0.00000000000E+00 0.  1.
         21   -1    0    0  502  503 -0.00000000000E+00 -0.00000000000E+00 -0.23085625703E+03  0.23085625703E+03  0.00000000000E+00 0. -1.
          2    1    1    2  501    0  0.23715500667E+02 -0.23122165646E+02 -0.64141751011E+02  0.72188806188E+02  0.00000000000E+00 0.  1.
         -2    1    1    2    0  503 -0.23715500667E+02  0.23122165646E+02 -0.16100517580E+03  0.16437678106E+03  0.00000000000E+00 0. -1.
</event>
<event>
 4    1  0.1874565E+004  0.4946478E+02  0.7546771E-02  0.1300510E+00
         21   -1    0    0  501  502  0.00000000000E+00  0.00000000000E+00  0.17653606201E+02  0.17653606201E+02  0.00000000000E+00 0.  1.
         21   -1    0    0  502  503 -0.00000000000E+00 -0.00000000000E+00 -0.20614152397E+03  0.20614152397E+03  0.00000000000E+00 0. -1.
          2    1    1    2  501    0 -0.42226824013E+02  0.25761603379E+02 -0.30192671133E+02  0.57951378457E+02  0.00000000000E+00 0.  1.
         -2    1    1    2    0  503  0.42226824013E+02 -0.25761603379E+02 -0.15829524663E+03  0.16584375171E+03  0.00000000000E+00 0. -1.
</event>
<event>
 4    1  0.1874565E+004  0.5294691E+02  0.7546771E-02  0.1285877E+00
         21   -1    0    0  503  502  0.00000000000E+00  0.00000000000E+00  0.36621208068E+02  0.36621208068E+02  0.00000000000E+00 0. -1.
         21   -1    0    0  501  503 -0.00000000000E+00 -0.00000000000E+00 -0.17910335956E+03  0.17910335956E+03  0.00000000000E+00 0.  1.
          2    1    1    2  501    0 -0.39686392069E+02  0.35048039930E+02 -0.15286011109E+03  0.16177017148E+03  0.00000000000E+00 0.  1.
         -2    1    1    2    0  502  0.39686392069E+02 -0.35048039930E+02  0.10377959597E+02  0.53954396149E+02  0.00000000000E+00 0. -1.
</event>
<event>
 4    1  0.1874565E+004  0.4132681E+02  0.7546771E-02  0.1340881E+00
         21   -1    0    0  501  502  0.00000000000E+00  0.00000000000E+00  0.12073216708E+03  0.12073216708E+03  0.00000000000E+00 0.  1.
         21   -1    0    0  502  503 -0.00000000000E+00 -0.00000000000E+00 -0.14207275706E+02  0.14207275706E+02  0.00000000000E+00 0. -1.
          2    1    1    2  501    0  0.52349917781E+01  0.40993902259E+02  0.48839858206E+02  0.63978409725E+02  0.00000000000E+00 0.  1.
         -2    1    1    2    0  503 -0.52349917781E+01 -0.40993902259E+02  0.57685033165E+02  0.70961033058E+02  0.00000000000E+00 0. -1.
</event>
<event>
 4    1  0.1874565E+004  0.2011359E+02  0.7546771E-02  0.1532306E+00
         21   -1    0    0  503  502  0.00000000000E+00  0.00000000000E+00  0.32271252696E+03  0.32271252696E+03  0.00000000000E+00 0. -1.
         21   -1    0    0  501  503 -0.00000000000E+00 -0.00000000000E+00 -0.31203257148E+01  0.31203257148E+01  0.00000000000E+00 0.  1.
          2    1    1    2  501    0  0.91021776047E+01  0.17936188175E+02  0.33786480691E+02  0.39320258912E+02  0.00000000000E+00 0.  1.
         -2    1    1    2    0  502 -0.91021776047E+01 -0.17936188175E+02  0.28580572055E+03  0.28651259376E+03  0.00000000000E+00 0. -1.
</event>
<event>
 4    1  0.1874565E+004  0.3039486E+02  0.7546771E-02  0.1416195E+00
         21   -1    0    0  501  502  0.00000000000E+00  0.00000000000E+00  0.37525277487E+01  0.37525277487E+01  0.00000000000E+00 0. -1.
         21   -1    0    0  502  503 -0.00000000000E+00 -0.00000000000E+00 -0.28219213335E+03  0.28219213335E+03  0.00000000000E+00 0.  1.
          2    1    1    2  501    0 -0.26537794311E+02  0.14818677691E+02 -0.88154856294E+02  0.93247661759E+02  0.00000000000E+00 0. -1.
         -2    1    1    2    0  503  0.26537794311E+02 -0.14818677691E+02 -0.19028474931E+03  0.19269699934E+03  0.00000000000E+00 0.  1.
</event>
<event>
 4    1  0.1874565E+004  0.2266194E+02  0.7546771E-02  0.1496787E+00
         21   -1    0    0  501  502  0.00000000000E+00  0.00000000000E+00  0.63183554056E+02  0.63183554056E+02  0.00000000000E+00 0. -1.
         21   -1    0    0  502  503 -0.00000000000E+00 -0.00000000000E+00 -0.83879814145E+01  0.83879814145E+01  0.00000000000E+00 0.  1.
          2    1    1    2  501    0 -0.14675284879E+02 -0.17268458680E+02  0.33696482044E+02  0.40608084830E+02  0.00000000000E+00 0.  1.
         -2    1    1    2    0  503  0.14675284879E+02  0.17268458680E+02  0.21099090598E+02  0.30963450640E+02  0.00000000000E+00 0. -1.
</event>
<event>
 4    1  0.1874565E+004  0.2994476E+02  0.7546771E-02  0.1420077E+00
         21   -1    0    0  503  502  0.00000000000E+00  0.00000000000E+00  0.16414987307E+03  0.16414987307E+03  0.00000000000E+00 0. -1.
         21   -1    0    0  501  503 -0.00000000000E+00 -0.00000000000E+00 -0.54767872678E+01  0.54767872678E+01  0.00000000000E+00 0.  1.
          2    1    1    2  501    0  0.15378954025E+02  0.25693896227E+02  0.83650046562E+02  0.88848291036E+02  0.00000000000E+00 0. -1.
         -2    1    1    2    0  502 -0.15378954025E+02 -0.25693896227E+02  0.75023039241E+02  0.80778369303E+02  0.00000000000E+00 0.  1.
</event>
<event>
 4    1  0.1874565E+004  0.2543280E+02  0.7546771E-02  0.1464019E+00
         21   -1    0    0  501  502  0.00000000000E+00  0.00000000000E+00  0.17597723235E+02  0.17597723235E+02  0.00000000000E+00 0. -1.
         21   -1    0    0  502  503 -0.00000000000E+00 -0.00000000000E+00 -0.10473508165E+03  0.10473508165E+03  0.00000000000E+00 0.  1.
          2    1    1    2  501    0 -0.46419382440E+01 -0.25005594289E+02  0.57093706484E+01  0.26065767773E+02  0.00000000000E+00 0. -1.
         -2    1    1    2    0  503  0.46419382440E+01  0.25005594289E+02 -0.92846729067E+02  0.96267037115E+02  0.00000000000E+00 0.  1.
</event>
<event>
 4    1  0.1874565E+004  0.3023854E+02  0.7546771E-02  0.1417535E+00
         21   -1    0    0  501  502  0.00000000000E+00  0.00000000000E+00  0.54897998238E+03  0.54897998238E+03  0.00000000000E+00 0. -1.
         21   -1    0    0  502  503 -0.00000000000E+00 -0.00000000000E+00 -0.20354799546E+01  0.20354799546E+01  0.00000000000E+00 0.  1.
          2    1    1    2  501    0  0.10591576045E+02 -0.28322925644E+02  0.15602495410E+03  0.15892814697E+03  0.00000000000E+00 0.  1.
         -2    1    1    2    0  503 -0.10591576045E+02  0.28322925644E+02  0.39091954833E+03  0.39208731536E+03  0.00000000000E+00 0. -1.
</event>
<event>
 4    1  0.1874565E+004  0.2296281E+02  0.7546771E-02  0.1492966E+00
         21   -1    0    0  503  502  0.00000000000E+00  0.00000000000E+00  0.42835629436E+02  0.42835629436E+02  0.00000000000E+00 0.  1.
         21   -1    0    0  501  503 -0.00000000000E+00 -0.00000000000E+00 -0.13637165080E+02  0.13637165080E+02  0.00000000000E+00 0. -1.
          2    1    1    2  501    0 -0.77993585318E+01 -0.21597703742E+02  0.57893511884E+01  0.23681372165E+02  0.00000000000E+00 0. -1.
         -2    1    1    2    0  502  0.77993585318E+01  0.21597703742E+02  0.23409113168E+02  0.32791422350E+02  0.00000000000E+00 0.  1.
</event>
<event>
 4    1  0.1874565E+004  0.2263464E+02  0.7546771E-02  0.1497138E+00
         21   -1    0    0  503  502  0.00000000000E+00  0.00000000000E+00  0.14627729227E+03  0.14627729227E+03  0.00000000000E+00 0.  1.
         21   -1    0    0  501  503 -0.00000000000E+00 -0.00000000000E+00 -0.95245103076E+01  0.95245103076E+01  0.00000000000E+00 0. -1.
          2    1    1    2  501    0 -0.22632813563E+02  0.28716856860E+00  0.64331045209E+01  0.23531076247E+02  0.00000000000E+00 0. -1.
         -2    1    1    2    0  502  0.22632813563E+02 -0.28716856860E+00  0.13031967744E+03  0.13227072633E+03  0.00000000000E+00 0.  1.
</event>
<event>
 4    1  0.1874565E+004  0.2144175E+02  0.7546771E-02  0.1513050E+00
         21   -1    0    0  501  502  0.00000000000E+00  0.00000000000E+00  0.88040025862E+01  0.88040025862E+01  0.00000000000E+00 0.  1.
         21   -1    0    0  502  503 -0.00000000000E+00 -0.00000000000E+00 -0.61532764779E+02  0.61532764779E+02  0.00000000000E+00 0. -1.
          2    1    1    2  501    0 -0.14025457045E+02  0.16218362911E+02 -0.12683040863E+02  0.24912010485E+02  0.00000000000E+00 0.  1.
         -2    1    1    2    0  503  0.14025457045E+02 -0.16218362911E+02 -0.40045721330E+02  0.45424756881E+02  0.00000000000E+00 0. -1.
</event>
<event>
 4    1  0.1874565E+004  0.3864278E+02  0.7546771E-02  0.1356628E+00
         21   -1    0    0  501  502  0.00000000000E+00  0.00000000000E+00  0.19963311525E+03  0.19963311525E+03  0.00000000000E+00 0.  1.
         21   -1    0    0  502  503 -0.00000000000E+00 -0.00000000000E+00 -0.81995513408E+01  0.81995513408E+01  0.00000000000E+00 0. -1.
          2    1    1    2  501    0  0.23910686397E+02  0.30356935568E+02  0.12649946152E+03  0.13227009574E+03  0.00000000000E+00 0. -1.
         -2    1    1    2    0  503 -0.23910686397E+02 -0.30356935568E+02  0.64934102387E+02  0.75562570852E+02  0.00000000000E+00 0.  1.
</event>
<event>
 4    1  0.1874565E+004  0.4747499E+02  0.7546771E-02  0.1309508E+00
         21   -1    0    0  501  502  0.00000000000E+00  0.00000000000E+00  0.19656218008E+03  0.19656218008E+03  0.00000000000E+00 0.  1.
         21   -1    0    0  502  503 -0.00000000000E+00 -0.00000000000E+00 -0.56812332023E+02  0.56812332023E+02  0.00000000000E+00 0. -1.
          2    1    1    2  501    0  0.14634052071E+02 -0.45163246388E+02  0.18305772921E+03  0.18911373966E+03  0.00000000000E+00 0.  1.
         -2    1    1    2    0  503 -0.14634052071E+02  0.45163246388E+02 -0.43307881156E+02  0.64260772440E+02  0.00000000000E+00 0. -1.
</event>
<event>
 4    1  0.1874565E+004  0.2115268E+02  0.7546771E-02  0.1517096E+00
         21   -1    0    0  503  502  0.00000000000E+00  0.00000000000E+00  0.29703633056E+03  0.29703633056E+03  0.00000000000E+00 0.  1.
         21   -1    0    0  501  503 -0.00000000000E+00 -0.00000000000E+00 -0.27222359154E+01  0.27222359154E+01  0.00000000000E+00 0. -1.
          2    1    1    2  501    0 -0.79258077582E+01  0.19611670894E+02  0.46989298168E+02  0.51530866538E+02  0.00000000000E+00 0. -1.
         -2    1    1    2    0  502  0.79258077582E+01 -0.19611670894E+02  0.24732479648E+03  0.24822769994E+03  0.00000000000E+00 0.  1.
</event>
<event>
 4    1  0.1874565E+004  0.2360422E+02  0.7546771E-02  0.1485047E+00
         21   -1    0    0  503  502  0.00000000000E+00  0.00000000000E+00  0.63194697117E+01  0.63194697117E+01  0.00000000000E+00 0.  1.
         21   -1    0    0  501  503 -0.00000000000E+00 -0.00000000000E+00 -0.90341569600E+02  0.90341569600E+02  0.00000000000E+00 0. -1.
          2    1    1    2  501    0 -0.19884915058E+02  0.12718066472E+02 -0.49512001017E+02  0.54850681913E+02  0.00000000000E+00 0. -1.
         -2    1    1    2    0  502  0.19884915058E+02 -0.12718066472E+02 -0.34510098871E+02  0.41810357398E+02  0.00000000000E+00 0.  1.
</event>
<event>
 4    1  0.1874565E+004  0.2322593E+02  0.7546771E-02  0.1489681E+00
         21   -1    0    0  503  502  0.00000000000E+00  0.00000000000E+00  0.25762218356E+02  0.25762218356E+02  0.00000000000E+00 0. -1.
         21   -1    0    0  501  503 -0.00000000000E+00 -0.00000000000E+00 -0.23666105889E+02  0.23666105889E+02  0.00000000000E+00 0.  1.
          2    1    1    2  501    0  0.13543691418E+02 -0.18868281813E+02 -0.73408835252E+01  0.24358411417E+02  0.00000000000E+00 0.  1.
         -2    1    1    2    0  502 -0.13543691418E+02  0.18868281813E+02  0.94369959926E+01  0.25069912828E+02  0.00000000000E+00 0. -1.
</event>
<event>
 4    1  0.1874565E+004  0.2822584E+02  0.7546771E-02  0.1435668E+00
         21   -1    0    0  503  502  0.00000000000E+00  0.00000000000E+00  0.20177927484E+03  0.20177927484E+03  0.00000000000E+00 0. -1.
         21   -1    0    0  501  503 -0.00000000000E+00 -0.00000000000E+00 -0.39827278865E+01  0.39827278865E+01  0.00000000000E+00 0.  1.
          2    1    1    2  501    0  0.17928669682E+02  0.21800480422E+02  0.89341918076E+02  0.93694591459E+02  0.00000000000E+00 0.  1.
         -2    1    1    2    0  502 -0.17928669682E+02 -0.21800480422E+02  0.10845462888E+03  0.11206741127E+03  0.00000000000E+00 0. -1.
</event>
<event>
 4    1  0.1874565E+004  0.2484045E+02  0.7546771E-02  0.1470596E+00
         21   -1    0    0  503  502  0.00000000000E+00  0.00000000000E+00  0.19587623764E+02  0.19587623764E+02  0.00000000000E+00 0.  1.
         21   -1    0    0  501  503 -0.00000000000E+00 -0.00000000000E+00 -0.37308454602E+02  0.37308454602E+02  0.00000000000E+00 0. -1.
          2    1    1    2  501    0  0.23476236837E+02  0.81187559948E+01 -0.20083363478E+02  0.31943534299E+02  0.00000000000E+00 0.  1.
         -2    1    1    2    0  502 -0.23476236837E+02 -0.81187559948E+01  0.23625326409E+01  0.24952544067E+02  0.00000000000E+00 0. -1.
</event>
<event>
 4    1  0.1874565E+004  0.2974627E+02  0.7546771E-02  0.1421814E+00
         21   -1    0    0  503  502  0.00000000000E+00  0.00000000000E+00  0.17696946887E+02  0.17696946887E+02  0.00000000000E+00 0. -1.
         21   -1    0    0  501  503 -0.00000000000E+00 -0.00000000000E+00 -0.54846064447E+02  0.54846064447E+02  0.00000000000E+00 0.  1.
          2    1    1    2  501    0 -0.29711970055E+02 -0.14281776061E+01 -0.29356671564E+02  0.41793002059E+02  0.00000000000E+00 0.  1.
         -2    1    1    2    0  502  0.29711970055E+02  0.14281776061E+01 -0.77924459960E+01  0.30750009275E+02  0.00000000000E+00 0. -1.
</event>
<event>
 4    1  0.1874565E+004  0.2205086E+02  0.7546771E-02  0.1504773E+00
         21   -1    0    0  501  502  0.00000000000E+00  0.00000000000E+00  0.25744987382E+02  0.25744987382E+02  0.00000000000E+00 0.  1.
         21   -1    0    0  502  503 -0.00000000000E+00 -0.00000000000E+00 -0.22888381554E+02  0.22888381554E+02  0.00000000000E+00 0. -1.
          2    1    1    2  501    0  0.18233411301E+02 -0.12400940387E+02  0.11595758143E+02  0.24913896063E+02  0.00000000000E+00 0.  1.
         -2    1    1    2    0  503 -0.18233411301E+02  0.12400940387E+02 -0.87391523152E+01  0.23719472872E+02  0.00000000000E+00 0. -1.
</event>
<event>
 4    1  0.1874565E+004  0.2240421E+02  0.7546771E-02  0.1500118E+00
         21   -1    0    0  501  502  0.00000000000E+00  0.00000000000E+00  0.21655416385E+02  0.21655416385E+02  0.00000000000E+00 0.  1.
         21   -1    0    0  502  503 -0.00000000000E+00 -0.00000000000E+00 -0.16399726981E+03  0.16399726981E+03  0.00000000000E+00 0. -1.
          2    1    1    2  501    0  0.18614749699E+02  0.12467546735E+02  0.14845737481E+02  0.26876468319E+02  0.00000000000E+00 0.  1.
         -2    1    1    2    0  503 -0.18614749699E+02 -0.12467546735E+02 -0.15718759091E+03  0.15877621788E+03  0.00000000000E+00 0. -1.
</event>
<event>
 4    1  0.1874565E+004  0.2862896E+02  0.7546771E-02  0.1431897E+00
         21   -1    0    0  503  502  0.00000000000E+00  0.00000000000E+00  0.36547130066E+01  0.36547130066E+01  0.00000000000E+00 0.  1.
         21   -1    0    0  501  503 -0.00000000000E+00 -0.00000000000E+00 -0.52901805895E+03  0.52901805895E+03  0.00000000000E+00 0. -1.
          2    1    1    2  501    0 -0.27661217928E+02 -0.73806787515E+01 -0.46483021771E+03  0.46571101414E+03  0.00000000000E+00 0. -1.
         -2    1    1    2    0  502  0.27661217928E+02  0.73806787515E+01 -0.60533128240E+02  0.66961757822E+02  0.00000000000E+00 0.  1.
</event>
<event>
 4    1  0.1874565E+004  0.2310029E+02  0.7546771E-02  0.1491243E+00
         21   -1    0    0  503  502  0.00000000000E+00  0.00000000000E+00  0.42079982818E+01  0.42079982818E+01  0.00000000000E+00 0.  1.
         21   -1    0    0  501  503 -0.00000000000E+00 -0.00000000000E+00 -0.21590950940E+03  0.21590950940E+03  0.00000000000E+00 0. -1.
          2    1    1    2  501    0 -0.16584473387E+02 -0.16080381327E+02 -0.17655121173E+03  0.17805604113E+03  0.00000000000E+00 0. -1.
         -2    1    1    2    0  502  0.16584473387E+02  0.16080381327E+02 -0.35150299395E+02  0.42061466554E+02  0.00000000000E+00 0.  1.
</event>
<event>
 4    1  0.1874565E+004  0.2806143E+02  0.7546771E-02  0.1437228E+00
         21   -1    0    0  503  502  0.00000000000E+00  0.00000000000E+00  0.12587467197E+02  0.12587467197E+02  0.00000000000E+00 0. -1.
         21   -1    0    0  501  503 -0.00000000000E+00 -0.00000000000E+00 -0.10352369862E+03  0.10352369862E+03  0.00000000000E+00 0.  1.
          2    1    1    2  501    0 -0.27186099853E+02 -0.69541274261E+01 -0.81988512468E+02  0.86657718007E+02  0.00000000000E+00 0.  1.
         -2    1    1    2    0  502  0.27186099853E+02  0.69541274261E+01 -0.89477189554E+01  0.29453447811E+02  0.00000000000E+00 0. -1.
</event>
<event>
 4    1  0.1874565E+004  0.2440568E+02  0.7546771E-02  0.1475563E+00
         21   -1    0    0  501  502  0.00000000000E+00  0.00000000000E+00  0.30067272210E+03  0.30067272210E+03  0.00000000000E+00 0. -1.
         21   -1    0    0  502  503 -0.00000000000E+00 -0.00000000000E+00 -0.31441028531E+01  0.31441028531E+01  0.00000000000E+00 0.  1.
          2    1    1    2  501    0 -0.24052616648E+02  0.41362863930E+01  0.24115743868E+03  0.24238924783E+03  0.00000000000E+00 0.  1.
         -2    1    1    2    0  503  0.24052616648E+02 -0.41362863930E+01  0.56371180567E+02  0.61427577124E+02  0.00000000000E+00 0. -1.
</event>
<event>
 4    1  0.1874565E+004  0.2060669E+02  0.7546771E-02  0.1524955E+00
         21   -1    0    0  501  502  0.00000000000E+00  0.00000000000E+00  0.12488922978E+03  0.12488922978E+03  0.00000000000E+00 0. -1.
         21   -1    0    0  502  503 -0.00000000000E+00 -0.00000000000E+00 -0.39870846209E+01  0.39870846209E+01  0.00000000000E+00 0.  1.
          2    1    1    2  501    0  0.15331816689E+02 -0.13768485233E+02  0.35726488847E+02  0.41243396973E+02  0.00000000000E+00 0.  1.
         -2    1    1    2    0  503 -0.15331816689E+02  0.13768485233E+02  0.85175656309E+02  0.87632917424E+02  0.00000000000E+00 0. -1.
</event>
<event>
 4    1  0.1874565E+004  0.2377831E+02  0.7546771E-02  0.1482949E+00
         21   -1    0    0  501  502  0.00000000000E+00  0.00000000000E+00  0.41753880710E+02  0.41753880710E+02  0.00000000000E+00 0.  1.
         21   -1    0    0  502  503 -0.00000000000E+00 -0.00000000000E+00 -0.18369038923E+02  0.18369038923E+02  0.00000000000E+00 0. -1.
          2    1    1    2  501    0  0.11492796564E+02 -0.20816430298E+02  0.27103460298E+02  0.36055591846E+02  0.00000000000E+00 0.  1.
         -2    1    1    2    0  503 -0.11492796564E+02  0.20816430298E+02 -0.37186185112E+01  0.24067327788E+02  0.00000000000E+00 0. -1.
</event>
<event>
 4    1  0.1874565E+004  0.3293764E+02  0.7546771E-02  0.1395672E+00
         21   -1    0    0  501  502  0.00000000000E+00  0.00000000000E+00  0.32865935839E+02  0.32865935839E+02  0.00000000000E+00 0.  1.
         21   -1    0    0  502  503 -0.00000000000E+00 -0.00000000000E+00 -0.37357543158E+02  0.37357543158E+02  0.00000000000E+00 0. -1.
          2    1    1    2  501    0 -0.23207471880E+01 -0.32855784578E+02  0.97328939252E+01  0.34345562623E+02  0.00000000000E+00 0. -1.
         -2    1    1    2    0  503  0.23207471880E+01  0.32855784578E+02 -0.14224501244E+02  0.35877916375E+02  0.00000000000E+00 0.  1.
</event>
<event>
 4    1  0.1874565E+004  0.2828087E+02  0.7546771E-02  0.1435149E+00
         21   -1    0    0  501  502  0.00000000000E+00  0.00000000000E+00  0.54695631281E+02  0.54695631281E+02  0.00000000000E+00 0.  1.
         21   -1    0    0  502  503 -0.00000000000E+00 -0.00000000000E+00 -0.43391825990E+02  0.43391825990E+02  0.00000000000E+00 0. -1.
          2    1    1    2  501    0  0.74673467076E+01  0.27277215668E+02  0.45585779843E+02  0.53645792802E+02  0.00000000000E+00 0.  1.
         -2    1    1    2    0  503 -0.74673467076E+01 -0.27277215668E+02 -0.34281974552E+02  0.44441664468E+02  0.00000000000E+00 0. -1.
</event>
<event>
 4    1  0.1874565E+004  0.3027478E+02  0.7546771E-02  0.1417223E+00
         21   -1    0    0  501  502  0.00000000000E+00  0.00000000000E+00  0.21993030210E+01  0.21993030210E+01  0.00000000000E+00 0. -1.
         21   -1    0    0  502  503 -0.00000000000E+00 -0.00000000000E+00 -0.45830353676E+03  0.45830353676E+03  0.00000000000E+00 0.  1.
          2    1    1    2  501    0  0.21311193140E+02  0.21503376410E+02 -0.15872175077E+03  0.16158327982E+03  0.00000000000E+00 0.  1.
         -2    1    1    2    0  503 -0.21311193140E+02 -0.21503376410E+02 -0.29738248297E+03  0.29891955996E+03  0.00000000000E+00 0. -1.
</event>
<event>
 4    1  0.1874565E+004  0.2867861E+02  0.7546771E-02  0.1431438E+00
         21   -1    0    0  503  502  0.00000000000E+00  0.00000000000E+00  0.38415854081E+02  0.38415854081E+02  0.00000000000E+00 0. -1.
         21   -1    0    0  501  503 -0.00000000000E+00 -0.00000000000E+00 -0.21517634330E+02  0.21517634330E+02  0.00000000000E+00 0.  1.
          2    1    1    2  501    0  0.23839657484E+02 -0.15941566080E+02  0.10573815807E+02  0.30565804075E+02  0.00000000000E+00 0. -1.
         -2    1    1    2    0  502 -0.23839657484E+02  0.15941566080E+02  0.63244039439E+01  0.29367684336E+02  0.00000000000E+00 0.  1.
</event>
<event>
 4    1  0.1874565E+004  0.2100980E+02  0.7546771E-02  0.1519125E+00
         21   -1    0    0  501  502  0.00000000000E+00  0.00000000000E+00  0.10771911100E+02  0.10771911100E+02  0.00000000000E+00 0.  1.
         21   -1    0    0  502  503 -0.00000000000E+00 -0.00000000000E+00 -0.81356424493E+02  0.81356424493E+02  0.00000000000E+00 0. -1.
          2    1    1    2  501    0 -0.76100438415E+01 -0.19583129035E+02 -0.28402304052E+01  0.21200910802E+02  0.00000000000E+00 0.  1.
         -2    1    1    2    0  503  0.76100438415E+01  0.19583129035E+02 -0.67744282987E+02  0.70927424791E+02  0.00000000000E+00 0. -1.
</event>
<event>
 4    1  0.1874565E+004  0.3718673E+02  0.7546771E-02  0.1365810E+00
         21   -1    0    0  503  502  0.00000000000E+00  0.00000000000E+00  0.87026694066E+03  0.87026694066E+03  0.00000000000E+00 0. -1.
         21   -1    0    0  501  503 -0.00000000000E+00 -0.00000000000E+00 -0.16097425170E+01  0.16097425170E+01  0.00000000000E+00 0.  1.
          2    1    1    2  501    0  0.61137801981E+01 -0.36680712716E+02  0.38484153123E+03  0.38663400931E+03  0.00000000000E+00 0.  1.
         -2    1    1    2    0  502 -0.61137801981E+01  0.36680712716E+02  0.48381566691E+03  0.48524267386E+03  0.00000000000E+00 0. -1.
</event>
<event>
 4    1  0.1874565E+004  0.3607761E+02  0.7546771E-02  0.1373142E+00
         21   -1    0    0  503  502  0.00000000000E+00  0.00000000000E+00  0.17322063710E+02  0.17322063710E+02  0.00000000000E+00 0. -1.
         21   -1    0    0  501  503 -0.00000000000E+00 -0.00000000000E+00 -0.75932127514E+02  0.75932127514E+02  0.00000000000E+00 0.  1.
          2    1    1    2  501    0 -0.35186993430E+02  0.79667693733E+01 -0.24545101460E+02  0.43635489302E+02  0.00000000000E+00 0.  1.
         -2    1    1    2    0  502  0.35186993430E+02 -0.79667693733E+01 -0.34064962344E+02  0.49618701922E+02  0.00000000000E+00 0. -1.
</event>
<event>
 4    1  0.1874565E+004  0.2068860E+02  0.7546771E-02  0.1523758E+00
         21   -1    0    0  501  502  0.00000000000E+00  0.00000000000E+00  0.28275838851E+01  0.28275838851E+01  0.00000000000E+00 0. -1.
         21   -1    0    0  502  503 -0.00000000000E+00 -0.00000000000E+00 -0.23269138599E+03  0.23269138599E+03  0.00000000000E+00 0.  1.
          2    1    1    2  501    0  0.11788466449E+02 -0.17001481094E+02 -0.45317099784E+02  0.49816240660E+02  0.00000000000E+00 0. -1.
         -2    1    1    2    0  503 -0.11788466449E+02  0.17001481094E+02 -0.18454670233E+03  0.18570272922E+03  0.00000000000E+00 0.  1.
</event>
<event>
 4    1  0.1874565E+004  0.2758595E+02  0.7546771E-02  0.1441809E+00
         21   -1    0    0  503  502  0.00000000000E+00  0.00000000000E+00  0.19882220062E+02  0.19882220062E+02  0.00000000000E+00 0.  1.
         21   -1    0    0  501  503 -0.00000000000E+00 -0.00000000000E+00 -0.40405013318E+02  0.40405013318E+02  0.00000000000E+00 0. -1.
          2    1    1    2  501    0  0.97212301535E+01 -0.25816320536E+02 -0.17182989785E+02  0.32499843994E+02  0.00000000000E+00 0. -1.
         -2    1    1    2    0  502 -0.97212301535E+01  0.25816320536E+02 -0.33398034709E+01  0.27787389386E+02  0.00000000000E+00 0.  1.
</event>
<event>
 4    1  0.1874565E+004  0.3937654E+02  0.7546771E-02  0.1352178E+00
         21   -1    0    0  503  502  0.00000000000E+00  0.00000000000E+00  0.77995080909E+02  0.77995080909E+02  0.00000000000E+00 0. -1.
         21   -1    0    0  501  503 -0.00000000000E+00 -0.00000000000E+00 -0.36443187459E+02  0.36443187459E+02  0.00000000000E+00 0.  1.
          2    1    1    2  501    0  0.51655675143E+01 -0.39036248695E+02  0.59351323299E+02  0.71225637079E+02  0.00000000000E+00 0. -1.
         -2    1    1    2    0  502 -0.51655675143E+01  0.39036248695E+02 -0.17799429849E+02  0.43212631289E+02  0.00000000000E+00 0.  1.
</event>
<event>
 4    1  0.1874565E+004  0.2339665E+02  0.7546771E-02  0.1487577E+00
         21   -1    0    0  503  502  0.00000000000E+00  0.00000000000E+00  0.49022970991E+01  0.49022970991E+01  0.00000000000E+00 0.  1.
         21   -1    0    0  501  503 -0.00000000000E+00 -0.00000000000E+00 -0.17888305346E+03  0.17888305346E+03  0.00000000000E+00 0. -1.
          2    1    1    2  501    0  0.21690055171E+02 -0.87718082492E+01 -0.14332133110E+03  0.14521848044E+03  0.00000000000E+00 0. -1.
         -2    1    1    2    0  502 -0.21690055171E+02  0.87718082492E+01 -0.30659425255E+02  0.38566870112E+02  0.00000000000E+00 0.  1.
</event>
<event>
 4    1  0.1874565E+004  0.3777117E+02  0.7546771E-02  0.1362066E+00
         21   -1    0    0  501  502  0.00000000000E+00  0.00000000000E+00  0.16177808865E+03  0.16177808865E+03  0.00000000000E+00 0.  1.
         21   -1    0    0  502  503 -0.00000000000E+00 -0.00000000000E+00 -0.45808756342E+02  0.45808756342E+02  0.00000000000E+00 0. -1.
          2    1    1    2  501    0 -0.21186246893E+01 -0.37711705181E+02  0.15125391585E+03  0.15589871179E+03  0.00000000000E+00 0.  1.
         -2    1    1    2    0  503  0.21186246893E+01  0.37711705181E+02 -0.35284583541E+02  0.51688133202E+02  0.00000000000E+00 0. -1.
</event>
<event>
 4    1  0.1874565E+004  0.2421028E+02  0.7546771E-02  0.1477835E+00
         21   -1    0    0  501  502  0.00000000000E+00  0.00000000000E+00  0.76017567379E+02  0.76017567379E+02  0.00000000000E+00 0.  1.
         21   -1    0    0  502  503 -0.00000000000E+00 -0.00000000000E+00 -0.32576121749E+02  0.32576121749E+02  0.00000000000E+00 0. -1.
          2    1    1    2  501    0 -0.18459916384E+02 -0.15664269798E+02  0.69158470070E+02  0.73273677700E+02  0.00000000000E+00 0.  1.
         -2    1    1    2    0  503  0.18459916384E+02  0.15664269798E+02 -0.25717024441E+02  0.35320011428E+02  0.00000000000E+00 0. -1.
</event>
<event>
 4    1  0.1874565E+004  0.2148606E+02  0.7546771E-02  0.1512437E+00
         21   -1    0    0  501  502  0.00000000000E+00  0.00000000000E+00  0.14419744129E+02  0.14419744129E+02  0.00000000000E+00 0.  1.
         21   -1    0    0  502  503 -0.00000000000E+00 -0.00000000000E+00 -0.47792797492E+02  0.47792797492E+02  0.00000000000E+00 0. -1.
          2    1    1    2  501    0 -0.14286599037E+02 -0.16048173330E+02  0.11860579416E+01  0.21518771171E+02  0.00000000000E+00 0.  1.
         -2    1    1    2    0  503  0.14286599037E+02  0.16048173330E+02 -0.34559111304E+02  0.40693770450E+02  0.00000000000E+00 0. -1.
</event>
<event>
 4    1  0.1874565E+004  0.4217228E+02  0.7546771E-02  0.1336206E+00
         21   -1    0    0  501  502  0.00000000000E+00  0.00000000000E+00  0.18948723098E+02  0.18948723098E+02  0.00000000000E+00 0. -1.
         21   -1    0    0  502  503 -0.00000000000E+00 -0.00000000000E+00 -0.96217310104E+02  0.96217310104E+02  0.00000000000E+00 0.  1.
          2    1    1    2  501    0  0.41858196431E+02  0.51373751292E+01 -0.47650049036E+02  0.63631976276E+02  0.00000000000E+00 0.  1.
         -2    1    1    2    0  503 -0.41858196431E+02 -0.51373751292E+01 -0.29618537971E+02  0.51534056925E+02  0.00000000000E+00 0. -1.
</event>
<event>
 4    1  0.1874565E+004  0.2314922E+02  0.7546771E-02  0.1490633E+00
         21   -1    0    0  503  502  0.00000000000E+00  0.00000000000E+00  0.63315787650E+02  0.63315787650E+02  0.00000000000E+00 0.  1.
         21   -1    0    0  501  503 -0.00000000000E+00 -0.00000000000E+00 -0.91923098370E+01  0.91923098370E+01  0.00000000000E+00 0. -1.
          2    1    1    2  501    0 -0.20182387551E+02  0.11338322890E+02  0.37268532745E+02  0.43872883039E+02  0.00000000000E+00 0. -1.
         -2    1    1    2    0  502  0.20182387551E+02 -0.11338322890E+02  0.16854945069E+02  0.28635214448E+02  0.00000000000E+00 0.  1.
</event>
<event>
 4    1  0.1874565E+004  0.2005532E+02  0.7546771E-02  0.1533192E+00
         21   -1    0    0  503  502  0.00000000000E+00  0.00000000000E+00  0.83903377788E+02  0.83903377788E+02  0.00000000000E+00 0. -1.
         21   -1    0    0  501  503 -0.00000000000E+00 -0.00000000000E+00 -0.12986691519E+02  0.12986691519E+02  0.00000000000E+00 0.  1.
          2    1    1    2  501    0  0.15807385442E+01 -0.19992930920E+02 -0.30201988992E+01  0.20281460069E+02  0.00000000000E+00 0.  1.
         -2    1    1    2    0  502 -0.15807385442E+01  0.19992930920E+02  0.73936885168E+02  0.76608609238E+02  0.00000000000E+00 0. -1.
</event>
<event>
 4    1  0.1874565E+004  0.2587172E+02  0.7546771E-02  0.1459283E+00
         21   -1    0    0  501  502  0.00000000000E+00  0.00000000000E+00  0.29991334864E+02  0.29991334864E+02  0.00000000000E+00 0. -1.
         21   -1    0    0  502  503 -0.00000000000E+00 -0.00000000000E+00 -0.30883651277E+02  0.30883651277E+02  0.00000000000E+00 0.  1.
          2    1    1    2  501    0  0.25078584236E+02 -0.63569438253E+01  0.15583533438E+02  0.30202526989E+02  0.00000000000E+00 0. -1.
         -2    1    1    2    0  503 -0.25078584236E+02  0.63569438253E+01 -0.16475849851E+02  0.30672459152E+02  0.00000000000E+00 0.  1.
</event>
<event>
 4    1  0.1874565E+004  0.2328696E+02  0.7546771E-02  0.1488926E+00
         21   -1    0    0  503  502  0.00000000000E+00  0.00000000000E+00  0.21734410526E+03  0.21734410526E+03  0.00000000000E+00 0. -1.
         21   -1    0    0  501  503 -0.00000000000E+00 -0.00000000000E+00 -0.16283825854E+02  0.16283825854E+02  0.00000000000E+00 0.  1.
          2    1    1    2  501    0  0.16188242073E+02 -0.16739870597E+02 -0.69627011918E+01  0.24305589005E+02  0.00000000000E+00 0.  1.
         -2    1    1    2    0  502 -0.16188242073E+02  0.16739870597E+02  0.20802298060E+03  0.20932234211E+03  0.00000000000E+00 0. -1.
</event>
<event>
 4    1  0.1874565E+004  0.2085215E+02  0.7546771E-02  0.1521386E+00
         21   -1    0    0  501  502  0.00000000000E+00  0.00000000000E+00  0.12304658242E+02  0.12304658242E+02  0.00000000000E+00 0. -1.
         21   -1    0    0  502  503 -0.00000000000E+00 -0.00000000000E+00 -0.49434950240E+02  0.49434950240E+02  0.00000000000E+00 0.  1.
          2    1    1    2  501    0 -0.20773832799E+02 -0.18054988527E+01 -0.20800303330E+01  0.20955631259E+02  0.00000000000E+00 0. -1.
         -2    1    1    2    0  503  0.20773832799E+02  0.18054988527E+01 -0.35050261665E+02  0.40783977222E+02  0.00000000000E+00 0.  1.
</event>
<event>
 4    1  0.1874565E+004  0.3044663E+02  0.7546771E-02  0.1415754E+00
         21   -1    0    0  501  502  0.00000000000E+00  0.00000000000E+00  0.32682464002E+01  0.32682464002E+01  0.00000000000E+00 0. -1.
         21   -1    0    0  502  503 -0.00000000000E+00 -0.00000000000E+00 -0.32287854421E+03  0.32287854421E+03  0.00000000000E+00 0.  1.
          2    1    1    2  501    0 -0.27312376169E+02  0.13454784018E+02 -0.10295468356E+03  0.10736230237E+03  0.00000000000E+00 0.  1.
         -2    1    1    2    0  503  0.27312376169E+02 -0.13454784018E+02 -0.21665561425E+03  0.21878448823E+03  0.00000000000E+00 0. -1.
</event>
<event>
 4    1  0.1874565E+004  0.2853388E+02  0.7546771E-02  0.1432780E+00
         21   -1    0    0  503  502  0.00000000000E+00  0.00000000000E+00  0.20726149786E+03  0.20726149786E+03  0.00000000000E+00 0.  1.
         21   -1    0    0  501  503 -0.00000000000E+00 -0.00000000000E+00 -0.79486163441E+01  0.79486163441E+01  0.00000000000E+00 0. -1.
          2    1    1    2  501    0  0.25888977596E+01  0.28416186423E+02  0.17618400458E+03  0.17847965013E+03  0.00000000000E+00 0.  1.
         -2    1    1    2    0  502 -0.25888977596E+01 -0.28416186423E+02  0.23128876936E+02  0.36730464069E+02  0.00000000000E+00 0. -1.
</event>
<event>
 4    1  0.1874565E+004  0.2114599E+02  0.7546771E-02  0.1517191E+00
         21   -1    0    0  501  502  0.00000000000E+00  0.00000000000E+00  0.89966894545E+01  0.89966894545E+01  0.00000000000E+00 0.  1.
         21   -1    0    0  502  503 -0.00000000000E+00 -0.00000000000E+00 -0.50104640638E+02  0.50104640638E+02  0.00000000000E+00 0. -1.
          2    1    1    2  501    0  0.19270351889E+02 -0.87066778375E+01 -0.23203284152E+02  0.31393392558E+02  0.00000000000E+00 0.  1.
         -2    1    1    2    0  503 -0.19270351889E+02  0.87066778375E+01 -0.17904667032E+02  0.27707937535E+02  0.00000000000E+00 0. -1.
</event>
<event>
 4    1  0.1874565E+004  0.2592082E+02  0.7546771E-02  0.1458760E+00
         21   -1    0    0  501  502  0.00000000000E+00  0.00000000000E+00  0.11971720614E+03  0.11971720614E+03  0.00000000000E+00 0.  1.
         21   -1    0    0  502  503 -0.00000000000E+00 -0.00000000000E+00 -0.56255020828E+01  0.56255020828E+01  0.00000000000E+00 0. -1.
          2    1    1    2  501    0 -0.20873024973E+02  0.15368990304E+02  0.60081754991E+02  0.65434748546E+02  0.00000000000E+00 0.  1.
         -2    1    1    2    0  503  0.20873024973E+02 -0.15368990304E+02  0.54009949066E+02  0.59907959677E+02  0.00000000000E+00 0. -1.
</event>
<event>
 4    1  0.1874565E+004  0.2822163E+02  0.7546771E-02  0.1435708E+00
         21   -1    0    0  501  502  0.00000000000E+00  0.00000000000E+00  0.61985386842E+02  0.61985386842E+02  0.00000000000E+00 0.  1.
         21   -1    0    0  502  503 -0.00000000000E+00 -0.00000000000E+00 -0.18429413457E+02  0.18429413457E+02  0.00000000000E+00 0. -1.
          2    1    1    2  501    0  0.26062293551E+02 -0.10826689581E+02  0.43902670509E+02  0.52191041667E+02  0.00000000000E+00 0.  1.
         -2    1    1    2    0  503 -0.26062293551E+02  0.10826689581E+02 -0.34669712490E+00  0.28223758632E+02  0.00000000000E+00 0. -1.
</event>
<event>
 4    1  0.1874565E+004  0.3524365E+02  0.7546771E-02  0.1378858E+00
         21   -1    0    0  503  502  0.00000000000E+00  0.00000000000E+00  0.26433106192E+03  0.26433106192E+03  0.00000000000E+00 0. -1.
         21   -1    0    0  501  503 -0.00000000000E+00 -0.00000000000E+00 -0.86389112150E+01  0.86389112150E+01  0.00000000000E+00 0.  1.
          2    1    1    2  501    0 -0.63355074152E+01  0.34669529761E+02  0.35675194520E+02  0.50148125111E+02  0.00000000000E+00 0.  1.
         -2    1    1    2    0  502  0.63355074152E+01 -0.34669529761E+02  0.22001695619E+03  0.22282184803E+03  0.00000000000E+00 0. -1.
</event>
<event>
 4    1  0.1874565E+004  0.3556372E+02  0.7546771E-02  0.1376643E+00
         21   -1    0    0  503  502  0.00000000000E+00  0.00000000000E+00  0.17610138661E+02  0.17610138661E+02  0.00000000000E+00 0.  1.
         21   -1    0    0  501  503 -0.00000000000E+00 -0.00000000000E+00 -0.78402251043E+02  0.78402251043E+02  0.00000000000E+00 0. -1.
          2    1    1    2  501    0 -0.15422049819E+01  0.35530261275E+02 -0.44304773189E+02  0.56812769602E+02  0.00000000000E+00 0. -1.
         -2    1    1    2    0  502  0.15422049819E+01 -0.35530261275E+02 -0.16487339192E+02  0.39199620102E+02  0.00000000000E+00 0.  1.
</event>
<event>
 4    1  0.1874565E+004  0.4324809E+02  0.7546771E-02  0.1330436E+00
         21   -1    0    0  503  502  0.00000000000E+00  0.00000000000E+00  0.27339431673E+02  0.27339431673E+02  0.00000000000E+00 0. -1.
         21   -1    0    0  501  503 -0.00000000000E+00 -0.00000000000E+00 -0.72155952380E+02  0.72155952380E+02  0.00000000000E+00 0.  1.
          2    1    1    2  501    0 -0.36913618014E+02 -0.22534017977E+02 -0.33737264912E+02  0.54850708334E+02  0.00000000000E+00 0.  1.
         -2    1    1    2    0  502  0.36913618014E+02  0.22534017977E+02 -0.11079255795E+02  0.44644675718E+02  0.00000000000E+00 0. -1.
</event>
<event>
 4    1  0.1874565E+004  0.6857206E+02  0.7546771E-02  0.1233195E+00
         21   -1    0    0  503  502  0.00000000000E+00  0.00000000000E+00  0.44110230610E+03  0.44110230610E+03  0.00000000000E+00 0. -1.
         21   -1    0    0  501  503 -0.00000000000E+00 -0.00000000000E+00 -0.12328588375E+02  0.12328588375E+02  0.00000000000E+00 0.  1.
          2    1    1    2  501    0  0.57617732624E+02  0.37179618581E+02  0.13097919539E+03  0.14784341979E+03  0.00000000000E+00 0.  1.
         -2    1    1    2    0  502 -0.57617732624E+02 -0.37179618581E+02  0.29779452234E+03  0.30558747469E+03  0.00000000000E+00 0. -1.
</event>
<event>
 4    1  0.1874565E+004  0.4646750E+02  0.7546771E-02  0.1314260E+00
         21   -1    0    0  501  502  0.00000000000E+00  0.00000000000E+00  0.18040326954E+03  0.18040326954E+03  0.00000000000E+00 0.  1.
         21   -1    0    0  502  503 -0.00000000000E+00 -0.00000000000E+00 -0.50269098011E+02  0.50269098011E+02  0.00000000000E+00 0. -1.
          2    1    1    2  501    0  0.33157630698E+02 -0.32554568338E+02  0.16574067448E+03  0.17213134395E+03  0.00000000000E+00 0.  1.
         -2    1    1    2    0  503 -0.33157630698E+02  0.32554568338E+02 -0.35606502944E+02  0.58541023608E+02  0.00000000000E+00 0. -1.
</event>
<event>
 4    1  0.1874565E+004  0.2300079E+02  0.7546771E-02  0.1492488E+00
         21   -1    0    0  503  502  0.00000000000E+00  0.00000000000E+00  0.32275993714E+02  0.32275993714E+02  0.00000000000E+00 0.  1.
         21   -1    0    0  501  503 -0.00000000000E+00 -0.00000000000E+00 -0.16711946773E+02  0.16711946773E+02  0.00000000000E+00 0. -1.
          2    1    1    2  501    0 -0.22984620445E+02 -0.86228074882E+00  0.11176336210E+02  0.25572383467E+02  0.00000000000E+00 0.  1.
         -2    1    1    2    0  502  0.22984620445E+02  0.86228074882E+00  0.43877107308E+01  0.23415557020E+02  0.00000000000E+00 0. -1.
</event>
<event>
 4    1  0.1874565E+004  0.2092848E+02  0.7546771E-02  0.1520288E+00
         21   -1    0    0  501  502  0.00000000000E+00  0.00000000000E+00  0.49126111979E+02  0.49126111979E+02  0.00000000000E+00 0.  1.
         21   -1    0    0  502  503 -0.00000000000E+00 -0.00000000000E+00 -0.21180292430E+02  0.21180292430E+02  0.00000000000E+00 0. -1.
          2    1    1    2  501    0  0.22496529915E+01 -0.20807214500E+02  0.40722848781E+02  0.45785931537E+02  0.00000000000E+00 0.  1.
         -2    1    1    2    0  503 -0.22496529915E+01  0.20807214500E+02 -0.12777029233E+02  0.24520472872E+02  0.00000000000E+00 0. -1.
</event>
<event>
 4    1  0.1874565E+004  0.2741259E+02  0.7546771E-02  0.1443507E+00
         21   -1    0    0  503  502  0.00000000000E+00  0.00000000000E+00  0.53344442306E+02  0.53344442306E+02  0.00000000000E+00 0.  1.
         21   -1    0    0  501  503 -0.00000000000E+00 -0.00000000000E+00 -0.16017170109E+03  0.16017170109E+03  0.00000000000E+00 0. -1.
          2    1    1    2  501    0 -0.74944557613E+01 -0.26368221246E+02 -0.15536910685E+03  0.15776884775E+03  0.00000000000E+00 0. -1.
         -2    1    1    2    0  502  0.74944557613E+01  0.26368221246E+02  0.48541848059E+02  0.55747295646E+02  0.00000000000E+00 0.  1.
</event>
<event>
 4    1  0.1874565E+004  0.3851579E+02  0.7546771E-02  0.1357410E+00
         21   -1    0    0  503  502  0.00000000000E+00  0.00000000000E+00  0.24074611594E+03  0.24074611594E+03  0.00000000000E+00 0. -1.
         21   -1    0    0  501  503 -0.00000000000E+00 -0.00000000000E+00 -0.89065830061E+01  0.89065830061E+01  0.00000000000E+00 0.  1.
          2    1    1    2  501    0  0.35885996659E+02  0.13987886072E+02  0.46626219812E+02  0.60477021148E+02  0.00000000000E+00 0.  1.
         -2    1    1    2    0  502 -0.35885996659E+02 -0.13987886072E+02  0.18521331313E+03  0.18917567780E+03  0.00000000000E+00 0. -1.
</event>
<event>
 4    1  0.1874565E+004  0.3409420E+02  0.7546771E-02  0.1387045E+00
         21   -1    0    0  501  502  0.00000000000E+00  0.00000000000E+00  0.51199998313E+03  0.51199998313E+03  0.00000000000E+00 0. -1.
         21   -1    0    0  502  503 -0.00000000000E+00 -0.00000000000E+00 -0.71879071601E+01  0.71879071601E+01  0.00000000000E+00 0.  1.
          2    1    1    2  501    0  0.67464077444E+01  0.33420058545E+02  0.46712403840E+03  0.46836661023E+03  0.00000000000E+00 0. -1.
         -2    1    1    2    0  503 -0.67464077444E+01 -0.33420058545E+02  0.37688037565E+02  0.50821280052E+02  0.00000000000E+00 0.  1.
</event>
<event>
 4    1  0.1874565E+004  0.2892299E+02  0.7546771E-02  0.1429192E+00
         21   -1    0    0  501  502  0.00000000000E+00  0.00000000000E+00  0.31572346226E+03  0.31572346226E+03  0.00000000000E+00 0. -1.
         21   -1    0    0  502  503 -0.00000000000E+00 -0.00000000000E+00 -0.32864400775E+01  0.32864400775E+01  0.00000000000E+00 0.  1.
          2    1    1    2  501    0 -0.84081236231E+01 -0.27673866016E+02  0.86003801529E+02  0.90736945510E+02  0.00000000000E+00 0.  1.
         -2    1    1    2    0  503  0.84081236231E+01  0.27673866016E+02  0.22643322066E+03  0.22827295683E+03  0.00000000000E+00 0. -1.
</event>
<event>
 4    1  0.1874565E+004  0.2343612E+02  0.7546771E-02  0.1487093E+00
         21   -1    0    0  503  502  0.00000000000E+00  0.00000000000E+00  0.53110839946E+01  0.53110839946E+01  0.00000000000E+00 0. -1.
         21   -1    0    0  501  503 -0.00000000000E+00 -0.00000000000E+00 -0.12685942373E+03  0.12685942373E+03  0.00000000000E+00 0.  1.
          2    1    1    2  501    0  0.23436063923E+02  0.49624788928E-01 -0.89182967647E+02  0.92210917321E+02  0.00000000000E+00 0.  1.
         -2    1    1    2    0  502 -0.23436063923E+02 -0.49624788928E-01 -0.32365372091E+02  0.39959590406E+02  0.00000000000E+00 0. -1.
</event>
<event>
 4    1  0.1874565E+004  0.2414818E+02  0.7546771E-02  0.1478563E+00
         21   -1    0    0  503  502  0.00000000000E+00  0.00000000000E+00  0.17681010590E+02  0.17681010590E+02  0.00000000000E+00 0.  1.
         21   -1    0    0  501  503 -0.00000000000E+00 -0.00000000000E+00 -0.35681082612E+02  0.35681082612E+02  0.00000000000E+00 0. -1.
          2    1    1    2  501    0  0.13220701634E+02  0.20207610820E+02 -0.16339860466E+02  0.29156912162E+02  0.00000000000E+00 0. -1.
         -2    1    1    2    0  502 -0.13220701634E+02 -0.20207610820E+02 -0.16602115558E+01  0.24205181040E+02  0.00000000000E+00 0.  1.
</event>
<event>
 4    1  0.1874565E+004  0.3454946E+02  0.7546771E-02  0.1383759E+00
         21   -1    0    0  501  502  0.00000000000E+00  0.00000000000E+00  0.30787724204E+01  0.30787724204E+01  0.00000000000E+00 0.  1.
         21   -1    0    0  502  503 -0.00000000000E+00 -0.00000000000E+00 -0.44038074803E+03  0.44038074803E+03  0.00000000000E+00 0. -1.
          2    1    1    2  501    0 -0.29218846697E+02  0.18437028136E+02 -0.14196740484E+03  0.14611094772E+03  0.00000000000E+00 0.  1.
         -2    1    1    2    0  503  0.29218846697E+02 -0.18437028136E+02 -0.29533457078E+03  0.29734857273E+03  0.00000000000E+00 0. -1.
</event>
<event>
 4    1  0.1874565E+004  0.2608011E+02  0.7546771E-02  0.1457074E+00
         21   -1    0    0  501  502  0.00000000000E+00  0.00000000000E+00  0.18684388185E+03  0.18684388185E+03  0.00000000000E+00 0. -1.
         21   -1    0    0  502  503 -0.00000000000E+00 -0.00000000000E+00 -0.46723574522E+01  0.46723574522E+01  0.00000000000E+00 0.  1.
          2    1    1    2  501    0  0.11995732982E+02  0.23157601557E+02  0.13609012664E+03  0.13856657132E+03  0.00000000000E+00 0. -1.
         -2    1    1    2    0  503 -0.11995732982E+02 -0.23157601557E+02  0.46081397755E+02  0.52949667975E+02  0.00000000000E+00 0.  1.
</event>
<event>
 4    1  0.1874565E+004  0.3684591E+02  0.7546771E-02  0.1368031E+00
         21   -1    0    0  501  502  0.00000000000E+00  0.00000000000E+00  0.94895195541E+02  0.94895195541E+02  0.00000000000E+00 0. -1.
         21   -1    0    0  502  503 -0.00000000000E+00 -0.00000000000E+00 -0.16898644861E+02  0.16898644861E+02  0.00000000000E+00 0.  1.
          2    1    1    2  501    0  0.27928157027E+02  0.24034122361E+02  0.60890456545E+02  0.71170701070E+02  0.00000000000E+00 0. -1.
         -2    1    1    2    0  503 -0.27928157027E+02 -0.24034122361E+02  0.17106094135E+02  0.40623139331E+02  0.00000000000E+00 0.  1.
</event>
<event>
 4    1  0.1874565E+004  0.2627986E+02  0.7546771E-02  0.1454979E+00
         21   -1    0    0  501  502  0.00000000000E+00  0.00000000000E+00  0.20188513005E+02  0.20188513005E+02  0.00000000000E+00 0. -1.
         21   -1    0    0  502  503 -0.00000000000E+00 -0.00000000000E+00 -0.73870082093E+02  0.73870082093E+02  0.00000000000E+00 0.  1.
          2    1    1    2  501    0  0.19644831465E+02 -0.17455993949E+02  0.76192620678E+01  0.27362095726E+02  0.00000000000E+00 0. -1.
         -2    1    1    2    0  503 -0.19644831465E+02  0.17455993949E+02 -0.61300831156E+02  0.66696499372E+02  0.00000000000E+00 0.  1.
</event>
<event>
 4    1  0.1874565E+004  0.3665931E+02  0.7546771E-02  0.1369258E+00
         21   -1    0    0  503  502  0.00000000000E+00  0.00000000000E+00  0.13392510024E+02  0.13392510024E+02  0.00000000000E+00 0. -1.
         21   -1    0    0  501  503 -0.00000000000E+00 -0.00000000000E+00 -0.12789881931E+03  0.12789881931E+03  0.00000000000E+00 0.  1.
          2    1    1    2  501    0  0.21695127757E+02  0.29550401240E+02 -0.90041803230E+02  0.97218471037E+02  0.00000000000E+00 0.  1.
         -2    1    1    2    0  502 -0.21695127757E+02 -0.29550401240E+02 -0.24464506053E+02  0.44072858295E+02  0.00000000000E+00 0. -1.
</event>
<event>
 4    1  0.1874565E+004  0.2088365E+02  0.7546771E-02  0.1520933E+00
         21   -1    0    0  501  502  0.00000000000E+00  0.00000000000E+00  0.15226131395E+03  0.15226131395E+03  0.00000000000E+00 0. -1.
         21   -1    0    0  502  503 -0.00000000000E+00 -0.00000000000E+00 -0.31342534836E+01  0.31342534836E+01  0.00000000000E+00 0.  1.
          2    1    1    2  501    0  0.20646300981E+02 -0.31395933790E+01  0.97364911701E+02  0.99579379498E+02  0.00000000000E+00 0. -1.
         -2    1    1    2    0  503 -0.20646300981E+02  0.31395933790E+01  0.51762148768E+02  0.55816187937E+02  0.00000000000E+00 0.  1.
</event>
<event>
 4    1  0.1874565E+004  0.2591731E+02  0.7546771E-02  0.1458798E+00
         21   -1    0    0  501  502  0.00000000000E+00  0.00000000000E+00  0.85827321102E+02  0.85827321102E+02  0.00000000000E+00 0. -1.
         21   -1    0    0  502  503 -0.00000000000E+00 -0.00000000000E+00 -0.10064726545E+02  0.10064726545E+02  0.00000000000E+00 0.  1.
          2    1    1    2  501    0  0.11968823756E+02  0.22988126648E+02  0.60492682082E+02  0.65810875198E+02  0.00000000000E+00 0. -1.
         -2    1    1    2    0  503 -0.11968823756E+02 -0.22988126648E+02  0.15269912475E+02  0.30081172448E+02  0.00000000000E+00 0.  1.
</event>
<event>
 4    1  0.1874565E+004  0.2388013E+02  0.7546771E-02  0.1481732E+00
         21   -1    0    0  501  502  0.00000000000E+00  0.00000000000E+00  0.19448686279E+03  0.19448686279E+03  0.00000000000E+00 0. -1.
         21   -1    0    0  502  503 -0.00000000000E+00 -0.00000000000E+00 -0.10658846290E+02  0.10658846290E+02  0.00000000000E+00 0.  1.
          2    1    1    2  501    0  0.73213224557E+01  0.22730135073E+02  0.17924629251E+03  0.18083001461E+03  0.00000000000E+00 0. -1.
         -2    1    1    2    0  503 -0.73213224557E+01 -0.22730135073E+02  0.45817239847E+01  0.24315694471E+02  0.00000000000E+00 0.  1.
</event>
<event>
 4    1  0.1874565E+004  0.2797864E+02  0.7546771E-02  0.1438018E+00
         21   -1    0    0  503  502  0.00000000000E+00  0.00000000000E+00  0.80616164198E+01  0.80616164198E+01  0.00000000000E+00 0. -1.
         21   -1    0    0  501  503 -0.00000000000E+00 -0.00000000000E+00 -0.10465356262E+03  0.10465356262E+03  0.00000000000E+00 0.  1.
          2    1    1    2  501    0  0.75403528843E+01 -0.26943413194E+02 -0.63434189202E+02  0.69330374266E+02  0.00000000000E+00 0.  1.
         -2    1    1    2    0  502 -0.75403528843E+01  0.26943413194E+02 -0.33157757000E+02  0.43384804776E+02  0.00000000000E+00 0. -1.
</event>
<event>
 4    1  0.1874565E+004  0.2154663E+02  0.7546771E-02  0.1511602E+00
         21   -1    0    0  501  502  0.00000000000E+00  0.00000000000E+00  0.83443245192E+01  0.83443245192E+01  0.00000000000E+00 0. -1.
         21   -1    0    0  502  503 -0.00000000000E+00 -0.00000000000E+00 -0.83498922312E+02  0.83498922312E+02  0.00000000000E+00 0.  1.
          2    1    1    2  501    0  0.21385716292E+02 -0.26284208835E+01 -0.11050897092E+02  0.24215279974E+02  0.00000000000E+00 0. -1.
         -2    1    1    2    0  503 -0.21385716292E+02  0.26284208835E+01 -0.64103700701E+02  0.67627966857E+02  0.00000000000E+00 0.  1.
</event>
<event>
 4    1  0.1874565E+004  0.2271888E+02  0.7546771E-02  0.1496059E+00
         21   -1    0    0  503  502  0.00000000000E+00  0.00000000000E+00  0.31309906960E+02  0.31309906960E+02  0.00000000000E+00 0.  1.
         21   -1    0    0  501  503 -0.00000000000E+00 -0.00000000000E+00 -0.67789511781E+02  0.67789511781E+02  0.00000000000E+00 0. -1.
          2    1    1    2  501    0  0.21555924597E+02 -0.71756389436E+01 -0.61345741985E+02  0.65417488022E+02  0.00000000000E+00 0. -1.
         -2    1    1    2    0  502 -0.21555924597E+02  0.71756389436E+01  0.24866137164E+02  0.33681930719E+02  0.00000000000E+00 0.  1.
</event>
<event>
 4    1  0.1874565E+004  0.2503091E+02  0.7546771E-02  0.1468458E+00
         21   -1    0    0  503  502  0.00000000000E+00  0.00000000000E+00  0.51398939249E+01  0.51398939249E+01  0.00000000000E+00 0. -1.
         21   -1    0    0  501  503 -0.00000000000E+00 -0.00000000000E+00 -0.16587526140E+03  0.16587526140E+03  0.00000000000E+00 0.  1.
          2    1    1    2  501    0  0.11381509467E+02  0.22293670333E+02 -0.12439521403E+03  0.12688859590E+03  0.00000000000E+00 0.  1.
         -2    1    1    2    0  502 -0.11381509467E+02 -0.22293670333E+02 -0.36340153442E+02  0.44126559427E+02  0.00000000000E+00 0. -1.
</event>
<event>
 4    1  0.1874565E+004  0.2602786E+02  0.7546771E-02  0.1457626E+00
         21   -1    0    0  503  502  0.00000000000E+00  0.00000000000E+00  0.17469241796E+01  0.17469241796E+01  0.00000000000E+00 0. -1.
         21   -1    0    0  501  503 -0.00000000000E+00 -0.00000000000E+00 -0.97052615975E+03  0.97052615975E+03  0.00000000000E+00 0.  1.
          2    1    1    2  501    0 -0.24548438049E+02  0.86500573560E+01 -0.86108351625E+03  0.86147679671E+03  0.00000000000E+00 0.  1.
         -2    1    1    2    0  502  0.24548438049E+02 -0.86500573560E+01 -0.10769571931E+03  0.11079628722E+03  0.00000000000E+00 0. -1.
</event>
<event>
 4    1  0.1874565E+004  0.2640205E+02  0.7546771E-02  0.1453709E+00
         21   -1    0    0  501  502  0.00000000000E+00  0.00000000000E+00  0.14191079075E+02  0.14191079075E+02  0.00000000000E+00 0. -1.
         21   -1    0    0  502  503 -0.00000000000E+00 -0.00000000000E+00 -0.71189153593E+02  0.71189153593E+02  0.00000000000E+00 0.  1.
          2    1    1    2  501    0  0.22293297210E+02  0.14144871669E+02 -0.47300106676E+01  0.26822406602E+02  0.00000000000E+00 0. -1.
         -2    1    1    2    0  503 -0.22293297210E+02 -0.14144871669E+02 -0.52268063850E+02  0.58557826066E+02  0.00000000000E+00 0.  1.
</event>
<event>
 4    1  0.1874565E+004  0.2388175E+02  0.7546771E-02  0.1481713E+00
         21   -1    0    0  503  502  0.00000000000E+00  0.00000000000E+00  0.19648513528E+01  0.19648513528E+01  0.00000000000E+00 0. -1.
         21   -1    0    0  501  503 -0.00000000000E+00 -0.00000000000E+00 -0.13412454877E+04  0.13412454877E+04  0.00000000000E+00 0.  1.
          2    1    1    2  501    0 -0.16437327059E+02 -0.17324900046E+02 -0.12641461735E+04  0.12643717357E+04  0.00000000000E+00 0.  1.
         -2    1    1    2    0  502  0.16437327059E+02  0.17324900046E+02 -0.75134462841E+02  0.78838603417E+02  0.00000000000E+00 0. -1.
</event>
<event>
 4    1  0.1874565E+004  0.2451955E+02  0.7546771E-02  0.1474250E+00
         21   -1    0    0  501  502  0.00000000000E+00  0.00000000000E+00  0.55044590501E+01  0.55044590501E+01  0.00000000000E+00 0.  1.
         21   -1    0    0  502  503 -0.00000000000E+00 -0.00000000000E+00 -0.17406009813E+03  0.17406009813E+03  0.00000000000E+00 0. -1.
          2    1    1    2  501    0 -0.23464906567E+02 -0.71138305406E+01 -0.29480930618E+02  0.38344930503E+02  0.00000000000E+00 0.  1.
         -2    1    1    2    0  503  0.23464906567E+02  0.71138305406E+01 -0.13907470847E+03  0.14121962668E+03  0.00000000000E+00 0. -1.
</event>
<event>
 4    1  0.1874565E+004  0.2552994E+02  0.7546771E-02  0.1462961E+00
         21   -1    0    0  501  502  0.00000000000E+00  0.00000000000E+00  0.45083393321E+02  0.45083393321E+02  0.00000000000E+00 0. -1.
         21   -1    0    0  502  503 -0.00000000000E+00 -0.00000000000E+00 -0.29477326054E+02  0.29477326054E+02  0.00000000000E+00 0.  1.
          2    1    1    2  501    0 -0.15153608980E+00 -0.25529487537E+02 -0.18808717968E+02  0.31710338514E+02  0.00000000000E+00 0.  1.
         -2    1    1    2    0  503  0.15153608980E+00  0.25529487537E+02  0.34414785236E+02  0.42850380861E+02  0.00000000000E+00 0. -1.
</event>
<event>
 4    1  0.1874565E+004  0.3437626E+02  0.7546771E-02  0.1385002E+00
         21   -1    0    0  501  502  0.00000000000E+00  0.00000000000E+00  0.44509994154E+02  0.44509994154E+02  0.00000000000E+00 0. -1.
         21   -1    0    0  502  503 -0.00000000000E+00 -0.00000000000E+00 -0.61315712167E+02  0.61315712167E+02  0.00000000000E+00 0.  1.
          2    1    1    2  501    0  0.14700151156E+02 -0.31074632612E+02  0.31440201996E+02  0.46585550738E+02  0.00000000000E+00 0. -1.
         -2    1    1    2    0  503 -0.14700151156E+02  0.31074632612E+02 -0.48245920009E+02  0.59240155583E+02  0.00000000000E+00 0.  1.
</event>
<event>
 4    1  0.1874565E+004  0.2211560E+02  0.7546771E-02  0.1503913E+00
         21   -1    0    0  503  502  0.00000000000E+00  0.00000000000E+00  0.10680909944E+02  0.10680909944E+02  0.00000000000E+00 0.  1.
         21   -1    0    0  501  503 -0.00000000000E+00 -0.00000000000E+00 -0.49185075054E+02  0.49185075054E+02  0.00000000000E+00 0. -1.
          2    1    1    2  501    0  0.51193057537E+01 -0.21514935335E+02 -0.27114084780E+02  0.34989617421E+02  0.00000000000E+00 0. -1.
         -2    1    1    2    0  502 -0.51193057537E+01  0.21514935335E+02 -0.11390080330E+02  0.24876367576E+02  0.00000000000E+00 0.  1.
</event>
<event>
 4    1  0.1874565E+004  0.2224229E+02  0.7546771E-02  0.1502238E+00
         21   -1    0    0  501  502  0.00000000000E+00  0.00000000000E+00  0.44644101755E+03  0.44644101755E+03  0.00000000000E+00 0. -1.
         21   -1    0    0  502  503 -0.00000000000E+00 -0.00000000000E+00 -0.29958113692E+01  0.29958113692E+01  0.00000000000E+00 0.  1.
          2    1    1    2  501    0 -0.22216174001E+02 -0.10776091757E+01  0.40010192164E+03  0.40071968673E+03  0.00000000000E+00 0. -1.
         -2    1    1    2    0  503  0.22216174001E+02  0.10776091757E+01  0.43343284536E+02  0.48717142189E+02  0.00000000000E+00 0.  1.
</event>
<event>
 4    1  0.1874565E+004  0.2082150E+02  0.7546771E-02  0.1521829E+00
         21   -1    0    0  501  502  0.00000000000E+00  0.00000000000E+00  0.21674789596E+02  0.21674789596E+02  0.00000000000E+00 0.  1.
         21   -1    0    0  502  503 -0.00000000000E+00 -0.00000000000E+00 -0.20382435004E+02  0.20382435004E+02  0.00000000000E+00 0. -1.
          2    1    1    2  501    0  0.19319999721E+02 -0.77635413080E+01 -0.22274658076E+01  0.20940309615E+02  0.00000000000E+00 0. -1.
         -2    1    1    2    0  503 -0.19319999721E+02  0.77635413080E+01  0.35198203998E+01  0.21116914985E+02  0.00000000000E+00 0.  1.
</event>
<event>
 4    1  0.1874565E+004  0.2574585E+02  0.7546771E-02  0.1460630E+00
         21   -1    0    0  501  502  0.00000000000E+00  0.00000000000E+00  0.54672289900E+02  0.54672289900E+02  0.00000000000E+00 0. -1.
         21   -1    0    0  502  503 -0.00000000000E+00 -0.00000000000E+00 -0.24790787180E+02  0.24790787180E+02  0.00000000000E+00 0.  1.
          2    1    1    2  501    0  0.23662842979E+02  0.10144892408E+02  0.43341042426E+02  0.50411258051E+02  0.00000000000E+00 0. -1.
         -2    1    1    2    0  503 -0.23662842979E+02 -0.10144892408E+02 -0.13459539706E+02  0.29051819029E+02  0.00000000000E+00 0.  1.
</event>
<event>
 4    1  0.1874565E+004  0.2010806E+02  0.7546771E-02  0.1532390E+00
         21   -1    0    0  503  502  0.00000000000E+00  0.00000000000E+00  0.12203905902E+03  0.12203905902E+03  0.00000000000E+00 0.  1.
         21   -1    0    0  501  503 -0.00000000000E+00 -0.00000000000E+00 -0.33201144804E+01  0.33201144804E+01  0.00000000000E+00 0. -1.
          2    1    1    2  501    0 -0.15928515328E+02 -0.12272587808E+02  0.56489244531E+02  0.59961393911E+02  0.00000000000E+00 0.  1.
         -2    1    1    2    0  502  0.15928515328E+02  0.12272587808E+02  0.62229700004E+02  0.65397779585E+02  0.00000000000E+00 0. -1.
</event>
<event>
 4    1  0.1874565E+004  0.2296282E+02  0.7546771E-02  0.1492966E+00
         21   -1    0    0  503  502  0.00000000000E+00  0.00000000000E+00  0.73916844414E+01  0.73916844414E+01  0.00000000000E+00 0. -1.
         21   -1    0    0  501  503 -0.00000000000E+00 -0.00000000000E+00 -0.12390124124E+03  0.12390124124E+03  0.00000000000E+00 0.  1.
          2    1    1    2  501    0  0.79884175606E+00  0.22948922478E+02 -0.10101342558E+03  0.10359055622E+03  0.00000000000E+00 0.  1.
         -2    1    1    2    0  502 -0.79884175606E+00 -0.22948922478E+02 -0.15496131224E+02  0.27702369465E+02  0.00000000000E+00 0. -1.
</event>
<event>
 4    1  0.1874565E+004  0.2007986E+02  0.7546771E-02  0.1532818E+00
         21   -1    0    0  503  502  0.00000000000E+00  0.00000000000E+00  0.52825101588E+03  0.52825101588E+03  0.00000000000E+00 0.  1.
         21   -1    0    0  501  503 -0.00000000000E+00 -0.00000000000E+00 -0.17469700063E+01  0.17469700063E+01  0.00000000000E+00 0. -1.
          2    1    1    2  501    0  0.18166194041E+02 -0.85551303807E+01  0.64399225810E+02  0.67457105976E+02  0.00000000000E+00 0. -1.
         -2    1    1    2    0  502 -0.18166194041E+02  0.85551303807E+01  0.46210482006E+03  0.46254087991E+03  0.00000000000E+00 0.  1.
</event>
<event>
 4    1  0.1874565E+004  0.2799632E+02  0.7546771E-02  0.1437849E+00
         21   -1    0    0  501  502  0.00000000000E+00  0.00000000000E+00  0.12686311205E+03  0.12686311205E+03  0.00000000000E+00 0.  1.
         21   -1    0    0  502  503 -0.00000000000E+00 -0.00000000000E+00 -0.12007854004E+02  0.12007854004E+02  0.00000000000E+00 0. -1.
          2    1    1    2  501    0  0.24158481117E+02  0.14147848669E+02  0.10580783996E+03  0.10944904216E+03  0.00000000000E+00 0.  1.
         -2    1    1    2    0  503 -0.24158481117E+02 -0.14147848669E+02  0.90474180852E+01  0.29421923898E+02  0.00000000000E+00 0. -1.
</event>
<event>
 4    1  0.1874565E+004  0.2880284E+02  0.7546771E-02  0.1430293E+00
         21   -1    0    0  503  502  0.00000000000E+00  0.00000000000E+00  0.14446879583E+03  0.14446879583E+03  0.00000000000E+00 0.  1.
         21   -1    0    0  501  503 -0.00000000000E+00 -0.00000000000E+00 -0.11882404322E+03  0.11882404322E+03  0.00000000000E+00 0. -1.
          2    1    1    2  501    0 -0.26645821351E+02  0.10936350950E+02 -0.11560359676E+03  0.11913771507E+03  0.00000000000E+00 0. -1.
         -2    1    1    2    0  502  0.26645821351E+02 -0.10936350950E+02  0.14124834937E+03  0.14415512397E+03  0.00000000000E+00 0.  1.
</event>
<event>
 4    1  0.1874565E+004  0.2121944E+02  0.7546771E-02  0.1516155E+00
         21   -1    0    0  501  502  0.00000000000E+00  0.00000000000E+00  0.22534843441E+01  0.22534843441E+01  0.00000000000E+00 0.  1.
         21   -1    0    0  502  503 -0.00000000000E+00 -0.00000000000E+00 -0.28898048682E+03  0.28898048682E+03  0.00000000000E+00 0. -1.
          2    1    1    2  501    0 -0.75628313657E+01  0.19825950673E+02 -0.62473911168E+02  0.65979196077E+02  0.00000000000E+00 0.  1.
         -2    1    1    2    0  503  0.75628313657E+01 -0.19825950673E+02 -0.22425309131E+03  0.22525477509E+03  0.00000000000E+00 0. -1.
</event>
<event>
 4    1  0.1874565E+004  0.2916590E+02  0.7546771E-02  0.1426986E+00
         21   -1    0    0  503  502  0.00000000000E+00  0.00000000000E+00  0.54792998177E+01  0.54792998177E+01  0.00000000000E+00 0.  1.
         21   -1    0    0  501  503 -0.00000000000E+00 -0.00000000000E+00 -0.35535711037E+03  0.35535711037E+03  0.00000000000E+00 0. -1.
          2    1    1    2  501    0 -0.21596021628E+02  0.19602587327E+02 -0.31032729840E+03  0.31169485352E+03  0.00000000000E+00 0. -1.
         -2    1    1    2    0  502  0.21596021628E+02 -0.19602587327E+02 -0.39550512156E+02  0.49141556669E+02  0.00000000000E+00 0.  1.
</event>
<event>
 4    1  0.1874565E+004  0.2299227E+02  0.7546771E-02  0.1492595E+00
         21   -1    0    0  503  502  0.00000000000E+00  0.00000000000E+00  0.74918898611E+03  0.74918898611E+03  0.00000000000E+00 0. -1.
         21   -1    0    0  501  503 -0.00000000000E+00 -0.00000000000E+00 -0.94646914290E+00  0.94646914290E+00  0.00000000000E+00 0.  1.
          2    1    1    2  501    0  0.84467764205E+01  0.21384490271E+02  0.18491872573E+03  0.18634264026E+03  0.00000000000E+00 0.  1.
         -2    1    1    2    0  502 -0.84467764205E+01 -0.21384490271E+02  0.56332379124E+03  0.56379281499E+03  0.00000000000E+00 0. -1.
</event>
<event>
 4    1  0.1874565E+004  0.2739845E+02  0.7546771E-02  0.1443646E+00
         21   -1    0    0  501  502  0.00000000000E+00  0.00000000000E+00  0.96092596592E+00  0.96092596592E+00  0.00000000000E+00 0. -1.
         21   -1    0    0  502  503 -0.00000000000E+00 -0.00000000000E+00 -0.11701228280E+04  0.11701228280E+04  0.00000000000E+00 0.  1.
          2    1    1    2  501    0 -0.23089322488E+02 -0.14749852592E+02 -0.24700291322E+03  0.24851783458E+03  0.00000000000E+00 0. -1.
         -2    1    1    2    0  503  0.23089322488E+02  0.14749852592E+02 -0.92215898884E+03  0.92256591941E+03  0.00000000000E+00 0.  1.
</event>
<event>
 4    1  0.1874565E+004  0.2274577E+02  0.7546771E-02  0.1495715E+00
         21   -1    0    0  503  502  0.00000000000E+00  0.00000000000E+00  0.31554905290E+01  0.31554905290E+01  0.00000000000E+00 0. -1.
         21   -1    0    0  501  503 -0.00000000000E+00 -0.00000000000E+00 -0.17260333355E+03  0.17260333355E+03  0.00000000000E+00 0.  1.
          2    1    1    2  501    0  0.13742633485E+02  0.18124843352E+02 -0.10439089198E+03  0.10684019959E+03  0.00000000000E+00 0. -1.
         -2    1    1    2    0  502 -0.13742633485E+02 -0.18124843352E+02 -0.65056951044E+02  0.68918624484E+02  0.00000000000E+00 0.  1.
</event>
<event>
 4    1  0.1874565E+004  0.2207746E+02  0.7546771E-02  0.1504419E+00
         21   -1    0    0  503  502  0.00000000000E+00  0.00000000000E+00  0.47446881214E+02  0.47446881214E+02  0.00000000000E+00 0. -1.
         21   -1    0    0  501  503 -0.00000000000E+00 -0.00000000000E+00 -0.10873120936E+02  0.10873120936E+02  0.00000000000E+00 0.  1.
          2    1    1    2  501    0  0.21579190575E+02  0.46639688120E+01  0.11435330126E+02  0.24863242871E+02  0.00000000000E+00 0.  1.
         -2    1    1    2    0  502 -0.21579190575E+02 -0.46639688120E+01  0.25138430152E+02  0.33456759279E+02  0.00000000000E+00 0. -1.
</event>
<event>
 4    1  0.1874565E+004  0.2030078E+02  0.7546771E-02  0.1529486E+00
         21   -1    0    0  501  502  0.00000000000E+00  0.00000000000E+00  0.40455034563E+01  0.40455034563E+01  0.00000000000E+00 0.  1.
         21   -1    0    0  502  503 -0.00000000000E+00 -0.00000000000E+00 -0.17299346560E+03  0.17299346560E+03  0.00000000000E+00 0. -1.
          2    1    1    2  501    0  0.10362673208E+02  0.17456710970E+02 -0.27716160006E+02  0.34355600407E+02  0.00000000000E+00 0.  1.
         -2    1    1    2    0  503 -0.10362673208E+02 -0.17456710970E+02 -0.14123180214E+03  0.14268336865E+03  0.00000000000E+00 0. -1.
</event>
<event>
 4    1  0.1874565E+004  0.2177034E+02  0.7546771E-02  0.1508545E+00
         21   -1    0    0  503  502  0.00000000000E+00  0.00000000000E+00  0.14463884848E+01  0.14463884848E+01  0.00000000000E+00 0. -1.
         21   -1    0    0  501  503 -0.00000000000E+00 -0.00000000000E+00 -0.33078123506E+03  0.33078123506E+03  0.00000000000E+00 0.  1.
          2    1    1    2  501    0 -0.21562632430E+02 -0.30000780837E+01 -0.18076069060E+03  0.18206695157E+03  0.00000000000E+00 0.  1.
         -2    1    1    2    0  502  0.21562632430E+02  0.30000780837E+01 -0.14857415597E+03  0.15016067197E+03  0.00000000000E+00 0. -1.
</event>
<event>
 4    1  0.1874565E+004  0.2115666E+02  0.7546771E-02  0.1517040E+00
         21   -1    0    0  501  502  0.00000000000E+00  0.00000000000E+00  0.13583848292E+01  0.13583848292E+01  0.00000000000E+00 0. -1.
         21   -1    0    0  502  503 -0.00000000000E+00 -0.00000000000E+00 -0.36917962980E+03  0.36917962980E+03  0.00000000000E+00 0.  1.
          2    1    1    2  501    0  0.21080046542E+02  0.17988434421E+01 -0.12318085197E+03  0.12498450501E+03  0.00000000000E+00 0. -1.
         -2    1    1    2    0  503 -0.21080046542E+02 -0.17988434421E+01 -0.24464039299E+03  0.24555350961E+03  0.00000000000E+00 0.  1.
</event>
<event>
 4    1  0.1874565E+004  0.3129654E+02  0.7546771E-02  0.1408654E+00
         21   -1    0    0  501  502  0.00000000000E+00  0.00000000000E+00  0.11694545646E+03  0.11694545646E+03  0.00000000000E+00 0.  1.
         21   -1    0    0  502  503 -0.00000000000E+00 -0.00000000000E+00 -0.11177249476E+02  0.11177249476E+02  0.00000000000E+00 0. -1.
          2    1    1    2  501    0  0.89310107798E+01  0.29995173032E+02  0.84957538826E+02  0.90538703117E+02  0.00000000000E+00 0. -1.
         -2    1    1    2    0  503 -0.89310107798E+01 -0.29995173032E+02  0.20810668159E+02  0.37584002820E+02  0.00000000000E+00 0.  1.
</event>
<event>
 4    1  0.1874565E+004  0.2017274E+02  0.7546771E-02  0.1531411E+00
         21   -1    0    0  501  502  0.00000000000E+00  0.00000000000E+00  0.33874652698E+01  0.33874652698E+01  0.00000000000E+00 0. -1.
         21   -1    0    0  502  503 -0.00000000000E+00 -0.00000000000E+00 -0.15989757998E+03  0.15989757998E+03  0.00000000000E+00 0.  1.
          2    1    1    2  501    0  0.19826948554E+02  0.37190898714E+01 -0.37540032255E+02  0.42616822266E+02  0.00000000000E+00 0.  1.
         -2    1    1    2    0  503 -0.19826948554E+02 -0.37190898714E+01 -0.11897008246E+03  0.12066822299E+03  0.00000000000E+00 0. -1.
</event>
<event>
 4    1  0.1874565E+004  0.2373899E+02  0.7546771E-02  0.1483421E+00
         21   -1    0    0  503  502  0.00000000000E+00  0.00000000000E+00  0.16463976292E+04  0.16463976292E+04  0.00000000000E+00 0.  1.
         21   -1    0    0  501  503 -0.00000000000E+00 -0.00000000000E+00 -0.34656821004E+00  0.34656821004E+00  0.00000000000E+00 0. -1.
          2    1    1    2  501    0  0.91347222610E+01  0.21911109696E+02  0.91454307283E+03  0.91485112010E+03  0.00000000000E+00 0.  1.
         -2    1    1    2    0  502 -0.91347222610E+01 -0.21911109696E+02  0.73150798813E+03  0.73189307728E+03  0.00000000000E+00 0. -1.
</event>
<event>
 4    1  0.1874565E+004  0.2650042E+02  0.7546771E-02  0.1452692E+00
         21   -1    0    0  503  502  0.00000000000E+00  0.00000000000E+00  0.33970816315E+02  0.33970816315E+02  0.00000000000E+00 0.  1.
         21   -1    0    0  501  503 -0.00000000000E+00 -0.00000000000E+00 -0.22597821781E+02  0.22597821781E+02  0.00000000000E+00 0. -1.
          2    1    1    2  501    0 -0.85916041361E+01 -0.25069041573E+02 -0.25687144894E+01  0.26624627718E+02  0.00000000000E+00 0. -1.
         -2    1    1    2    0  502  0.85916041361E+01  0.25069041573E+02  0.13941709023E+02  0.29944010378E+02  0.00000000000E+00 0.  1.
</event>
<event>
 4    1  0.1874565E+004  0.2095424E+02  0.7546771E-02  0.1519919E+00
         21   -1    0    0  503  502  0.00000000000E+00  0.00000000000E+00  0.67328952754E+01  0.67328952754E+01  0.00000000000E+00 0.  1.
         21   -1    0    0  501  503 -0.00000000000E+00 -0.00000000000E+00 -0.16359479354E+03  0.16359479354E+03  0.00000000000E+00 0. -1.
          2    1    1    2  501    0 -0.16857187426E+02 -0.12446509815E+02 -0.14447371292E+03  0.14598539002E+03  0.00000000000E+00 0. -1.
         -2    1    1    2    0  502  0.16857187426E+02  0.12446509815E+02 -0.12388185344E+02  0.24342298795E+02  0.00000000000E+00 0.  1.
</event>
<event>
 4    1  0.1874565E+004  0.2346382E+02  0.7546771E-02  0.1486755E+00
         21   -1    0    0  503  502  0.00000000000E+00  0.00000000000E+00  0.16420487621E+01  0.16420487621E+01  0.00000000000E+00 0. -1.
         21   -1    0    0  501  503 -0.00000000000E+00 -0.00000000000E+00 -0.50203838204E+03  0.50203838204E+03  0.00000000000E+00 0.  1.
          2    1    1    2  501    0  0.22168516323E+02  0.76881460835E+01 -0.39534140620E+03  0.39603709190E+03  0.00000000000E+00 0.  1.
         -2    1    1    2    0  502 -0.22168516323E+02 -0.76881460835E+01 -0.10505492708E+03  0.10764333890E+03  0.00000000000E+00 0. -1.
</event>
<event>
 4    1  0.1874565E+004  0.2070402E+02  0.7546771E-02  0.1523533E+00
         21   -1    0    0  503  502  0.00000000000E+00  0.00000000000E+00  0.12944768740E+03  0.12944768740E+03  0.00000000000E+00 0. -1.
         21   -1    0    0  501  503 -0.00000000000E+00 -0.00000000000E+00 -0.85375540800E+01  0.85375540800E+01  0.00000000000E+00 0.  1.
          2    1    1    2  501    0  0.13359274727E+02  0.15817273475E+02  0.64759271087E+01  0.21693178498E+02  0.00000000000E+00 0.  1.
         -2    1    1    2    0  502 -0.13359274727E+02 -0.15817273475E+02  0.11443420622E+03  0.11629206299E+03  0.00000000000E+00 0. -1.
</event>
<event>
 4    1  0.1874565E+004  0.2050951E+02  0.7546771E-02  0.1526384E+00
         21   -1    0    0  501  502  0.00000000000E+00  0.00000000000E+00  0.26082405502E+03  0.26082405502E+03  0.00000000000E+00 0.  1.
         21   -1    0    0  502  503 -0.00000000000E+00 -0.00000000000E+00 -0.35211327964E+01  0.35211327964E+01  0.00000000000E+00 0. -1.
          2    1    1    2  501    0 -0.85080375708E+01  0.18661548238E+02  0.22595635035E+03  0.22688524049E+03  0.00000000000E+00 0.  1.
         -2    1    1    2    0  503  0.85080375708E+01 -0.18661548238E+02  0.31346571874E+02  0.37459947332E+02  0.00000000000E+00 0. -1.
</event>
<event>
 4    1  0.1874565E+004  0.3448952E+02  0.7546771E-02  0.1384188E+00
         21   -1    0    0  501  502  0.00000000000E+00  0.00000000000E+00  0.10860438531E+03  0.10860438531E+03  0.00000000000E+00 0.  1.
         21   -1    0    0  502  503 -0.00000000000E+00 -0.00000000000E+00 -0.10799800528E+03  0.10799800528E+03  0.00000000000E+00 0. -1.
          2    1    1    2  501    0  0.22047840516E+02 -0.26522056116E+02  0.10296580661E+03  0.10858860006E+03  0.00000000000E+00 0.  1.
         -2    1    1    2    0  503 -0.22047840516E+02  0.26522056116E+02 -0.10235942658E+03  0.10801379052E+03  0.00000000000E+00 0. -1.
</event>
<event>
 4    1  0.1874565E+004  0.2090445E+02  0.7546771E-02  0.1520633E+00
         21   -1    0    0  503  502  0.00000000000E+00  0.00000000000E+00  0.22952651273E+02  0.22952651273E+02  0.00000000000E+00 0.  1.
         21   -1    0    0  501  503 -0.00000000000E+00 -0.00000000000E+00 -0.35309566752E+02  0.35309566752E+02  0.00000000000E+00 0. -1.
          2    1    1    2  501    0  0.19957095812E+02  0.62217593774E+01 -0.25953249157E+02  0.33325172240E+02  0.00000000000E+00 0. -1.
         -2    1    1    2    0  502 -0.19957095812E+02 -0.62217593774E+01  0.13596333679E+02  0.24937045785E+02  0.00000000000E+00 0.  1.
</event>
<event>
 4    1  0.1874565E+004  0.2584690E+02  0.7546771E-02  0.1459548E+00
         21   -1    0    0  501  502  0.00000000000E+00  0.00000000000E+00  0.20864810138E+03  0.20864810138E+03  0.00000000000E+00 0. -1.
         21   -1    0    0  502  503 -0.00000000000E+00 -0.00000000000E+00 -0.34662668837E+01  0.34662668837E+01  0.00000000000E+00 0.  1.
          2    1    1    2  501    0  0.94062869967E+01 -0.24074553903E+02  0.73299255356E+02  0.77722861607E+02  0.00000000000E+00 0.  1.
         -2    1    1    2    0  503 -0.94062869967E+01  0.24074553903E+02  0.13188257914E+03  0.13439150666E+03  0.00000000000E+00 0. -1.
</event>
<event>
 4    1  0.1874565E+004  0.2107522E+02  0.7546771E-02  0.1518193E+00
         21   -1    0    0  503  502  0.00000000000E+00  0.00000000000E+00  0.15635256955E+03  0.15635256955E+03  0.00000000000E+00 0.  1.
         21   -1    0    0  501  503 -0.00000000000E+00 -0.00000000000E+00 -0.75400310397E+01  0.75400310397E+01  0.00000000000E+00 0. -1.
          2    1    1    2  501    0 -0.14094239778E+02  0.15668997583E+02  0.97133771248E+01  0.23205921127E+02  0.00000000000E+00 0. -1.
         -2    1    1    2    0  502  0.14094239778E+02 -0.15668997583E+02  0.13909916139E+03  0.14068667947E+03  0.00000000000E+00 0.  1.
</event>
<event>
 4    1  0.1874565E+004  0.3447410E+02  0.7546771E-02  0.1384299E+00
         21   -1    0    0  501  502  0.00000000000E+00  0.00000000000E+00  0.13550491970E+03  0.13550491970E+03  0.00000000000E+00 0. -1.
         21   -1    0    0  502  503 -0.00000000000E+00 -0.00000000000E+00 -0.87866467404E+01  0.87866467404E+01  0.00000000000E+00 0.  1.
          2    1    1    2  501    0  0.32656595711E+02 -0.11045820979E+02  0.66439467384E+02  0.74850960119E+02  0.00000000000E+00 0. -1.
         -2    1    1    2    0  503 -0.32656595711E+02  0.11045820979E+02  0.60278805574E+02  0.69440606319E+02  0.00000000000E+00 0.  1.
</event>
<event>
 4    1  0.1874565E+004  0.2385190E+02  0.7546771E-02  0.1482069E+00
         21   -1    0    0  501  502  0.00000000000E+00  0.00000000000E+00  0.59796599675E+03  0.59796599675E+03  0.00000000000E+00 0. -1.
         21   -1    0    0  502  503 -0.00000000000E+00 -0.00000000000E+00 -0.19604075375E+01  0.19604075375E+01  0.00000000000E+00 0.  1.
          2    1    1    2  501    0  0.40029657838E+01 -0.23513599831E+02  0.51320119100E+03  0.51375517083E+03  0.00000000000E+00 0. -1.
         -2    1    1    2    0  503 -0.40029657838E+01  0.23513599831E+02  0.82804398216E+02  0.86171233460E+02  0.00000000000E+00 0.  1.
</event>
<event>
 4    1  0.1874565E+004  0.2061293E+02  0.7546771E-02  0.1524864E+00
         21   -1    0    0  501  502  0.00000000000E+00  0.00000000000E+00  0.71119044541E+03  0.71119044541E+03  0.00000000000E+00 0. -1.
         21   -1    0    0  502  503 -0.00000000000E+00 -0.00000000000E+00 -0.15524971831E+01  0.15524971831E+01  0.00000000000E+00 0.  1.
          2    1    1    2  501    0 -0.13385141788E+02 -0.15675805833E+02  0.63433224631E+03  0.63466707148E+03  0.00000000000E+00 0. -1.
         -2    1    1    2    0  503  0.13385141788E+02  0.15675805833E+02  0.75305701913E+02  0.78075871112E+02  0.00000000000E+00 0.  1.
</event>
<event>
 4    1  0.1874565E+004  0.2155474E+02  0.7546771E-02  0.1511490E+00
         21   -1    0    0  501  502  0.00000000000E+00  0.00000000000E+00  0.80529008635E+02  0.80529008635E+02  0.00000000000E+00 0.  1.
         21   -1    0    0  502  503 -0.00000000000E+00 -0.00000000000E+00 -0.10848158625E+02  0.10848158625E+02  0.00000000000E+00 0. -1.
          2    1    1    2  501    0  0.15390894300E+02  0.15090630160E+02  0.66101725644E+02  0.69527295928E+02  0.00000000000E+00 0.  1.
         -2    1    1    2    0  503 -0.15390894300E+02 -0.15090630160E+02  0.35791243663E+01  0.21849871331E+02  0.00000000000E+00 0. -1.
</event>
<event>
 4    1  0.1874565E+004  0.2089665E+02  0.7546771E-02  0.1520746E+00
         21   -1    0    0  503  502  0.00000000000E+00  0.00000000000E+00  0.70680170579E+01  0.70680170579E+01  0.00000000000E+00 0.  1.
         21   -1    0    0  501  503 -0.00000000000E+00 -0.00000000000E+00 -0.12801695812E+03  0.12801695812E+03  0.00000000000E+00 0. -1.
          2    1    1    2  501    0 -0.11307571649E+02 -0.17572954507E+02 -0.10905808993E+03  0.11104205008E+03  0.00000000000E+00 0. -1.
         -2    1    1    2    0  502  0.11307571649E+02  0.17572954507E+02 -0.11890851135E+02  0.24042925101E+02  0.00000000000E+00 0.  1.
</event>
<event>
 4    1  0.1874565E+004  0.2235425E+02  0.7546771E-02  0.1500770E+00
         21   -1    0    0  501  502  0.00000000000E+00  0.00000000000E+00  0.16429513663E+03  0.16429513663E+03  0.00000000000E+00 0. -1.
         21   -1    0    0  502  503 -0.00000000000E+00 -0.00000000000E+00 -0.58067894017E+01  0.58067894017E+01  0.00000000000E+00 0.  1.
          2    1    1    2  501    0  0.22250941783E+02  0.21466135320E+01  0.13793596066E+03  0.13973561323E+03  0.00000000000E+00 0. -1.
         -2    1    1    2    0  503 -0.22250941783E+02 -0.21466135320E+01  0.20552386567E+02  0.30366312807E+02  0.00000000000E+00 0.  1.
</event>
<event>
 4    1  0.1874565E+004  0.2132956E+02  0.7546771E-02  0.1514611E+00
         21   -1    0    0  501  502  0.00000000000E+00  0.00000000000E+00  0.22927227056E+03  0.22927227056E+03  0.00000000000E+00 0. -1.
         21   -1    0    0  502  503 -0.00000000000E+00 -0.00000000000E+00 -0.19982257452E+01  0.19982257452E+01  0.00000000000E+00 0.  1.
          2    1    1    2  501    0 -0.11884491386E+02 -0.17711828194E+02  0.10399129420E+03  0.10615620219E+03  0.00000000000E+00 0.  1.
         -2    1    1    2    0  503  0.11884491386E+02  0.17711828194E+02  0.12328275061E+03  0.12511429411E+03  0.00000000000E+00 0. -1.
</event>
<event>
 4    1  0.1874565E+004  0.2079134E+02  0.7546771E-02  0.1522265E+00
         21   -1    0    0  503  502  0.00000000000E+00  0.00000000000E+00  0.24288886606E+02  0.24288886606E+02  0.00000000000E+00 0. -1.
         21   -1    0    0  501  503 -0.00000000000E+00 -0.00000000000E+00 -0.35152783742E+02  0.35152783742E+02  0.00000000000E+00 0.  1.
          2    1    1    2  501    0  0.13604980999E+02  0.15722089934E+02 -0.26315192180E+02  0.33537575335E+02  0.00000000000E+00 0.  1.
         -2    1    1    2    0  502 -0.13604980999E+02 -0.15722089934E+02  0.15451295044E+02  0.25904095012E+02  0.00000000000E+00 0. -1.
</event>
<event>
 4    1  0.1874565E+004  0.2222624E+02  0.7546771E-02  0.1502450E+00
         21   -1    0    0  501  502  0.00000000000E+00  0.00000000000E+00  0.12310577539E+04  0.12310577539E+04  0.00000000000E+00 0. -1.
         21   -1    0    0  502  503 -0.00000000000E+00 -0.00000000000E+00 -0.60158278399E+00  0.60158278399E+00  0.00000000000E+00 0.  1.
          2    1    1    2  501    0  0.12032051339E+02  0.18687847643E+02  0.97057306960E+03  0.97082752811E+03  0.00000000000E+00 0. -1.
         -2    1    1    2    0  503 -0.12032051339E+02 -0.18687847643E+02  0.25988310155E+03  0.26083180860E+03  0.00000000000E+00 0.  1.
</event>
<event>
 4    1  0.1874565E+004  0.2118967E+02  0.7546771E-02  0.1516574E+00
         21   -1    0    0  501  502  0.00000000000E+00  0.00000000000E+00  0.12290616744E+02  0.12290616744E+02  0.00000000000E+00 0. -1.
         21   -1    0    0  502  503 -0.00000000000E+00 -0.00000000000E+00 -0.11925983329E+03  0.11925983329E+03  0.00000000000E+00 0.  1.
          2    1    1    2  501    0 -0.98628137751E+01  0.18754382460E+02  0.12977625994E+01  0.21229369863E+02  0.00000000000E+00 0. -1.
         -2    1    1    2    0  503  0.98628137751E+01 -0.18754382460E+02 -0.10826697915E+03  0.11032108017E+03  0.00000000000E+00 0.  1.
</event>
<event>
 4    1  0.1874565E+004  0.7170716E+02  0.7546771E-02  0.1224530E+00
         21   -1    0    0  501  502  0.00000000000E+00  0.00000000000E+00  0.29840561161E+02  0.29840561161E+02  0.00000000000E+00 0. -1.
         21   -1    0    0  502  503 -0.00000000000E+00 -0.00000000000E+00 -0.17436611475E+03  0.17436611475E+03  0.00000000000E+00 0.  1.
          2    1    1    2  501    0 -0.77782107253E+01  0.71284052051E+02 -0.83342155907E+02  0.10994467513E+03  0.00000000000E+00 0. -1.
         -2    1    1    2    0  503  0.77782107253E+01 -0.71284052051E+02 -0.61183397685E+02  0.94262000781E+02  0.00000000000E+00 0.  1.
</event>
<event>
 4    1  0.1874565E+004  0.6679787E+02  0.7546771E-02  0.1238335E+00
         21   -1    0    0  501  502  0.00000000000E+00  0.00000000000E+00  0.99219263100E+01  0.99219263100E+01  0.00000000000E+00 0. -1.
         21   -1    0    0  502  503 -0.00000000000E+00 -0.00000000000E+00 -0.57219664981E+03  0.57219664981E+03  0.00000000000E+00 0.  1.
          2    1    1    2  501    0 -0.63390384142E+02  0.21062147250E+02 -0.14647092361E+03  0.16098349701E+03  0.00000000000E+00 0. -1.
         -2    1    1    2    0  503  0.63390384142E+02 -0.21062147250E+02 -0.41580379989E+03  0.42113507910E+03  0.00000000000E+00 0.  1.
</event>
<event>
 4    1  0.1874565E+004  0.2378561E+02  0.7546771E-02  0.1482862E+00
         21   -1    0    0  501  502  0.00000000000E+00  0.00000000000E+00  0.30689737707E+02  0.30689737707E+02  0.00000000000E+00 0. -1.
         21   -1    0    0  502  503 -0.00000000000E+00 -0.00000000000E+00 -0.31873777037E+02  0.31873777037E+02  0.00000000000E+00 0.  1.
          2    1    1    2  501    0 -0.23211218189E+02 -0.51956322463E+01  0.19720301486E+02  0.30897338638E+02  0.00000000000E+00 0. -1.
         -2    1    1    2    0  503  0.23211218189E+02  0.51956322463E+01 -0.20904340815E+02  0.31666176106E+02  0.00000000000E+00 0.  1.
</event>
<event>
 4    1  0.1874565E+004  0.2615447E+02  0.7546771E-02  0.1456292E+00
         21   -1    0    0  503  502  0.00000000000E+00  0.00000000000E+00  0.83911905999E+02  0.83911905999E+02  0.00000000000E+00 0.  1.
         21   -1    0    0  501  503 -0.00000000000E+00 -0.00000000000E+00 -0.14796356912E+02  0.14796356912E+02  0.00000000000E+00 0. -1.
          2    1    1    2  501    0 -0.24589791652E+02 -0.89105734584E+01  0.14850380084E+01  0.26196593495E+02  0.00000000000E+00 0. -1.
         -2    1    1    2    0  502  0.24589791652E+02  0.89105734584E+01  0.67630511078E+02  0.72511669416E+02  0.00000000000E+00 0.  1.
</event>
<event>
 4    1  0.1874565E+004  0.2824124E+02  0.7546771E-02  0.1435523E+00
         21   -1    0    0  503  502  0.00000000000E+00  0.00000000000E+00  0.20799898890E+03  0.20799898890E+03  0.00000000000E+00 0. -1.
         21   -1    0    0  501  503 -0.00000000000E+00 -0.00000000000E+00 -0.55456623885E+01  0.55456623885E+01  0.00000000000E+00 0.  1.
          2    1    1    2  501    0 -0.25329479234E+02  0.12489406130E+02  0.41916345718E+02  0.50542534781E+02  0.00000000000E+00 0.  1.
         -2    1    1    2    0  502  0.25329479234E+02 -0.12489406130E+02  0.16053698079E+03  0.16300211650E+03  0.00000000000E+00 0. -1.
</event>
<event>
 4    1  0.1874565E+004  0.2005896E+02  0.7546771E-02  0.1533136E+00
         21   -1    0    0  503  502  0.00000000000E+00  0.00000000000E+00  0.35083577064E+02  0.35083577064E+02  0.00000000000E+00 0.  1.
         21   -1    0    0  501  503 -0.00000000000E+00 -0.00000000000E+00 -0.11468674557E+02  0.11468674557E+02  0.00000000000E+00 0. -1.
          2    1    1    2  501    0  0.19417690852E+02  0.50314273621E+01  0.11793319268E+02  0.23268956975E+02  0.00000000000E+00 0.  1.
         -2    1    1    2    0  502 -0.19417690852E+02 -0.50314273621E+01  0.11821583238E+02  0.23283294646E+02  0.00000000000E+00 0. -1.
</event>
<event>
 4    1  0.1874565E+004  0.2659065E+02  0.7546771E-02  0.1451764E+00
         21   -1    0    0  501  502  0.00000000000E+00  0.00000000000E+00  0.52964403820E+02  0.52964403820E+02  0.00000000000E+00 0.  1.
         21   -1    0    0  502  503 -0.00000000000E+00 -0.00000000000E+00 -0.18045126408E+02  0.18045126408E+02  0.00000000000E+00 0. -1.
          2    1    1    2  501    0  0.21424395847E+02 -0.15749857426E+02  0.35570572441E+02  0.44410903730E+02  0.00000000000E+00 0. -1.
         -2    1    1    2    0  503 -0.21424395847E+02  0.15749857426E+02 -0.65129502932E+00  0.26598626498E+02  0.00000000000E+00 0.  1.
</event>
<event>
 4    1  0.1874565E+004  0.2695539E+02  0.7546771E-02  0.1448057E+00
         21   -1    0    0  501  502  0.00000000000E+00  0.00000000000E+00  0.54199600773E+01  0.54199600773E+01  0.00000000000E+00 0.  1.
         21   -1    0    0  502  503 -0.00000000000E+00 -0.00000000000E+00 -0.16231746552E+03  0.16231746552E+03  0.00000000000E+00 0. -1.
          2    1    1    2  501    0  0.20087015170E+02  0.17975113237E+02 -0.43454732246E+02  0.51136157744E+02  0.00000000000E+00 0.  1.
         -2    1    1    2    0  503 -0.20087015170E+02 -0.17975113237E+02 -0.11344277320E+03  0.11660126785E+03  0.00000000000E+00 0. -1.
</event>
<event>
 4    1  0.1874565E+004  0.2814681E+02  0.7546771E-02  0.1436416E+00
         21   -1    0    0  501  502  0.00000000000E+00  0.00000000000E+00  0.30640465154E+03  0.30640465154E+03  0.00000000000E+00 0. -1.
         21   -1    0    0  502  503 -0.00000000000E+00 -0.00000000000E+00 -0.82709569299E+02  0.82709569299E+02  0.00000000000E+00 0.  1.
          2    1    1    2  501    0  0.72166196567E+01 -0.27205947079E+02  0.30333944923E+03  0.30464251938E+03  0.00000000000E+00 0. -1.
         -2    1    1    2    0  503 -0.72166196567E+01  0.27205947079E+02 -0.79644366984E+02  0.84471701463E+02  0.00000000000E+00 0.  1.
</event>
<event>
 4    1  0.1874565E+004  0.2023304E+02  0.7546771E-02  0.1530503E+00
         21   -1    0    0  501  502  0.00000000000E+00  0.00000000000E+00  0.10843575885E+03  0.10843575885E+03  0.00000000000E+00 0. -1.
         21   -1    0    0  502  503 -0.00000000000E+00 -0.00000000000E+00 -0.37793855023E+01  0.37793855023E+01  0.00000000000E+00 0.  1.
          2    1    1    2  501    0 -0.12548169542E+02 -0.15871962974E+02  0.54176566002E+02  0.57831445350E+02  0.00000000000E+00 0. -1.
         -2    1    1    2    0  503  0.12548169542E+02  0.15871962974E+02  0.50479807341E+02  0.54383698997E+02  0.00000000000E+00 0.  1.
</event>
<event>
 4    1  0.1874565E+004  0.2840780E+02  0.7546771E-02  0.1433957E+00
         21   -1    0    0  501  502  0.00000000000E+00  0.00000000000E+00  0.18115179753E+01  0.18115179753E+01  0.00000000000E+00 0. -1.
         21   -1    0    0  502  503 -0.00000000000E+00 -0.00000000000E+00 -0.59421075516E+03  0.59421075516E+03  0.00000000000E+00 0.  1.
          2    1    1    2  501    0 -0.11015276294E+02  0.26185240506E+02 -0.14710701489E+03  0.14982482091E+03  0.00000000000E+00 0. -1.
         -2    1    1    2    0  503  0.11015276294E+02 -0.26185240506E+02 -0.44529222229E+03  0.44619745222E+03  0.00000000000E+00 0.  1.
</event>
<event>
 4    1  0.1874565E+004  0.2096218E+02  0.7546771E-02  0.1519805E+00
         21   -1    0    0  503  502  0.00000000000E+00  0.00000000000E+00  0.36663523523E+02  0.36663523523E+02  0.00000000000E+00 0.  1.
         21   -1    0    0  501  503 -0.00000000000E+00 -0.00000000000E+00 -0.20324719435E+02  0.20324719435E+02  0.00000000000E+00 0. -1.
          2    1    1    2  501    0 -0.11286065611E+02  0.17664589921E+02 -0.10082924327E+02  0.23261091485E+02  0.00000000000E+00 0. -1.
         -2    1    1    2    0  502  0.11286065611E+02 -0.17664589921E+02  0.26421728415E+02  0.33727151473E+02  0.00000000000E+00 0.  1.
</event>
<event>
 4    1  0.1874565E+004  0.2008923E+02  0.7546771E-02  0.1532676E+00
         21   -1    0    0  501  502  0.00000000000E+00  0.00000000000E+00  0.41269046576E+02  0.41269046576E+02  0.00000000000E+00 0.  1.
         21   -1    0    0  502  503 -0.00000000000E+00 -0.00000000000E+00 -0.43592813382E+02  0.43592813382E+02  0.00000000000E+00 0. -1.
          2    1    1    2  501    0  0.19981911607E+02 -0.20737206217E+01  0.36207942271E+02  0.41407634467E+02  0.00000000000E+00 0.  1.
         -2    1    1    2    0  503 -0.19981911607E+02  0.20737206217E+01 -0.38531709076E+02  0.43454225491E+02  0.00000000000E+00 0. -1.
</event>
<event>
 4    1  0.1874565E+004  0.3871115E+02  0.7546771E-02  0.1356208E+00
         21   -1    0    0  503  502  0.00000000000E+00  0.00000000000E+00  0.68983629848E+02  0.68983629848E+02  0.00000000000E+00 0. -1.
         21   -1    0    0  501  503 -0.00000000000E+00 -0.00000000000E+00 -0.35714435778E+02  0.35714435778E+02  0.00000000000E+00 0.  1.
          2    1    1    2  501    0  0.37257838166E+02 -0.10507450368E+02 -0.16130619426E+02  0.41937452249E+02  0.00000000000E+00 0.  1.
         -2    1    1    2    0  502 -0.37257838166E+02  0.10507450368E+02  0.49399813496E+02  0.62760613377E+02  0.00000000000E+00 0. -1.
</event>
<event>
 4    1  0.1874565E+004  0.3191004E+02  0.7546771E-02  0.1403693E+00
         21   -1    0    0  501  502  0.00000000000E+00  0.00000000000E+00  0.71691020733E+02  0.71691020733E+02  0.00000000000E+00 0.  1.
         21   -1    0    0  502  503 -0.00000000000E+00 -0.00000000000E+00 -0.14278492189E+02  0.14278492189E+02  0.00000000000E+00 0. -1.
          2    1    1    2  501    0  0.92163441829E+01 -0.30550122261E+02  0.31825033870E+02  0.45067546540E+02  0.00000000000E+00 0.  1.
         -2    1    1    2    0  503 -0.92163441829E+01  0.30550122261E+02  0.25587494674E+02  0.40901966382E+02  0.00000000000E+00 0. -1.
</event>
<event>
 4    1  0.1874565E+004  0.3298730E+02  0.7546771E-02  0.1395293E+00
         21   -1    0    0  501  502  0.00000000000E+00  0.00000000000E+00  0.21125379415E+02  0.21125379415E+02  0.00000000000E+00 0.  1.
         21   -1    0    0  502  503 -0.00000000000E+00 -0.00000000000E+00 -0.65874336291E+02  0.65874336291E+02  0.00000000000E+00 0. -1.
          2    1    1    2  501    0  0.30321418216E+02 -0.12991289225E+02 -0.42687615473E+02  0.53948072377E+02  0.00000000000E+00 0.  1.
         -2    1    1    2    0  503 -0.30321418216E+02  0.12991289225E+02 -0.20613414029E+01  0.33051643329E+02  0.00000000000E+00 0. -1.
</event>
<event>
 4    1  0.1874565E+004  0.3102321E+02  0.7546771E-02  0.1410908E+00
         21   -1    0    0  501  502  0.00000000000E+00  0.00000000000E+00  0.49149539099E+02  0.49149539099E+02  0.00000000000E+00 0.  1.
         21   -1    0    0  502  503 -0.00000000000E+00 -0.00000000000E+00 -0.40244617287E+02  0.40244617287E+02  0.00000000000E+00 0. -1.
          2    1    1    2  501    0  0.28042841864E+02  0.13267946283E+02 -0.27574768767E+02  0.41506713324E+02  0.00000000000E+00 0. -1.
         -2    1    1    2    0  503 -0.28042841864E+02 -0.13267946283E+02  0.36479690578E+02  0.47887443063E+02  0.00000000000E+00 0.  1.
</event>
<event>
 4    1  0.1874565E+004  0.2780748E+02  0.7546771E-02  0.1439661E+00
         21   -1    0    0  501  502  0.00000000000E+00  0.00000000000E+00  0.45481983616E+02  0.45481983616E+02  0.00000000000E+00 0. -1.
         21   -1    0    0  502  503 -0.00000000000E+00 -0.00000000000E+00 -0.17095072312E+02  0.17095072312E+02  0.00000000000E+00 0.  1.
          2    1    1    2  501    0  0.18260860021E+02  0.20971340722E+02  0.11877025113E+02  0.30237722565E+02  0.00000000000E+00 0. -1.
         -2    1    1    2    0  503 -0.18260860021E+02 -0.20971340722E+02  0.16509886191E+02  0.32339333364E+02  0.00000000000E+00 0.  1.
</event>
<event>
 4    1  0.1874565E+004  0.4542385E+02  0.7546771E-02  0.1319333E+00
         21   -1    0    0  503  502  0.00000000000E+00  0.00000000000E+00  0.85427609442E+02  0.85427609442E+02  0.00000000000E+00 0. -1.
         21   -1    0    0  501  503 -0.00000000000E+00 -0.00000000000E+00 -0.46956704858E+02  0.46956704858E+02  0.00000000000E+00 0.  1.
          2    1    1    2  501    0  0.44934768646E+02 -0.66477795856E+01 -0.26892181204E+02  0.52787458895E+02  0.00000000000E+00 0.  1.
         -2    1    1    2    0  502 -0.44934768646E+02  0.66477795856E+01  0.65363085788E+02  0.79596855406E+02  0.00000000000E+00 0. -1.
</event>
<event>
 4    1  0.1874565E+004  0.2809871E+02  0.7546771E-02  0.1436873E+00
         21   -1    0    0  503  502  0.00000000000E+00  0.00000000000E+00  0.15315155854E+02  0.15315155854E+02  0.00000000000E+00 0. -1.
         21   -1    0    0  501  503 -0.00000000000E+00 -0.00000000000E+00 -0.92380171126E+02  0.92380171126E+02  0.00000000000E+00 0.  1.
          2    1    1    2  501    0  0.98712017318E+01  0.26307733407E+02 -0.74330097097E+02  0.79463833252E+02  0.00000000000E+00 0.  1.
         -2    1    1    2    0  502 -0.98712017318E+01 -0.26307733407E+02 -0.27349181744E+01  0.28231493728E+02  0.00000000000E+00 0. -1.
</event>
<event>
 4    1  0.1874565E+004  0.2161181E+02  0.7546771E-02  0.1510706E+00
         21   -1    0    0  501  502  0.00000000000E+00  0.00000000000E+00  0.23231253723E+02  0.23231253723E+02  0.00000000000E+00 0. -1.
         21   -1    0    0  502  503 -0.00000000000E+00 -0.00000000000E+00 -0.55394244196E+02  0.55394244196E+02  0.00000000000E+00 0.  1.
          2    1    1    2  501    0  0.12344171945E+01  0.21576529110E+02  0.15296173350E+02  0.26477222539E+02  0.00000000000E+00 0. -1.
         -2    1    1    2    0  503 -0.12344171945E+01 -0.21576529110E+02 -0.47459163823E+02  0.52148275380E+02  0.00000000000E+00 0.  1.
</event>
<event>
 4    1  0.1874565E+004  0.2577987E+02  0.7546771E-02  0.1460265E+00
         21   -1    0    0  503  502  0.00000000000E+00  0.00000000000E+00  0.24591476726E+02  0.24591476726E+02  0.00000000000E+00 0.  1.
         21   -1    0    0  501  503 -0.00000000000E+00 -0.00000000000E+00 -0.35286866058E+02  0.35286866058E+02  0.00000000000E+00 0. -1.
          2    1    1    2  501    0  0.50693733241E+01  0.25276538460E+02 -0.19833873200E+02  0.32526673186E+02  0.00000000000E+00 0. -1.
         -2    1    1    2    0  502 -0.50693733241E+01 -0.25276538460E+02  0.91384838685E+01  0.27351669598E+02  0.00000000000E+00 0.  1.
</event>
<event>
 4    1  0.1874565E+004  0.2209978E+02  0.7546771E-02  0.1504123E+00
         21   -1    0    0  503  502  0.00000000000E+00  0.00000000000E+00  0.53966644553E+00  0.53966644553E+00  0.00000000000E+00 0.  1.
         21   -1    0    0  501  503 -0.00000000000E+00 -0.00000000000E+00 -0.93119651712E+03  0.93119651712E+03  0.00000000000E+00 0. -1.
          2    1    1    2  501    0  0.14186802623E+02 -0.16945049744E+02 -0.54346136693E+03  0.54391052336E+03  0.00000000000E+00 0.  1.
         -2    1    1    2    0  502 -0.14186802623E+02  0.16945049744E+02 -0.38719548374E+03  0.38782566020E+03  0.00000000000E+00 0. -1.
</event>
<event>
 4    1  0.1874565E+004  0.3196497E+02  0.7546771E-02  0.1403256E+00
         21   -1    0    0  503  502  0.00000000000E+00  0.00000000000E+00  0.23109574563E+02  0.23109574563E+02  0.00000000000E+00 0.  1.
         21   -1    0    0  501  503 -0.00000000000E+00 -0.00000000000E+00 -0.10430301016E+03  0.10430301016E+03  0.00000000000E+00 0. -1.
          2    1    1    2  501    0  0.31554667373E+02 -0.51051076380E+01 -0.88950741424E+02  0.94519805104E+02  0.00000000000E+00 0. -1.
         -2    1    1    2    0  502 -0.31554667373E+02  0.51051076380E+01  0.77573058310E+01  0.32892779615E+02  0.00000000000E+00 0.  1.
</event>
<event>
 4    1  0.1874565E+004  0.2749748E+02  0.7546771E-02  0.1442674E+00
         21   -1    0    0  503  502  0.00000000000E+00  0.00000000000E+00  0.90236528920E+02  0.90236528920E+02  0.00000000000E+00 0. -1.
         21   -1    0    0  501  503 -0.00000000000E+00 -0.00000000000E+00 -0.10526778359E+02  0.10526778359E+02  0.00000000000E+00 0.  1.
          2    1    1    2  501    0 -0.27365508300E+02 -0.26907972526E+01  0.17098793045E+02  0.32380243328E+02  0.00000000000E+00 0. -1.
         -2    1    1    2    0  502  0.27365508300E+02  0.26907972526E+01  0.62610957516E+02  0.68383063952E+02  0.00000000000E+00 0.  1.
</event>
<event>
 4    1  0.1874565E+004  0.2647523E+02  0.7546771E-02  0.1452952E+00
         21   -1    0    0  501  502  0.00000000000E+00  0.00000000000E+00  0.44340215409E+03  0.44340215409E+03  0.00000000000E+00 0. -1.
         21   -1    0    0  502  503 -0.00000000000E+00 -0.00000000000E+00 -0.25061508728E+01  0.25061508728E+01  0.00000000000E+00 0.  1.
          2    1    1    2  501    0 -0.24644812603E+02  0.96732076662E+01  0.35592362289E+03  0.35690693894E+03  0.00000000000E+00 0. -1.
         -2    1    1    2    0  503  0.24644812603E+02 -0.96732076662E+01  0.84972380325E+02  0.89001366017E+02  0.00000000000E+00 0.  1.
</event>
<event>
 4    1  0.1874565E+004  0.2130853E+02  0.7546771E-02  0.1514905E+00
         21   -1    0    0  503  502  0.00000000000E+00  0.00000000000E+00  0.78175947845E+02  0.78175947845E+02  0.00000000000E+00 0. -1.
         21   -1    0    0  501  503 -0.00000000000E+00 -0.00000000000E+00 -0.60757883343E+01  0.60757883343E+01  0.00000000000E+00 0.  1.
          2    1    1    2  501    0  0.21231198664E+02 -0.18136896993E+01  0.27207744105E+02  0.34558857132E+02  0.00000000000E+00 0.  1.
         -2    1    1    2    0  502 -0.21231198664E+02  0.18136896993E+01  0.44892415406E+02  0.49692879047E+02  0.00000000000E+00 0. -1.
</event>
<event>
 4    1  0.1874565E+004  0.2038443E+02  0.7546771E-02  0.1528238E+00
         21   -1    0    0  503  502  0.00000000000E+00  0.00000000000E+00  0.12531792346E+02  0.12531792346E+02  0.00000000000E+00 0.  1.
         21   -1    0    0  501  503 -0.00000000000E+00 -0.00000000000E+00 -0.59973515572E+02  0.59973515572E+02  0.00000000000E+00 0. -1.
          2    1    1    2  501    0  0.70438867306E+01 -0.19128739294E+02 -0.47962156680E+02  0.52114234914E+02  0.00000000000E+00 0. -1.
         -2    1    1    2    0  502 -0.70438867306E+01  0.19128739294E+02  0.52043345411E+00  0.20391073004E+02  0.00000000000E+00 0.  1.
</event>
<event>
 4    1  0.1874565E+004  0.2829133E+02  0.7546771E-02  0.1435051E+00
         21   -1    0    0  503  502  0.00000000000E+00  0.00000000000E+00  0.34151666666E+03  0.34151666666E+03  0.00000000000E+00 0. -1.
         21   -1    0    0  501  503 -0.00000000000E+00 -0.00000000000E+00 -0.23719449053E+01  0.23719449053E+01  0.00000000000E+00 0.  1.
          2    1    1    2  501    0 -0.28290865045E+02 -0.16241600012E+00  0.15079639740E+03  0.15342735379E+03  0.00000000000E+00 0.  1.
         -2    1    1    2    0  502  0.28290865045E+02  0.16241600012E+00  0.18834832436E+03  0.19046125778E+03  0.00000000000E+00 0. -1.
</event>
<event>
 4    1  0.1874565E+004  0.2123283E+02  0.7546771E-02  0.1515967E+00
         21   -1    0    0  503  502  0.00000000000E+00  0.00000000000E+00  0.12663208114E+02  0.12663208114E+02  0.00000000000E+00 0.  1.
         21   -1    0    0  501  503 -0.00000000000E+00 -0.00000000000E+00 -0.36091732568E+02  0.36091732568E+02  0.00000000000E+00 0. -1.
          2    1    1    2  501    0  0.21078723211E+02  0.25535045454E+01 -0.14554498702E+02  0.25742307397E+02  0.00000000000E+00 0.  1.
         -2    1    1    2    0  502 -0.21078723211E+02 -0.25535045454E+01 -0.88740257514E+01  0.23012633285E+02  0.00000000000E+00 0. -1.
</event>
<event>
 4    1  0.1874565E+004  0.2389360E+02  0.7546771E-02  0.1481572E+00
         21   -1    0    0  503  502  0.00000000000E+00  0.00000000000E+00  0.15465495185E+03  0.15465495185E+03  0.00000000000E+00 0.  1.
         21   -1    0    0  501  503 -0.00000000000E+00 -0.00000000000E+00 -0.68130772694E+01  0.68130772694E+01  0.00000000000E+00 0. -1.
          2    1    1    2  501    0  0.12203627144E+02  0.20542047722E+02  0.19272975722E+02  0.30697749645E+02  0.00000000000E+00 0. -1.
         -2    1    1    2    0  502 -0.12203627144E+02 -0.20542047722E+02  0.12856889886E+03  0.13077027947E+03  0.00000000000E+00 0.  1.
</event>
<event>
 4    1  0.1874565E+004  0.5050170E+02  0.7546771E-02  0.1296012E+00
         21   -1    0    0  503  502  0.00000000000E+00  0.00000000000E+00  0.66029819501E+01  0.66029819501E+01  0.00000000000E+00 0. -1.
         21   -1    0    0  501  503 -0.00000000000E+00 -0.00000000000E+00 -0.50279815735E+03  0.50279815735E+03  0.00000000000E+00 0.  1.
          2    1    1    2  501    0 -0.38396619106E+02  0.32804283688E+02 -0.37072293498E+03  0.37414691754E+03  0.00000000000E+00 0.  1.
         -2    1    1    2    0  502  0.38396619106E+02 -0.32804283688E+02 -0.12547224042E+03  0.13525422176E+03  0.00000000000E+00 0. -1.
</event>
<event>
 4    1  0.1874565E+004  0.2204144E+02  0.7546771E-02  0.1504899E+00
         21   -1    0    0  503  502  0.00000000000E+00  0.00000000000E+00  0.87208047440E+02  0.87208047440E+02  0.00000000000E+00 0.  1.
         21   -1    0    0  501  503 -0.00000000000E+00 -0.00000000000E+00 -0.71878069525E+01  0.71878069525E+01  0.00000000000E+00 0. -1.
          2    1    1    2  501    0  0.14020464967E+02 -0.17007403040E+02  0.17624429707E+02  0.28221369891E+02  0.00000000000E+00 0. -1.
         -2    1    1    2    0  502 -0.14020464967E+02  0.17007403040E+02  0.62395810780E+02  0.66174484501E+02  0.00000000000E+00 0.  1.
</event>
<event>
 4    1  0.1874565E+004  0.2016732E+02  0.7546771E-02  0.1531493E+00
         21   -1    0    0  503  502  0.00000000000E+00  0.00000000000E+00  0.26396852896E+02  0.26396852896E+02  0.00000000000E+00 0. -1.
         21   -1    0    0  501  503 -0.00000000000E+00 -0.00000000000E+00 -0.26328364579E+02  0.26328364579E+02  0.00000000000E+00 0.  1.
          2    1    1    2  501    0  0.47053323260E+01 -0.19610723418E+02 -0.16944148814E+02  0.26340554366E+02  0.00000000000E+00 0.  1.
         -2    1    1    2    0  502 -0.47053323260E+01  0.19610723418E+02  0.17012637130E+02  0.26384663109E+02  0.00000000000E+00 0. -1.
</event>
<event>
 4    1  0.1874565E+004  0.2452366E+02  0.7546771E-02  0.1474203E+00
         21   -1    0    0  501  502  0.00000000000E+00  0.00000000000E+00  0.83531062037E+02  0.83531062037E+02  0.00000000000E+00 0. -1.
         21   -1    0    0  502  503 -0.00000000000E+00 -0.00000000000E+00 -0.82759242736E+01  0.82759242736E+01  0.00000000000E+00 0.  1.
          2    1    1    2  501    0 -0.21673678924E+02 -0.11474393223E+02  0.54179976183E+02  0.59471672896E+02  0.00000000000E+00 0.  1.
         -2    1    1    2    0  503  0.21673678924E+02  0.11474393223E+02  0.21075161581E+02  0.32335313414E+02  0.00000000000E+00 0. -1.
</event>
<event>
 4    1  0.1874565E+004  0.2070087E+02  0.7546771E-02  0.1523579E+00
         21   -1    0    0  503  502  0.00000000000E+00  0.00000000000E+00  0.28714558494E+02  0.28714558494E+02  0.00000000000E+00 0. -1.
         21   -1    0    0  501  503 -0.00000000000E+00 -0.00000000000E+00 -0.88872524421E+02  0.88872524421E+02  0.00000000000E+00 0.  1.
          2    1    1    2  501    0 -0.15695433149E+02  0.13497378887E+02 -0.83709460406E+02  0.86231082679E+02  0.00000000000E+00 0.  1.
         -2    1    1    2    0  502  0.15695433149E+02 -0.13497378887E+02  0.23551494480E+02  0.31356000235E+02  0.00000000000E+00 0. -1.
</event>
<event>
 4    1  0.1874565E+004  0.2978731E+02  0.7546771E-02  0.1421454E+00
         21   -1    0    0  503  502  0.00000000000E+00  0.00000000000E+00  0.14564769477E+03  0.14564769477E+03  0.00000000000E+00 0. -1.
         21   -1    0    0  501  503 -0.00000000000E+00 -0.00000000000E+00 -0.62986189703E+01  0.62986189703E+01  0.00000000000E+00 0.  1.
          2    1    1    2  501    0  0.29435454877E+02 -0.45648373458E+01  0.55913945721E+02  0.63353398251E+02  0.00000000000E+00 0. -1.
         -2    1    1    2    0  502 -0.29435454877E+02  0.45648373458E+01  0.83435130083E+02  0.88592915494E+02  0.00000000000E+00 0.  1.
</event>
<event>
 4    1  0.1874565E+004  0.2198884E+02  0.7546771E-02  0.1505601E+00
         21   -1    0    0  503  502  0.00000000000E+00  0.00000000000E+00  0.16326108083E+02  0.16326108083E+02  0.00000000000E+00 0. -1.
         21   -1    0    0  501  503 -0.00000000000E+00 -0.00000000000E+00 -0.95708157742E+02  0.95708157742E+02  0.00000000000E+00 0.  1.
          2    1    1    2  501    0  0.21102871870E+02 -0.61788112619E+01 -0.86241314909E+02  0.89000411837E+02  0.00000000000E+00 0.  1.
         -2    1    1    2    0  502 -0.21102871870E+02  0.61788112619E+01  0.68592652512E+01  0.23033853988E+02  0.00000000000E+00 0. -1.
</event>
<event>
 4    1  0.1874565E+004  0.2078122E+02  0.7546771E-02  0.1522411E+00
         21   -1    0    0  503  502  0.00000000000E+00  0.00000000000E+00  0.86429297873E+00  0.86429297873E+00  0.00000000000E+00 0.  1.
         21   -1    0    0  501  503 -0.00000000000E+00 -0.00000000000E+00 -0.89053784705E+03  0.89053784705E+03  0.00000000000E+00 0. -1.
          2    1    1    2  501    0 -0.15762779874E+02 -0.13542307095E+02 -0.74011656509E+03  0.74040825848E+03  0.00000000000E+00 0. -1.
         -2    1    1    2    0  502  0.15762779874E+02  0.13542307095E+02 -0.14955698899E+03  0.15099388155E+03  0.00000000000E+00 0.  1.
</event>
<event>
 4    1  0.1874565E+004  0.2513227E+02  0.7546771E-02  0.1467329E+00
         21   -1    0    0  503  502  0.00000000000E+00  0.00000000000E+00  0.42016888587E+02  0.42016888587E+02  0.00000000000E+00 0. -1.
         21   -1    0    0  501  503 -0.00000000000E+00 -0.00000000000E+00 -0.22037255663E+02  0.22037255663E+02  0.00000000000E+00 0.  1.
          2    1    1    2  501    0  0.22356187494E+02  0.11481808918E+02 -0.80663684413E+01  0.26395025197E+02  0.00000000000E+00 0.  1.
         -2    1    1    2    0  502 -0.22356187494E+02 -0.11481808918E+02  0.28046001365E+02  0.37659119053E+02  0.00000000000E+00 0. -1.
</event>
<event>
 4    1  0.1874565E+004  0.2068926E+02  0.7546771E-02  0.1523748E+00
         21   -1    0    0  503  502  0.00000000000E+00  0.00000000000E+00  0.22651541466E+00  0.22651541466E+00  0.00000000000E+00 0. -1.
         21   -1    0    0  501  503 -0.00000000000E+00 -0.00000000000E+00 -0.18907326907E+04  0.18907326907E+04  0.00000000000E+00 0.  1.
          2    1    1    2  501    0 -0.16684923358E+02  0.12233507157E+02 -0.96738794852E+03  0.96760916092E+03  0.00000000000E+00 0.  1.
         -2    1    1    2    0  502  0.16684923358E+02 -0.12233507157E+02 -0.92311822674E+03  0.92335004517E+03  0.00000000000E+00 0. -1.
</event>
<event>
 4    1  0.1874565E+004  0.3303403E+02  0.7546771E-02  0.1394937E+00
         21   -1    0    0  503  502  0.00000000000E+00  0.00000000000E+00  0.23579959309E+02  0.23579959309E+02  0.00000000000E+00 0. -1.
         21   -1    0    0  501  503 -0.00000000000E+00 -0.00000000000E+00 -0.23535772024E+03  0.23535772024E+03  0.00000000000E+00 0.  1.
          2    1    1    2  501    0  0.31238524694E+02 -0.10742532106E+02 -0.22193291572E+03  0.22437795458E+03  0.00000000000E+00 0.  1.
         -2    1    1    2    0  502 -0.31238524694E+02  0.10742532106E+02  0.10155154790E+02  0.34559724969E+02  0.00000000000E+00 0. -1.
</event>
<event>
 4    1  0.1874565E+004  0.2163133E+02  0.7546771E-02  0.1510439E+00
         21   -1    0    0  501  502  0.00000000000E+00  0.00000000000E+00  0.62208865996E+01  0.62208865996E+01  0.00000000000E+00 0. -1.
         21   -1    0    0  502  503 -0.00000000000E+00 -0.00000000000E+00 -0.75383469241E+02  0.75383469241E+02  0.00000000000E+00 0.  1.
          2    1    1    2  501    0 -0.15739729699E+02  0.14838312429E+02 -0.36500374091E+02  0.42428668557E+02  0.00000000000E+00 0.  1.
         -2    1    1    2    0  503  0.15739729699E+02 -0.14838312429E+02 -0.32662208550E+02  0.39175687283E+02  0.00000000000E+00 0. -1.
</event>
<event>
 4    1  0.1874565E+004  0.2342667E+02  0.7546771E-02  0.1487209E+00
         21   -1    0    0  503  502  0.00000000000E+00  0.00000000000E+00  0.10159369591E+02  0.10159369591E+02  0.00000000000E+00 0.  1.
         21   -1    0    0  501  503 -0.00000000000E+00 -0.00000000000E+00 -0.76189707884E+02  0.76189707884E+02  0.00000000000E+00 0. -1.
          2    1    1    2  501    0 -0.21603851575E+02 -0.90599317893E+01 -0.56304655073E+02  0.60983792517E+02  0.00000000000E+00 0. -1.
         -2    1    1    2    0  502  0.21603851575E+02  0.90599317893E+01 -0.97256832203E+01  0.25365284958E+02  0.00000000000E+00 0.  1.
</event>
<event>
 4    1  0.1874565E+004  0.2366924E+02  0.7546771E-02  0.1484261E+00
         21   -1    0    0  503  502  0.00000000000E+00  0.00000000000E+00  0.12172149738E+02  0.12172149738E+02  0.00000000000E+00 0. -1.
         21   -1    0    0  501  503 -0.00000000000E+00 -0.00000000000E+00 -0.10602485122E+03  0.10602485122E+03  0.00000000000E+00 0.  1.
          2    1    1    2  501    0 -0.21066806450E+02  0.10789922947E+02 -0.91383833032E+02  0.94399352280E+02  0.00000000000E+00 0.  1.
         -2    1    1    2    0  502  0.21066806450E+02 -0.10789922947E+02 -0.24688684504E+01  0.23797648679E+02  0.00000000000E+00 0. -1.
</event>
<event>
 4    1  0.1874565E+004  0.2238428E+02  0.7546771E-02  0.1500378E+00
         21   -1    0    0  503  502  0.00000000000E+00  0.00000000000E+00  0.27964143944E+01  0.27964143944E+01  0.00000000000E+00 0. -1.
         21   -1    0    0  501  503 -0.00000000000E+00 -0.00000000000E+00 -0.18532655024E+03  0.18532655024E+03  0.00000000000E+00 0.  1.
          2    1    1    2  501    0  0.15267996986E+02 -0.16369009749E+02 -0.10839777159E+03  0.11068483680E+03  0.00000000000E+00 0.  1.
         -2    1    1    2    0  502 -0.15267996986E+02  0.16369009749E+02 -0.74132364258E+02  0.77438127835E+02  0.00000000000E+00 0. -1.
</event>
<event>
 4    1  0.1874565E+004  0.2178943E+02  0.7546771E-02  0.1508286E+00
         21   -1    0    0  503  502  0.00000000000E+00  0.00000000000E+00  0.22232761266E+03  0.22232761266E+03  0.00000000000E+00 0. -1.
         21   -1    0    0  501  503 -0.00000000000E+00 -0.00000000000E+00 -0.27107191090E+01  0.27107191090E+01  0.00000000000E+00 0.  1.
          2    1    1    2  501    0  0.21505921385E+02  0.35034877496E+01  0.57975785738E+02  0.61935214643E+02  0.00000000000E+00 0.  1.
         -2    1    1    2    0  502 -0.21505921385E+02 -0.35034877496E+01  0.16164110781E+03  0.16310311712E+03  0.00000000000E+00 0. -1.
</event>
<event>
 4    1  0.1874565E+004  0.3236812E+02  0.7546771E-02  0.1400075E+00
         21   -1    0    0  501  502  0.00000000000E+00  0.00000000000E+00  0.24022453447E+03  0.24022453447E+03  0.00000000000E+00 0. -1.
         21   -1    0    0  502  503 -0.00000000000E+00 -0.00000000000E+00 -0.12944631306E+02  0.12944631306E+02  0.00000000000E+00 0.  1.
          2    1    1    2  501    0 -0.46316762880E+01  0.32035020985E+02  0.21671736624E+03  0.21912122632E+03  0.00000000000E+00 0. -1.
         -2    1    1    2    0  503  0.46316762880E+01 -0.32035020985E+02  0.10562536924E+02  0.34047939454E+02  0.00000000000E+00 0.  1.
</event>
<event>
 4    1  0.1874565E+004  0.2401933E+02  0.7546771E-02  0.1480080E+00
         21   -1    0    0  501  502  0.00000000000E+00  0.00000000000E+00  0.67946597447E+02  0.67946597447E+02  0.00000000000E+00 0.  1.
         21   -1    0    0  502  503 -0.00000000000E+00 -0.00000000000E+00 -0.31067661245E+03  0.31067661245E+03  0.00000000000E+00 0. -1.
          2    1    1    2  501    0 -0.19971155550E+02  0.13344710753E+02  0.65341697213E+02  0.69616562353E+02  0.00000000000E+00 0.  1.
         -2    1    1    2    0  503  0.19971155550E+02 -0.13344710753E+02 -0.30807171222E+03  0.30900664755E+03  0.00000000000E+00 0. -1.
</event>
<event>
 4    1  0.1874565E+004  0.2095217E+02  0.7546771E-02  0.1519949E+00
         21   -1    0    0  501  502  0.00000000000E+00  0.00000000000E+00  0.18823138560E+02  0.18823138560E+02  0.00000000000E+00 0.  1.
         21   -1    0    0  502  503 -0.00000000000E+00 -0.00000000000E+00 -0.24130007677E+02  0.24130007677E+02  0.00000000000E+00 0. -1.
          2    1    1    2  501    0  0.73767954551E+01  0.19610613821E+02  0.12765723289E+01  0.20991020045E+02  0.00000000000E+00 0. -1.
         -2    1    1    2    0  503 -0.73767954551E+01 -0.19610613821E+02 -0.65834414460E+01  0.21962126192E+02  0.00000000000E+00 0.  1.
</event>
<event>
 4    1  0.1874565E+004  0.2067962E+02  0.7546771E-02  0.1523889E+00
         21   -1    0    0  503  502  0.00000000000E+00  0.00000000000E+00  0.15110903859E+03  0.15110903859E+03  0.00000000000E+00 0. -1.
         21   -1    0    0  501  503 -0.00000000000E+00 -0.00000000000E+00 -0.44508519105E+01  0.44508519105E+01  0.00000000000E+00 0.  1.
          2    1    1    2  501    0  0.18578718353E+02 -0.90817318334E+01  0.26392605112E+02  0.33529333923E+02  0.00000000000E+00 0.  1.
         -2    1    1    2    0  502 -0.18578718353E+02  0.90817318334E+01  0.12026558156E+03  0.12203055657E+03  0.00000000000E+00 0. -1.
</event>
<event>
 4    1  0.1874565E+004  0.2421374E+02  0.7546771E-02  0.1477795E+00
         21   -1    0    0  503  502  0.00000000000E+00  0.00000000000E+00  0.39682198765E+01  0.39682198765E+01  0.00000000000E+00 0.  1.
         21   -1    0    0  501  503 -0.00000000000E+00 -0.00000000000E+00 -0.24449833934E+03  0.24449833934E+03  0.00000000000E+00 0. -1.
          2    1    1    2  501    0  0.24136544427E+02  0.19319219721E+01 -0.19841369649E+03  0.19988571748E+03  0.00000000000E+00 0. -1.
         -2    1    1    2    0  502 -0.24136544427E+02 -0.19319219721E+01 -0.42116422979E+02  0.48580841737E+02  0.00000000000E+00 0.  1.
</event>
<event>
 4    1  0.1874565E+004  0.3152495E+02  0.7546771E-02  0.1406792E+00
         21   -1    0    0  501  502  0.00000000000E+00  0.00000000000E+00  0.14376189073E+02  0.14376189073E+02  0.00000000000E+00 0. -1.
         21   -1    0    0  502  503 -0.00000000000E+00 -0.00000000000E+00 -0.16196050550E+03  0.16196050550E+03  0.00000000000E+00 0.  1.
          2    1    1    2  501    0 -0.31492366716E+02 -0.14330280636E+01 -0.70417355768E+01  0.32301838504E+02  0.00000000000E+00 0. -1.
         -2    1    1    2    0  503  0.31492366716E+02  0.14330280636E+01 -0.14054258085E+03  0.14403485607E+03  0.00000000000E+00 0.  1.
</event>
<event>
 4    1  0.1874565E+004  0.2639006E+02  0.7546771E-02  0.1453833E+00
         21   -1    0    0  503  502  0.00000000000E+00  0.00000000000E+00  0.29231391350E+03  0.29231391350E+03  0.00000000000E+00 0.  1.
         21   -1    0    0  501  503 -0.00000000000E+00 -0.00000000000E+00 -0.25536997822E+01  0.25536997822E+01  0.00000000000E+00 0. -1.
          2    1    1    2  501    0 -0.26384167873E+02 -0.55774739459E+00  0.18305471792E+03  0.18494719557E+03  0.00000000000E+00 0.  1.
         -2    1    1    2    0  502  0.26384167873E+02  0.55774739459E+00  0.10670549580E+03  0.10992041771E+03  0.00000000000E+00 0. -1.
</event>
<event>
 4    1  0.1874565E+004  0.3961032E+02  0.7546771E-02  0.1350785E+00
         21   -1    0    0  501  502  0.00000000000E+00  0.00000000000E+00  0.33377255372E+03  0.33377255372E+03  0.00000000000E+00 0. -1.
         21   -1    0    0  502  503 -0.00000000000E+00 -0.00000000000E+00 -0.56664944305E+01  0.56664944305E+01  0.00000000000E+00 0.  1.
          2    1    1    2  501    0 -0.16368486385E+02  0.36070066800E+02  0.23411922770E+03  0.23744639362E+03  0.00000000000E+00 0. -1.
         -2    1    1    2    0  503  0.16368486385E+02 -0.36070066800E+02  0.93986831594E+02  0.10199265453E+03  0.00000000000E+00 0.  1.
</event>
<event>
 4    1  0.1874565E+004  0.2820872E+02  0.7546771E-02  0.1435830E+00
         21   -1    0    0  503  502  0.00000000000E+00  0.00000000000E+00  0.25179691168E+02  0.25179691168E+02  0.00000000000E+00 0. -1.
         21   -1    0    0  501  503 -0.00000000000E+00 -0.00000000000E+00 -0.41177084989E+02  0.41177084989E+02  0.00000000000E+00 0.  1.
          2    1    1    2  501    0 -0.26092468937E+02 -0.10719839017E+02  0.80004138384E+01  0.29321297812E+02  0.00000000000E+00 0. -1.
         -2    1    1    2    0  502  0.26092468937E+02  0.10719839017E+02 -0.23997807659E+02  0.37035478345E+02  0.00000000000E+00 0.  1.
</event>
<event>
 4    1  0.1874565E+004  0.2115396E+02  0.7546771E-02  0.1517078E+00
         21   -1    0    0  503  502  0.00000000000E+00  0.00000000000E+00  0.37006537516E+02  0.37006537516E+02  0.00000000000E+00 0.  1.
         21   -1    0    0  501  503 -0.00000000000E+00 -0.00000000000E+00 -0.13002210380E+02  0.13002210380E+02  0.00000000000E+00 0. -1.
          2    1    1    2  501    0 -0.20211911340E+02  0.62424826331E+01  0.53871032214E+01  0.21829128030E+02  0.00000000000E+00 0. -1.
         -2    1    1    2    0  502  0.20211911340E+02 -0.62424826331E+01  0.18617223915E+02  0.28179619865E+02  0.00000000000E+00 0.  1.
</event>
<event>
 4    1  0.1874565E+004  0.2961724E+02  0.7546771E-02  0.1422952E+00
         21   -1    0    0  501  502  0.00000000000E+00  0.00000000000E+00  0.11235801159E+02  0.11235801159E+02  0.00000000000E+00 0. -1.
         21   -1    0    0  502  503 -0.00000000000E+00 -0.00000000000E+00 -0.17390811641E+03  0.17390811641E+03  0.00000000000E+00 0.  1.
          2    1    1    2  501    0 -0.23404316885E+02  0.18149893488E+02 -0.12615339294E+02  0.32192040444E+02  0.00000000000E+00 0. -1.
         -2    1    1    2    0  503  0.23404316885E+02 -0.18149893488E+02 -0.15005697596E+03  0.15295187712E+03  0.00000000000E+00 0.  1.
</event>
<event>
 4    1  0.1874565E+004  0.2181299E+02  0.7546771E-02  0.1507967E+00
         21   -1    0    0  503  502  0.00000000000E+00  0.00000000000E+00  0.46864911505E+02  0.46864911505E+02  0.00000000000E+00 0.  1.
         21   -1    0    0  501  503 -0.00000000000E+00 -0.00000000000E+00 -0.11098631679E+02  0.11098631679E+02  0.00000000000E+00 0. -1.
          2    1    1    2  501    0 -0.14535297132E+02 -0.16264431692E+02  0.94222869325E+01  0.23761020433E+02  0.00000000000E+00 0. -1.
         -2    1    1    2    0  502  0.14535297132E+02  0.16264431692E+02  0.26343992893E+02  0.34202522751E+02  0.00000000000E+00 0.  1.
</event>
<event>
 4    1  0.1874565E+004  0.2395599E+02  0.7546771E-02  0.1480830E+00
         21   -1    0    0  501  502  0.00000000000E+00  0.00000000000E+00  0.39762767577E+02  0.39762767577E+02  0.00000000000E+00 0.  1.
         21   -1    0    0  502  503 -0.00000000000E+00 -0.00000000000E+00 -0.18073080393E+02  0.18073080393E+02  0.00000000000E+00 0. -1.
          2    1    1    2  501    0  0.23657433361E+02 -0.37703397050E+01  0.23823093281E+02  0.33785046813E+02  0.00000000000E+00 0.  1.
         -2    1    1    2    0  503 -0.23657433361E+02  0.37703397050E+01 -0.21334060959E+01  0.24050801157E+02  0.00000000000E+00 0. -1.
</event>
<event>
 4    1  0.1874565E+004  0.3934975E+02  0.7546771E-02  0.1352339E+00
         21   -1    0    0  503  502  0.00000000000E+00  0.00000000000E+00  0.24404693920E+02  0.24404693920E+02  0.00000000000E+00 0. -1.
         21   -1    0    0  501  503 -0.00000000000E+00 -0.00000000000E+00 -0.70746995529E+02  0.70746995529E+02  0.00000000000E+00 0.  1.
          2    1    1    2  501    0 -0.30048019557E+02  0.25407075312E+02 -0.38453700891E+02  0.55018997333E+02  0.00000000000E+00 0. -1.
         -2    1    1    2    0  502  0.30048019557E+02 -0.25407075312E+02 -0.78886007171E+01  0.40132692117E+02  0.00000000000E+00 0.  1.
</event>
<event>
 4    1  0.1874565E+004  0.2210492E+02  0.7546771E-02  0.1504054E+00
         21   -1    0    0  501  502  0.00000000000E+00  0.00000000000E+00  0.25119477854E+03  0.25119477854E+03  0.00000000000E+00 0.  1.
         21   -1    0    0  502  503 -0.00000000000E+00 -0.00000000000E+00 -0.30079096711E+01  0.30079096711E+01  0.00000000000E+00 0. -1.
          2    1    1    2  501    0 -0.21948949712E+02 -0.26213003788E+01  0.19964129959E+03  0.20086133553E+03  0.00000000000E+00 0.  1.
         -2    1    1    2    0  503  0.21948949712E+02  0.26213003788E+01  0.48545569276E+02  0.53341352677E+02  0.00000000000E+00 0. -1.
</event>
<event>
 4    1  0.1874565E+004  0.2940366E+02  0.7546771E-02  0.1424850E+00
         21   -1    0    0  503  502  0.00000000000E+00  0.00000000000E+00  0.12411182435E+02  0.12411182435E+02  0.00000000000E+00 0. -1.
         21   -1    0    0  501  503 -0.00000000000E+00 -0.00000000000E+00 -0.77457762522E+02  0.77457762522E+02  0.00000000000E+00 0.  1.
          2    1    1    2  501    0 -0.57741809243E+01 -0.28831131210E+02 -0.46779514453E+02  0.55253038511E+02  0.00000000000E+00 0.  1.
         -2    1    1    2    0  502  0.57741809243E+01  0.28831131210E+02 -0.18267065634E+02  0.34615906446E+02  0.00000000000E+00 0. -1.
</event>
<event>
 4    1  0.1874565E+004  0.2199518E+02  0.7546771E-02  0.1505516E+00
         21   -1    0    0  501  502  0.00000000000E+00  0.00000000000E+00  0.14542645492E+01  0.14542645492E+01  0.00000000000E+00 0.  1.
         21   -1    0    0  502  503 -0.00000000000E+00 -0.00000000000E+00 -0.54953086192E+03  0.54953086192E+03  0.00000000000E+00 0. -1.
          2    1    1    2  501    0  0.62471162677E-01  0.21995089962E+02 -0.10097458805E+03  0.10334241780E+03  0.00000000000E+00 0.  1.
         -2    1    1    2    0  503 -0.62471162677E-01 -0.21995089962E+02 -0.44710200932E+03  0.44764270867E+03  0.00000000000E+00 0. -1.
</event>
<event>
 4    1  0.1874565E+004  0.2251427E+02  0.7546771E-02  0.1498689E+00
         21   -1    0    0  503  502  0.00000000000E+00  0.00000000000E+00  0.26215343473E+03  0.26215343473E+03  0.00000000000E+00 0.  1.
         21   -1    0    0  501  503 -0.00000000000E+00 -0.00000000000E+00 -0.41262900828E+01  0.41262900828E+01  0.00000000000E+00 0. -1.
          2    1    1    2  501    0  0.37715849464E+01 -0.22196119122E+02  0.31958191326E+02  0.39092435968E+02  0.00000000000E+00 0. -1.
         -2    1    1    2    0  502 -0.37715849464E+01  0.22196119122E+02  0.22606895332E+03  0.22718728884E+03  0.00000000000E+00 0.  1.
</event>
<event>
 4    1  0.1874565E+004  0.2182859E+02  0.7546771E-02  0.1507756E+00
         21   -1    0    0  501  502  0.00000000000E+00  0.00000000000E+00  0.12423060905E+02  0.12423060905E+02  0.00000000000E+00 0. -1.
         21   -1    0    0  502  503 -0.00000000000E+00 -0.00000000000E+00 -0.49330090797E+02  0.49330090797E+02  0.00000000000E+00 0.  1.
          2    1    1    2  501    0  0.85667134705E+01  0.20077322943E+02 -0.38896822160E+01  0.22172440190E+02  0.00000000000E+00 0. -1.
         -2    1    1    2    0  503 -0.85667134705E+01 -0.20077322943E+02 -0.33017347676E+02  0.39580711512E+02  0.00000000000E+00 0.  1.
</event>
<event>
 4    1  0.1874565E+004  0.2377711E+02  0.7546771E-02  0.1482964E+00
         21   -1    0    0  503  502  0.00000000000E+00  0.00000000000E+00  0.54551529003E+02  0.54551529003E+02  0.00000000000E+00 0.  1.
         21   -1    0    0  501  503 -0.00000000000E+00 -0.00000000000E+00 -0.24503995445E+02  0.24503995445E+02  0.00000000000E+00 0. -1.
          2    1    1    2  501    0  0.23615845801E+02 -0.27645760153E+01 -0.15003397598E+02  0.28114995873E+02  0.00000000000E+00 0. -1.
         -2    1    1    2    0  502 -0.23615845801E+02  0.27645760153E+01  0.45050931156E+02  0.50940528575E+02  0.00000000000E+00 0.  1.
</event>
<event>
 4    1  0.1874565E+004  0.2731503E+02  0.7546771E-02  0.1444469E+00
         21   -1    0    0  501  502  0.00000000000E+00  0.00000000000E+00  0.15423770447E+02  0.15423770447E+02  0.00000000000E+00 0.  1.
         21   -1    0    0  502  503 -0.00000000000E+00 -0.00000000000E+00 -0.50200925931E+02  0.50200925931E+02  0.00000000000E+00 0. -1.
          2    1    1    2  501    0 -0.12332847279E+02  0.24372352376E+02 -0.23647976036E+02  0.36129454091E+02  0.00000000000E+00 0. -1.
         -2    1    1    2    0  503  0.12332847279E+02 -0.24372352376E+02 -0.11129179448E+02  0.29495242286E+02  0.00000000000E+00 0.  1.
</event>
<event>
 4    1  0.1874565E+004  0.2474968E+02  0.7546771E-02  0.1471623E+00
         21   -1    0    0  501  502  0.00000000000E+00  0.00000000000E+00  0.23038874294E+03  0.23038874294E+03  0.00000000000E+00 0. -1.
         21   -1    0    0  502  503 -0.00000000000E+00 -0.00000000000E+00 -0.32643876203E+01  0.32643876203E+01  0.00000000000E+00 0.  1.
          2    1    1    2  501    0 -0.23467423982E+02  0.78629823970E+01  0.63241494184E+02  0.67911950842E+02  0.00000000000E+00 0.  1.
         -2    1    1    2    0  503  0.23467423982E+02 -0.78629823970E+01  0.16388286113E+03  0.16574117972E+03  0.00000000000E+00 0. -1.
</event>
<event>
 4    1  0.1874565E+004  0.2193372E+02  0.7546771E-02  0.1506340E+00
         21   -1    0    0  501  502  0.00000000000E+00  0.00000000000E+00  0.51050196550E+01  0.51050196550E+01  0.00000000000E+00 0. -1.
         21   -1    0    0  502  503 -0.00000000000E+00 -0.00000000000E+00 -0.23440806247E+03  0.23440806247E+03  0.00000000000E+00 0.  1.
          2    1    1    2  501    0  0.19065901004E+02  0.10843403021E+02 -0.22045279060E+02  0.31097946862E+02  0.00000000000E+00 0. -1.
         -2    1    1    2    0  503 -0.19065901004E+02 -0.10843403021E+02 -0.20725776375E+03  0.20841513526E+03  0.00000000000E+00 0.  1.
</event>
<event>
 4    1  0.1874565E+004  0.2047349E+02  0.7546771E-02  0.1526916E+00
         21   -1    0    0  503  502  0.00000000000E+00  0.00000000000E+00  0.23750262337E+01  0.23750262337E+01  0.00000000000E+00 0.  1.
         21   -1    0    0  501  503 -0.00000000000E+00 -0.00000000000E+00 -0.43681624391E+03  0.43681624391E+03  0.00000000000E+00 0. -1.
          2    1    1    2  501    0  0.19181495955E+02  0.71577931018E+01 -0.38674605723E+03  0.38728758897E+03  0.00000000000E+00 0. -1.
         -2    1    1    2    0  502 -0.19181495955E+02 -0.71577931018E+01 -0.47695160452E+02  0.51903681177E+02  0.00000000000E+00 0.  1.
</event>
<event>
 4    1  0.1874565E+004  0.3435491E+02  0.7546771E-02  0.1385156E+00
         21   -1    0    0  503  502  0.00000000000E+00  0.00000000000E+00  0.18492744511E+03  0.18492744511E+03  0.00000000000E+00 0.  1.
         21   -1    0    0  501  503 -0.00000000000E+00 -0.00000000000E+00 -0.79442719008E+01  0.79442719008E+01  0.00000000000E+00 0. -1.
          2    1    1    2  501    0 -0.29243747507E+02  0.18029503116E+02  0.45730362817E+02  0.57197253729E+02  0.00000000000E+00 0. -1.
         -2    1    1    2    0  502  0.29243747507E+02 -0.18029503116E+02  0.13125281040E+03  0.13567446328E+03  0.00000000000E+00 0.  1.
</event>
<event>
 4    1  0.1874565E+004  0.2263730E+02  0.7546771E-02  0.1497104E+00
         21   -1    0    0  503  502  0.00000000000E+00  0.00000000000E+00  0.50634315490E+02  0.50634315490E+02  0.00000000000E+00 0.  1.
         21   -1    0    0  501  503 -0.00000000000E+00 -0.00000000000E+00 -0.17310499813E+02  0.17310499813E+02  0.00000000000E+00 0. -1.
          2    1    1    2  501    0  0.19771963911E+02  0.11023460312E+02 -0.52325595727E+01  0.23234175557E+02  0.00000000000E+00 0. -1.
         -2    1    1    2    0  502 -0.19771963911E+02 -0.11023460312E+02  0.38556375250E+02  0.44710639747E+02  0.00000000000E+00 0.  1.
</event>
<event>
 4    1  0.1874565E+004  0.5256119E+02  0.7546771E-02  0.1287434E+00
         21   -1    0    0  501  502  0.00000000000E+00  0.00000000000E+00  0.15116166218E+03  0.15116166218E+03  0.00000000000E+00 0.  1.
         21   -1    0    0  502  503 -0.00000000000E+00 -0.00000000000E+00 -0.17601183636E+03  0.17601183636E+03  0.00000000000E+00 0. -1.
          2    1    1    2  501    0 -0.15563351895E+00  0.52560962304E+02  0.14243586701E+03  0.15182442224E+03  0.00000000000E+00 0.  1.
         -2    1    1    2    0  503  0.15563351895E+00 -0.52560962304E+02 -0.16728604119E+03  0.17534907629E+03  0.00000000000E+00 0. -1.
</event>
<event>
 4    1  0.1874565E+004  0.3770836E+02  0.7546771E-02  0.1362464E+00
         21   -1    0    0  501  502  0.00000000000E+00  0.00000000000E+00  0.95913063832E+01  0.95913063832E+01  0.00000000000E+00 0.  1.
         21   -1    0    0  502  503 -0.00000000000E+00 -0.00000000000E+00 -0.14879363415E+03  0.14879363415E+03  0.00000000000E+00 0. -1.
          2    1    1    2  501    0  0.19530826466E+02 -0.32256272318E+02 -0.74383775882E+02  0.83395841627E+02  0.00000000000E+00 0.  1.
         -2    1    1    2    0  503 -0.19530826466E+02  0.32256272318E+02 -0.64818551887E+02  0.74989098908E+02  0.00000000000E+00 0. -1.
</event>
<event>
 4    1  0.1874565E+004  0.2291972E+02  0.7546771E-02  0.1493509E+00
         21   -1    0    0  501  502  0.00000000000E+00  0.00000000000E+00  0.56196871982E+02  0.56196871982E+02  0.00000000000E+00 0.  1.
         21   -1    0    0  502  503 -0.00000000000E+00 -0.00000000000E+00 -0.98973805396E+01  0.98973805396E+01  0.00000000000E+00 0. -1.
          2    1    1    2  501    0  0.22254547735E+02  0.54816623281E+01  0.30937541790E+02  0.38502532498E+02  0.00000000000E+00 0. -1.
         -2    1    1    2    0  503 -0.22254547735E+02 -0.54816623281E+01  0.15361949653E+02  0.27591720024E+02  0.00000000000E+00 0.  1.
</event>
<event>
 4    1  0.1874565E+004  0.2843900E+02  0.7546771E-02  0.1433665E+00
         21   -1    0    0  503  502  0.00000000000E+00  0.00000000000E+00  0.31925770750E+02  0.31925770750E+02  0.00000000000E+00 0. -1.
         21   -1    0    0  501  503 -0.00000000000E+00 -0.00000000000E+00 -0.25962563047E+02  0.25962563047E+02  0.00000000000E+00 0.  1.
          2    1    1    2  501    0 -0.26748482534E+02 -0.96589651865E+01 -0.15254424544E+01  0.28479885903E+02  0.00000000000E+00 0.  1.
         -2    1    1    2    0  502  0.26748482534E+02  0.96589651865E+01  0.74886501565E+01  0.29408447894E+02  0.00000000000E+00 0. -1.
</event>
<event>
 4    1  0.1874565E+004  0.2197110E+02  0.7546771E-02  0.1505839E+00
         21   -1    0    0  501  502  0.00000000000E+00  0.00000000000E+00  0.21858820656E+01  0.21858820656E+01  0.00000000000E+00 0.  1.
         21   -1    0    0  502  503 -0.00000000000E+00 -0.00000000000E+00 -0.22156516831E+03  0.22156516831E+03  0.00000000000E+00 0. -1.
          2    1    1    2  501    0  0.13907230819E+02  0.17009349044E+02 -0.10328692822E+03  0.10559790985E+03  0.00000000000E+00 0. -1.
         -2    1    1    2    0  503 -0.13907230819E+02 -0.17009349044E+02 -0.11609235802E+03  0.11815314052E+03  0.00000000000E+00 0.  1.
</event>
<event>
 4    1  0.1874565E+004  0.2015940E+02  0.7546771E-02  0.1531613E+00
         21   -1    0    0  503  502  0.00000000000E+00  0.00000000000E+00  0.13011242121E+03  0.13011242121E+03  0.00000000000E+00 0.  1.
         21   -1    0    0  501  503 -0.00000000000E+00 -0.00000000000E+00 -0.40437138450E+01  0.40437138450E+01  0.00000000000E+00 0. -1.
          2    1    1    2  501    0 -0.15650380020E+02 -0.12706962388E+02  0.31034828809E+02  0.37007592291E+02  0.00000000000E+00 0. -1.
         -2    1    1    2    0  502  0.15650380020E+02  0.12706962388E+02  0.95033878556E+02  0.97148542765E+02  0.00000000000E+00 0.  1.
</event>
<event>
 4    1  0.1874565E+004  0.2621618E+02  0.7546771E-02  0.1455645E+00
         21   -1    0    0  501  502  0.00000000000E+00  0.00000000000E+00  0.60091377304E+02  0.60091377304E+02  0.00000000000E+00 0.  1.
         21   -1    0    0  502  503 -0.00000000000E+00 -0.00000000000E+00 -0.54630813494E+02  0.54630813494E+02  0.00000000000E+00 0. -1.
          2    1    1    2  501    0  0.71012810270E+01 -0.25236079773E+02  0.53734661196E+02  0.59788809390E+02  0.00000000000E+00 0.  1.
         -2    1    1    2    0  503 -0.71012810270E+01  0.25236079773E+02 -0.48274097386E+02  0.54933381408E+02  0.00000000000E+00 0. -1.
</event>
<event>
 4    1  0.1874565E+004  0.2290513E+02  0.7546771E-02  0.1493693E+00
         21   -1    0    0  501  502  0.00000000000E+00  0.00000000000E+00  0.38844951941E+02  0.38844951941E+02  0.00000000000E+00 0.  1.
         21   -1    0    0  502  503 -0.00000000000E+00 -0.00000000000E+00 -0.14234931801E+02  0.14234931801E+02  0.00000000000E+00 0. -1.
          2    1    1    2  501    0 -0.20542965958E+02  0.10130731782E+02  0.18310181505E+02  0.29324186665E+02  0.00000000000E+00 0. -1.
         -2    1    1    2    0  503  0.20542965958E+02 -0.10130731782E+02  0.62998386345E+01  0.23755697077E+02  0.00000000000E+00 0.  1.
</event>
<event>
 4    1  0.1874565E+004  0.2369588E+02  0.7546771E-02  0.1483940E+00
         21   -1    0    0  503  502  0.00000000000E+00  0.00000000000E+00  0.15867036476E+03  0.15867036476E+03  0.00000000000E+00 0.  1.
         21   -1    0    0  501  503 -0.00000000000E+00 -0.00000000000E+00 -0.44515814611E+01  0.44515814611E+01  0.00000000000E+00 0. -1.
          2    1    1    2  501    0  0.96937514655E+01  0.21622350832E+02  0.40175900903E+02  0.46643304840E+02  0.00000000000E+00 0. -1.
         -2    1    1    2    0  502 -0.96937514655E+01 -0.21622350832E+02  0.11404288240E+03  0.11647864138E+03  0.00000000000E+00 0.  1.
</event>
<event>
 4    1  0.1874565E+004  0.2520580E+02  0.7546771E-02  0.1466514E+00
         21   -1    0    0  501  502  0.00000000000E+00  0.00000000000E+00  0.11056428522E+03  0.11056428522E+03  0.00000000000E+00 0. -1.
         21   -1    0    0  502  503 -0.00000000000E+00 -0.00000000000E+00 -0.13929123681E+02  0.13929123681E+02  0.00000000000E+00 0.  1.
          2    1    1    2  501    0 -0.23329056567E+02 -0.95439834016E+01  0.96027292824E+02  0.99280277329E+02  0.00000000000E+00 0. -1.
         -2    1    1    2    0  503  0.23329056567E+02  0.95439834016E+01  0.60786871763E+00  0.25213131575E+02  0.00000000000E+00 0.  1.
</event>
<event>
 4    1  0.1874565E+004  0.3029608E+02  0.7546771E-02  0.1417041E+00
         21   -1    0    0  503  502  0.00000000000E+00  0.00000000000E+00  0.62201984061E+02  0.62201984061E+02  0.00000000000E+00 0.  1.
         21   -1    0    0  501  503 -0.00000000000E+00 -0.00000000000E+00 -0.19351887215E+02  0.19351887215E+02  0.00000000000E+00 0. -1.
          2    1    1    2  501    0 -0.64144497114E+01 -0.29609242452E+02  0.15532277079E+01  0.30335868539E+02  0.00000000000E+00 0. -1.
         -2    1    1    2    0  502  0.64144497114E+01  0.29609242452E+02  0.41296869139E+02  0.51218002737E+02  0.00000000000E+00 0.  1.
</event>
<event>
 4    1  0.1874565E+004  0.2187281E+02  0.7546771E-02  0.1507159E+00
         21   -1    0    0  503  502  0.00000000000E+00  0.00000000000E+00  0.61497108366E+02  0.61497108366E+02  0.00000000000E+00 0. -1.
         21   -1    0    0  501  503 -0.00000000000E+00 -0.00000000000E+00 -0.87591610476E+02  0.87591610476E+02  0.00000000000E+00 0.  1.
          2    1    1    2  501    0  0.83868091889E+01  0.20201025814E+02 -0.84204276442E+02  0.86998736677E+02  0.00000000000E+00 0.  1.
         -2    1    1    2    0  502 -0.83868091889E+01 -0.20201025814E+02  0.58109774332E+02  0.62089982165E+02  0.00000000000E+00 0. -1.
</event>
<event>
 4    1  0.1874565E+004  0.3626689E+02  0.7546771E-02  0.1371869E+00
         21   -1    0    0  501  502  0.00000000000E+00  0.00000000000E+00  0.13848065424E+02  0.13848065424E+02  0.00000000000E+00 0. -1.
         21   -1    0    0  502  503 -0.00000000000E+00 -0.00000000000E+00 -0.13767813019E+03  0.13767813019E+03  0.00000000000E+00 0.  1.
          2    1    1    2  501    0 -0.35297809164E+02  0.83277758162E+01 -0.19723001168E+02  0.41282974178E+02  0.00000000000E+00 0. -1.
         -2    1    1    2    0  503  0.35297809164E+02 -0.83277758162E+01 -0.10410706360E+03  0.11024322144E+03  0.00000000000E+00 0.  1.
</event>
<event>
 4    1  0.1874565E+004  0.2412843E+02  0.7546771E-02  0.1478794E+00
         21   -1    0    0  501  502  0.00000000000E+00  0.00000000000E+00  0.52699568162E+03  0.52699568162E+03  0.00000000000E+00 0.  1.
         21   -1    0    0  502  503 -0.00000000000E+00 -0.00000000000E+00 -0.22766472056E+01  0.22766472056E+01  0.00000000000E+00 0. -1.
          2    1    1    2  501    0  0.21370254699E+02 -0.11202388322E+02  0.45222767129E+03  0.45287089548E+03  0.00000000000E+00 0.  1.
         -2    1    1    2    0  503 -0.21370254699E+02  0.11202388322E+02  0.72491363121E+02  0.76401433345E+02  0.00000000000E+00 0. -1.
</event>
<event>
 4    1  0.1874565E+004  0.2419781E+02  0.7546771E-02  0.1477981E+00
         21   -1    0    0  503  502  0.00000000000E+00  0.00000000000E+00  0.44035142975E+02  0.44035142975E+02  0.00000000000E+00 0.  1.
         21   -1    0    0  501  503 -0.00000000000E+00 -0.00000000000E+00 -0.14833986278E+03  0.14833986278E+03  0.00000000000E+00 0. -1.
          2    1    1    2  501    0 -0.22213162459E+02 -0.95973680331E+01 -0.14392761004E+03  0.14594756247E+03  0.00000000000E+00 0. -1.
         -2    1    1    2    0  502  0.22213162459E+02  0.95973680331E+01  0.39622890233E+02  0.46427443285E+02  0.00000000000E+00 0.  1.
</event>
<event>
 4    1  0.1874565E+004  0.5293698E+02  0.7546771E-02  0.1285917E+00
         21   -1    0    0  501  502  0.00000000000E+00  0.00000000000E+00  0.21902182784E+03  0.21902182784E+03  0.00000000000E+00 0.  1.
         21   -1    0    0  502  503 -0.00000000000E+00 -0.00000000000E+00 -0.13687842408E+02  0.13687842408E+02  0.00000000000E+00 0. -1.
          2    1    1    2  501    0 -0.27836525338E+02  0.45027228966E+02  0.13238856918E+03  0.14258000119E+03  0.00000000000E+00 0.  1.
         -2    1    1    2    0  503  0.27836525338E+02 -0.45027228966E+02  0.72945416251E+02  0.90129669051E+02  0.00000000000E+00 0. -1.
</event>
<event>
 4    1  0.1874565E+004  0.2138714E+02  0.7546771E-02  0.1513809E+00
         21   -1    0    0  501  502  0.00000000000E+00  0.00000000000E+00  0.40353607041E+03  0.40353607041E+03  0.00000000000E+00 0. -1.
         21   -1    0    0  502  503 -0.00000000000E+00 -0.00000000000E+00 -0.12399308875E+01  0.12399308875E+01  0.00000000000E+00 0.  1.
          2    1    1    2  501    0  0.37732584627E+01  0.21051657726E+02  0.26044218425E+03  0.26131884951E+03  0.00000000000E+00 0.  1.
         -2    1    1    2    0  503 -0.37732584627E+01 -0.21051657726E+02  0.14185395527E+03  0.14345715178E+03  0.00000000000E+00 0. -1.
</event>
<event>
 4    1  0.1874565E+004  0.2907117E+02  0.7546771E-02  0.1427843E+00
         21   -1    0    0  501  502  0.00000000000E+00  0.00000000000E+00  0.27909953097E+03  0.27909953097E+03  0.00000000000E+00 0. -1.
         21   -1    0    0  502  503 -0.00000000000E+00 -0.00000000000E+00 -0.31099901001E+01  0.31099901001E+01  0.00000000000E+00 0.  1.
          2    1    1    2  501    0 -0.20881596408E+01 -0.28996078074E+02  0.11509363353E+03  0.11870837137E+03  0.00000000000E+00 0.  1.
         -2    1    1    2    0  503  0.20881596408E+01  0.28996078074E+02  0.16089590735E+03  0.16350114971E+03  0.00000000000E+00 0. -1.
</event>
<event>
 4    1  0.1874565E+004  0.2164701E+02  0.7546771E-02  0.1510224E+00
         21   -1    0    0  501  502  0.00000000000E+00  0.00000000000E+00  0.14537449537E+03  0.14537449537E+03  0.00000000000E+00 0.  1.
         21   -1    0    0  502  503 -0.00000000000E+00 -0.00000000000E+00 -0.44954424387E+01  0.44954424387E+01  0.00000000000E+00 0. -1.
          2    1    1    2  501    0  0.19883201732E+02 -0.85587008633E+01  0.11030137375E+03  0.11240545415E+03  0.00000000000E+00 0.  1.
         -2    1    1    2    0  503 -0.19883201732E+02  0.85587008633E+01  0.30577679175E+02  0.37464483653E+02  0.00000000000E+00 0. -1.
</event>
<event>
 4    1  0.1874565E+004  0.2173486E+02  0.7546771E-02  0.1509026E+00
         21   -1    0    0  501  502  0.00000000000E+00  0.00000000000E+00  0.67629161847E+01  0.67629161847E+01  0.00000000000E+00 0. -1.
         21   -1    0    0  502  503 -0.00000000000E+00 -0.00000000000E+00 -0.74670120270E+02  0.74670120270E+02  0.00000000000E+00 0.  1.
          2    1    1    2  501    0 -0.15944338101E+02  0.14770990047E+02 -0.44296218209E+02  0.49341250613E+02  0.00000000000E+00 0.  1.
         -2    1    1    2    0  503  0.15944338101E+02 -0.14770990047E+02 -0.23610985876E+02  0.32091785841E+02  0.00000000000E+00 0. -1.
</event>
<event>
 4    1  0.1874565E+004  0.2304832E+02  0.7546771E-02  0.1491892E+00
         21   -1    0    0  503  502  0.00000000000E+00  0.00000000000E+00  0.90947901905E+02  0.90947901905E+02  0.00000000000E+00 0.  1.
         21   -1    0    0  501  503 -0.00000000000E+00 -0.00000000000E+00 -0.12824222938E+02  0.12824222938E+02  0.00000000000E+00 0. -1.
          2    1    1    2  501    0 -0.10381566510E+02 -0.20577853575E+02  0.77374757700E+00  0.23061302354E+02  0.00000000000E+00 0. -1.
         -2    1    1    2    0  502  0.10381566510E+02  0.20577853575E+02  0.77349931389E+02  0.80710822489E+02  0.00000000000E+00 0.  1.
</event>
<event>
 4    1  0.1874565E+004  0.3240768E+02  0.7546771E-02  0.1399765E+00
         21   -1    0    0  503  502  0.00000000000E+00  0.00000000000E+00  0.30204186877E+02  0.30204186877E+02  0.00000000000E+00 0. -1.
         21   -1    0    0  501  503 -0.00000000000E+00 -0.00000000000E+00 -0.47524351565E+02  0.47524351565E+02  0.00000000000E+00 0.  1.
          2    1    1    2  501    0  0.16628172618E+02 -0.27816574945E+02 -0.28792163998E+02  0.43350278822E+02  0.00000000000E+00 0.  1.
         -2    1    1    2    0  502 -0.16628172618E+02  0.27816574945E+02  0.11471999310E+02  0.34378259619E+02  0.00000000000E+00 0. -1.
</event>
<event>
 4    1  0.1874565E+004  0.2134089E+02  0.7546771E-02  0.1514453E+00
         21   -1    0    0  503  502  0.00000000000E+00  0.00000000000E+00  0.10291512612E+01  0.10291512612E+01  0.00000000000E+00 0.  1.
         21   -1    0    0  501  503 -0.00000000000E+00 -0.00000000000E+00 -0.59733304492E+03  0.59733304492E+03  0.00000000000E+00 0. -1.
          2    1    1    2  501    0 -0.17676439423E+02  0.11957308631E+02 -0.14584807223E+03  0.14740113267E+03  0.00000000000E+00 0. -1.
         -2    1    1    2    0  502  0.17676439423E+02 -0.11957308631E+02 -0.45045582143E+03  0.45096106351E+03  0.00000000000E+00 0.  1.
</event>
<event>
 4    1  0.1874565E+004  0.2245931E+02  0.7546771E-02  0.1499402E+00
         21   -1    0    0  501  502  0.00000000000E+00  0.00000000000E+00  0.20046064407E+01  0.20046064407E+01  0.00000000000E+00 0.  1.
         21   -1    0    0  502  503 -0.00000000000E+00 -0.00000000000E+00 -0.42088800452E+03  0.42088800452E+03  0.00000000000E+00 0. -1.
          2    1    1    2  501    0  0.16168305950E+02 -0.15588668534E+02 -0.75353542294E+02  0.78629364999E+02  0.00000000000E+00 0.  1.
         -2    1    1    2    0  503 -0.16168305950E+02  0.15588668534E+02 -0.34352985578E+03  0.34426324596E+03  0.00000000000E+00 0. -1.
</event>
<event>
 4    1  0.1874565E+004  0.3373969E+02  0.7546771E-02  0.1389647E+00
         21   -1    0    0  503  502  0.00000000000E+00  0.00000000000E+00  0.13601474038E+03  0.13601474038E+03  0.00000000000E+00 0. -1.
         21   -1    0    0  501  503 -0.00000000000E+00 -0.00000000000E+00 -0.87456577466E+01  0.87456577466E+01  0.00000000000E+00 0.  1.
          2    1    1    2  501    0  0.93091102776E+01  0.32430033581E+02  0.48622294208E+02  0.59181873122E+02  0.00000000000E+00 0.  1.
         -2    1    1    2    0  502 -0.93091102776E+01 -0.32430033581E+02  0.78646788424E+02  0.85578525003E+02  0.00000000000E+00 0. -1.
</event>
<event>
 4    1  0.1874565E+004  0.2466036E+02  0.7546771E-02  0.1472639E+00
         21   -1    0    0  501  502  0.00000000000E+00  0.00000000000E+00  0.22377071849E+03  0.22377071849E+03  0.00000000000E+00 0. -1.
         21   -1    0    0  502  503 -0.00000000000E+00 -0.00000000000E+00 -0.28415513977E+01  0.28415513977E+01  0.00000000000E+00 0.  1.
          2    1    1    2  501    0 -0.17960893370E+02  0.16897925859E+02  0.13412320968E+03  0.13637143750E+03  0.00000000000E+00 0.  1.
         -2    1    1    2    0  503  0.17960893370E+02 -0.16897925859E+02  0.86805957405E+02  0.90240832388E+02  0.00000000000E+00 0. -1.
</event>
<event>
 4    1  0.1874565E+004  0.3677769E+02  0.7546771E-02  0.1368478E+00
         21   -1    0    0  501  502  0.00000000000E+00  0.00000000000E+00  0.16272769452E+02  0.16272769452E+02  0.00000000000E+00 0.  1.
         21   -1    0    0  502  503 -0.00000000000E+00 -0.00000000000E+00 -0.10153676205E+03  0.10153676205E+03  0.00000000000E+00 0. -1.
          2    1    1    2  501    0 -0.34704728864E+02 -0.12172946345E+02 -0.17545448487E+02  0.40748516425E+02  0.00000000000E+00 0.  1.
         -2    1    1    2    0  503  0.34704728864E+02  0.12172946345E+02 -0.67718544116E+02  0.77061015081E+02  0.00000000000E+00 0. -1.
</event>
<event>
 4    1  0.1874565E+004  0.3315653E+02  0.7546771E-02  0.1394008E+00
         21   -1    0    0  501  502  0.00000000000E+00  0.00000000000E+00  0.17458571920E+01  0.17458571920E+01  0.00000000000E+00 0.  1.
         21   -1    0    0  502  503 -0.00000000000E+00 -0.00000000000E+00 -0.82666720994E+03  0.82666720994E+03  0.00000000000E+00 0. -1.
          2    1    1    2  501    0  0.23393136177E+02 -0.23497166751E+02 -0.21027273308E+03  0.21287080106E+03  0.00000000000E+00 0.  1.
         -2    1    1    2    0  503 -0.23393136177E+02  0.23497166751E+02 -0.61464861967E+03  0.61554226607E+03  0.00000000000E+00 0. -1.
</event>
<event>
 4    1  0.1874565E+004  0.2685732E+02  0.7546771E-02  0.1449047E+00
         21   -1    0    0  501  502  0.00000000000E+00  0.00000000000E+00  0.25076229396E+02  0.25076229396E+02  0.00000000000E+00 0.  1.
         21   -1    0    0  502  503 -0.00000000000E+00 -0.00000000000E+00 -0.46264792015E+02  0.46264792015E+02  0.00000000000E+00 0. -1.
          2    1    1    2  501    0  0.18639763391E+02 -0.19335848434E+02  0.11343940147E+02  0.29154773057E+02  0.00000000000E+00 0.  1.
         -2    1    1    2    0  503 -0.18639763391E+02  0.19335848434E+02 -0.32532502767E+02  0.42186248354E+02  0.00000000000E+00 0. -1.
</event>
<event>
 4    1  0.1874565E+004  0.2303421E+02  0.7546771E-02  0.1492069E+00
         21   -1    0    0  503  502  0.00000000000E+00  0.00000000000E+00  0.99390549548E+02  0.99390549548E+02  0.00000000000E+00 0.  1.
         21   -1    0    0  501  503 -0.00000000000E+00 -0.00000000000E+00 -0.22680187417E+02  0.22680187417E+02  0.00000000000E+00 0. -1.
          2    1    1    2  501    0  0.11110056550E+02 -0.20177750514E+02 -0.15015977928E+02  0.27496446415E+02  0.00000000000E+00 0. -1.
         -2    1    1    2    0  502 -0.11110056550E+02  0.20177750514E+02  0.91726340059E+02  0.94574290549E+02  0.00000000000E+00 0.  1.
</event>
<event>
 4    1  0.1874565E+004  0.3591718E+02  0.7546771E-02  0.1374227E+00
         21   -1    0    0  503  502  0.00000000000E+00  0.00000000000E+00  0.31489512965E+02  0.31489512965E+02  0.00000000000E+00 0.  1.
         21   -1    0    0  501  503 -0.00000000000E+00 -0.00000000000E+00 -0.40990542263E+02  0.40990542263E+02  0.00000000000E+00 0. -1.
          2    1    1    2  501    0  0.71267970324E+00  0.35910108927E+02 -0.56113927996E+01  0.36352875604E+02  0.00000000000E+00 0. -1.
         -2    1    1    2    0  502 -0.71267970324E+00 -0.35910108927E+02 -0.38896364986E+01  0.36127179624E+02  0.00000000000E+00 0.  1.
</event>
<event>
 4    1  0.1874565E+004  0.2491760E+02  0.7546771E-02  0.1469727E+00
         21   -1    0    0  501  502  0.00000000000E+00  0.00000000000E+00  0.94017226181E+02  0.94017226181E+02  0.00000000000E+00 0.  1.
         21   -1    0    0  502  503 -0.00000000000E+00 -0.00000000000E+00 -0.72991987333E+01  0.72991987333E+01  0.00000000000E+00 0. -1.
          2    1    1    2  501    0 -0.12985925260E+02 -0.21266231805E+02  0.58993238796E+02  0.64039746202E+02  0.00000000000E+00 0.  1.
         -2    1    1    2    0  503  0.12985925260E+02  0.21266231805E+02  0.27724788652E+02  0.37276678713E+02  0.00000000000E+00 0. -1.
</event>
<event>
 4    1  0.1874565E+004  0.2857820E+02  0.7546771E-02  0.1432368E+00
         21   -1    0    0  503  502  0.00000000000E+00  0.00000000000E+00  0.20492739201E+03  0.20492739201E+03  0.00000000000E+00 0. -1.
         21   -1    0    0  501  503 -0.00000000000E+00 -0.00000000000E+00 -0.42687479186E+01  0.42687479186E+01  0.00000000000E+00 0.  1.
          2    1    1    2  501    0 -0.26922834728E+02 -0.95851093333E+01  0.73379901901E+02  0.78748481596E+02  0.00000000000E+00 0. -1.
         -2    1    1    2    0  502  0.26922834728E+02  0.95851093333E+01  0.12727874219E+03  0.13044765833E+03  0.00000000000E+00 0.  1.
</event>
<event>
 4    1  0.1874565E+004  0.2230834E+02  0.7546771E-02  0.1501371E+00
         21   -1    0    0  501  502  0.00000000000E+00  0.00000000000E+00  0.43906729689E+02  0.43906729689E+02  0.00000000000E+00 0. -1.
         21   -1    0    0  502  503 -0.00000000000E+00 -0.00000000000E+00 -0.13714658073E+02  0.13714658073E+02  0.00000000000E+00 0.  1.
          2    1    1    2  501    0 -0.21445250155E+02 -0.61451963334E+01  0.27098247731E+02  0.35099533078E+02  0.00000000000E+00 0.  1.
         -2    1    1    2    0  503  0.21445250155E+02  0.61451963334E+01  0.30938238849E+01  0.22521854684E+02  0.00000000000E+00 0. -1.
</event>
<event>
 4    1  0.1874565E+004  0.3043101E+02  0.7546771E-02  0.1415887E+00
         21   -1    0    0  503  502  0.00000000000E+00  0.00000000000E+00  0.58550586844E+01  0.58550586844E+01  0.00000000000E+00 0. -1.
         21   -1    0    0  501  503 -0.00000000000E+00 -0.00000000000E+00 -0.22279042193E+03  0.22279042193E+03  0.00000000000E+00 0.  1.
          2    1    1    2  501    0 -0.24038730071E+01  0.30335913181E+02 -0.17004163487E+03  0.17274317302E+03  0.00000000000E+00 0.  1.
         -2    1    1    2    0  502  0.24038730071E+01 -0.30335913181E+02 -0.46893728372E+02  0.55902307596E+02  0.00000000000E+00 0. -1.
</event>
<event>
 4    1  0.1874565E+004  0.3176086E+02  0.7546771E-02  0.1404888E+00
         21   -1    0    0  503  502  0.00000000000E+00  0.00000000000E+00  0.50886142543E+02  0.50886142543E+02  0.00000000000E+00 0. -1.
         21   -1    0    0  501  503 -0.00000000000E+00 -0.00000000000E+00 -0.20391335644E+02  0.20391335644E+02  0.00000000000E+00 0.  1.
          2    1    1    2  501    0 -0.29844325401E+02 -0.10865920235E+02  0.21193495622E+02  0.38182669339E+02  0.00000000000E+00 0.  1.
         -2    1    1    2    0  502  0.29844325401E+02  0.10865920235E+02  0.93013112767E+01  0.33094808847E+02  0.00000000000E+00 0. -1.
</event>
<event>
 4    1  0.1874565E+004  0.2916579E+02  0.7546771E-02  0.1426987E+00
         21   -1    0    0  501  502  0.00000000000E+00  0.00000000000E+00  0.35186812089E+02  0.35186812089E+02  0.00000000000E+00 0. -1.
         21   -1    0    0  502  503 -0.00000000000E+00 -0.00000000000E+00 -0.76589729851E+02  0.76589729851E+02  0.00000000000E+00 0.  1.
          2    1    1    2  501    0 -0.11108195720E+02  0.26967596602E+02  0.25532580028E+02  0.38762816223E+02  0.00000000000E+00 0. -1.
         -2    1    1    2    0  503  0.11108195720E+02 -0.26967596602E+02 -0.66935497791E+02  0.73013725717E+02  0.00000000000E+00 0.  1.
</event>
<event>
 4    1  0.1874565E+004  0.2414743E+02  0.7546771E-02  0.1478571E+00
         21   -1    0    0  501  502  0.00000000000E+00  0.00000000000E+00  0.13366974929E+03  0.13366974929E+03  0.00000000000E+00 0.  1.
         21   -1    0    0  502  503 -0.00000000000E+00 -0.00000000000E+00 -0.11713505747E+02  0.11713505747E+02  0.00000000000E+00 0. -1.
          2    1    1    2  501    0  0.20834373147E+02 -0.12207668199E+02  0.11856483407E+03  0.12099883531E+03  0.00000000000E+00 0.  1.
         -2    1    1    2    0  503 -0.20834373147E+02  0.12207668199E+02  0.33914094691E+01  0.24384419728E+02  0.00000000000E+00 0. -1.
</event>
<event>
 4    1  0.1874565E+004  0.3068030E+02  0.7546771E-02  0.1413775E+00
         21   -1    0    0  503  502  0.00000000000E+00  0.00000000000E+00  0.60408059555E+01  0.60408059555E+01  0.00000000000E+00 0. -1.
         21   -1    0    0  501  503 -0.00000000000E+00 -0.00000000000E+00 -0.18339337893E+03  0.18339337893E+03  0.00000000000E+00 0.  1.
          2    1    1    2  501    0  0.30598479542E+02  0.22391727796E+01 -0.12540268294E+03  0.12910117634E+03  0.00000000000E+00 0.  1.
         -2    1    1    2    0  502 -0.30598479542E+02 -0.22391727796E+01 -0.51949890036E+02  0.60333008542E+02  0.00000000000E+00 0. -1.
</event>
<event>
 4    1  0.1874565E+004  0.2128422E+02  0.7546771E-02  0.1515245E+00
         21   -1    0    0  501  502  0.00000000000E+00  0.00000000000E+00  0.17545382661E+02  0.17545382661E+02  0.00000000000E+00 0. -1.
         21   -1    0    0  502  503 -0.00000000000E+00 -0.00000000000E+00 -0.67643128394E+02  0.67643128394E+02  0.00000000000E+00 0.  1.
          2    1    1    2  501    0 -0.19739449827E+02 -0.79606700852E+01  0.84437008616E+01  0.22897908899E+02  0.00000000000E+00 0. -1.
         -2    1    1    2    0  503  0.19739449827E+02  0.79606700852E+01 -0.58541446595E+02  0.62290602157E+02  0.00000000000E+00 0.  1.
</event>
<event>
 4    1  0.1874565E+004  0.2022524E+02  0.7546771E-02  0.1530620E+00
         21   -1    0    0  501  502  0.00000000000E+00  0.00000000000E+00  0.32099518952E+02  0.32099518952E+02  0.00000000000E+00 0. -1.
         21   -1    0    0  502  503 -0.00000000000E+00 -0.00000000000E+00 -0.14266056256E+02  0.14266056256E+02  0.00000000000E+00 0.  1.
          2    1    1    2  501    0 -0.26365787542E+00 -0.20223523402E+02  0.13431812941E+01  0.20269794036E+02  0.00000000000E+00 0.  1.
         -2    1    1    2    0  503  0.26365787542E+00  0.20223523402E+02  0.16490281402E+02  0.26095781172E+02  0.00000000000E+00 0. -1.
</event>
<event>
 4    1  0.1874565E+004  0.2092497E+02  0.7546771E-02  0.1520339E+00
         21   -1    0    0  501  502  0.00000000000E+00  0.00000000000E+00  0.18267906939E+03  0.18267906939E+03  0.00000000000E+00 0. -1.
         21   -1    0    0  502  503 -0.00000000000E+00 -0.00000000000E+00 -0.52945166717E+01  0.52945166717E+01  0.00000000000E+00 0.  1.
          2    1    1    2  501    0  0.12332316544E+02  0.16904685947E+02  0.15822317435E+03  0.15960083753E+03  0.00000000000E+00 0. -1.
         -2    1    1    2    0  503 -0.12332316544E+02 -0.16904685947E+02  0.19161378366E+02  0.28372748531E+02  0.00000000000E+00 0.  1.
</event>
<event>
 4    1  0.1874565E+004  0.2376604E+02  0.7546771E-02  0.1483097E+00
         21   -1    0    0  501  502  0.00000000000E+00  0.00000000000E+00  0.39457130191E+02  0.39457130191E+02  0.00000000000E+00 0. -1.
         21   -1    0    0  502  503 -0.00000000000E+00 -0.00000000000E+00 -0.14770333019E+02  0.14770333019E+02  0.00000000000E+00 0.  1.
          2    1    1    2  501    0 -0.15862829463E+02 -0.17697326557E+02  0.17104508240E+02  0.29281204346E+02  0.00000000000E+00 0. -1.
         -2    1    1    2    0  503  0.15862829463E+02  0.17697326557E+02  0.75822889327E+01  0.24946258864E+02  0.00000000000E+00 0.  1.
</event>
<event>
 4    1  0.1874565E+004  0.6928912E+02  0.7546771E-02  0.1231167E+00
         21   -1    0    0  503  502  0.00000000000E+00  0.00000000000E+00  0.28249074214E+01  0.28249074214E+01  0.00000000000E+00 0.  1.
         21   -1    0    0  501  503 -0.00000000000E+00 -0.00000000000E+00 -0.17039466914E+04  0.17039466914E+04  0.00000000000E+00 0. -1.
          2    1    1    2  501    0  0.50041493455E+02 -0.47925258923E+02 -0.89406662187E+03  0.89674751511E+03  0.00000000000E+00 0.  1.
         -2    1    1    2    0  502 -0.50041493455E+02  0.47925258923E+02 -0.80705516215E+03  0.81002408375E+03  0.00000000000E+00 0. -1.
</event>
<event>
 4    1  0.1874565E+004  0.2237070E+02  0.7546771E-02  0.1500555E+00
         21   -1    0    0  503  502  0.00000000000E+00  0.00000000000E+00  0.33052205903E+02  0.33052205903E+02  0.00000000000E+00 0. -1.
         21   -1    0    0  501  503 -0.00000000000E+00 -0.00000000000E+00 -0.15858720279E+02  0.15858720279E+02  0.00000000000E+00 0.  1.
          2    1    1    2  501    0  0.84699028044E+01  0.20705290386E+02  0.13798798469E+02  0.26284123395E+02  0.00000000000E+00 0. -1.
         -2    1    1    2    0  502 -0.84699028044E+01 -0.20705290386E+02  0.33946871556E+01  0.22626802787E+02  0.00000000000E+00 0.  1.
</event>
<event>
 4    1  0.1874565E+004  0.3298699E+02  0.7546771E-02  0.1395296E+00
         21   -1    0    0  503  502  0.00000000000E+00  0.00000000000E+00  0.13244327375E+03  0.13244327375E+03  0.00000000000E+00 0.  1.
         21   -1    0    0  501  503 -0.00000000000E+00 -0.00000000000E+00 -0.83692529467E+01  0.83692529467E+01  0.00000000000E+00 0. -1.
          2    1    1    2  501    0  0.24784010467E+02 -0.21769107307E+02  0.71567352837E+02  0.78803725800E+02  0.00000000000E+00 0.  1.
         -2    1    1    2    0  502 -0.24784010467E+02  0.21769107307E+02  0.52506667968E+02  0.62008800899E+02  0.00000000000E+00 0. -1.
</event>
<event>
 4    1  0.1874565E+004  0.3084639E+02  0.7546771E-02  0.1412381E+00
         21   -1    0    0  503  502  0.00000000000E+00  0.00000000000E+00  0.45006827690E+03  0.45006827690E+03  0.00000000000E+00 0. -1.
         21   -1    0    0  501  503 -0.00000000000E+00 -0.00000000000E+00 -0.81399219032E+01  0.81399219032E+01  0.00000000000E+00 0.  1.
          2    1    1    2  501    0  0.28769295074E+02  0.11127790498E+02  0.23844477780E+02  0.38987936353E+02  0.00000000000E+00 0.  1.
         -2    1    1    2    0  502 -0.28769295074E+02 -0.11127790498E+02  0.41808387721E+03  0.41922026245E+03  0.00000000000E+00 0. -1.
</event>
<event>
 4    1  0.1874565E+004  0.2339923E+02  0.7546771E-02  0.1487545E+00
         21   -1    0    0  501  502  0.00000000000E+00  0.00000000000E+00  0.27478608964E+02  0.27478608964E+02  0.00000000000E+00 0. -1.
         21   -1    0    0  502  503 -0.00000000000E+00 -0.00000000000E+00 -0.19998912129E+02  0.19998912129E+02  0.00000000000E+00 0.  1.
          2    1    1    2  501    0  0.18934065672E+02 -0.13748634703E+02  0.23011476828E+01  0.23512104961E+02  0.00000000000E+00 0. -1.
         -2    1    1    2    0  503 -0.18934065672E+02  0.13748634703E+02  0.51785491522E+01  0.23965416132E+02  0.00000000000E+00 0.  1.
</event>
<event>
 4    1  0.1874565E+004  0.3121790E+02  0.7546771E-02  0.1409300E+00
         21   -1    0    0  501  502  0.00000000000E+00  0.00000000000E+00  0.26338662423E+02  0.26338662423E+02  0.00000000000E+00 0.  1.
         21   -1    0    0  502  503 -0.00000000000E+00 -0.00000000000E+00 -0.70979136002E+02  0.70979136002E+02  0.00000000000E+00 0. -1.
          2    1    1    2  501    0 -0.29077948872E+02  0.11359147631E+02  0.11346155538E+02  0.33215848491E+02  0.00000000000E+00 0.  1.
         -2    1    1    2    0  503  0.29077948872E+02 -0.11359147631E+02 -0.55986629116E+02  0.64101949934E+02  0.00000000000E+00 0. -1.
</event>
<event>
 4    1  0.1874565E+004  0.2343245E+02  0.7546771E-02  0.1487138E+00
         21   -1    0    0  501  502  0.00000000000E+00  0.00000000000E+00  0.12477712618E+03  0.12477712618E+03  0.00000000000E+00 0.  1.
         21   -1    0    0  502  503 -0.00000000000E+00 -0.00000000000E+00 -0.50057856438E+01  0.50057856438E+01  0.00000000000E+00 0. -1.
          2    1    1    2  501    0 -0.21517357264E+02 -0.92780942829E+01  0.37320559755E+02  0.44067038447E+02  0.00000000000E+00 0. -1.
         -2    1    1    2    0  503  0.21517357264E+02  0.92780942829E+01  0.82450780779E+02  0.85715873373E+02  0.00000000000E+00 0.  1.
</event>
<event>
 4    1  0.1874565E+004  0.2482161E+02  0.7546771E-02  0.1470809E+00
         21   -1    0    0  501  502  0.00000000000E+00  0.00000000000E+00  0.26745291248E+02  0.26745291248E+02  0.00000000000E+00 0. -1.
         21   -1    0    0  502  503 -0.00000000000E+00 -0.00000000000E+00 -0.76565806118E+02  0.76565806118E+02  0.00000000000E+00 0.  1.
          2    1    1    2  501    0 -0.23853087044E+02 -0.68660460042E+01  0.18281034855E+02  0.30827075512E+02  0.00000000000E+00 0. -1.
         -2    1    1    2    0  503  0.23853087044E+02  0.68660460042E+01 -0.68101549725E+02  0.72484021854E+02  0.00000000000E+00 0.  1.
</event>
<event>
 4    1  0.1874565E+004  0.2966938E+02  0.7546771E-02  0.1422492E+00
         21   -1    0    0  503  502  0.00000000000E+00  0.00000000000E+00  0.65455391724E+01  0.65455391724E+01  0.00000000000E+00 0. -1.
         21   -1    0    0  501  503 -0.00000000000E+00 -0.00000000000E+00 -0.13898441198E+03  0.13898441198E+03  0.00000000000E+00 0.  1.
          2    1    1    2  501    0 -0.51598792185E+01  0.29217248362E+02 -0.53126013344E+02  0.60849365233E+02  0.00000000000E+00 0.  1.
         -2    1    1    2    0  502  0.51598792185E+01 -0.29217248362E+02 -0.79312859462E+02  0.84680585918E+02  0.00000000000E+00 0. -1.
</event>
<event>
 4    1  0.1874565E+004  0.2124682E+02  0.7546771E-02  0.1515770E+00
         21   -1    0    0  501  502  0.00000000000E+00  0.00000000000E+00  0.39382005823E+02  0.39382005823E+02  0.00000000000E+00 0.  1.
         21   -1    0    0  502  503 -0.00000000000E+00 -0.00000000000E+00 -0.14594292193E+02  0.14594292193E+02  0.00000000000E+00 0. -1.
          2    1    1    2  501    0  0.16901326665E+02 -0.12875262483E+02  0.24895258437E+02  0.32729208969E+02  0.00000000000E+00 0.  1.
         -2    1    1    2    0  503 -0.16901326665E+02  0.12875262483E+02 -0.10754480725E+00  0.21247089046E+02  0.00000000000E+00 0. -1.
</event>
<event>
 4    1  0.1874565E+004  0.2140875E+02  0.7546771E-02  0.1513508E+00
         21   -1    0    0  501  502  0.00000000000E+00  0.00000000000E+00  0.70748229511E+01  0.70748229511E+01  0.00000000000E+00 0. -1.
         21   -1    0    0  502  503 -0.00000000000E+00 -0.00000000000E+00 -0.65711710639E+02  0.65711710639E+02  0.00000000000E+00 0.  1.
          2    1    1    2  501    0  0.21406705928E+02  0.29550484993E+00 -0.24993929982E+02  0.32909435087E+02  0.00000000000E+00 0.  1.
         -2    1    1    2    0  503 -0.21406705928E+02 -0.29550484993E+00 -0.33642957706E+02  0.39877098503E+02  0.00000000000E+00 0. -1.
</event>
<event>
 4    1  0.1874565E+004  0.2614562E+02  0.7546771E-02  0.1456384E+00
         21   -1    0    0  501  502  0.00000000000E+00  0.00000000000E+00  0.19532866791E+01  0.19532866791E+01  0.00000000000E+00 0. -1.
         21   -1    0    0  502  503 -0.00000000000E+00 -0.00000000000E+00 -0.46896003859E+03  0.46896003859E+03  0.00000000000E+00 0.  1.
          2    1    1    2  501    0 -0.11460627669E+02  0.23499948854E+02 -0.11490011067E+03  0.11783729891E+03  0.00000000000E+00 0. -1.
         -2    1    1    2    0  503  0.11460627669E+02 -0.23499948854E+02 -0.35210664125E+03  0.35307602636E+03  0.00000000000E+00 0.  1.
</event>
<event>
 4    1  0.1874565E+004  0.2280977E+02  0.7546771E-02  0.1494901E+00
         21   -1    0    0  503  502  0.00000000000E+00  0.00000000000E+00  0.36238741185E+01  0.36238741185E+01  0.00000000000E+00 0.  1.
         21   -1    0    0  501  503 -0.00000000000E+00 -0.00000000000E+00 -0.17032722704E+03  0.17032722704E+03  0.00000000000E+00 0. -1.
          2    1    1    2  501    0 -0.20488682697E+02  0.10024947758E+02 -0.11782332586E+03  0.12001092372E+03  0.00000000000E+00 0. -1.
         -2    1    1    2    0  502  0.20488682697E+02 -0.10024947758E+02 -0.48880027062E+02  0.53940177435E+02  0.00000000000E+00 0.  1.
</event>
<event>
 4    1  0.1874565E+004  0.5405182E+02  0.7546771E-02  0.1281500E+00
         21   -1    0    0  503  502  0.00000000000E+00  0.00000000000E+00  0.49577562561E+03  0.49577562561E+03  0.00000000000E+00 0.  1.
         21   -1    0    0  501  503 -0.00000000000E+00 -0.00000000000E+00 -0.12362630333E+02  0.12362630333E+02  0.00000000000E+00 0. -1.
          2    1    1    2  501    0 -0.47090649202E+02  0.26534317622E+02  0.57910254876E+02  0.79216140235E+02  0.00000000000E+00 0. -1.
         -2    1    1    2    0  502  0.47090649202E+02 -0.26534317622E+02  0.42550274041E+03  0.42892211571E+03  0.00000000000E+00 0.  1.
</event>
<event>
 4    1  0.1874565E+004  0.3159595E+02  0.7546771E-02  0.1406217E+00
         21   -1    0    0  503  502  0.00000000000E+00  0.00000000000E+00  0.11866242704E+03  0.11866242704E+03  0.00000000000E+00 0.  1.
         21   -1    0    0  501  503 -0.00000000000E+00 -0.00000000000E+00 -0.84994498489E+01  0.84994498489E+01  0.00000000000E+00 0. -1.
          2    1    1    2  501    0 -0.18430536291E+02 -0.25663575941E+02  0.48668191118E+02  0.58024965530E+02  0.00000000000E+00 0.  1.
         -2    1    1    2    0  502  0.18430536291E+02  0.25663575941E+02  0.61494786070E+02  0.69136911356E+02  0.00000000000E+00 0. -1.
</event>
<event>
 4    1  0.1874565E+004  0.4610408E+02  0.7546771E-02  0.1316009E+00
         21   -1    0    0  501  502  0.00000000000E+00  0.00000000000E+00  0.86156392989E+02  0.86156392989E+02  0.00000000000E+00 0. -1.
         21   -1    0    0  502  503 -0.00000000000E+00 -0.00000000000E+00 -0.42184817688E+02  0.42184817688E+02  0.00000000000E+00 0.  1.
          2    1    1    2  501    0 -0.21362370278E+02 -0.40856271799E+02  0.63332918174E+02  0.78336736807E+02  0.00000000000E+00 0. -1.
         -2    1    1    2    0  503  0.21362370278E+02  0.40856271799E+02 -0.19361342873E+02  0.50004473870E+02  0.00000000000E+00 0.  1.
</event>
<event>
 4    1  0.1874565E+004  0.2890095E+02  0.7546771E-02  0.1429394E+00
         21   -1    0    0  501  502  0.00000000000E+00  0.00000000000E+00  0.90669807253E+01  0.90669807253E+01  0.00000000000E+00 0. -1.
         21   -1    0    0  502  503 -0.00000000000E+00 -0.00000000000E+00 -0.12337258755E+03  0.12337258755E+03  0.00000000000E+00 0.  1.
          2    1    1    2  501    0 -0.11794041679E+02  0.26384950515E+02 -0.23824738634E+02  0.37455082483E+02  0.00000000000E+00 0. -1.
         -2    1    1    2    0  503  0.11794041679E+02 -0.26384950515E+02 -0.90480868195E+02  0.94984485797E+02  0.00000000000E+00 0.  1.
</event>
<event>
 4    1  0.1874565E+004  0.2157806E+02  0.7546771E-02  0.1511169E+00
         21   -1    0    0  503  502  0.00000000000E+00  0.00000000000E+00  0.80960553947E+01  0.80960553947E+01  0.00000000000E+00 0.  1.
         21   -1    0    0  501  503 -0.00000000000E+00 -0.00000000000E+00 -0.85302267212E+02  0.85302267212E+02  0.00000000000E+00 0. -1.
          2    1    1    2  501    0 -0.21442079759E+02 -0.24186809326E+01 -0.65258335541E+02  0.68733275488E+02  0.00000000000E+00 0. -1.
         -2    1    1    2    0  502  0.21442079759E+02  0.24186809326E+01 -0.11947876277E+02  0.24665047119E+02  0.00000000000E+00 0.  1.
</event>
<event>
 4    1  0.1874565E+004  0.2131099E+02  0.7546771E-02  0.1514871E+00
         21   -1    0    0  501  502  0.00000000000E+00  0.00000000000E+00  0.81351877171E+02  0.81351877171E+02  0.00000000000E+00 0.  1.
         21   -1    0    0  502  503 -0.00000000000E+00 -0.00000000000E+00 -0.18196219872E+02  0.18196219872E+02  0.00000000000E+00 0. -1.
          2    1    1    2  501    0  0.20253272135E+02 -0.66304669002E+01  0.73018958267E+02  0.76065277163E+02  0.00000000000E+00 0.  1.
         -2    1    1    2    0  503 -0.20253272135E+02  0.66304669002E+01 -0.98633009682E+01  0.23482819879E+02  0.00000000000E+00 0. -1.
</event>
<event>
 4    1  0.1874565E+004  0.4354143E+02  0.7546771E-02  0.1328896E+00
         21   -1    0    0  503  502  0.00000000000E+00  0.00000000000E+00  0.43267593042E+03  0.43267593042E+03  0.00000000000E+00 0. -1.
         21   -1    0    0  501  503 -0.00000000000E+00 -0.00000000000E+00 -0.69924558082E+01  0.69924558082E+01  0.00000000000E+00 0.  1.
          2    1    1    2  501    0  0.42886568477E+02  0.75232122704E+01  0.78514699771E+02  0.89779811532E+02  0.00000000000E+00 0. -1.
         -2    1    1    2    0  502 -0.42886568477E+02 -0.75232122704E+01  0.34716877484E+03  0.34988857470E+03  0.00000000000E+00 0.  1.
</event>
<event>
 4    1  0.1874565E+004  0.2208003E+02  0.7546771E-02  0.1504385E+00
         21   -1    0    0  501  502  0.00000000000E+00  0.00000000000E+00  0.58356999455E+01  0.58356999455E+01  0.00000000000E+00 0.  1.
         21   -1    0    0  502  503 -0.00000000000E+00 -0.00000000000E+00 -0.28455409109E+03  0.28455409109E+03  0.00000000000E+00 0. -1.
          2    1    1    2  501    0 -0.21735738885E+02  0.38840156838E+01 -0.17325524895E+02  0.28066024578E+02  0.00000000000E+00 0.  1.
         -2    1    1    2    0  503  0.21735738885E+02 -0.38840156838E+01 -0.26139286625E+03  0.26232376645E+03  0.00000000000E+00 0. -1.
</event>
<event>
 4    1  0.1874565E+004  0.2140455E+02  0.7546771E-02  0.1513567E+00
         21   -1    0    0  501  502  0.00000000000E+00  0.00000000000E+00  0.76738556091E+01  0.76738556091E+01  0.00000000000E+00 0. -1.
         21   -1    0    0  502  503 -0.00000000000E+00 -0.00000000000E+00 -0.76169548612E+02  0.76169548612E+02  0.00000000000E+00 0.  1.
          2    1    1    2  501    0 -0.20626256095E+02 -0.57194762921E+01 -0.53739332767E+02  0.57845230882E+02  0.00000000000E+00 0.  1.
         -2    1    1    2    0  503  0.20626256095E+02  0.57194762921E+01 -0.14756360236E+02  0.25998173339E+02  0.00000000000E+00 0. -1.
</event>
<event>
 4    1  0.1874565E+004  0.3450247E+02  0.7546771E-02  0.1384095E+00
         21   -1    0    0  503  502  0.00000000000E+00  0.00000000000E+00  0.28780103148E+02  0.28780103148E+02  0.00000000000E+00 0.  1.
         21   -1    0    0  501  503 -0.00000000000E+00 -0.00000000000E+00 -0.79553727337E+02  0.79553727337E+02  0.00000000000E+00 0. -1.
          2    1    1    2  501    0  0.25269785066E+02 -0.23491671713E+02 -0.62917361482E+02  0.71756637693E+02  0.00000000000E+00 0. -1.
         -2    1    1    2    0  502 -0.25269785066E+02  0.23491671713E+02  0.12143737293E+02  0.36577192792E+02  0.00000000000E+00 0.  1.
</event>
<event>
 4    1  0.1874565E+004  0.6322667E+02  0.7546771E-02  0.1249247E+00
         21   -1    0    0  503  502  0.00000000000E+00  0.00000000000E+00  0.23734973983E+03  0.23734973983E+03  0.00000000000E+00 0.  1.
         21   -1    0    0  501  503 -0.00000000000E+00 -0.00000000000E+00 -0.24208788116E+02  0.24208788116E+02  0.00000000000E+00 0. -1.
          2    1    1    2  501    0  0.24844820835E+02  0.58140746466E+02  0.34431381223E+02  0.71993968740E+02  0.00000000000E+00 0. -1.
         -2    1    1    2    0  502 -0.24844820835E+02 -0.58140746466E+02  0.17870957049E+03  0.18956455921E+03  0.00000000000E+00 0.  1.
</event>
<event>
 4    1  0.1874565E+004  0.2662605E+02  0.7546771E-02  0.1451401E+00
         21   -1    0    0  501  502  0.00000000000E+00  0.00000000000E+00  0.31904333342E+01  0.31904333342E+01  0.00000000000E+00 0. -1.
         21   -1    0    0  502  503 -0.00000000000E+00 -0.00000000000E+00 -0.35080750454E+03  0.35080750454E+03  0.00000000000E+00 0.  1.
          2    1    1    2  501    0  0.24567024458E+02  0.10266839969E+02 -0.66643699654E+02  0.71765795454E+02  0.00000000000E+00 0. -1.
         -2    1    1    2    0  503 -0.24567024458E+02 -0.10266839969E+02 -0.28097337156E+03  0.28223214242E+03  0.00000000000E+00 0.  1.
</event>
<event>
 4    1  0.1874565E+004  0.2534162E+02  0.7546771E-02  0.1465018E+00
         21   -1    0    0  503  502  0.00000000000E+00  0.00000000000E+00  0.74254221562E+01  0.74254221562E+01  0.00000000000E+00 0. -1.
         21   -1    0    0  501  503 -0.00000000000E+00 -0.00000000000E+00 -0.39826174231E+03  0.39826174231E+03  0.00000000000E+00 0.  1.
          2    1    1    2  501    0 -0.21116361643E+02  0.14010599423E+02 -0.37489065383E+03  0.37574619087E+03  0.00000000000E+00 0.  1.
         -2    1    1    2    0  502  0.21116361643E+02 -0.14010599423E+02 -0.15945666321E+02  0.29940973592E+02  0.00000000000E+00 0. -1.
</event>
<event>
 4    1  0.1874565E+004  0.2574727E+02  0.7546771E-02  0.1460615E+00
         21   -1    0    0  501  502  0.00000000000E+00  0.00000000000E+00  0.33935217522E+03  0.33935217522E+03  0.00000000000E+00 0. -1.
         21   -1    0    0  502  503 -0.00000000000E+00 -0.00000000000E+00 -0.99153927851E+01  0.99153927851E+01  0.00000000000E+00 0.  1.
          2    1    1    2  501    0  0.23126158703E+02 -0.11318240708E+02  0.32120662231E+03  0.32223689423E+03  0.00000000000E+00 0. -1.
         -2    1    1    2    0  503 -0.23126158703E+02  0.11318240708E+02  0.82301601294E+01  0.27030673777E+02  0.00000000000E+00 0.  1.
</event>
<event>
 4    1  0.1874565E+004  0.5442038E+02  0.7546771E-02  0.1280066E+00
         21   -1    0    0  501  502  0.00000000000E+00  0.00000000000E+00  0.48826525633E+02  0.48826525633E+02  0.00000000000E+00 0. -1.
         21   -1    0    0  502  503 -0.00000000000E+00 -0.00000000000E+00 -0.85509941543E+02  0.85509941543E+02  0.00000000000E+00 0.  1.
          2    1    1    2  501    0 -0.51596903509E+02 -0.17301358550E+02  0.17871014980E+02  0.57279583063E+02  0.00000000000E+00 0.  1.
         -2    1    1    2    0  503  0.51596903509E+02  0.17301358550E+02 -0.54554430890E+02  0.77056884113E+02  0.00000000000E+00 0. -1.
</event>
<event>
 4    1  0.1874565E+004  0.2024291E+02  0.7546771E-02  0.1530354E+00
         21   -1    0    0  503  502  0.00000000000E+00  0.00000000000E+00  0.17395750200E+03  0.17395750200E+03  0.00000000000E+00 0. -1.
         21   -1    0    0  501  503 -0.00000000000E+00 -0.00000000000E+00 -0.40771367233E+01  0.40771367233E+01  0.00000000000E+00 0.  1.
          2    1    1    2  501    0 -0.92526199077E+01  0.18004572369E+02  0.27096748312E+02  0.33823207572E+02  0.00000000000E+00 0.  1.
         -2    1    1    2    0  502  0.92526199077E+01 -0.18004572369E+02  0.14278361696E+03  0.14421143115E+03  0.00000000000E+00 0. -1.
</event>
<event>
 4    1  0.1874565E+004  0.2461315E+02  0.7546771E-02  0.1473178E+00
         21   -1    0    0  501  502  0.00000000000E+00  0.00000000000E+00  0.31774042726E+02  0.31774042726E+02  0.00000000000E+00 0.  1.
         21   -1    0    0  502  503 -0.00000000000E+00 -0.00000000000E+00 -0.19117132567E+02  0.19117132567E+02  0.00000000000E+00 0. -1.
          2    1    1    2  501    0 -0.79408215174E+01 -0.23297008474E+02  0.50138312777E+01  0.25118633607E+02  0.00000000000E+00 0.  1.
         -2    1    1    2    0  503  0.79408215174E+01  0.23297008474E+02  0.76430788815E+01  0.25772541686E+02  0.00000000000E+00 0. -1.
</event>
<event>
 4    1  0.1874565E+004  0.2132198E+02  0.7546771E-02  0.1514717E+00
         21   -1    0    0  503  502  0.00000000000E+00  0.00000000000E+00  0.19815776118E+02  0.19815776118E+02  0.00000000000E+00 0.  1.
         21   -1    0    0  501  503 -0.00000000000E+00 -0.00000000000E+00 -0.39472239848E+02  0.39472239848E+02  0.00000000000E+00 0. -1.
          2    1    1    2  501    0  0.52478185390E+01  0.20666084523E+02 -0.29011470100E+02  0.36004055970E+02  0.00000000000E+00 0. -1.
         -2    1    1    2    0  502 -0.52478185390E+01 -0.20666084523E+02  0.93550063702E+01  0.23283959996E+02  0.00000000000E+00 0.  1.
</event>
<event>
 4    1  0.1874565E+004  0.3188635E+02  0.7546771E-02  0.1403883E+00
         21   -1    0    0  501  502  0.00000000000E+00  0.00000000000E+00  0.22105442114E+02  0.22105442114E+02  0.00000000000E+00 0.  1.
         21   -1    0    0  502  503 -0.00000000000E+00 -0.00000000000E+00 -0.10158607051E+03  0.10158607051E+03  0.00000000000E+00 0. -1.
          2    1    1    2  501    0 -0.31636827934E+02  0.39812537099E+01  0.60101431036E+01  0.32447820928E+02  0.00000000000E+00 0.  1.
         -2    1    1    2    0  503  0.31636827934E+02 -0.39812537099E+01 -0.85490771502E+02  0.91243691699E+02  0.00000000000E+00 0. -1.
</event>
<event>
 4    1  0.1874565E+004  0.2913690E+02  0.7546771E-02  0.1427248E+00
         21   -1    0    0  503  502  0.00000000000E+00  0.00000000000E+00  0.62868041909E+02  0.62868041909E+02  0.00000000000E+00 0.  1.
         21   -1    0    0  501  503 -0.00000000000E+00 -0.00000000000E+00 -0.19716808068E+02  0.19716808068E+02  0.00000000000E+00 0. -1.
          2    1    1    2  501    0 -0.25449172179E+02 -0.14187967304E+02 -0.16037895358E+01  0.29181002753E+02  0.00000000000E+00 0. -1.
         -2    1    1    2    0  502  0.25449172179E+02  0.14187967304E+02  0.44755023377E+02  0.53403847223E+02  0.00000000000E+00 0.  1.
</event>
<event>
 4    1  0.1874565E+004  0.2799584E+02  0.7546771E-02  0.1437853E+00
         21   -1    0    0  503  502  0.00000000000E+00  0.00000000000E+00  0.32372098341E+03  0.32372098341E+03  0.00000000000E+00 0.  1.
         21   -1    0    0  501  503 -0.00000000000E+00 -0.00000000000E+00 -0.25225297780E+01  0.25225297780E+01  0.00000000000E+00 0. -1.
          2    1    1    2  501    0 -0.19911911473E+02 -0.19679509864E+02  0.12789274808E+03  0.13092105384E+03  0.00000000000E+00 0. -1.
         -2    1    1    2    0  502  0.19911911473E+02  0.19679509864E+02  0.19330570555E+03  0.19532245935E+03  0.00000000000E+00 0.  1.
</event>
<event>
 4    1  0.1874565E+004  0.8823409E+02  0.7546771E-02  0.1185923E+00
         21   -1    0    0  503  502  0.00000000000E+00  0.00000000000E+00  0.41702788174E+02  0.41702788174E+02  0.00000000000E+00 0. -1.
         21   -1    0    0  501  503 -0.00000000000E+00 -0.00000000000E+00 -0.19338680046E+03  0.19338680046E+03  0.00000000000E+00 0.  1.
          2    1    1    2  501    0 -0.83522836338E+02 -0.28446288372E+02 -0.97725096334E+02  0.13166415596E+03  0.00000000000E+00 0. -1.
         -2    1    1    2    0  502  0.83522836338E+02  0.28446288372E+02 -0.53958915948E+02  0.10342543267E+03  0.00000000000E+00 0.  1.
</event>
<event>
 4    1  0.1874565E+004  0.2339838E+02  0.7546771E-02  0.1487555E+00
         21   -1    0    0  501  502  0.00000000000E+00  0.00000000000E+00  0.34329758014E+03  0.34329758014E+03  0.00000000000E+00 0. -1.
         21   -1    0    0  502  503 -0.00000000000E+00 -0.00000000000E+00 -0.20791238156E+01  0.20791238156E+01  0.00000000000E+00 0.  1.
          2    1    1    2  501    0  0.11529199756E+02 -0.20360788416E+02  0.25395809490E+03  0.25503371957E+03  0.00000000000E+00 0. -1.
         -2    1    1    2    0  503 -0.11529199756E+02  0.20360788416E+02  0.87260361424E+02  0.90342984387E+02  0.00000000000E+00 0.  1.
</event>
<event>
 4    1  0.1874565E+004  0.3475640E+02  0.7546771E-02  0.1382284E+00
         21   -1    0    0  503  502  0.00000000000E+00  0.00000000000E+00  0.12687570941E+03  0.12687570941E+03  0.00000000000E+00 0. -1.
         21   -1    0    0  501  503 -0.00000000000E+00 -0.00000000000E+00 -0.24355133179E+02  0.24355133179E+02  0.00000000000E+00 0.  1.
          2    1    1    2  501    0  0.71829261682E+01  0.34006074965E+02 -0.77521349608E+01  0.35610436101E+02  0.00000000000E+00 0.  1.
         -2    1    1    2    0  502 -0.71829261682E+01 -0.34006074965E+02  0.11027271119E+03  0.11562040649E+03  0.00000000000E+00 0. -1.
</event>
<event>
 4    1  0.1874565E+004  0.2343929E+02  0.7546771E-02  0.1487054E+00
         21   -1    0    0  503  502  0.00000000000E+00  0.00000000000E+00  0.54307221220E+02  0.54307221220E+02  0.00000000000E+00 0.  1.
         21   -1    0    0  501  503 -0.00000000000E+00 -0.00000000000E+00 -0.12897388031E+02  0.12897388031E+02  0.00000000000E+00 0. -1.
          2    1    1    2  501    0  0.13122652333E+02 -0.19421547776E+02  0.51019295051E+01  0.23988126375E+02  0.00000000000E+00 0.  1.
         -2    1    1    2    0  502 -0.13122652333E+02  0.19421547776E+02  0.36307903684E+02  0.43216482876E+02  0.00000000000E+00 0. -1.
</event>
<event>
 4    1  0.1874565E+004  0.2593586E+02  0.7546771E-02  0.1458601E+00
         21   -1    0    0  503  502  0.00000000000E+00  0.00000000000E+00  0.85381598555E+01  0.85381598555E+01  0.00000000000E+00 0. -1.
         21   -1    0    0  501  503 -0.00000000000E+00 -0.00000000000E+00 -0.78879276674E+02  0.78879276674E+02  0.00000000000E+00 0.  1.
          2    1    1    2  501    0  0.25668130062E+02  0.37169760152E+01 -0.33650011649E+02  0.42485198547E+02  0.00000000000E+00 0. -1.
         -2    1    1    2    0  502 -0.25668130062E+02 -0.37169760152E+01 -0.36691105169E+02  0.44932237983E+02  0.00000000000E+00 0.  1.
</event>
<event>
 4    1  0.1874565E+004  0.2699705E+02  0.7546771E-02  0.1447638E+00
         21   -1    0    0  501  502  0.00000000000E+00  0.00000000000E+00  0.46910564826E+02  0.46910564826E+02  0.00000000000E+00 0.  1.
         21   -1    0    0  502  503 -0.00000000000E+00 -0.00000000000E+00 -0.21565982532E+02  0.21565982532E+02  0.00000000000E+00 0. -1.
          2    1    1    2  501    0 -0.16664142336E+00 -0.26996539030E+02  0.30775510634E+02  0.40938648534E+02  0.00000000000E+00 0.  1.
         -2    1    1    2    0  503  0.16664142336E+00  0.26996539030E+02 -0.54309283404E+01  0.27537898824E+02  0.00000000000E+00 0. -1.
</event>
<event>
 4    1  0.1874565E+004  0.2232179E+02  0.7546771E-02  0.1501195E+00
         21   -1    0    0  501  502  0.00000000000E+00  0.00000000000E+00  0.74563359959E+01  0.74563359959E+01  0.00000000000E+00 0.  1.
         21   -1    0    0  502  503 -0.00000000000E+00 -0.00000000000E+00 -0.12858486400E+03  0.12858486400E+03  0.00000000000E+00 0. -1.
          2    1    1    2  501    0 -0.16255048274E+01 -0.22262530291E+02 -0.13422908936E+02  0.26046823323E+02  0.00000000000E+00 0. -1.
         -2    1    1    2    0  503  0.16255048274E+01  0.22262530291E+02 -0.10770561906E+03  0.10999437667E+03  0.00000000000E+00 0.  1.
</event>
<event>
 4    1  0.1874565E+004  0.2327035E+02  0.7546771E-02  0.1489131E+00
         21   -1    0    0  503  502  0.00000000000E+00  0.00000000000E+00  0.10448168467E+02  0.10448168467E+02  0.00000000000E+00 0. -1.
         21   -1    0    0  501  503 -0.00000000000E+00 -0.00000000000E+00 -0.73681253091E+02  0.73681253091E+02  0.00000000000E+00 0.  1.
          2    1    1    2  501    0 -0.23106135151E+01 -0.23155345854E+02 -0.54525019232E+02  0.59283106352E+02  0.00000000000E+00 0. -1.
         -2    1    1    2    0  502  0.23106135151E+01  0.23155345854E+02 -0.87080653918E+01  0.24846315206E+02  0.00000000000E+00 0.  1.
</event>
<event>
 4    1  0.1874565E+004  0.3963369E+02  0.7546771E-02  0.1350646E+00
         21   -1    0    0  501  502  0.00000000000E+00  0.00000000000E+00  0.14338795845E+02  0.14338795845E+02  0.00000000000E+00 0. -1.
         21   -1    0    0  502  503 -0.00000000000E+00 -0.00000000000E+00 -0.11722544291E+03  0.11722544291E+03  0.00000000000E+00 0.  1.
          2    1    1    2  501    0 -0.32129111726E+02  0.23206673976E+02 -0.34611928004E+02  0.52619531521E+02  0.00000000000E+00 0. -1.
         -2    1    1    2    0  503  0.32129111726E+02 -0.23206673976E+02 -0.68274719061E+02  0.78944707233E+02  0.00000000000E+00 0.  1.
</event>
<event>
 4    1  0.1874565E+004  0.2021639E+02  0.7546771E-02  0.1530753E+00
         21   -1    0    0  503  502  0.00000000000E+00  0.00000000000E+00  0.15537218811E+02  0.15537218811E+02  0.00000000000E+00 0.  1.
         21   -1    0    0  501  503 -0.00000000000E+00 -0.00000000000E+00 -0.16057430104E+03  0.16057430104E+03  0.00000000000E+00 0. -1.
          2    1    1    2  501    0 -0.50308085827E+01  0.19580437720E+02 -0.15303942361E+03  0.15436893390E+03  0.00000000000E+00 0. -1.
         -2    1    1    2    0  502  0.50308085827E+01 -0.19580437720E+02  0.80023413755E+01  0.21742585950E+02  0.00000000000E+00 0.  1.
</event>
<event>
 4    1  0.1874565E+004  0.3893452E+02  0.7546771E-02  0.1354845E+00
         21   -1    0    0  503  502  0.00000000000E+00  0.00000000000E+00  0.30604886173E+02  0.30604886173E+02  0.00000000000E+00 0. -1.
         21   -1    0    0  501  503 -0.00000000000E+00 -0.00000000000E+00 -0.95088463312E+02  0.95088463312E+02  0.00000000000E+00 0.  1.
          2    1    1    2  501    0  0.35753637072E+02 -0.15413433118E+02 -0.75742588440E+02  0.85163584870E+02  0.00000000000E+00 0.  1.
         -2    1    1    2    0  502 -0.35753637072E+02  0.15413433118E+02  0.11259011301E+02  0.40529764616E+02  0.00000000000E+00 0. -1.
</event>
<event>
 4    1  0.1874565E+004  0.3013505E+02  0.7546771E-02  0.1418426E+00
         21   -1    0    0  501  502  0.00000000000E+00  0.00000000000E+00  0.14567519607E+03  0.14567519607E+03  0.00000000000E+00 0.  1.
         21   -1    0    0  502  503 -0.00000000000E+00 -0.00000000000E+00 -0.62686101853E+01  0.62686101853E+01  0.00000000000E+00 0. -1.
          2    1    1    2  501    0  0.10473087693E+02  0.28256605285E+02  0.75358354948E+02  0.81160353428E+02  0.00000000000E+00 0.  1.
         -2    1    1    2    0  503 -0.10473087693E+02 -0.28256605285E+02  0.64048230940E+02  0.70783452831E+02  0.00000000000E+00 0. -1.
</event>
<event>
 4    1  0.1874565E+004  0.2991321E+02  0.7546771E-02  0.1420352E+00
         21   -1    0    0  503  502  0.00000000000E+00  0.00000000000E+00  0.19687842930E+02  0.19687842930E+02  0.00000000000E+00 0. -1.
         21   -1    0    0  501  503 -0.00000000000E+00 -0.00000000000E+00 -0.45501323436E+02  0.45501323436E+02  0.00000000000E+00 0.  1.
          2    1    1    2  501    0 -0.23074736729E+02  0.19035660339E+02 -0.14008246282E+02  0.33030755419E+02  0.00000000000E+00 0.  1.
         -2    1    1    2    0  502  0.23074736729E+02 -0.19035660339E+02 -0.11805234224E+02  0.32158410948E+02  0.00000000000E+00 0. -1.
</event>
<event>
 4    1  0.1874565E+004  0.2029946E+02  0.7546771E-02  0.1529506E+00
         21   -1    0    0  501  502  0.00000000000E+00  0.00000000000E+00  0.21485388405E+02  0.21485388405E+02  0.00000000000E+00 0. -1.
         21   -1    0    0  502  503 -0.00000000000E+00 -0.00000000000E+00 -0.19381839613E+02  0.19381839613E+02  0.00000000000E+00 0.  1.
          2    1    1    2  501    0 -0.49676120520E+01  0.19682253180E+02  0.31421498501E+01  0.20541211392E+02  0.00000000000E+00 0.  1.
         -2    1    1    2    0  503  0.49676120520E+01 -0.19682253180E+02 -0.10386010580E+01  0.20326016627E+02  0.00000000000E+00 0. -1.
</event>
<event>
 4    1  0.1874565E+004  0.3050090E+02  0.7546771E-02  0.1415293E+00
         21   -1    0    0  501  502  0.00000000000E+00  0.00000000000E+00  0.84599497696E+02  0.84599497696E+02  0.00000000000E+00 0. -1.
         21   -1    0    0  502  503 -0.00000000000E+00 -0.00000000000E+00 -0.13978173207E+03  0.13978173207E+03  0.00000000000E+00 0.  1.
          2    1    1    2  501    0  0.15844647360E+02 -0.26062468640E+02  0.80096115681E+02  0.85707017617E+02  0.00000000000E+00 0. -1.
         -2    1    1    2    0  503 -0.15844647360E+02  0.26062468640E+02 -0.13527835005E+03  0.13867421215E+03  0.00000000000E+00 0.  1.
</event>
<event>
 4    1  0.1874565E+004  0.3242327E+02  0.7546771E-02  0.1399644E+00
         21   -1    0    0  503  502  0.00000000000E+00  0.00000000000E+00  0.35434201283E+02  0.35434201283E+02  0.00000000000E+00 0.  1.
         21   -1    0    0  501  503 -0.00000000000E+00 -0.00000000000E+00 -0.36491757441E+02  0.36491757441E+02  0.00000000000E+00 0. -1.
          2    1    1    2  501    0 -0.26953291458E+02 -0.18021898796E+02 -0.16079977554E+02  0.36191634872E+02  0.00000000000E+00 0. -1.
         -2    1    1    2    0  502  0.26953291458E+02  0.18021898796E+02  0.15022421395E+02  0.35734323852E+02  0.00000000000E+00 0.  1.
</event>
<event>
 4    1  0.1874565E+004  0.5601487E+02  0.7546771E-02  0.1274009E+00
         21   -1    0    0  503  502  0.00000000000E+00  0.00000000000E+00  0.20210953226E+03  0.20210953226E+03  0.00000000000E+00 0.  1.
         21   -1    0    0  501  503 -0.00000000000E+00 -0.00000000000E+00 -0.29384648411E+02  0.29384648411E+02  0.00000000000E+00 0. -1.
          2    1    1    2  501    0  0.93039336883E+01 -0.55236789946E+02  0.68687846731E+01  0.56434442927E+02  0.00000000000E+00 0. -1.
         -2    1    1    2    0  502 -0.93039336883E+01  0.55236789946E+02  0.16585609918E+03  0.17505973775E+03  0.00000000000E+00 0.  1.
</event>
<event>
 4    1  0.1874565E+004  0.2219455E+02  0.7546771E-02  0.1502868E+00
         21   -1    0    0  503  502  0.00000000000E+00  0.00000000000E+00  0.51218468591E+01  0.51218468591E+01  0.00000000000E+00 0.  1.
         21   -1    0    0  501  503 -0.00000000000E+00 -0.00000000000E+00 -0.10081294409E+03  0.10081294409E+03  0.00000000000E+00 0. -1.
          2    1    1    2  501    0  0.20168382908E+02  0.92646912887E+01 -0.59205372752E+02  0.63228746125E+02  0.00000000000E+00 0.  1.
         -2    1    1    2    0  502 -0.20168382908E+02 -0.92646912887E+01 -0.36485724480E+02  0.42706044826E+02  0.00000000000E+00 0. -1.
</event>
<event>
 4    1  0.1874565E+004  0.2454343E+02  0.7546771E-02  0.1473976E+00
         21   -1    0    0  501  502  0.00000000000E+00  0.00000000000E+00  0.62946803713E+01  0.62946803713E+01  0.00000000000E+00 0. -1.
         21   -1    0    0  502  503 -0.00000000000E+00 -0.00000000000E+00 -0.10907104644E+03  0.10907104644E+03  0.00000000000E+00 0.  1.
          2    1    1    2  501    0  0.18571202627E+02 -0.16046506003E+02 -0.31189227392E+02  0.39688132070E+02  0.00000000000E+00 0.  1.
         -2    1    1    2    0  503 -0.18571202627E+02  0.16046506003E+02 -0.71587138680E+02  0.75677594745E+02  0.00000000000E+00 0. -1.
</event>
<event>
 4    1  0.1874565E+004  0.2176897E+02  0.7546771E-02  0.1508563E+00
         21   -1    0    0  501  502  0.00000000000E+00  0.00000000000E+00  0.33439527136E+01  0.33439527136E+01  0.00000000000E+00 0. -1.
         21   -1    0    0  502  503 -0.00000000000E+00 -0.00000000000E+00 -0.19665440095E+03  0.19665440095E+03  0.00000000000E+00 0.  1.
          2    1    1    2  501    0  0.21691450320E+02 -0.18354709704E+01 -0.14951032309E+03  0.15108681174E+03  0.00000000000E+00 0.  1.
         -2    1    1    2    0  503 -0.21691450320E+02  0.18354709704E+01 -0.43800125141E+02  0.48911541920E+02  0.00000000000E+00 0. -1.
</event>
<event>
 4    1  0.1874565E+004  0.2148888E+02  0.7546771E-02  0.1512398E+00
         21   -1    0    0  501  502  0.00000000000E+00  0.00000000000E+00  0.68683366674E+01  0.68683366674E+01  0.00000000000E+00 0.  1.
         21   -1    0    0  502  503 -0.00000000000E+00 -0.00000000000E+00 -0.86487895522E+02  0.86487895522E+02  0.00000000000E+00 0. -1.
          2    1    1    2  501    0  0.11153135858E+02 -0.18367893290E+02 -0.17784692754E+02  0.27893856666E+02  0.00000000000E+00 0.  1.
         -2    1    1    2    0  503 -0.11153135858E+02  0.18367893290E+02 -0.61834866101E+02  0.65462375523E+02  0.00000000000E+00 0. -1.
</event>
<event>
 4    1  0.1874565E+004  0.2194704E+02  0.7546771E-02  0.1506161E+00
         21   -1    0    0  503  502  0.00000000000E+00  0.00000000000E+00  0.16294431620E+03  0.16294431620E+03  0.00000000000E+00 0. -1.
         21   -1    0    0  501  503 -0.00000000000E+00 -0.00000000000E+00 -0.12247491583E+02  0.12247491583E+02  0.00000000000E+00 0.  1.
          2    1    1    2  501    0 -0.16959630353E+02  0.13929957653E+02 -0.94755730822E+00  0.21967490680E+02  0.00000000000E+00 0.  1.
         -2    1    1    2    0  502  0.16959630353E+02 -0.13929957653E+02  0.15164438193E+03  0.15322431711E+03  0.00000000000E+00 0. -1.
</event>
<event>
 4    1  0.1874565E+004  0.2080647E+02  0.7546771E-02  0.1522046E+00
         21   -1    0    0  503  502  0.00000000000E+00  0.00000000000E+00  0.23779615343E+02  0.23779615343E+02  0.00000000000E+00 0.  1.
         21   -1    0    0  501  503 -0.00000000000E+00 -0.00000000000E+00 -0.66717135885E+02  0.66717135885E+02  0.00000000000E+00 0. -1.
          2    1    1    2  501    0  0.67691014368E+00  0.20795456583E+02 -0.60052937576E+02  0.63555208546E+02  0.00000000000E+00 0. -1.
         -2    1    1    2    0  502 -0.67691014368E+00 -0.20795456583E+02  0.17115417034E+02  0.26941542682E+02  0.00000000000E+00 0.  1.
</event>
<event>
 4    1  0.1874565E+004  0.2020308E+02  0.7546771E-02  0.1530954E+00
         21   -1    0    0  503  502  0.00000000000E+00  0.00000000000E+00  0.12648412579E+03  0.12648412579E+03  0.00000000000E+00 0.  1.
         21   -1    0    0  501  503 -0.00000000000E+00 -0.00000000000E+00 -0.14326079582E+02  0.14326079582E+02  0.00000000000E+00 0. -1.
          2    1    1    2  501    0  0.24646582162E+01 -0.20052175010E+02 -0.58913257525E+01  0.21044523798E+02  0.00000000000E+00 0. -1.
         -2    1    1    2    0  502 -0.24646582162E+01  0.20052175010E+02  0.11804937196E+03  0.11976568158E+03  0.00000000000E+00 0.  1.
</event>
<event>
 4    1  0.1874565E+004  0.3463906E+02  0.7546771E-02  0.1383119E+00
         21   -1    0    0  501  502  0.00000000000E+00  0.00000000000E+00  0.57330137743E+00  0.57330137743E+00  0.00000000000E+00 0.  1.
         21   -1    0    0  502  503 -0.00000000000E+00 -0.00000000000E+00 -0.21219109255E+04  0.21219109255E+04  0.00000000000E+00 0. -1.
          2    1    1    2  501    0 -0.61042672375E+01 -0.34096960419E+02 -0.11847486446E+04  0.11852549159E+04  0.00000000000E+00 0. -1.
         -2    1    1    2    0  503  0.61042672375E+01  0.34096960419E+02 -0.93658897946E+03  0.93722931092E+03  0.00000000000E+00 0.  1.
</event>
<event>
 4    1  0.1874565E+004  0.2063513E+02  0.7546771E-02  0.1524539E+00
         21   -1    0    0  501  502  0.00000000000E+00  0.00000000000E+00  0.65127676056E+01  0.65127676056E+01  0.00000000000E+00 0.  1.
         21   -1    0    0  502  503 -0.00000000000E+00 -0.00000000000E+00 -0.18020176931E+03  0.18020176931E+03  0.00000000000E+00 0. -1.
          2    1    1    2  501    0  0.92983484690E+01  0.18421435971E+02 -0.12323339795E+02  0.24034834952E+02  0.00000000000E+00 0.  1.
         -2    1    1    2    0  503 -0.92983484690E+01 -0.18421435971E+02 -0.16136566190E+03  0.16267970196E+03  0.00000000000E+00 0. -1.
</event>
<event>
 4    1  0.1874565E+004  0.2765818E+02  0.7546771E-02  0.1441106E+00
         21   -1    0    0  503  502  0.00000000000E+00  0.00000000000E+00  0.87246192840E+02  0.87246192840E+02  0.00000000000E+00 0.  1.
         21   -1    0    0  501  503 -0.00000000000E+00 -0.00000000000E+00 -0.20050007547E+02  0.20050007547E+02  0.00000000000E+00 0. -1.
          2    1    1    2  501    0  0.11589017329E+01  0.27633888849E+02 -0.66448950014E+01  0.28445201629E+02  0.00000000000E+00 0. -1.
         -2    1    1    2    0  502 -0.11589017329E+01 -0.27633888849E+02  0.73841080294E+02  0.78850998758E+02  0.00000000000E+00 0.  1.
</event>
<event>
 4    1  0.1874565E+004  0.5015758E+02  0.7546771E-02  0.1297491E+00
         21   -1    0    0  503  502  0.00000000000E+00  0.00000000000E+00  0.47770478964E+02  0.47770478964E+02  0.00000000000E+00 0.  1.
         21   -1    0    0  501  503 -0.00000000000E+00 -0.00000000000E+00 -0.62191216373E+02  0.62191216373E+02  0.00000000000E+00 0. -1.
          2    1    1    2  501    0  0.45741214283E+02 -0.20579710156E+02 -0.28729788818E+02  0.57802975007E+02  0.00000000000E+00 0. -1.
         -2    1    1    2    0  502 -0.45741214283E+02  0.20579710156E+02  0.14309051409E+02  0.52158720329E+02  0.00000000000E+00 0.  1.
</event>
<event>
 4    1  0.1874565E+004  0.5414110E+02  0.7546771E-02  0.1281152E+00
         21   -1    0    0  501  502  0.00000000000E+00  0.00000000000E+00  0.14301337602E+03  0.14301337602E+03  0.00000000000E+00 0. -1.
         21   -1    0    0  502  503 -0.00000000000E+00 -0.00000000000E+00 -0.31284607891E+02  0.31284607891E+02  0.00000000000E+00 0.  1.
          2    1    1    2  501    0 -0.14492800582E+02 -0.52165286652E+02  0.10704102756E+03  0.11995432456E+03  0.00000000000E+00 0. -1.
         -2    1    1    2    0  503  0.14492800582E+02  0.52165286652E+02  0.46877405725E+01  0.54343659353E+02  0.00000000000E+00 0.  1.
</event>
<event>
 4    1  0.1874565E+004  0.2509595E+02  0.7546771E-02  0.1467733E+00
         21   -1    0    0  503  502  0.00000000000E+00  0.00000000000E+00  0.12196927660E+03  0.12196927660E+03  0.00000000000E+00 0.  1.
         21   -1    0    0  501  503 -0.00000000000E+00 -0.00000000000E+00 -0.53555129357E+01  0.53555129357E+01  0.00000000000E+00 0. -1.
          2    1    1    2  501    0 -0.85270684971E+01  0.23602879302E+02  0.46257172955E+02  0.52626351368E+02  0.00000000000E+00 0.  1.
         -2    1    1    2    0  502  0.85270684971E+01 -0.23602879302E+02  0.70356590712E+02  0.74698438171E+02  0.00000000000E+00 0. -1.
</event>
<event>
 4    1  0.1874565E+004  0.2045775E+02  0.7546771E-02  0.1527149E+00
         21   -1    0    0  501  502  0.00000000000E+00  0.00000000000E+00  0.12281581853E+02  0.12281581853E+02  0.00000000000E+00 0. -1.
         21   -1    0    0  502  503 -0.00000000000E+00 -0.00000000000E+00 -0.56308346729E+02  0.56308346729E+02  0.00000000000E+00 0.  1.
          2    1    1    2  501    0  0.19588661359E+02  0.58994667907E+01 -0.46439169806E+00  0.20463015953E+02  0.00000000000E+00 0. -1.
         -2    1    1    2    0  503 -0.19588661359E+02 -0.58994667907E+01 -0.43562373178E+02  0.48126912629E+02  0.00000000000E+00 0.  1.
</event>
<event>
 4    1  0.1874565E+004  0.2398207E+02  0.7546771E-02  0.1480521E+00
         21   -1    0    0  501  502  0.00000000000E+00  0.00000000000E+00  0.35134035667E+02  0.35134035667E+02  0.00000000000E+00 0. -1.
         21   -1    0    0  502  503 -0.00000000000E+00 -0.00000000000E+00 -0.22799122282E+02  0.22799122282E+02  0.00000000000E+00 0.  1.
          2    1    1    2  501    0  0.29934028231E+01  0.23794524897E+02  0.21549644465E+02  0.32241697414E+02  0.00000000000E+00 0. -1.
         -2    1    1    2    0  503 -0.29934028231E+01 -0.23794524897E+02 -0.92147310804E+01  0.25691460535E+02  0.00000000000E+00 0.  1.
</event>
<event>
 4    1  0.1874565E+004  0.3634042E+02  0.7546771E-02  0.1371377E+00
         21   -1    0    0  503  502  0.00000000000E+00  0.00000000000E+00  0.48753837487E+01  0.48753837487E+01  0.00000000000E+00 0. -1.
         21   -1    0    0  501  503 -0.00000000000E+00 -0.00000000000E+00 -0.31553984429E+03  0.31553984429E+03  0.00000000000E+00 0.  1.
          2    1    1    2  501    0  0.35250526771E+02  0.88332563353E+01 -0.21560657493E+03  0.21864771027E+03  0.00000000000E+00 0.  1.
         -2    1    1    2    0  502 -0.35250526771E+02 -0.88332563353E+01 -0.95057885618E+02  0.10176751777E+03  0.00000000000E+00 0. -1.
</event>
<event>
 4    1  0.1874565E+004  0.4121073E+02  0.7546771E-02  0.1341533E+00
         21   -1    0    0  501  502  0.00000000000E+00  0.00000000000E+00  0.12714988241E+02  0.12714988241E+02  0.00000000000E+00 0. -1.
         21   -1    0    0  502  503 -0.00000000000E+00 -0.00000000000E+00 -0.28937483041E+03  0.28937483041E+03  0.00000000000E+00 0.  1.
          2    1    1    2  501    0  0.23070455657E+02 -0.34147894694E+02 -0.27497207554E+02  0.49542114000E+02  0.00000000000E+00 0. -1.
         -2    1    1    2    0  503 -0.23070455657E+02  0.34147894694E+02 -0.24916263462E+03  0.25254770465E+03  0.00000000000E+00 0.  1.
</event>
<event>
 4    1  0.1874565E+004  0.2371981E+02  0.7546771E-02  0.1483652E+00
         21   -1    0    0  503  502  0.00000000000E+00  0.00000000000E+00  0.56065416528E+02  0.56065416528E+02  0.00000000000E+00 0. -1.
         21   -1    0    0  501  503 -0.00000000000E+00 -0.00000000000E+00 -0.59937908358E+02  0.59937908358E+02  0.00000000000E+00 0.  1.
          2    1    1    2  501    0  0.11242213465E+02  0.20886403584E+02 -0.54860115159E+02  0.59768398452E+02  0.00000000000E+00 0.  1.
         -2    1    1    2    0  502 -0.11242213465E+02 -0.20886403584E+02  0.50987623330E+02  0.56234926434E+02  0.00000000000E+00 0. -1.
</event>
<event>
 4    1  0.1874565E+004  0.2468297E+02  0.7546771E-02  0.1472381E+00
         21   -1    0    0  503  502  0.00000000000E+00  0.00000000000E+00  0.52166679448E+01  0.52166679448E+01  0.00000000000E+00 0. -1.
         21   -1    0    0  501  503 -0.00000000000E+00 -0.00000000000E+00 -0.12447732825E+03  0.12447732825E+03  0.00000000000E+00 0.  1.
          2    1    1    2  501    0 -0.72121209111E+01  0.23605814242E+02 -0.75746514046E+02  0.79666702857E+02  0.00000000000E+00 0.  1.
         -2    1    1    2    0  502  0.72121209111E+01 -0.23605814242E+02 -0.43514146264E+02  0.50027293342E+02  0.00000000000E+00 0. -1.
</event>
<event>
 4    1  0.1874565E+004  0.2039306E+02  0.7546771E-02  0.1528109E+00
         21   -1    0    0  501  502  0.00000000000E+00  0.00000000000E+00  0.33727313023E+03  0.33727313023E+03  0.00000000000E+00 0. -1.
         21   -1    0    0  502  503 -0.00000000000E+00 -0.00000000000E+00 -0.25848080218E+01  0.25848080218E+01  0.00000000000E+00 0.  1.
          2    1    1    2  501    0  0.12363053056E+02  0.16218261522E+02  0.29022992827E+03  0.29094550752E+03  0.00000000000E+00 0. -1.
         -2    1    1    2    0  503 -0.12363053056E+02 -0.16218261522E+02  0.44458393939E+02  0.48912430723E+02  0.00000000000E+00 0.  1.
</event>
<event>
 4    1  0.1874565E+004  0.2121267E+02  0.7546771E-02  0.1516250E+00
         21   -1    0    0  503  502  0.00000000000E+00  0.00000000000E+00  0.13479060216E+02  0.13479060216E+02  0.00000000000E+00 0. -1.
         21   -1    0    0  501  503 -0.00000000000E+00 -0.00000000000E+00 -0.41228592962E+02  0.41228592962E+02  0.00000000000E+00 0.  1.
          2    1    1    2  501    0 -0.20972704463E+02  0.31816928471E+01 -0.25806933485E+02  0.33406216753E+02  0.00000000000E+00 0.  1.
         -2    1    1    2    0  502  0.20972704463E+02 -0.31816928471E+01 -0.19425992618E+01  0.21301436425E+02  0.00000000000E+00 0. -1.
</event>
<event>
 4    1  0.1874565E+004  0.2489213E+02  0.7546771E-02  0.1470014E+00
         21   -1    0    0  501  502  0.00000000000E+00  0.00000000000E+00  0.76751062571E+02  0.76751062571E+02  0.00000000000E+00 0. -1.
         21   -1    0    0  502  503 -0.00000000000E+00 -0.00000000000E+00 -0.12554777628E+02  0.12554777628E+02  0.00000000000E+00 0.  1.
          2    1    1    2  501    0  0.24841658626E+02  0.15843953218E+01  0.58776930482E+02  0.63830602917E+02  0.00000000000E+00 0. -1.
         -2    1    1    2    0  503 -0.24841658626E+02 -0.15843953218E+01  0.54193544603E+01  0.25475237282E+02  0.00000000000E+00 0.  1.
</event>
<event>
 4    1  0.1874565E+004  0.2214467E+02  0.7546771E-02  0.1503527E+00
         21   -1    0    0  503  502  0.00000000000E+00  0.00000000000E+00  0.32081680496E+02  0.32081680496E+02  0.00000000000E+00 0. -1.
         21   -1    0    0  501  503 -0.00000000000E+00 -0.00000000000E+00 -0.50263475837E+02  0.50263475837E+02  0.00000000000E+00 0.  1.
          2    1    1    2  501    0  0.22072068108E+02 -0.17917641675E+01 -0.43437101080E+02  0.48756213549E+02  0.00000000000E+00 0. -1.
         -2    1    1    2    0  502 -0.22072068108E+02  0.17917641675E+01  0.25255305739E+02  0.33588942785E+02  0.00000000000E+00 0.  1.
</event>
<event>
 4    1  0.1874565E+004  0.2254740E+02  0.7546771E-02  0.1498261E+00
         21   -1    0    0  501  502  0.00000000000E+00  0.00000000000E+00  0.13746220305E+03  0.13746220305E+03  0.00000000000E+00 0. -1.
         21   -1    0    0  502  503 -0.00000000000E+00 -0.00000000000E+00 -0.43920893281E+01  0.43920893281E+01  0.00000000000E+00 0.  1.
          2    1    1    2  501    0  0.56199526460E+01 -0.21835782607E+02  0.94723472342E+02  0.97370023531E+02  0.00000000000E+00 0. -1.
         -2    1    1    2    0  503 -0.56199526460E+01  0.21835782607E+02  0.38346641379E+02  0.44484268847E+02  0.00000000000E+00 0.  1.
</event>
<event>
 4    1  0.1874565E+004  0.2492510E+02  0.7546771E-02  0.1469643E+00
         21   -1    0    0  503  502  0.00000000000E+00  0.00000000000E+00  0.86231410408E+01  0.86231410408E+01  0.00000000000E+00 0. -1.
         21   -1    0    0  501  503 -0.00000000000E+00 -0.00000000000E+00 -0.15051827857E+03  0.15051827857E+03  0.00000000000E+00 0.  1.
          2    1    1    2  501    0  0.93174473184E+01 -0.23118082740E+02 -0.12840119741E+03  0.13079804307E+03  0.00000000000E+00 0.  1.
         -2    1    1    2    0  502 -0.93174473184E+01  0.23118082740E+02 -0.13493940126E+02  0.28343376549E+02  0.00000000000E+00 0. -1.
</event>
<event>
 4    1  0.1874565E+004  0.2039279E+02  0.7546771E-02  0.1528113E+00
         21   -1    0    0  503  502  0.00000000000E+00  0.00000000000E+00  0.44167815196E+01  0.44167815196E+01  0.00000000000E+00 0.  1.
         21   -1    0    0  501  503 -0.00000000000E+00 -0.00000000000E+00 -0.10649945577E+03  0.10649945577E+03  0.00000000000E+00 0. -1.
          2    1    1    2  501    0 -0.15889699020E+02  0.12782157385E+02 -0.69921746553E+02  0.72834859260E+02  0.00000000000E+00 0. -1.
         -2    1    1    2    0  502  0.15889699020E+02 -0.12782157385E+02 -0.32160927701E+02  0.38081378034E+02  0.00000000000E+00 0.  1.
</event>
<event>
 4    1  0.1874565E+004  0.2914927E+02  0.7546771E-02  0.1427136E+00
         21   -1    0    0  503  502  0.00000000000E+00  0.00000000000E+00  0.12050503698E+03  0.12050503698E+03  0.00000000000E+00 0. -1.
         21   -1    0    0  501  503 -0.00000000000E+00 -0.00000000000E+00 -0.75749136682E+01  0.75749136682E+01  0.00000000000E+00 0.  1.
          2    1    1    2  501    0 -0.25984463693E+02  0.13209365642E+02  0.73307180302E+02  0.78889938382E+02  0.00000000000E+00 0. -1.
         -2    1    1    2    0  502  0.25984463693E+02 -0.13209365642E+02  0.39622943012E+02  0.49190012269E+02  0.00000000000E+00 0.  1.
</event>
<event>
 4    1  0.1874565E+004  0.6933236E+02  0.7546771E-02  0.1231046E+00
         21   -1    0    0  503  502  0.00000000000E+00  0.00000000000E+00  0.11274012156E+03  0.11274012156E+03  0.00000000000E+00 0.  1.
         21   -1    0    0  501  503 -0.00000000000E+00 -0.00000000000E+00 -0.89763482908E+02  0.89763482908E+02  0.00000000000E+00 0. -1.
          2    1    1    2  501    0  0.59232707445E+02 -0.36034182771E+02 -0.61875570101E+02  0.92927725327E+02  0.00000000000E+00 0. -1.
         -2    1    1    2    0  502 -0.59232707445E+02  0.36034182771E+02  0.84852208754E+02  0.10957587914E+03  0.00000000000E+00 0.  1.
</event>
<event>
 4    1  0.1874565E+004  0.2852541E+02  0.7546771E-02  0.1432859E+00
         21   -1    0    0  501  502  0.00000000000E+00  0.00000000000E+00  0.92111415878E+01  0.92111415878E+01  0.00000000000E+00 0. -1.
         21   -1    0    0  502  503 -0.00000000000E+00 -0.00000000000E+00 -0.22019530815E+03  0.22019530815E+03  0.00000000000E+00 0.  1.
          2    1    1    2  501    0  0.20175890433E+02 -0.20165132316E+02 -0.16730967162E+02  0.33069992111E+02  0.00000000000E+00 0.  1.
         -2    1    1    2    0  503 -0.20175890433E+02  0.20165132316E+02 -0.19425319940E+03  0.19633645763E+03  0.00000000000E+00 0. -1.
</event>
<event>
 4    1  0.1874565E+004  0.2981385E+02  0.7546771E-02  0.1421221E+00
         21   -1    0    0  503  502  0.00000000000E+00  0.00000000000E+00  0.47042660721E+02  0.47042660721E+02  0.00000000000E+00 0. -1.
         21   -1    0    0  501  503 -0.00000000000E+00 -0.00000000000E+00 -0.40532164246E+02  0.40532164246E+02  0.00000000000E+00 0.  1.
          2    1    1    2  501    0  0.12283318067E+02 -0.27165888776E+02 -0.28737442176E+02  0.41409008665E+02  0.00000000000E+00 0.  1.
         -2    1    1    2    0  502 -0.12283318067E+02  0.27165888776E+02  0.35247938652E+02  0.46165816303E+02  0.00000000000E+00 0. -1.
</event>
<event>
 4    1  0.1874565E+004  0.3445376E+02  0.7546771E-02  0.1384445E+00
         21   -1    0    0  503  502  0.00000000000E+00  0.00000000000E+00  0.18136858954E+02  0.18136858954E+02  0.00000000000E+00 0.  1.
         21   -1    0    0  501  503 -0.00000000000E+00 -0.00000000000E+00 -0.15292328484E+03  0.15292328484E+03  0.00000000000E+00 0. -1.
          2    1    1    2  501    0  0.33904619954E+02 -0.61268438469E+01 -0.13208053780E+03  0.13650029281E+03  0.00000000000E+00 0. -1.
         -2    1    1    2    0  502 -0.33904619954E+02  0.61268438469E+01 -0.27058880795E+01  0.34559850984E+02  0.00000000000E+00 0.  1.
</event>
<event>
 4    1  0.1874565E+004  0.2588411E+02  0.7546771E-02  0.1459151E+00
         21   -1    0    0  503  502  0.00000000000E+00  0.00000000000E+00  0.22749025976E+02  0.22749025976E+02  0.00000000000E+00 0. -1.
         21   -1    0    0  501  503 -0.00000000000E+00 -0.00000000000E+00 -0.31608237095E+02  0.31608237095E+02  0.00000000000E+00 0.  1.
          2    1    1    2  501    0 -0.24564198377E+02 -0.81601063892E+01 -0.11529494342E+02  0.28335779819E+02  0.00000000000E+00 0.  1.
         -2    1    1    2    0  502  0.24564198377E+02  0.81601063892E+01  0.26702832233E+01  0.26021483252E+02  0.00000000000E+00 0. -1.
</event>
<event>
 4    1  0.1874565E+004  0.2835522E+02  0.7546771E-02  0.1434450E+00
         21   -1    0    0  503  502  0.00000000000E+00  0.00000000000E+00  0.37792402705E+01  0.37792402705E+01  0.00000000000E+00 0.  1.
         21   -1    0    0  501  503 -0.00000000000E+00 -0.00000000000E+00 -0.21274653695E+03  0.21274653695E+03  0.00000000000E+00 0. -1.
          2    1    1    2  501    0 -0.16871148592E+00  0.28354722211E+02 -0.10463370577E+03  0.10840770783E+03  0.00000000000E+00 0.  1.
         -2    1    1    2    0  502  0.16871148592E+00 -0.28354722211E+02 -0.10433359092E+03  0.10811806939E+03  0.00000000000E+00 0. -1.
</event>
<event>
 4    1  0.1874565E+004  0.2430204E+02  0.7546771E-02  0.1476765E+00
         21   -1    0    0  503  502  0.00000000000E+00  0.00000000000E+00  0.40319046637E+01  0.40319046637E+01  0.00000000000E+00 0. -1.
         21   -1    0    0  501  503 -0.00000000000E+00 -0.00000000000E+00 -0.14649472695E+03  0.14649472695E+03  0.00000000000E+00 0.  1.
          2    1    1    2  501    0  0.17911356634E+02 -0.16424756292E+02 -0.72011523814E+02  0.76001637336E+02  0.00000000000E+00 0. -1.
         -2    1    1    2    0  502 -0.17911356634E+02  0.16424756292E+02 -0.70451298475E+02  0.74524994280E+02  0.00000000000E+00 0.  1.
</event>
<event>
 4    1  0.1874565E+004  0.2118999E+02  0.7546771E-02  0.1516569E+00
         21   -1    0    0  503  502  0.00000000000E+00  0.00000000000E+00  0.29775993228E+02  0.29775993228E+02  0.00000000000E+00 0.  1.
         21   -1    0    0  501  503 -0.00000000000E+00 -0.00000000000E+00 -0.15638702331E+03  0.15638702331E+03  0.00000000000E+00 0. -1.
          2    1    1    2  501    0 -0.18782236944E+02 -0.98103717755E+01 -0.15178554215E+03  0.15325751735E+03  0.00000000000E+00 0. -1.
         -2    1    1    2    0  502  0.18782236944E+02  0.98103717755E+01  0.25174512067E+02  0.32905499188E+02  0.00000000000E+00 0.  1.
</event>
<event>
 4    1  0.1874565E+004  0.2840998E+02  0.7546771E-02  0.1433937E+00
         21   -1    0    0  501  502  0.00000000000E+00  0.00000000000E+00  0.24200591182E+03  0.24200591182E+03  0.00000000000E+00 0. -1.
         21   -1    0    0  502  503 -0.00000000000E+00 -0.00000000000E+00 -0.37265499362E+01  0.37265499362E+01  0.00000000000E+00 0.  1.
          2    1    1    2  501    0  0.58491022983E+01  0.27801344840E+02  0.15895843859E+03  0.16147728004E+03  0.00000000000E+00 0.  1.
         -2    1    1    2    0  503 -0.58491022983E+01 -0.27801344840E+02  0.79320923300E+02  0.84255181715E+02  0.00000000000E+00 0. -1.
</event>
<event>
 4    1  0.1874565E+004  0.2682031E+02  0.7546771E-02  0.1449422E+00
         21   -1    0    0  501  502  0.00000000000E+00  0.00000000000E+00  0.41629165890E+01  0.41629165890E+01  0.00000000000E+00 0.  1.
         21   -1    0    0  502  503 -0.00000000000E+00 -0.00000000000E+00 -0.41481203653E+03  0.41481203653E+03  0.00000000000E+00 0. -1.
          2    1    1    2  501    0 -0.58849579358E+01 -0.26166701414E+02 -0.45311352935E+02  0.52654037809E+02  0.00000000000E+00 0.  1.
         -2    1    1    2    0  503  0.58849579358E+01  0.26166701414E+02 -0.36533776700E+03  0.36632091531E+03  0.00000000000E+00 0. -1.
</event>
<event>
 4    1  0.1874565E+004  0.3113469E+02  0.7546771E-02  0.1409986E+00
         21   -1    0    0  501  502  0.00000000000E+00  0.00000000000E+00  0.16726327454E+03  0.16726327454E+03  0.00000000000E+00 0. -1.
         21   -1    0    0  502  503 -0.00000000000E+00 -0.00000000000E+00 -0.12957854714E+02  0.12957854714E+02  0.00000000000E+00 0.  1.
          2    1    1    2  501    0  0.40543819116E+01 -0.30869579852E+02  0.14414703828E+03  0.14747114164E+03  0.00000000000E+00 0. -1.
         -2    1    1    2    0  503 -0.40543819116E+01  0.30869579852E+02  0.10158381550E+02  0.32749987613E+02  0.00000000000E+00 0.  1.
</event>
<event>
 4    1  0.1874565E+004  0.2201962E+02  0.7546771E-02  0.1505190E+00
         21   -1    0    0  501  502  0.00000000000E+00  0.00000000000E+00  0.92797231299E+01  0.92797231299E+01  0.00000000000E+00 0. -1.
         21   -1    0    0  502  503 -0.00000000000E+00 -0.00000000000E+00 -0.76732127789E+02  0.76732127789E+02  0.00000000000E+00 0.  1.
          2    1    1    2  501    0  0.18487735258E+02 -0.11961074525E+02 -0.94340470087E+01  0.23955477489E+02  0.00000000000E+00 0. -1.
         -2    1    1    2    0  503 -0.18487735258E+02  0.11961074525E+02 -0.58018357650E+02  0.62056373430E+02  0.00000000000E+00 0.  1.
</event>
<event>
 4    1  0.1874565E+004  0.2435354E+02  0.7546771E-02  0.1476167E+00
         21   -1    0    0  503  502  0.00000000000E+00  0.00000000000E+00  0.18361541025E+03  0.18361541025E+03  0.00000000000E+00 0.  1.
         21   -1    0    0  501  503 -0.00000000000E+00 -0.00000000000E+00 -0.42588002900E+01  0.42588002900E+01  0.00000000000E+00 0. -1.
          2    1    1    2  501    0 -0.14677600702E+00 -0.24353100569E+02  0.43510501223E+02  0.49862398330E+02  0.00000000000E+00 0. -1.
         -2    1    1    2    0  502  0.14677600702E+00  0.24353100569E+02  0.13584610874E+03  0.13801181221E+03  0.00000000000E+00 0.  1.
</event>
<event>
 4    1  0.1874565E+004  0.3073423E+02  0.7546771E-02  0.1413321E+00
         21   -1    0    0  501  502  0.00000000000E+00  0.00000000000E+00  0.56034486342E+02  0.56034486342E+02  0.00000000000E+00 0.  1.
         21   -1    0    0  502  503 -0.00000000000E+00 -0.00000000000E+00 -0.45219138059E+02  0.45219138059E+02  0.00000000000E+00 0. -1.
          2    1    1    2  501    0 -0.30269597699E+02 -0.53239612585E+01  0.45502305433E+02  0.54909497431E+02  0.00000000000E+00 0.  1.
         -2    1    1    2    0  503  0.30269597699E+02  0.53239612585E+01 -0.34686957150E+02  0.46344126970E+02  0.00000000000E+00 0. -1.
</event>
<event>
 4    1  0.1874565E+004  0.2349174E+02  0.7546771E-02  0.1486414E+00
         21   -1    0    0  501  502  0.00000000000E+00  0.00000000000E+00  0.99932066135E+02  0.99932066135E+02  0.00000000000E+00 0. -1.
         21   -1    0    0  502  503 -0.00000000000E+00 -0.00000000000E+00 -0.31138950165E+02  0.31138950165E+02  0.00000000000E+00 0.  1.
          2    1    1    2  501    0 -0.23413998076E+02 -0.19095647318E+01  0.93837443661E+02  0.96733280603E+02  0.00000000000E+00 0. -1.
         -2    1    1    2    0  503  0.23413998076E+02  0.19095647318E+01 -0.25044327691E+02  0.34337735698E+02  0.00000000000E+00 0.  1.
</event>
<event>
 4    1  0.1874565E+004  0.3559071E+02  0.7546771E-02  0.1376457E+00
         21   -1    0    0  501  502  0.00000000000E+00  0.00000000000E+00  0.32829725559E+03  0.32829725559E+03  0.00000000000E+00 0. -1.
         21   -1    0    0  502  503 -0.00000000000E+00 -0.00000000000E+00 -0.50664698996E+01  0.50664698996E+01  0.00000000000E+00 0.  1.
          2    1    1    2  501    0  0.86628284977E+01  0.34520340245E+02  0.24300775226E+03  0.24560021610E+03  0.00000000000E+00 0. -1.
         -2    1    1    2    0  503 -0.86628284977E+01 -0.34520340245E+02  0.80223033432E+02  0.87763509395E+02  0.00000000000E+00 0.  1.
</event>
<event>
 4    1  0.1874565E+004  0.3182248E+02  0.7546771E-02  0.1404393E+00
         21   -1    0    0  501  502  0.00000000000E+00  0.00000000000E+00  0.82661865700E+03  0.82661865700E+03  0.00000000000E+00 0.  1.
         21   -1    0    0  502  503 -0.00000000000E+00 -0.00000000000E+00 -0.22027780418E+01  0.22027780418E+01  0.00000000000E+00 0. -1.
          2    1    1    2  501    0 -0.27917783971E+02  0.15273102367E+02  0.68829685266E+03  0.68903209483E+03  0.00000000000E+00 0.  1.
         -2    1    1    2    0  503  0.27917783971E+02 -0.15273102367E+02  0.13611902630E+03  0.13978934022E+03  0.00000000000E+00 0. -1.
</event>
<event>
 4    1  0.1874565E+004  0.2618202E+02  0.7546771E-02  0.1456002E+00
         21   -1    0    0  503  502  0.00000000000E+00  0.00000000000E+00  0.16317718150E+02  0.16317718150E+02  0.00000000000E+00 0. -1.
         21   -1    0    0  501  503 -0.00000000000E+00 -0.00000000000E+00 -0.62935349782E+02  0.62935349782E+02  0.00000000000E+00 0.  1.
          2    1    1    2  501    0  0.10446562862E+02 -0.24007653984E+02 -0.46158541198E+02  0.53067024140E+02  0.00000000000E+00 0.  1.
         -2    1    1    2    0  502 -0.10446562862E+02  0.24007653984E+02 -0.45909043310E+00  0.26186043792E+02  0.00000000000E+00 0. -1.
</event>
<event>
 4    1  0.1874565E+004  0.2128254E+02  0.7546771E-02  0.1515269E+00
         21   -1    0    0  503  502  0.00000000000E+00  0.00000000000E+00  0.63287664847E+01  0.63287664847E+01  0.00000000000E+00 0.  1.
         21   -1    0    0  501  503 -0.00000000000E+00 -0.00000000000E+00 -0.32266451183E+03  0.32266451183E+03  0.00000000000E+00 0. -1.
          2    1    1    2  501    0 -0.46653403551E+01  0.20764899745E+02 -0.30327892677E+03  0.30402475867E+03  0.00000000000E+00 0. -1.
         -2    1    1    2    0  502  0.46653403551E+01 -0.20764899745E+02 -0.13056818582E+02  0.24968519651E+02  0.00000000000E+00 0.  1.
</event>
<event>
 4    1  0.1874565E+004  0.2285404E+02  0.7546771E-02  0.1494339E+00
         21   -1    0    0  501  502  0.00000000000E+00  0.00000000000E+00  0.21377426994E+02  0.21377426994E+02  0.00000000000E+00 0.  1.
         21   -1    0    0  502  503 -0.00000000000E+00 -0.00000000000E+00 -0.27191239357E+02  0.27191239357E+02  0.00000000000E+00 0. -1.
          2    1    1    2  501    0 -0.45089275268E+01  0.22404833118E+02  0.48280170738E+01  0.23358440088E+02  0.00000000000E+00 0.  1.
         -2    1    1    2    0  503  0.45089275268E+01 -0.22404833118E+02 -0.10641829437E+02  0.25210226263E+02  0.00000000000E+00 0. -1.
</event>
<event>
 4    1  0.1874565E+004  0.3228236E+02  0.7546771E-02  0.1400747E+00
         21   -1    0    0  501  502  0.00000000000E+00  0.00000000000E+00  0.26879613811E+03  0.26879613811E+03  0.00000000000E+00 0.  1.
         21   -1    0    0  502  503 -0.00000000000E+00 -0.00000000000E+00 -0.47048728788E+01  0.47048728788E+01  0.00000000000E+00 0. -1.
          2    1    1    2  501    0  0.27441530705E+02  0.17003330630E+02  0.18940564940E+03  0.19213706275E+03  0.00000000000E+00 0. -1.
         -2    1    1    2    0  503 -0.27441530705E+02 -0.17003330630E+02  0.74685615837E+02  0.81363948239E+02  0.00000000000E+00 0.  1.
</event>
<event>
 4    1  0.1874565E+004  0.2635350E+02  0.7546771E-02  0.1454213E+00
         21   -1    0    0  503  502  0.00000000000E+00  0.00000000000E+00  0.14768943022E+02  0.14768943022E+02  0.00000000000E+00 0.  1.
         21   -1    0    0  501  503 -0.00000000000E+00 -0.00000000000E+00 -0.47378681436E+02  0.47378681436E+02  0.00000000000E+00 0. -1.
          2    1    1    2  501    0  0.19305729427E+02  0.17938669641E+02 -0.18990291599E+02  0.32482891377E+02  0.00000000000E+00 0. -1.
         -2    1    1    2    0  502 -0.19305729427E+02 -0.17938669641E+02 -0.13619446814E+02  0.29664733081E+02  0.00000000000E+00 0.  1.
</event>
<event>
 4    1  0.1874565E+004  0.2421380E+02  0.7546771E-02  0.1477794E+00
         21   -1    0    0  503  502  0.00000000000E+00  0.00000000000E+00  0.83671839098E+01  0.83671839098E+01  0.00000000000E+00 0.  1.
         21   -1    0    0  501  503 -0.00000000000E+00 -0.00000000000E+00 -0.93348877547E+02  0.93348877547E+02  0.00000000000E+00 0. -1.
          2    1    1    2  501    0 -0.23437849523E+02 -0.60807379447E+01 -0.67886779631E+02  0.72075814341E+02  0.00000000000E+00 0. -1.
         -2    1    1    2    0  502  0.23437849523E+02  0.60807379447E+01 -0.17094914006E+02  0.29640247116E+02  0.00000000000E+00 0.  1.
</event>
<event>
 4    1  0.1874565E+004  0.2373650E+02  0.7546771E-02  0.1483451E+00
         21   -1    0    0  501  502  0.00000000000E+00  0.00000000000E+00  0.10622238470E+02  0.10622238470E+02  0.00000000000E+00 0.  1.
         21   -1    0    0  502  503 -0.00000000000E+00 -0.00000000000E+00 -0.10006442225E+03  0.10006442225E+03  0.00000000000E+00 0. -1.
          2    1    1    2  501    0 -0.21745973390E+02 -0.95149510850E+01 -0.67826667697E+01  0.24686559528E+02  0.00000000000E+00 0.  1.
         -2    1    1    2    0  503  0.21745973390E+02  0.95149510850E+01 -0.82659517012E+02  0.86000101195E+02  0.00000000000E+00 0. -1.
</event>
<event>
 4    1  0.1874565E+004  0.2334666E+02  0.7546771E-02  0.1488190E+00
         21   -1    0    0  501  502  0.00000000000E+00  0.00000000000E+00  0.18536139813E+03  0.18536139813E+03  0.00000000000E+00 0.  1.
         21   -1    0    0  502  503 -0.00000000000E+00 -0.00000000000E+00 -0.82559838601E+01  0.82559838601E+01  0.00000000000E+00 0. -1.
          2    1    1    2  501    0  0.10734033740E+02 -0.20732747848E+02  0.16623085839E+03  0.16786233823E+03  0.00000000000E+00 0.  1.
         -2    1    1    2    0  503 -0.10734033740E+02  0.20732747848E+02  0.10874555878E+02  0.25755043762E+02  0.00000000000E+00 0. -1.
</event>
<event>
 4    1  0.1874565E+004  0.3100093E+02  0.7546771E-02  0.1411093E+00
         21   -1    0    0  503  502  0.00000000000E+00  0.00000000000E+00  0.53370818135E+03  0.53370818135E+03  0.00000000000E+00 0.  1.
         21   -1    0    0  501  503 -0.00000000000E+00 -0.00000000000E+00 -0.21434256450E+01  0.21434256450E+01  0.00000000000E+00 0. -1.
          2    1    1    2  501    0 -0.36481124187E+01 -0.30785533398E+02  0.15864959384E+03  0.16165008945E+03  0.00000000000E+00 0. -1.
         -2    1    1    2    0  502  0.36481124187E+01  0.30785533398E+02  0.37291516186E+03  0.37420151755E+03  0.00000000000E+00 0.  1.
</event>
<event>
 4    1  0.1874565E+004  0.2697944E+02  0.7546771E-02  0.1447815E+00
         21   -1    0    0  503  502  0.00000000000E+00  0.00000000000E+00  0.87413281273E+02  0.87413281273E+02  0.00000000000E+00 0.  1.
         21   -1    0    0  501  503 -0.00000000000E+00 -0.00000000000E+00 -0.87016946866E+01  0.87016946866E+01  0.00000000000E+00 0. -1.
          2    1    1    2  501    0  0.25776175696E+02 -0.79673592289E+01  0.29383381348E+02  0.39890765172E+02  0.00000000000E+00 0. -1.
         -2    1    1    2    0  502 -0.25776175696E+02  0.79673592289E+01  0.49328205239E+02  0.56224210787E+02  0.00000000000E+00 0.  1.
</event>
<event>
 4    1  0.1874565E+004  0.2192741E+02  0.7546771E-02  0.1506424E+00
         21   -1    0    0  501  502  0.00000000000E+00  0.00000000000E+00  0.37302524402E+01  0.37302524402E+01  0.00000000000E+00 0.  1.
         21   -1    0    0  502  503 -0.00000000000E+00 -0.00000000000E+00 -0.20527822151E+03  0.20527822151E+03  0.00000000000E+00 0. -1.
          2    1    1    2  501    0  0.52065129744E+01 -0.21300318800E+02 -0.37026788359E+02  0.43032480925E+02  0.00000000000E+00 0.  1.
         -2    1    1    2    0  503 -0.52065129744E+01  0.21300318800E+02 -0.16452118071E+03  0.16597599302E+03  0.00000000000E+00 0. -1.
</event>
<event>
 4    1  0.1874565E+004  0.2069502E+02  0.7546771E-02  0.1523664E+00
         21   -1    0    0  503  502  0.00000000000E+00  0.00000000000E+00  0.89749627891E+00  0.89749627891E+00  0.00000000000E+00 0. -1.
         21   -1    0    0  501  503 -0.00000000000E+00 -0.00000000000E+00 -0.88512270512E+03  0.88512270512E+03  0.00000000000E+00 0.  1.
          2    1    1    2  501    0  0.19150502149E+02  0.78448802195E+01 -0.74285982714E+03  0.74314803818E+03  0.00000000000E+00 0.  1.
         -2    1    1    2    0  502 -0.19150502149E+02 -0.78448802195E+01 -0.14136538171E+03  0.14287216322E+03  0.00000000000E+00 0. -1.
</event>
<event>
 4    1  0.1874565E+004  0.2437228E+02  0.7546771E-02  0.1475950E+00
         21   -1    0    0  501  502  0.00000000000E+00  0.00000000000E+00  0.79111327335E+02  0.79111327335E+02  0.00000000000E+00 0. -1.
         21   -1    0    0  502  503 -0.00000000000E+00 -0.00000000000E+00 -0.31713692874E+02  0.31713692874E+02  0.00000000000E+00 0.  1.
          2    1    1    2  501    0 -0.22232588900E+02 -0.99859926463E+01  0.72109210952E+02  0.76116662844E+02  0.00000000000E+00 0. -1.
         -2    1    1    2    0  503  0.22232588900E+02  0.99859926463E+01 -0.24711576491E+02  0.34708357365E+02  0.00000000000E+00 0.  1.
</event>
<event>
 4    1  0.1874565E+004  0.2381463E+02  0.7546771E-02  0.1482515E+00
         21   -1    0    0  501  502  0.00000000000E+00  0.00000000000E+00  0.30959585511E+02  0.30959585511E+02  0.00000000000E+00 0. -1.
         21   -1    0    0  502  503 -0.00000000000E+00 -0.00000000000E+00 -0.19062939454E+02  0.19062939454E+02  0.00000000000E+00 0.  1.
          2    1    1    2  501    0  0.23591962513E+02 -0.32489671130E+01  0.10890566454E+02  0.26186655384E+02  0.00000000000E+00 0. -1.
         -2    1    1    2    0  503 -0.23591962513E+02  0.32489671130E+01  0.10060796031E+01  0.23835869581E+02  0.00000000000E+00 0.  1.
</event>
<event>
 4    1  0.1874565E+004  0.2622171E+02  0.7546771E-02  0.1455587E+00
         21   -1    0    0  503  502  0.00000000000E+00  0.00000000000E+00  0.25919053898E+02  0.25919053898E+02  0.00000000000E+00 0.  1.
         21   -1    0    0  501  503 -0.00000000000E+00 -0.00000000000E+00 -0.94537840668E+02  0.94537840668E+02  0.00000000000E+00 0. -1.
          2    1    1    2  501    0  0.26216368736E+02 -0.52912481774E+00 -0.85393410177E+02  0.89328676608E+02  0.00000000000E+00 0. -1.
         -2    1    1    2    0  502 -0.26216368736E+02  0.52912481774E+00  0.16774623408E+02  0.31128217958E+02  0.00000000000E+00 0.  1.
</event>
<event>
 4    1  0.1874565E+004  0.2976395E+02  0.7546771E-02  0.1421659E+00
         21   -1    0    0  501  502  0.00000000000E+00  0.00000000000E+00  0.13104398976E+02  0.13104398976E+02  0.00000000000E+00 0. -1.
         21   -1    0    0  502  503 -0.00000000000E+00 -0.00000000000E+00 -0.68973240646E+02  0.68973240646E+02  0.00000000000E+00 0.  1.
          2    1    1    2  501    0  0.64951633690E+01 -0.29046613881E+02 -0.22149486659E+02  0.37101114328E+02  0.00000000000E+00 0. -1.
         -2    1    1    2    0  503 -0.64951633690E+01  0.29046613881E+02 -0.33719355012E+02  0.44976525294E+02  0.00000000000E+00 0.  1.
</event>
<event>
 4    1  0.1874565E+004  0.3044832E+02  0.7546771E-02  0.1415740E+00
         21   -1    0    0  503  502  0.00000000000E+00  0.00000000000E+00  0.11119782633E+03  0.11119782633E+03  0.00000000000E+00 0.  1.
         21   -1    0    0  501  503 -0.00000000000E+00 -0.00000000000E+00 -0.19524607029E+02  0.19524607029E+02  0.00000000000E+00 0. -1.
          2    1    1    2  501    0 -0.15700772532E+02 -0.26088045567E+02 -0.36388548824E+01  0.30664990534E+02  0.00000000000E+00 0. -1.
         -2    1    1    2    0  502  0.15700772532E+02  0.26088045567E+02  0.95312074185E+02  0.10005744283E+03  0.00000000000E+00 0.  1.
</event>
<event>
 4    1  0.1874565E+004  0.2871372E+02  0.7546771E-02  0.1431113E+00
         21   -1    0    0  501  502  0.00000000000E+00  0.00000000000E+00  0.15260603572E+03  0.15260603572E+03  0.00000000000E+00 0. -1.
         21   -1    0    0  502  503 -0.00000000000E+00 -0.00000000000E+00 -0.85304006370E+01  0.85304006370E+01  0.00000000000E+00 0.  1.
          2    1    1    2  501    0 -0.77394864134E+01  0.27651006528E+02  0.12082376407E+03  0.12418880697E+03  0.00000000000E+00 0. -1.
         -2    1    1    2    0  503  0.77394864134E+01 -0.27651006528E+02  0.23251871015E+02  0.36947629391E+02  0.00000000000E+00 0.  1.
</event>
<event>
 4    1  0.1874565E+004  0.3111313E+02  0.7546771E-02  0.1410164E+00
         21   -1    0    0  503  502  0.00000000000E+00  0.00000000000E+00  0.22493901012E+02  0.22493901012E+02  0.00000000000E+00 0.  1.
         21   -1    0    0  501  503 -0.00000000000E+00 -0.00000000000E+00 -0.98035830219E+02  0.98035830219E+02  0.00000000000E+00 0. -1.
          2    1    1    2  501    0  0.30934396148E+02  0.33301627583E+01 -0.82910395594E+02  0.88555974088E+02  0.00000000000E+00 0. -1.
         -2    1    1    2    0  502 -0.30934396148E+02 -0.33301627583E+01  0.73684663870E+01  0.31973757144E+02  0.00000000000E+00 0.  1.
</event>
<event>
 4    1  0.1874565E+004  0.2072744E+02  0.7546771E-02  0.1523192E+00
         21   -1    0    0  503  502  0.00000000000E+00  0.00000000000E+00  0.64317399298E+01  0.64317399298E+01  0.00000000000E+00 0. -1.
         21   -1    0    0  501  503 -0.00000000000E+00 -0.00000000000E+00 -0.10252949499E+04  0.10252949499E+04  0.00000000000E+00 0.  1.
          2    1    1    2  501    0 -0.19595971214E+02  0.67545953076E+01 -0.10082077262E+04  0.10084207683E+04  0.00000000000E+00 0.  1.
         -2    1    1    2    0  502  0.19595971214E+02 -0.67545953076E+01 -0.10655483721E+02  0.23305921542E+02  0.00000000000E+00 0. -1.
</event>
<event>
 4    1  0.1874565E+004  0.3036239E+02  0.7546771E-02  0.1416473E+00
         21   -1    0    0  501  502  0.00000000000E+00  0.00000000000E+00  0.94831235135E+01  0.94831235135E+01  0.00000000000E+00 0.  1.
         21   -1    0    0  502  503 -0.00000000000E+00 -0.00000000000E+00 -0.16373661831E+03  0.16373661831E+03  0.00000000000E+00 0. -1.
          2    1    1    2  501    0  0.25515186353E+01  0.30254992745E+02 -0.13233260824E+03  0.13577110900E+03  0.00000000000E+00 0. -1.
         -2    1    1    2    0  503 -0.25515186353E+01 -0.30254992745E+02 -0.21920886551E+02  0.37448632826E+02  0.00000000000E+00 0.  1.
</event>
<event>
 4    1  0.1874565E+004  0.2018517E+02  0.7546771E-02  0.1531224E+00
         21   -1    0    0  503  502  0.00000000000E+00  0.00000000000E+00  0.38648335844E+02  0.38648335844E+02  0.00000000000E+00 0. -1.
         21   -1    0    0  501  503 -0.00000000000E+00 -0.00000000000E+00 -0.10988403106E+02  0.10988403106E+02  0.00000000000E+00 0.  1.
          2    1    1    2  501    0 -0.41232655669E+01 -0.19759552846E+02  0.88291895346E+01  0.22031700693E+02  0.00000000000E+00 0.  1.
         -2    1    1    2    0  502  0.41232655669E+01  0.19759552846E+02  0.18830743204E+02  0.27605038257E+02  0.00000000000E+00 0. -1.
</event>
<event>
 4    1  0.1874565E+004  0.2097560E+02  0.7546771E-02  0.1519613E+00
         21   -1    0    0  503  502  0.00000000000E+00  0.00000000000E+00  0.12563562985E+04  0.12563562985E+04  0.00000000000E+00 0. -1.
         21   -1    0    0  501  503 -0.00000000000E+00 -0.00000000000E+00 -0.38060359466E+00  0.38060359466E+00  0.00000000000E+00 0.  1.
          2    1    1    2  501    0  0.18803206926E+01  0.20891154418E+02  0.45038881067E+03  0.45087698624E+03  0.00000000000E+00 0. -1.
         -2    1    1    2    0  502 -0.18803206926E+01 -0.20891154418E+02  0.80558688422E+03  0.80585991584E+03  0.00000000000E+00 0.  1.
</event>
<event>
 4    1  0.1874565E+004  0.2420945E+02  0.7546771E-02  0.1477845E+00
         21   -1    0    0  501  502  0.00000000000E+00  0.00000000000E+00  0.32893399954E+02  0.32893399954E+02  0.00000000000E+00 0. -1.
         21   -1    0    0  502  503 -0.00000000000E+00 -0.00000000000E+00 -0.19368661484E+02  0.19368661484E+02  0.00000000000E+00 0.  1.
          2    1    1    2  501    0  0.24174009325E+02 -0.13094609252E+01 -0.63118484969E+00  0.24217675551E+02  0.00000000000E+00 0.  1.
         -2    1    1    2    0  503 -0.24174009325E+02  0.13094609252E+01  0.14155923319E+02  0.28044385887E+02  0.00000000000E+00 0. -1.
</event>
<event>
 4    1  0.1874565E+004  0.2177821E+02  0.7546771E-02  0.1508438E+00
         21   -1    0    0  501  502  0.00000000000E+00  0.00000000000E+00  0.30653679869E+01  0.30653679869E+01  0.00000000000E+00 0. -1.
         21   -1    0    0  502  503 -0.00000000000E+00 -0.00000000000E+00 -0.17556955321E+03  0.17556955321E+03  0.00000000000E+00 0.  1.
          2    1    1    2  501    0 -0.86231161377E+01 -0.19998312564E+02 -0.55476763498E+02  0.59598338278E+02  0.00000000000E+00 0.  1.
         -2    1    1    2    0  503  0.86231161377E+01  0.19998312564E+02 -0.11702742173E+03  0.11903658292E+03  0.00000000000E+00 0. -1.
</event>
<event>
 4    1  0.1874565E+004  0.2270337E+02  0.7546771E-02  0.1496257E+00
         21   -1    0    0  501  502  0.00000000000E+00  0.00000000000E+00  0.12423249965E+03  0.12423249965E+03  0.00000000000E+00 0. -1.
         21   -1    0    0  502  503 -0.00000000000E+00 -0.00000000000E+00 -0.36583906363E+02  0.36583906363E+02  0.00000000000E+00 0.  1.
          2    1    1    2  501    0  0.18091381820E+02  0.13716589600E+02  0.11953573887E+03  0.12167265836E+03  0.00000000000E+00 0. -1.
         -2    1    1    2    0  503 -0.18091381820E+02 -0.13716589600E+02 -0.31887145584E+02  0.39143747647E+02  0.00000000000E+00 0.  1.
</event>
<event>
 4    1  0.1874565E+004  0.2304107E+02  0.7546771E-02  0.1491983E+00
         21   -1    0    0  501  502  0.00000000000E+00  0.00000000000E+00  0.19879047353E+03  0.19879047353E+03  0.00000000000E+00 0. -1.
         21   -1    0    0  502  503 -0.00000000000E+00 -0.00000000000E+00 -0.60766348349E+01  0.60766348349E+01  0.00000000000E+00 0.  1.
          2    1    1    2  501    0 -0.17665285903E+02  0.14792860999E+02  0.17304622798E+03  0.17457344609E+03  0.00000000000E+00 0. -1.
         -2    1    1    2    0  503  0.17665285903E+02 -0.14792860999E+02  0.19667610714E+02  0.30293662271E+02  0.00000000000E+00 0.  1.
</event>
<event>
 4    1  0.1874565E+004  0.2479645E+02  0.7546771E-02  0.1471093E+00
         21   -1    0    0  503  502  0.00000000000E+00  0.00000000000E+00  0.48107395501E+02  0.48107395501E+02  0.00000000000E+00 0.  1.
         21   -1    0    0  501  503 -0.00000000000E+00 -0.00000000000E+00 -0.13163870854E+02  0.13163870854E+02  0.00000000000E+00 0. -1.
          2    1    1    2  501    0 -0.52663036537E+00  0.24790859113E+02  0.12247548252E+02  0.27656219432E+02  0.00000000000E+00 0.  1.
         -2    1    1    2    0  502  0.52663036537E+00 -0.24790859113E+02  0.22695976395E+02  0.33615046923E+02  0.00000000000E+00 0. -1.
</event>
<event>
 4    1  0.1874565E+004  0.2286348E+02  0.7546771E-02  0.1494220E+00
         21   -1    0    0  501  502  0.00000000000E+00  0.00000000000E+00  0.31925833046E+03  0.31925833046E+03  0.00000000000E+00 0. -1.
         21   -1    0    0  502  503 -0.00000000000E+00 -0.00000000000E+00 -0.68188187427E+01  0.68188187427E+01  0.00000000000E+00 0.  1.
          2    1    1    2  501    0 -0.22664795253E+01  0.22750863807E+02  0.29834201188E+03  0.29921680231E+03  0.00000000000E+00 0. -1.
         -2    1    1    2    0  503  0.22664795253E+01 -0.22750863807E+02  0.14097499837E+02  0.26860346890E+02  0.00000000000E+00 0.  1.
</event>
<event>
 4    1  0.1874565E+004  0.3003266E+02  0.7546771E-02  0.1419313E+00
         21   -1    0    0  503  502  0.00000000000E+00  0.00000000000E+00  0.41343617499E+02  0.41343617499E+02  0.00000000000E+00 0. -1.
         21   -1    0    0  501  503 -0.00000000000E+00 -0.00000000000E+00 -0.23634522620E+02  0.23634522620E+02  0.00000000000E+00 0.  1.
          2    1    1    2  501    0 -0.29425134161E+02  0.60101929349E+01 -0.15698051892E+00  0.30033074807E+02  0.00000000000E+00 0.  1.
         -2    1    1    2    0  502  0.29425134161E+02 -0.60101929349E+01  0.17866075398E+02  0.34945065311E+02  0.00000000000E+00 0. -1.
</event>
<event>
 4    1  0.1874565E+004  0.2107196E+02  0.7546771E-02  0.1518240E+00
         21   -1    0    0  501  502  0.00000000000E+00  0.00000000000E+00  0.37533366749E+02  0.37533366749E+02  0.00000000000E+00 0.  1.
         21   -1    0    0  502  503 -0.00000000000E+00 -0.00000000000E+00 -0.13120388289E+02  0.13120388289E+02  0.00000000000E+00 0. -1.
          2    1    1    2  501    0  0.83465789354E+00  0.21055423241E+02  0.20148558300E+02  0.29154620615E+02  0.00000000000E+00 0.  1.
         -2    1    1    2    0  503 -0.83465789354E+00 -0.21055423241E+02  0.42644201592E+01  0.21499134423E+02  0.00000000000E+00 0. -1.
</event>
<event>
 4    1  0.1874565E+004  0.6588931E+02  0.7546771E-02  0.1241037E+00
         21   -1    0    0  501  502  0.00000000000E+00  0.00000000000E+00  0.48602389070E+02  0.48602389070E+02  0.00000000000E+00 0. -1.
         21   -1    0    0  502  503 -0.00000000000E+00 -0.00000000000E+00 -0.27806981881E+03  0.27806981881E+03  0.00000000000E+00 0.  1.
          2    1    1    2  501    0  0.65473933447E+02  0.73868018527E+01  0.19834646632E+02  0.68809984811E+02  0.00000000000E+00 0. -1.
         -2    1    1    2    0  503 -0.65473933447E+02 -0.73868018527E+01 -0.24930207638E+03  0.25786222307E+03  0.00000000000E+00 0.  1.
</event>
<event>
 4    1  0.1874565E+004  0.2778983E+02  0.7546771E-02  0.1439831E+00
         21   -1    0    0  501  502  0.00000000000E+00  0.00000000000E+00  0.80124292764E+02  0.80124292764E+02  0.00000000000E+00 0. -1.
         21   -1    0    0  502  503 -0.00000000000E+00 -0.00000000000E+00 -0.10256547267E+02  0.10256547267E+02  0.00000000000E+00 0.  1.
          2    1    1    2  501    0 -0.25730938919E+02  0.10497311619E+02  0.46027428739E+02  0.53766150738E+02  0.00000000000E+00 0. -1.
         -2    1    1    2    0  503  0.25730938919E+02 -0.10497311619E+02  0.23840316759E+02  0.36614689293E+02  0.00000000000E+00 0.  1.
</event>
<event>
 4    1  0.1874565E+004  0.2486210E+02  0.7546771E-02  0.1470352E+00
         21   -1    0    0  501  502  0.00000000000E+00  0.00000000000E+00  0.11026160468E+03  0.11026160468E+03  0.00000000000E+00 0. -1.
         21   -1    0    0  502  503 -0.00000000000E+00 -0.00000000000E+00 -0.72236166477E+01  0.72236166477E+01  0.00000000000E+00 0.  1.
          2    1    1    2  501    0  0.18168800054E+02 -0.16971119602E+02  0.23720800394E+02  0.34362778806E+02  0.00000000000E+00 0.  1.
         -2    1    1    2    0  503 -0.18168800054E+02  0.16971119602E+02  0.79317187635E+02  0.83122442519E+02  0.00000000000E+00 0. -1.
</event>
<event>
 4    1  0.1874565E+004  0.2476794E+02  0.7546771E-02  0.1471416E+00
         21   -1    0    0  501  502  0.00000000000E+00  0.00000000000E+00  0.14340147741E+02  0.14340147741E+02  0.00000000000E+00 0.  1.
         21   -1    0    0  502  503 -0.00000000000E+00 -0.00000000000E+00 -0.21044558138E+03  0.21044558138E+03  0.00000000000E+00 0. -1.
          2    1    1    2  501    0 -0.18301799661E+02 -0.16688172520E+02  0.22684673411E+01  0.24871608653E+02  0.00000000000E+00 0.  1.
         -2    1    1    2    0  503  0.18301799661E+02  0.16688172520E+02 -0.19837390098E+03  0.19991412047E+03  0.00000000000E+00 0. -1.
</event>
<event>
 4    1  0.1874565E+004  0.2730853E+02  0.7546771E-02  0.1444533E+00
         21   -1    0    0  503  502  0.00000000000E+00  0.00000000000E+00  0.12467020730E+03  0.12467020730E+03  0.00000000000E+00 0.  1.
         21   -1    0    0  501  503 -0.00000000000E+00 -0.00000000000E+00 -0.67577713489E+01  0.67577713489E+01  0.00000000000E+00 0. -1.
          2    1    1    2  501    0  0.18482169920E+01 -0.27245910784E+02  0.36688716519E+02  0.45736391203E+02  0.00000000000E+00 0. -1.
         -2    1    1    2    0  502 -0.18482169920E+01  0.27245910784E+02  0.81223719432E+02  0.85691587445E+02  0.00000000000E+00 0.  1.
</event>
<event>
 4    1  0.1874565E+004  0.2322769E+02  0.7546771E-02  0.1489659E+00
         21   -1    0    0  501  502  0.00000000000E+00  0.00000000000E+00  0.68329687846E+01  0.68329687846E+01  0.00000000000E+00 0.  1.
         21   -1    0    0  502  503 -0.00000000000E+00 -0.00000000000E+00 -0.34286078087E+03  0.34286078087E+03  0.00000000000E+00 0. -1.
          2    1    1    2  501    0  0.16514913102E+02  0.16333502574E+02 -0.14615807699E+02  0.27443532859E+02  0.00000000000E+00 0.  1.
         -2    1    1    2    0  503 -0.16514913102E+02 -0.16333502574E+02 -0.32141200438E+03  0.32225021679E+03  0.00000000000E+00 0. -1.
</event>
<event>
 4    1  0.1874565E+004  0.3493800E+02  0.7546771E-02  0.1381000E+00
         21   -1    0    0  501  502  0.00000000000E+00  0.00000000000E+00  0.23792248834E+02  0.23792248834E+02  0.00000000000E+00 0. -1.
         21   -1    0    0  502  503 -0.00000000000E+00 -0.00000000000E+00 -0.52458462603E+02  0.52458462603E+02  0.00000000000E+00 0.  1.
          2    1    1    2  501    0  0.23855575916E+02 -0.25525968712E+02 -0.86799629323E+01  0.36000074132E+02  0.00000000000E+00 0. -1.
         -2    1    1    2    0  503 -0.23855575916E+02  0.25525968712E+02 -0.19986250837E+02  0.40250637306E+02  0.00000000000E+00 0.  1.
</event>
<event>
 4    1  0.1874565E+004  0.2456040E+02  0.7546771E-02  0.1473782E+00
         21   -1    0    0  503  502  0.00000000000E+00  0.00000000000E+00  0.12271008287E+01  0.12271008287E+01  0.00000000000E+00 0.  1.
         21   -1    0    0  501  503 -0.00000000000E+00 -0.00000000000E+00 -0.50263893375E+03  0.50263893375E+03  0.00000000000E+00 0. -1.
          2    1    1    2  501    0  0.10165214209E+00  0.24560189268E+02 -0.21332985187E+03  0.21473900188E+03  0.00000000000E+00 0.  1.
         -2    1    1    2    0  502 -0.10165214209E+00 -0.24560189268E+02 -0.28808198106E+03  0.28912703270E+03  0.00000000000E+00 0. -1.
</event>
<event>
 4    1  0.1874565E+004  0.2233094E+02  0.7546771E-02  0.1501075E+00
         21   -1    0    0  503  502  0.00000000000E+00  0.00000000000E+00  0.50046504506E+01  0.50046504506E+01  0.00000000000E+00 0. -1.
         21   -1    0    0  501  503 -0.00000000000E+00 -0.00000000000E+00 -0.10062915888E+03  0.10062915888E+03  0.00000000000E+00 0.  1.
          2    1    1    2  501    0 -0.37962238793E+01  0.22005897785E+02 -0.53044830865E+02  0.57553670035E+02  0.00000000000E+00 0.  1.
         -2    1    1    2    0  502  0.37962238793E+01 -0.22005897785E+02 -0.42579677560E+02  0.48080139291E+02  0.00000000000E+00 0. -1.
</event>
<event>
 4    1  0.1874565E+004  0.3016036E+02  0.7546771E-02  0.1418208E+00
         21   -1    0    0  503  502  0.00000000000E+00  0.00000000000E+00  0.13771958975E+03  0.13771958975E+03  0.00000000000E+00 0. -1.
         21   -1    0    0  501  503 -0.00000000000E+00 -0.00000000000E+00 -0.72337650181E+01  0.72337650181E+01  0.00000000000E+00 0.  1.
          2    1    1    2  501    0  0.28478211672E+02 -0.99317116935E+01  0.43876268042E+02  0.53242598871E+02  0.00000000000E+00 0.  1.
         -2    1    1    2    0  502 -0.28478211672E+02  0.99317116935E+01  0.86609556685E+02  0.91710755893E+02  0.00000000000E+00 0. -1.
</event>
<event>
 4    1  0.1874565E+004  0.2670952E+02  0.7546771E-02  0.1450548E+00
         21   -1    0    0  503  502  0.00000000000E+00  0.00000000000E+00  0.18111766046E+04  0.18111766046E+04  0.00000000000E+00 0. -1.
         21   -1    0    0  501  503 -0.00000000000E+00 -0.00000000000E+00 -0.39800080548E+00  0.39800080548E+00  0.00000000000E+00 0.  1.
          2    1    1    2  501    0 -0.24880685274E+02  0.97133975633E+01  0.81329862443E+03  0.81373708966E+03  0.00000000000E+00 0.  1.
         -2    1    1    2    0  502  0.24880685274E+02 -0.97133975633E+01  0.99747997937E+03  0.99783751575E+03  0.00000000000E+00 0. -1.
</event>
<event>
 4    1  0.1874565E+004  0.2919611E+02  0.7546771E-02  0.1426713E+00
         21   -1    0    0  501  502  0.00000000000E+00  0.00000000000E+00  0.49348574275E+03  0.49348574275E+03  0.00000000000E+00 0. -1.
         21   -1    0    0  502  503 -0.00000000000E+00 -0.00000000000E+00 -0.99687734797E+01  0.99687734797E+01  0.00000000000E+00 0.  1.
          2    1    1    2  501    0 -0.92835357795E+01  0.27680833378E+02  0.47064016441E+03  0.47154488326E+03  0.00000000000E+00 0. -1.
         -2    1    1    2    0  503  0.92835357795E+01 -0.27680833378E+02  0.12876804866E+02  0.31909632975E+02  0.00000000000E+00 0.  1.
</event>
<event>
 4    1  0.1874565E+004  0.3722126E+02  0.7546771E-02  0.1365586E+00
         21   -1    0    0  501  502  0.00000000000E+00  0.00000000000E+00  0.66293933051E+01  0.66293933051E+01  0.00000000000E+00 0. -1.
         21   -1    0    0  502  503 -0.00000000000E+00 -0.00000000000E+00 -0.10078147269E+04  0.10078147269E+04  0.00000000000E+00 0.  1.
          2    1    1    2  501    0 -0.33801181933E+02  0.15585327966E+02 -0.49011552980E+02  0.61543112315E+02  0.00000000000E+00 0. -1.
         -2    1    1    2    0  503  0.33801181933E+02 -0.15585327966E+02 -0.95217378063E+03  0.95290100790E+03  0.00000000000E+00 0.  1.
</event>
<event>
 4    1  0.1874565E+004  0.2083913E+02  0.7546771E-02  0.1521574E+00
         21   -1    0    0  501  502  0.00000000000E+00  0.00000000000E+00  0.53598691907E+01  0.53598691907E+01  0.00000000000E+00 0. -1.
         21   -1    0    0  502  503 -0.00000000000E+00 -0.00000000000E+00 -0.96243080056E+03  0.96243080056E+03  0.00000000000E+00 0.  1.
          2    1    1    2  501    0 -0.60923603542E+01 -0.19928682791E+02 -0.15456258523E+02  0.25945426958E+02  0.00000000000E+00 0. -1.
         -2    1    1    2    0  503  0.60923603542E+01  0.19928682791E+02 -0.94161467285E+03  0.94184524279E+03  0.00000000000E+00 0.  1.
</event>
<event>
 4    1  0.1874565E+004  0.2136203E+02  0.7546771E-02  0.1514158E+00
         21   -1    0    0  503  502  0.00000000000E+00  0.00000000000E+00  0.35845840323E+02  0.35845840323E+02  0.00000000000E+00 0.  1.
         21   -1    0    0  501  503 -0.00000000000E+00 -0.00000000000E+00 -0.14164269280E+02  0.14164269280E+02  0.00000000000E+00 0. -1.
          2    1    1    2  501    0  0.15043701835E+02  0.15166518591E+02  0.28852932195E+01  0.21556000743E+02  0.00000000000E+00 0.  1.
         -2    1    1    2    0  502 -0.15043701835E+02 -0.15166518591E+02  0.18796277823E+02  0.28454108861E+02  0.00000000000E+00 0. -1.
</event>
<event>
 4    1  0.1874565E+004  0.3680934E+02  0.7546771E-02  0.1368271E+00
         21   -1    0    0  501  502  0.00000000000E+00  0.00000000000E+00  0.16517346418E+01  0.16517346418E+01  0.00000000000E+00 0.  1.
         21   -1    0    0  502  503 -0.00000000000E+00 -0.00000000000E+00 -0.11149171156E+04  0.11149171156E+04  0.00000000000E+00 0. -1.
          2    1    1    2  501    0 -0.20932729814E+01  0.36749771662E+02 -0.84361751460E+03  0.84442017885E+03  0.00000000000E+00 0. -1.
         -2    1    1    2    0  503  0.20932729814E+01 -0.36749771662E+02 -0.26964786637E+03  0.27214867141E+03  0.00000000000E+00 0.  1.
</event>
<event>
 4    1  0.1874565E+004  0.2409817E+02  0.7546771E-02  0.1479150E+00
         21   -1    0    0  501  502  0.00000000000E+00  0.00000000000E+00  0.11173100016E+01  0.11173100016E+01  0.00000000000E+00 0.  1.
         21   -1    0    0  502  503 -0.00000000000E+00 -0.00000000000E+00 -0.78802504775E+03  0.78802504775E+03  0.00000000000E+00 0. -1.
          2    1    1    2  501    0 -0.19163412740E+02 -0.14611138453E+02 -0.16323253027E+03  0.16500175967E+03  0.00000000000E+00 0.  1.
         -2    1    1    2    0  503  0.19163412740E+02  0.14611138453E+02 -0.62367520748E+03  0.62414059809E+03  0.00000000000E+00 0. -1.
</event>
<event>
 4    1  0.1874565E+004  0.2355486E+02  0.7546771E-02  0.1485646E+00
         21   -1    0    0  501  502  0.00000000000E+00  0.00000000000E+00  0.15052930112E+01  0.15052930112E+01  0.00000000000E+00 0.  1.
         21   -1    0    0  502  503 -0.00000000000E+00 -0.00000000000E+00 -0.87341547157E+03  0.87341547157E+03  0.00000000000E+00 0. -1.
          2    1    1    2  501    0  0.16350017232E+02 -0.16956065622E+02 -0.10337191953E+03  0.10602162502E+03  0.00000000000E+00 0.  1.
         -2    1    1    2    0  503 -0.16350017232E+02  0.16956065622E+02 -0.76853825903E+03  0.76889913956E+03  0.00000000000E+00 0. -1.
</event>
<event>
 4    1  0.1874565E+004  0.2008601E+02  0.7546771E-02  0.1532725E+00
         21   -1    0    0  501  502  0.00000000000E+00  0.00000000000E+00  0.10860264390E+04  0.10860264390E+04  0.00000000000E+00 0.  1.
         21   -1    0    0  502  503 -0.00000000000E+00 -0.00000000000E+00 -0.11362613450E+01  0.11362613450E+01  0.00000000000E+00 0. -1.
          2    1    1    2  501    0  0.11373924936E+02 -0.16555414655E+02  0.98840030241E+03  0.98860437270E+03  0.00000000000E+00 0.  1.
         -2    1    1    2    0  503 -0.11373924936E+02  0.16555414655E+02  0.96489875257E+02  0.98558327654E+02  0.00000000000E+00 0. -1.
</event>
<event>
 4    1  0.1874565E+004  0.2060341E+02  0.7546771E-02  0.1525003E+00
         21   -1    0    0  501  502  0.00000000000E+00  0.00000000000E+00  0.14242067691E+02  0.14242067691E+02  0.00000000000E+00 0. -1.
         21   -1    0    0  502  503 -0.00000000000E+00 -0.00000000000E+00 -0.60291943290E+02  0.60291943290E+02  0.00000000000E+00 0.  1.
          2    1    1    2  501    0 -0.19427487185E+02  0.68610041195E+01  0.34749412504E+01  0.20894397636E+02  0.00000000000E+00 0. -1.
         -2    1    1    2    0  503  0.19427487185E+02 -0.68610041195E+01 -0.49524816849E+02  0.53639613345E+02  0.00000000000E+00 0.  1.
</event>
<event>
 4    1  0.1874565E+004  0.2112504E+02  0.7546771E-02  0.1517487E+00
         21   -1    0    0  503  502  0.00000000000E+00  0.00000000000E+00  0.96936521070E+02  0.96936521070E+02  0.00000000000E+00 0.  1.
         21   -1    0    0  501  503 -0.00000000000E+00 -0.00000000000E+00 -0.72966160584E+01  0.72966160584E+01  0.00000000000E+00 0. -1.
          2    1    1    2  501    0  0.16738214881E+02 -0.12887964055E+02  0.13158865986E+02  0.24888214258E+02  0.00000000000E+00 0. -1.
         -2    1    1    2    0  502 -0.16738214881E+02  0.12887964055E+02  0.76481039026E+02  0.79344922871E+02  0.00000000000E+00 0.  1.
</event>
<event>
 4    1  0.1874565E+004  0.2029573E+02  0.7546771E-02  0.1529562E+00
         21   -1    0    0  501  502  0.00000000000E+00  0.00000000000E+00  0.25437376735E+03  0.25437376735E+03  0.00000000000E+00 0.  1.
         21   -1    0    0  502  503 -0.00000000000E+00 -0.00000000000E+00 -0.16193404194E+01  0.16193404194E+01  0.00000000000E+00 0. -1.
          2    1    1    2  501    0 -0.19556362257E+02  0.54281916761E+01  0.12659140657E+03  0.12820803714E+03  0.00000000000E+00 0.  1.
         -2    1    1    2    0  503  0.19556362257E+02 -0.54281916761E+01  0.12616302037E+03  0.12778507064E+03  0.00000000000E+00 0. -1.
</event>
<event>
 4    1  0.1874565E+004  0.3121198E+02  0.7546771E-02  0.1409349E+00
         21   -1    0    0  501  502  0.00000000000E+00  0.00000000000E+00  0.74741332566E+03  0.74741332566E+03  0.00000000000E+00 0. -1.
         21   -1    0    0  502  503 -0.00000000000E+00 -0.00000000000E+00 -0.22626475662E+01  0.22626475662E+01  0.00000000000E+00 0.  1.
          2    1    1    2  501    0 -0.29349619771E+02 -0.10620138343E+02  0.61663599270E+03  0.61742540846E+03  0.00000000000E+00 0. -1.
         -2    1    1    2    0  503  0.29349619771E+02  0.10620138343E+02  0.12851468540E+03  0.13225056477E+03  0.00000000000E+00 0.  1.
</event>
<event>
 4    1  0.1874565E+004  0.2193450E+02  0.7546771E-02  0.1506329E+00
         21   -1    0    0  501  502  0.00000000000E+00  0.00000000000E+00  0.62139136149E+01  0.62139136149E+01  0.00000000000E+00 0. -1.
         21   -1    0    0  502  503 -0.00000000000E+00 -0.00000000000E+00 -0.12843346715E+03  0.12843346715E+03  0.00000000000E+00 0.  1.
          2    1    1    2  501    0  0.12256450191E+02 -0.18190705173E+02 -0.18682705655E+02  0.28812598227E+02  0.00000000000E+00 0. -1.
         -2    1    1    2    0  503 -0.12256450191E+02  0.18190705173E+02 -0.10353684788E+03  0.10583478254E+03  0.00000000000E+00 0.  1.
</event>
<event>
 4    1  0.1874565E+004  0.2711635E+02  0.7546771E-02  0.1446443E+00
         21   -1    0    0  503  502  0.00000000000E+00  0.00000000000E+00  0.24126466641E+02  0.24126466641E+02  0.00000000000E+00 0. -1.
         21   -1    0    0  501  503 -0.00000000000E+00 -0.00000000000E+00 -0.30477811459E+02  0.30477811459E+02  0.00000000000E+00 0.  1.
          2    1    1    2  501    0  0.14199604569E+02  0.23101249906E+02 -0.30152589427E+01  0.27283480416E+02  0.00000000000E+00 0.  1.
         -2    1    1    2    0  502 -0.14199604569E+02 -0.23101249906E+02 -0.33360858759E+01  0.27320797684E+02  0.00000000000E+00 0. -1.
</event>
<event>
 4    1  0.1874565E+004  0.2758765E+02  0.7546771E-02  0.1441793E+00
         21   -1    0    0  503  502  0.00000000000E+00  0.00000000000E+00  0.37606328453E+02  0.37606328453E+02  0.00000000000E+00 0. -1.
         21   -1    0    0  501  503 -0.00000000000E+00 -0.00000000000E+00 -0.35472714205E+02  0.35472714205E+02  0.00000000000E+00 0.  1.
          2    1    1    2  501    0 -0.22279787551E+02 -0.16269281328E+02 -0.22879150155E+02  0.35840395646E+02  0.00000000000E+00 0.  1.
         -2    1    1    2    0  502  0.22279787551E+02  0.16269281328E+02  0.25012764403E+02  0.37238647013E+02  0.00000000000E+00 0. -1.
</event>
<event>
 4    1  0.1874565E+004  0.3559157E+02  0.7546771E-02  0.1376451E+00
         21   -1    0    0  501  502  0.00000000000E+00  0.00000000000E+00  0.32857479254E+02  0.32857479254E+02  0.00000000000E+00 0.  1.
         21   -1    0    0  502  503 -0.00000000000E+00 -0.00000000000E+00 -0.61681568778E+02  0.61681568778E+02  0.00000000000E+00 0. -1.
          2    1    1    2  501    0  0.22305315211E+02  0.27735049683E+02  0.14533137137E+02  0.38444403268E+02  0.00000000000E+00 0.  1.
         -2    1    1    2    0  503 -0.22305315211E+02 -0.27735049683E+02 -0.43357226660E+02  0.56094644765E+02  0.00000000000E+00 0. -1.
</event>
<event>
 4    1  0.1874565E+004  0.3258166E+02  0.7546771E-02  0.1398412E+00
         21   -1    0    0  501  502  0.00000000000E+00  0.00000000000E+00  0.11621010938E+02  0.11621010938E+02  0.00000000000E+00 0. -1.
         21   -1    0    0  502  503 -0.00000000000E+00 -0.00000000000E+00 -0.10226548594E+03  0.10226548594E+03  0.00000000000E+00 0.  1.
          2    1    1    2  501    0 -0.31095642458E+02  0.97275633443E+01 -0.26717450390E+02  0.42135336997E+02  0.00000000000E+00 0. -1.
         -2    1    1    2    0  503  0.31095642458E+02 -0.97275633443E+01 -0.63927024612E+02  0.71751159881E+02  0.00000000000E+00 0.  1.
</event>
<event>
 4    1  0.1874565E+004  0.2557339E+02  0.7546771E-02  0.1462490E+00
         21   -1    0    0  501  502  0.00000000000E+00  0.00000000000E+00  0.34180939893E+03  0.34180939893E+03  0.00000000000E+00 0.  1.
         21   -1    0    0  502  503 -0.00000000000E+00 -0.00000000000E+00 -0.26391644927E+01  0.26391644927E+01  0.00000000000E+00 0. -1.
          2    1    1    2  501    0  0.12953788335E+02  0.22049891669E+02  0.25990353007E+03  0.26115865542E+03  0.00000000000E+00 0.  1.
         -2    1    1    2    0  503 -0.12953788335E+02 -0.22049891669E+02  0.79266704366E+02  0.83289908007E+02  0.00000000000E+00 0. -1.
</event>
<event>
 4    1  0.1874565E+004  0.2132036E+02  0.7546771E-02  0.1514740E+00
         21   -1    0    0  501  502  0.00000000000E+00  0.00000000000E+00  0.16004893940E+02  0.16004893940E+02  0.00000000000E+00 0.  1.
         21   -1    0    0  502  503 -0.00000000000E+00 -0.00000000000E+00 -0.38843998869E+02  0.38843998869E+02  0.00000000000E+00 0. -1.
          2    1    1    2  501    0  0.17288863604E+02  0.12476100300E+02  0.27999618615E+01  0.21503433908E+02  0.00000000000E+00 0.  1.
         -2    1    1    2    0  503 -0.17288863604E+02 -0.12476100300E+02 -0.25639066790E+02  0.33345458901E+02  0.00000000000E+00 0. -1.
</event>
<event>
 4    1  0.1874565E+004  0.2106138E+02  0.7546771E-02  0.1518390E+00
         21   -1    0    0  501  502  0.00000000000E+00  0.00000000000E+00  0.60123829919E+01  0.60123829919E+01  0.00000000000E+00 0.  1.
         21   -1    0    0  502  503 -0.00000000000E+00 -0.00000000000E+00 -0.10352943458E+03  0.10352943458E+03  0.00000000000E+00 0. -1.
          2    1    1    2  501    0 -0.20871854959E+02  0.28191433386E+01 -0.19397473936E+02  0.28632916262E+02  0.00000000000E+00 0.  1.
         -2    1    1    2    0  503  0.20871854959E+02 -0.28191433386E+01 -0.78119577649E+02  0.80908901307E+02  0.00000000000E+00 0. -1.
</event>
<event>
 4    1  0.1874565E+004  0.2793305E+02  0.7546771E-02  0.1438454E+00
         21   -1    0    0  503  502  0.00000000000E+00  0.00000000000E+00  0.13038860465E+03  0.13038860465E+03  0.00000000000E+00 0.  1.
         21   -1    0    0  501  503 -0.00000000000E+00 -0.00000000000E+00 -0.80184493790E+01  0.80184493790E+01  0.00000000000E+00 0. -1.
          2    1    1    2  501    0  0.17319918498E+02 -0.21915197029E+02  0.26327414473E+02  0.38384739031E+02  0.00000000000E+00 0. -1.
         -2    1    1    2    0  502 -0.17319918498E+02  0.21915197029E+02  0.96042740799E+02  0.10002231500E+03  0.00000000000E+00 0.  1.
</event>
<event>
 4    1  0.1874565E+004  0.2101970E+02  0.7546771E-02  0.1518984E+00
         21   -1    0    0  501  502  0.00000000000E+00  0.00000000000E+00  0.52937898837E+02  0.52937898837E+02  0.00000000000E+00 0. -1.
         21   -1    0    0  502  503 -0.00000000000E+00 -0.00000000000E+00 -0.93552724581E+01  0.93552724581E+01  0.00000000000E+00 0.  1.
          2    1    1    2  501    0  0.14171351993E+02 -0.15524191136E+02  0.32020799423E+02  0.38303515810E+02  0.00000000000E+00 0. -1.
         -2    1    1    2    0  503 -0.14171351993E+02  0.15524191136E+02  0.11561826956E+02  0.23989655485E+02  0.00000000000E+00 0.  1.
</event>
<event>
 4    1  0.1874565E+004  0.2040610E+02  0.7546771E-02  0.1527916E+00
         21   -1    0    0  501  502  0.00000000000E+00  0.00000000000E+00  0.36778012006E+02  0.36778012006E+02  0.00000000000E+00 0.  1.
         21   -1    0    0  502  503 -0.00000000000E+00 -0.00000000000E+00 -0.22007852363E+02  0.22007852363E+02  0.00000000000E+00 0. -1.
          2    1    1    2  501    0  0.14505858805E+02  0.14352318079E+02  0.27866217042E+02  0.34538891501E+02  0.00000000000E+00 0.  1.
         -2    1    1    2    0  503 -0.14505858805E+02 -0.14352318079E+02 -0.13096057399E+02  0.24246972869E+02  0.00000000000E+00 0. -1.
</event>
<event>
 4    1  0.1874565E+004  0.3254317E+02  0.7546771E-02  0.1398710E+00
         21   -1    0    0  501  502  0.00000000000E+00  0.00000000000E+00  0.12454712645E+03  0.12454712645E+03  0.00000000000E+00 0. -1.
         21   -1    0    0  502  503 -0.00000000000E+00 -0.00000000000E+00 -0.15012478764E+02  0.15012478764E+02  0.00000000000E+00 0.  1.
          2    1    1    2  501    0 -0.29759173675E+02 -0.13170018073E+02  0.10071543333E+03  0.10584260156E+03  0.00000000000E+00 0. -1.
         -2    1    1    2    0  503  0.29759173675E+02  0.13170018073E+02  0.88192143622E+01  0.33717003661E+02  0.00000000000E+00 0.  1.
</event>
<event>
 4    1  0.1874565E+004  0.2145619E+02  0.7546771E-02  0.1512850E+00
         21   -1    0    0  501  502  0.00000000000E+00  0.00000000000E+00  0.66880009906E+03  0.66880009906E+03  0.00000000000E+00 0.  1.
         21   -1    0    0  502  503 -0.00000000000E+00 -0.00000000000E+00 -0.15577023883E+01  0.15577023883E+01  0.00000000000E+00 0. -1.
          2    1    1    2  501    0  0.20196106282E+02  0.72446924323E+01  0.58402012118E+03  0.58441412562E+03  0.00000000000E+00 0.  1.
         -2    1    1    2    0  503 -0.20196106282E+02 -0.72446924323E+01  0.83222275485E+02  0.85943675825E+02  0.00000000000E+00 0. -1.
</event>
<event>
 4    1  0.1874565E+004  0.2881402E+02  0.7546771E-02  0.1430190E+00
         21   -1    0    0  503  502  0.00000000000E+00  0.00000000000E+00  0.13096907456E+02  0.13096907456E+02  0.00000000000E+00 0. -1.
         21   -1    0    0  501  503 -0.00000000000E+00 -0.00000000000E+00 -0.18234140037E+03  0.18234140037E+03  0.00000000000E+00 0.  1.
          2    1    1    2  501    0 -0.17148357831E+02 -0.23155599449E+02 -0.16354767641E+03  0.16606652408E+03  0.00000000000E+00 0.  1.
         -2    1    1    2    0  502  0.17148357831E+02  0.23155599449E+02 -0.56968165091E+01  0.29371783747E+02  0.00000000000E+00 0. -1.
</event>
<event>
 4    1  0.1874565E+004  0.2598618E+02  0.7546771E-02  0.1458067E+00
         21   -1    0    0  503  502  0.00000000000E+00  0.00000000000E+00  0.57871323557E+01  0.57871323557E+01  0.00000000000E+00 0.  1.
         21   -1    0    0  501  503 -0.00000000000E+00 -0.00000000000E+00 -0.23750128260E+03  0.23750128260E+03  0.00000000000E+00 0. -1.
          2    1    1    2  501    0 -0.25643932041E+02 -0.42035924284E+01 -0.20261678938E+03  0.20427639311E+03  0.00000000000E+00 0. -1.
         -2    1    1    2    0  502  0.25643932041E+02  0.42035924284E+01 -0.29097360862E+02  0.39012021852E+02  0.00000000000E+00 0.  1.
</event>
<event>
 4    1  0.1874565E+004  0.3657914E+02  0.7546771E-02  0.1369789E+00
         21   -1    0    0  501  502  0.00000000000E+00  0.00000000000E+00  0.28294155945E+03  0.28294155945E+03  0.00000000000E+00 0.  1.
         21   -1    0    0  502  503 -0.00000000000E+00 -0.00000000000E+00 -0.48607747222E+01  0.48607747222E+01  0.00000000000E+00 0. -1.
          2    1    1    2  501    0  0.27153764837E+02  0.24509310896E+02  0.16273296943E+03  0.16679344293E+03  0.00000000000E+00 0.  1.
         -2    1    1    2    0  503 -0.27153764837E+02 -0.24509310896E+02  0.11534781530E+03  0.12100889124E+03  0.00000000000E+00 0. -1.
</event>
<event>
 4    1  0.1874565E+004  0.2388861E+02  0.7546771E-02  0.1481631E+00
         21   -1    0    0  503  502  0.00000000000E+00  0.00000000000E+00  0.73713324270E+00  0.73713324270E+00  0.00000000000E+00 0. -1.
         21   -1    0    0  501  503 -0.00000000000E+00 -0.00000000000E+00 -0.88806898381E+03  0.88806898381E+03  0.00000000000E+00 0.  1.
          2    1    1    2  501    0 -0.19289873973E+02 -0.14091352380E+02 -0.60281942031E+03  0.60329256498E+03  0.00000000000E+00 0.  1.
         -2    1    1    2    0  502  0.19289873973E+02  0.14091352380E+02 -0.28451243025E+03  0.28551355208E+03  0.00000000000E+00 0. -1.
</event>
<event>
 4    1  0.1874565E+004  0.2509528E+02  0.7546771E-02  0.1467740E+00
         21   -1    0    0  503  502  0.00000000000E+00  0.00000000000E+00  0.13768285840E+03  0.13768285840E+03  0.00000000000E+00 0.  1.
         21   -1    0    0  501  503 -0.00000000000E+00 -0.00000000000E+00 -0.10011790142E+02  0.10011790142E+02  0.00000000000E+00 0. -1.
          2    1    1    2  501    0 -0.16789737613E+01 -0.25039053814E+02  0.94120048516E+01  0.26802220134E+02  0.00000000000E+00 0. -1.
         -2    1    1    2    0  502  0.16789737613E+01  0.25039053814E+02  0.11825906341E+03  0.12089242841E+03  0.00000000000E+00 0.  1.
</event>
<event>
 4    1  0.1874565E+004  0.2091410E+02  0.7546771E-02  0.1520495E+00
         21   -1    0    0  501  502  0.00000000000E+00  0.00000000000E+00  0.12728959990E+03  0.12728959990E+03  0.00000000000E+00 0.  1.
         21   -1    0    0  502  503 -0.00000000000E+00 -0.00000000000E+00 -0.12569072094E+02  0.12569072094E+02  0.00000000000E+00 0. -1.
          2    1    1    2  501    0 -0.94956985786E+00  0.20892530605E+02  0.11696903617E+03  0.11882405035E+03  0.00000000000E+00 0.  1.
         -2    1    1    2    0  503  0.94956985786E+00 -0.20892530605E+02 -0.22485083642E+01  0.21034621648E+02  0.00000000000E+00 0. -1.
</event>
<event>
 4    1  0.1874565E+004  0.2198634E+02  0.7546771E-02  0.1505635E+00
         21   -1    0    0  503  502  0.00000000000E+00  0.00000000000E+00  0.18668357943E+02  0.18668357943E+02  0.00000000000E+00 0.  1.
         21   -1    0    0  501  503 -0.00000000000E+00 -0.00000000000E+00 -0.39817334990E+02  0.39817334990E+02  0.00000000000E+00 0. -1.
          2    1    1    2  501    0 -0.16743549690E+00 -0.21985706141E+02 -0.27866856826E+02  0.35495929605E+02  0.00000000000E+00 0. -1.
         -2    1    1    2    0  502  0.16743549690E+00  0.21985706141E+02  0.67178797788E+01  0.22989763328E+02  0.00000000000E+00 0.  1.
</event>
<event>
 4    1  0.1874565E+004  0.2044795E+02  0.7546771E-02  0.1527295E+00
         21   -1    0    0  503  502  0.00000000000E+00  0.00000000000E+00  0.45331964119E+01  0.45331964119E+01  0.00000000000E+00 0. -1.
         21   -1    0    0  501  503 -0.00000000000E+00 -0.00000000000E+00 -0.92637966348E+02  0.92637966348E+02  0.00000000000E+00 0.  1.
          2    1    1    2  501    0 -0.16800940327E+02  0.11655346491E+02 -0.40847390261E+02  0.45679623343E+02  0.00000000000E+00 0.  1.
         -2    1    1    2    0  502  0.16800940327E+02 -0.11655346491E+02 -0.47257379675E+02  0.51491539416E+02  0.00000000000E+00 0. -1.
</event>
<event>
 4    1  0.1874565E+004  0.5334311E+02  0.7546771E-02  0.1284294E+00
         21   -1    0    0  503  502  0.00000000000E+00  0.00000000000E+00  0.60155702087E+03  0.60155702087E+03  0.00000000000E+00 0. -1.
         21   -1    0    0  501  503 -0.00000000000E+00 -0.00000000000E+00 -0.10525519464E+02  0.10525519464E+02  0.00000000000E+00 0.  1.
          2    1    1    2  501    0 -0.19880665686E+02 -0.49499964785E+02  0.68426399299E+02  0.86762085630E+02  0.00000000000E+00 0.  1.
         -2    1    1    2    0  502  0.19880665686E+02  0.49499964785E+02  0.52260510211E+03  0.52532045470E+03  0.00000000000E+00 0. -1.
</event>
<event>
 4    1  0.1874565E+004  0.2130704E+02  0.7546771E-02  0.1514926E+00
         21   -1    0    0  503  502  0.00000000000E+00  0.00000000000E+00  0.16315951073E+01  0.16315951073E+01  0.00000000000E+00 0. -1.
         21   -1    0    0  501  503 -0.00000000000E+00 -0.00000000000E+00 -0.10900843922E+04  0.10900843922E+04  0.00000000000E+00 0.  1.
          2    1    1    2  501    0  0.94750395382E+01  0.19084380022E+02 -0.10152943589E+04  0.10155179098E+04  0.00000000000E+00 0.  1.
         -2    1    1    2    0  502 -0.94750395382E+01 -0.19084380022E+02 -0.73158438174E+02  0.76198077477E+02  0.00000000000E+00 0. -1.
</event>
<event>
 4    1  0.1874565E+004  0.2203697E+02  0.7546771E-02  0.1504958E+00
         21   -1    0    0  503  502  0.00000000000E+00  0.00000000000E+00  0.83909175943E+02  0.83909175943E+02  0.00000000000E+00 0. -1.
         21   -1    0    0  501  503 -0.00000000000E+00 -0.00000000000E+00 -0.13885855593E+02  0.13885855593E+02  0.00000000000E+00 0.  1.
          2    1    1    2  501    0  0.14457605830E+01 -0.21989494453E+02 -0.23303507007E+01  0.22159842607E+02  0.00000000000E+00 0.  1.
         -2    1    1    2    0  502 -0.14457605830E+01  0.21989494453E+02  0.72353671050E+02  0.75635188929E+02  0.00000000000E+00 0. -1.
</event>
<event>
 4    1  0.1874565E+004  0.2401219E+02  0.7546771E-02  0.1480165E+00
         21   -1    0    0  501  502  0.00000000000E+00  0.00000000000E+00  0.74159893050E+01  0.74159893050E+01  0.00000000000E+00 0. -1.
         21   -1    0    0  502  503 -0.00000000000E+00 -0.00000000000E+00 -0.12455780885E+03  0.12455780885E+03  0.00000000000E+00 0.  1.
          2    1    1    2  501    0  0.16365299600E+02  0.17571635994E+02 -0.18119259727E+02  0.30081439386E+02  0.00000000000E+00 0.  1.
         -2    1    1    2    0  503 -0.16365299600E+02 -0.17571635994E+02 -0.99022559815E+02  0.10189235877E+03  0.00000000000E+00 0. -1.
</event>
<event>
 4    1  0.1874565E+004  0.3033972E+02  0.7546771E-02  0.1416667E+00
         21   -1    0    0  503  502  0.00000000000E+00  0.00000000000E+00  0.37624871340E+03  0.37624871340E+03  0.00000000000E+00 0.  1.
         21   -1    0    0  501  503 -0.00000000000E+00 -0.00000000000E+00 -0.25259120650E+01  0.25259120650E+01  0.00000000000E+00 0. -1.
          2    1    1    2  501    0  0.17785322330E+02 -0.24580088103E+02  0.22043839429E+03  0.22251648051E+03  0.00000000000E+00 0.  1.
         -2    1    1    2    0  502 -0.17785322330E+02  0.24580088103E+02  0.15328440704E+03  0.15625814495E+03  0.00000000000E+00 0. -1.
</event>
<event>
 4    1  0.1874565E+004  0.2134199E+02  0.7546771E-02  0.1514438E+00
         21   -1    0    0  503  502  0.00000000000E+00  0.00000000000E+00  0.71838308383E+02  0.71838308383E+02  0.00000000000E+00 0.  1.
         21   -1    0    0  501  503 -0.00000000000E+00 -0.00000000000E+00 -0.71199642342E+01  0.71199642342E+01  0.00000000000E+00 0. -1.
          2    1    1    2  501    0 -0.15504028438E+02 -0.14666473044E+02  0.45422908572E+02  0.50186860357E+02  0.00000000000E+00 0. -1.
         -2    1    1    2    0  502  0.15504028438E+02  0.14666473044E+02  0.19295435577E+02  0.28771412260E+02  0.00000000000E+00 0.  1.
</event>
<event>
 4    1  0.1874565E+004  0.2914776E+02  0.7546771E-02  0.1427150E+00
         21   -1    0    0  501  502  0.00000000000E+00  0.00000000000E+00  0.37123141515E+02  0.37123141515E+02  0.00000000000E+00 0. -1.
         21   -1    0    0  502  503 -0.00000000000E+00 -0.00000000000E+00 -0.39281429630E+02  0.39281429630E+02  0.00000000000E+00 0.  1.
          2    1    1    2  501    0  0.14694650368E+02  0.25172590272E+02  0.23601700583E+02  0.37505097265E+02  0.00000000000E+00 0. -1.
         -2    1    1    2    0  503 -0.14694650368E+02 -0.25172590272E+02 -0.25759988698E+02  0.38899473880E+02  0.00000000000E+00 0.  1.
</event>
<event>
 4    1  0.1874565E+004  0.2620360E+02  0.7546771E-02  0.1455776E+00
         21   -1    0    0  501  502  0.00000000000E+00  0.00000000000E+00  0.46179626246E+03  0.46179626246E+03  0.00000000000E+00 0.  1.
         21   -1    0    0  502  503 -0.00000000000E+00 -0.00000000000E+00 -0.49361926207E+01  0.49361926207E+01  0.00000000000E+00 0. -1.
          2    1    1    2  501    0 -0.25282667798E+02 -0.68858690365E+01  0.42350844575E+03  0.42431831460E+03  0.00000000000E+00 0.  1.
         -2    1    1    2    0  503  0.25282667798E+02  0.68858690365E+01  0.33351624091E+02  0.42414140483E+02  0.00000000000E+00 0. -1.
</event>
<event>
 4    1  0.1874565E+004  0.3475362E+02  0.7546771E-02  0.1382304E+00
         21   -1    0    0  503  502  0.00000000000E+00  0.00000000000E+00  0.18811032372E+02  0.18811032372E+02  0.00000000000E+00 0.  1.
         21   -1    0    0  501  503 -0.00000000000E+00 -0.00000000000E+00 -0.82210931942E+02  0.82210931942E+02  0.00000000000E+00 0. -1.
          2    1    1    2  501    0 -0.15553626165E+02  0.31078911214E+02 -0.55337131713E+02  0.65345330019E+02  0.00000000000E+00 0. -1.
         -2    1    1    2    0  502  0.15553626165E+02 -0.31078911214E+02 -0.80627678566E+01  0.35676634295E+02  0.00000000000E+00 0.  1.
</event>
<event>
 4    1  0.1874565E+004  0.3424473E+02  0.7546771E-02  0.1385952E+00
         21   -1    0    0  501  502  0.00000000000E+00  0.00000000000E+00  0.37103940706E+02  0.37103940706E+02  0.00000000000E+00 0.  1.
         21   -1    0    0  502  503 -0.00000000000E+00 -0.00000000000E+00 -0.48829216573E+02  0.48829216573E+02  0.00000000000E+00 0. -1.
          2    1    1    2  501    0 -0.17423373318E+02  0.29480965265E+02  0.19655561690E+02  0.39484710409E+02  0.00000000000E+00 0.  1.
         -2    1    1    2    0  503  0.17423373318E+02 -0.29480965265E+02 -0.31380837558E+02  0.46448446869E+02  0.00000000000E+00 0. -1.
</event>
<event>
 4    1  0.1874565E+004  0.2069440E+02  0.7546771E-02  0.1523673E+00
         21   -1    0    0  501  502  0.00000000000E+00  0.00000000000E+00  0.78957381040E+02  0.78957381040E+02  0.00000000000E+00 0.  1.
         21   -1    0    0  502  503 -0.00000000000E+00 -0.00000000000E+00 -0.13697884125E+02  0.13697884125E+02  0.00000000000E+00 0. -1.
          2    1    1    2  501    0  0.83653255082E+01 -0.18928274168E+02  0.68635366898E+02  0.71687319820E+02  0.00000000000E+00 0.  1.
         -2    1    1    2    0  503 -0.83653255082E+01  0.18928274168E+02 -0.33758699834E+01  0.20967945344E+02  0.00000000000E+00 0. -1.
</event>
<event>
 4    1  0.1874565E+004  0.2285559E+02  0.7546771E-02  0.1494320E+00
         21   -1    0    0  503  502  0.00000000000E+00  0.00000000000E+00  0.34870203055E+02  0.34870203055E+02  0.00000000000E+00 0.  1.
         21   -1    0    0  501  503 -0.00000000000E+00 -0.00000000000E+00 -0.25941990175E+02  0.25941990175E+02  0.00000000000E+00 0. -1.
          2    1    1    2  501    0  0.22499287972E+02  0.40199512631E+01 -0.15300630888E+02  0.27504313716E+02  0.00000000000E+00 0. -1.
         -2    1    1    2    0  502 -0.22499287972E+02 -0.40199512631E+01  0.24228843768E+02  0.33307879515E+02  0.00000000000E+00 0.  1.
</event>
<event>
 4    1  0.1874565E+004  0.2021841E+02  0.7546771E-02  0.1530723E+00
         21   -1    0    0  503  502  0.00000000000E+00  0.00000000000E+00  0.16731788491E+02  0.16731788491E+02  0.00000000000E+00 0. -1.
         21   -1    0    0  501  503 -0.00000000000E+00 -0.00000000000E+00 -0.59837246354E+02  0.59837246354E+02  0.00000000000E+00 0.  1.
          2    1    1    2  501    0 -0.53825221142E+01 -0.19488782240E+02 -0.51001943016E+02  0.54863306216E+02  0.00000000000E+00 0.  1.
         -2    1    1    2    0  502  0.53825221142E+01  0.19488782240E+02  0.78964851532E+01  0.21705728629E+02  0.00000000000E+00 0. -1.
</event>
<event>
 4    1  0.1874565E+004  0.2350493E+02  0.7546771E-02  0.1486253E+00
         21   -1    0    0  501  502  0.00000000000E+00  0.00000000000E+00  0.72407135024E+03  0.72407135024E+03  0.00000000000E+00 0. -1.
         21   -1    0    0  502  503 -0.00000000000E+00 -0.00000000000E+00 -0.48703666172E+01  0.48703666172E+01  0.00000000000E+00 0.  1.
          2    1    1    2  501    0  0.47998083903E+01  0.23009638594E+02  0.69430580631E+03  0.69470355858E+03  0.00000000000E+00 0. -1.
         -2    1    1    2    0  503 -0.47998083903E+01 -0.23009638594E+02  0.24895177316E+02  0.34238158280E+02  0.00000000000E+00 0.  1.
</event>
<event>
 4    1  0.1874565E+004  0.3890416E+02  0.7546771E-02  0.1355030E+00
         21   -1    0    0  501  502  0.00000000000E+00  0.00000000000E+00  0.11215424086E+03  0.11215424086E+03  0.00000000000E+00 0.  1.
         21   -1    0    0  502  503 -0.00000000000E+00 -0.00000000000E+00 -0.16170816224E+03  0.16170816224E+03  0.00000000000E+00 0. -1.
          2    1    1    2  501    0  0.37565939064E+02 -0.10116012314E+02  0.10631609243E+03  0.11321062226E+03  0.00000000000E+00 0.  1.
         -2    1    1    2    0  503 -0.37565939064E+02  0.10116012314E+02 -0.15587001381E+03  0.16065178084E+03  0.00000000000E+00 0. -1.
</event>
<event>
 4    1  0.1874565E+004  0.2151471E+02  0.7546771E-02  0.1512041E+00
         21   -1    0    0  501  502  0.00000000000E+00  0.00000000000E+00  0.20911993946E+02  0.20911993946E+02  0.00000000000E+00 0.  1.
         21   -1    0    0  502  503 -0.00000000000E+00 -0.00000000000E+00 -0.22330097278E+02  0.22330097278E+02  0.00000000000E+00 0. -1.
          2    1    1    2  501    0  0.18960649172E+02 -0.10167428023E+02  0.13129390651E+01  0.21554735410E+02  0.00000000000E+00 0.  1.
         -2    1    1    2    0  503 -0.18960649172E+02  0.10167428023E+02 -0.27310423979E+01  0.21687355814E+02  0.00000000000E+00 0. -1.
</event>
<event>
 4    1  0.1874565E+004  0.4882792E+02  0.7546771E-02  0.1303336E+00
         21   -1    0    0  501  502  0.00000000000E+00  0.00000000000E+00  0.20393729187E+02  0.20393729187E+02  0.00000000000E+00 0.  1.
         21   -1    0    0  502  503 -0.00000000000E+00 -0.00000000000E+00 -0.24112508224E+03  0.24112508224E+03  0.00000000000E+00 0. -1.
          2    1    1    2  501    0 -0.25941592615E+02  0.41366647950E+02 -0.16513469763E+02  0.51544742444E+02  0.00000000000E+00 0.  1.
         -2    1    1    2    0  503  0.25941592615E+02 -0.41366647950E+02 -0.20421788329E+03  0.20997406899E+03  0.00000000000E+00 0. -1.
</event>
<event>
 4    1  0.1874565E+004  0.2207828E+02  0.7546771E-02  0.1504408E+00
         21   -1    0    0  503  502  0.00000000000E+00  0.00000000000E+00  0.41980925764E+01  0.41980925764E+01  0.00000000000E+00 0.  1.
         21   -1    0    0  501  503 -0.00000000000E+00 -0.00000000000E+00 -0.14104762432E+03  0.14104762432E+03  0.00000000000E+00 0. -1.
          2    1    1    2  501    0  0.12054894536E+02 -0.18496749896E+02 -0.98959760568E+02  0.10139272386E+03  0.00000000000E+00 0. -1.
         -2    1    1    2    0  502 -0.12054894536E+02  0.18496749896E+02 -0.37889771176E+02  0.43852993042E+02  0.00000000000E+00 0.  1.
</event>
<event>
 4    1  0.1874565E+004  0.2206394E+02  0.7546771E-02  0.1504599E+00
         21   -1    0    0  501  502  0.00000000000E+00  0.00000000000E+00  0.10747342551E+02  0.10747342551E+02  0.00000000000E+00 0. -1.
         21   -1    0    0  502  503 -0.00000000000E+00 -0.00000000000E+00 -0.11174055021E+03  0.11174055021E+03  0.00000000000E+00 0.  1.
          2    1    1    2  501    0  0.21126228457E+02  0.63639481311E+01 -0.32701100714E+01  0.22304954259E+02  0.00000000000E+00 0. -1.
         -2    1    1    2    0  503 -0.21126228457E+02 -0.63639481311E+01 -0.97723097591E+02  0.10018293850E+03  0.00000000000E+00 0.  1.
</event>
<event>
 4    1  0.1874565E+004  0.6541228E+02  0.7546771E-02  0.1242475E+00
         21   -1    0    0  503  502  0.00000000000E+00  0.00000000000E+00  0.10424050465E+03  0.10424050465E+03  0.00000000000E+00 0.  1.
         21   -1    0    0  501  503 -0.00000000000E+00 -0.00000000000E+00 -0.29108816295E+03  0.29108816295E+03  0.00000000000E+00 0. -1.
          2    1    1    2  501    0 -0.29544834629E+02 -0.58359829712E+02 -0.27662225487E+03  0.28425101384E+03  0.00000000000E+00 0. -1.
         -2    1    1    2    0  502  0.29544834629E+02  0.58359829712E+02  0.89774596563E+02  0.11107765376E+03  0.00000000000E+00 0.  1.
</event>
<event>
 4    1  0.1874565E+004  0.3133892E+02  0.7546771E-02  0.1408307E+00
         21   -1    0    0  501  502  0.00000000000E+00  0.00000000000E+00  0.73605409669E+01  0.73605409669E+01  0.00000000000E+00 0. -1.
         21   -1    0    0  502  503 -0.00000000000E+00 -0.00000000000E+00 -0.21717391311E+03  0.21717391311E+03  0.00000000000E+00 0.  1.
          2    1    1    2  501    0  0.26126367195E+02  0.17307254226E+02 -0.35192385973E+02  0.47123583715E+02  0.00000000000E+00 0. -1.
         -2    1    1    2    0  503 -0.26126367195E+02 -0.17307254226E+02 -0.17462098617E+03  0.17741087036E+03  0.00000000000E+00 0.  1.
</event>
<event>
 4    1  0.1874565E+004  0.2450099E+02  0.7546771E-02  0.1474464E+00
         21   -1    0    0  501  502  0.00000000000E+00  0.00000000000E+00  0.26166370824E+02  0.26166370824E+02  0.00000000000E+00 0.  1.
         21   -1    0    0  502  503 -0.00000000000E+00 -0.00000000000E+00 -0.24568225372E+02  0.24568225372E+02  0.00000000000E+00 0. -1.
          2    1    1    2  501    0 -0.23151838187E+02 -0.80181493116E+01  0.73263417653E+01  0.25572907802E+02  0.00000000000E+00 0.  1.
         -2    1    1    2    0  503  0.23151838187E+02  0.80181493116E+01 -0.57281963137E+01  0.25161688393E+02  0.00000000000E+00 0. -1.
</event>
<event>
 4    1  0.1874565E+004  0.2695870E+02  0.7546771E-02  0.1448023E+00
         21   -1    0    0  503  502  0.00000000000E+00  0.00000000000E+00  0.71659926992E+01  0.71659926992E+01  0.00000000000E+00 0.  1.
         21   -1    0    0  501  503 -0.00000000000E+00 -0.00000000000E+00 -0.15577931542E+03  0.15577931542E+03  0.00000000000E+00 0. -1.
          2    1    1    2  501    0  0.15933169770E+02 -0.21746390288E+02 -0.12243445577E+03  0.12536732967E+03  0.00000000000E+00 0. -1.
         -2    1    1    2    0  502 -0.15933169770E+02  0.21746390288E+02 -0.26178866959E+02  0.37577978455E+02  0.00000000000E+00 0.  1.
</event>
<event>
 4    1  0.1874565E+004  0.2171086E+02  0.7546771E-02  0.1509353E+00
         21   -1    0    0  501  502  0.00000000000E+00  0.00000000000E+00  0.34573396651E+00  0.34573396651E+00  0.00000000000E+00 0.  1.
         21   -1    0    0  502  503 -0.00000000000E+00 -0.00000000000E+00 -0.17250654746E+04  0.17250654746E+04  0.00000000000E+00 0. -1.
          2    1    1    2  501    0 -0.19328836528E+02 -0.98872425350E+01 -0.46732580746E+03  0.46782985348E+03  0.00000000000E+00 0.  1.
         -2    1    1    2    0  503  0.19328836528E+02  0.98872425350E+01 -0.12573939331E+04  0.12575813551E+04  0.00000000000E+00 0. -1.
</event>
<event>
 4    1  0.1874565E+004  0.2103183E+02  0.7546771E-02  0.1518811E+00
         21   -1    0    0  501  502  0.00000000000E+00  0.00000000000E+00  0.31351107157E+01  0.31351107157E+01  0.00000000000E+00 0.  1.
         21   -1    0    0  502  503 -0.00000000000E+00 -0.00000000000E+00 -0.21392358783E+03  0.21392358783E+03  0.00000000000E+00 0. -1.
          2    1    1    2  501    0  0.15015879363E+02  0.14726209117E+02 -0.42068703653E+02  0.47033112751E+02  0.00000000000E+00 0.  1.
         -2    1    1    2    0  503 -0.15015879363E+02 -0.14726209117E+02 -0.16871977346E+03  0.17002558579E+03  0.00000000000E+00 0. -1.
</event>
<event>
 4    1  0.1874565E+004  0.2248015E+02  0.7546771E-02  0.1499131E+00
         21   -1    0    0  503  502  0.00000000000E+00  0.00000000000E+00  0.87093801070E+01  0.87093801070E+01  0.00000000000E+00 0.  1.
         21   -1    0    0  501  503 -0.00000000000E+00 -0.00000000000E+00 -0.84312885555E+02  0.84312885555E+02  0.00000000000E+00 0. -1.
          2    1    1    2  501    0  0.14046666825E+02  0.17551300960E+02 -0.63772969021E+02  0.67619143680E+02  0.00000000000E+00 0. -1.
         -2    1    1    2    0  502 -0.14046666825E+02 -0.17551300960E+02 -0.11830536427E+02  0.25403121982E+02  0.00000000000E+00 0.  1.
</event>
<event>
 4    1  0.1874565E+004  0.2261920E+02  0.7546771E-02  0.1497336E+00
         21   -1    0    0  503  502  0.00000000000E+00  0.00000000000E+00  0.45702791988E+02  0.45702791988E+02  0.00000000000E+00 0.  1.
         21   -1    0    0  501  503 -0.00000000000E+00 -0.00000000000E+00 -0.12927109670E+02  0.12927109670E+02  0.00000000000E+00 0. -1.
          2    1    1    2  501    0 -0.21093322612E+02  0.81670174689E+01  0.56562175475E+01  0.23315686353E+02  0.00000000000E+00 0. -1.
         -2    1    1    2    0  502  0.21093322612E+02 -0.81670174689E+01  0.27119464771E+02  0.35314215305E+02  0.00000000000E+00 0.  1.
</event>
<event>
 4    1  0.1874565E+004  0.2548901E+02  0.7546771E-02  0.1463407E+00
         21   -1    0    0  503  502  0.00000000000E+00  0.00000000000E+00  0.42018168706E+03  0.42018168706E+03  0.00000000000E+00 0.  1.
         21   -1    0    0  501  503 -0.00000000000E+00 -0.00000000000E+00 -0.33844689889E+01  0.33844689889E+01  0.00000000000E+00 0. -1.
          2    1    1    2  501    0  0.23806788458E+02  0.91063973803E+01  0.52317914695E+02  0.58196682448E+02  0.00000000000E+00 0.  1.
         -2    1    1    2    0  502 -0.23806788458E+02 -0.91063973803E+01  0.36447930338E+03  0.36536947360E+03  0.00000000000E+00 0. -1.
</event>
<event>
 4    1  0.1874565E+004  0.2166056E+02  0.7546771E-02  0.1510039E+00
         21   -1    0    0  503  502  0.00000000000E+00  0.00000000000E+00  0.12556758326E+03  0.12556758326E+03  0.00000000000E+00 0.  1.
         21   -1    0    0  501  503 -0.00000000000E+00 -0.00000000000E+00 -0.65438070277E+01  0.65438070277E+01  0.00000000000E+00 0. -1.
          2    1    1    2  501    0 -0.33181936278E+01  0.21404893794E+02  0.16246354093E+02  0.27076260979E+02  0.00000000000E+00 0. -1.
         -2    1    1    2    0  502  0.33181936278E+01 -0.21404893794E+02  0.10277742214E+03  0.10503512931E+03  0.00000000000E+00 0.  1.
</event>
<event>
 4    1  0.1874565E+004  0.2348213E+02  0.7546771E-02  0.1486531E+00
         21   -1    0    0  501  502  0.00000000000E+00  0.00000000000E+00  0.28852030424E+01  0.28852030424E+01  0.00000000000E+00 0. -1.
         21   -1    0    0  502  503 -0.00000000000E+00 -0.00000000000E+00 -0.19806724576E+03  0.19806724576E+03  0.00000000000E+00 0.  1.
          2    1    1    2  501    0  0.19094072588E+02 -0.13668460115E+02 -0.78768957845E+02  0.82194641735E+02  0.00000000000E+00 0. -1.
         -2    1    1    2    0  503 -0.19094072588E+02  0.13668460115E+02 -0.11641308487E+03  0.11875780706E+03  0.00000000000E+00 0.  1.
</event>
<event>
 4    1  0.1874565E+004  0.2051671E+02  0.7546771E-02  0.1526278E+00
         21   -1    0    0  503  502  0.00000000000E+00  0.00000000000E+00  0.71968838968E+02  0.71968838968E+02  0.00000000000E+00 0.  1.
         21   -1    0    0  501  503 -0.00000000000E+00 -0.00000000000E+00 -0.60021788954E+01  0.60021788954E+01  0.00000000000E+00 0. -1.
          2    1    1    2  501    0 -0.18455425073E+02  0.89628556272E+01  0.26752442900E+02  0.33713924374E+02  0.00000000000E+00 0. -1.
         -2    1    1    2    0  502  0.18455425073E+02 -0.89628556272E+01  0.39214217173E+02  0.44257093490E+02  0.00000000000E+00 0.  1.
</event>
<event>
 4    1  0.1874565E+004  0.2351829E+02  0.7546771E-02  0.1486091E+00
         21   -1    0    0  503  502  0.00000000000E+00  0.00000000000E+00  0.39681255446E+02  0.39681255446E+02  0.00000000000E+00 0. -1.
         21   -1    0    0  501  503 -0.00000000000E+00 -0.00000000000E+00 -0.14028627132E+02  0.14028627132E+02  0.00000000000E+00 0.  1.
          2    1    1    2  501    0 -0.22353154633E+02  0.73106964351E+01  0.10677610813E+02  0.25828689032E+02  0.00000000000E+00 0.  1.
         -2    1    1    2    0  502  0.22353154633E+02 -0.73106964351E+01  0.14975017500E+02  0.27881193546E+02  0.00000000000E+00 0. -1.
</event>
<event>
 4    1  0.1874565E+004  0.2289315E+02  0.7546771E-02  0.1493844E+00
         21   -1    0    0  501  502  0.00000000000E+00  0.00000000000E+00  0.11711100516E+03  0.11711100516E+03  0.00000000000E+00 0.  1.
         21   -1    0    0  502  503 -0.00000000000E+00 -0.00000000000E+00 -0.17454271046E+02  0.17454271046E+02  0.00000000000E+00 0. -1.
          2    1    1    2  501    0  0.16933072670E+02  0.15406736426E+02  0.10784783899E+03  0.11025086327E+03  0.00000000000E+00 0.  1.
         -2    1    1    2    0  503 -0.16933072670E+02 -0.15406736426E+02 -0.81911048742E+01  0.24314412936E+02  0.00000000000E+00 0. -1.
</event>
<event>
 4    1  0.1874565E+004  0.3063395E+02  0.7546771E-02  0.1414166E+00
         21   -1    0    0  501  502  0.00000000000E+00  0.00000000000E+00  0.14211908767E+03  0.14211908767E+03  0.00000000000E+00 0. -1.
         21   -1    0    0  502  503 -0.00000000000E+00 -0.00000000000E+00 -0.22922443147E+02  0.22922443147E+02  0.00000000000E+00 0.  1.
          2    1    1    2  501    0  0.15745885278E+02  0.26277479018E+02  0.12922617224E+03  0.13280753894E+03  0.00000000000E+00 0. -1.
         -2    1    1    2    0  503 -0.15745885278E+02 -0.26277479018E+02 -0.10029527711E+02  0.32233991885E+02  0.00000000000E+00 0.  1.
</event>
<event>
 4    1  0.1874565E+004  0.2398290E+02  0.7546771E-02  0.1480511E+00
         21   -1    0    0  503  502  0.00000000000E+00  0.00000000000E+00  0.31597867365E+02  0.31597867365E+02  0.00000000000E+00 0. -1.
         21   -1    0    0  501  503 -0.00000000000E+00 -0.00000000000E+00 -0.12829361909E+03  0.12829361909E+03  0.00000000000E+00 0.  1.
          2    1    1    2  501    0  0.65553722798E+01  0.23069600312E+02 -0.12240515666E+03  0.12473252079E+03  0.00000000000E+00 0.  1.
         -2    1    1    2    0  502 -0.65553722798E+01 -0.23069600312E+02  0.25709404940E+02  0.35158965665E+02  0.00000000000E+00 0. -1.
</event>
<event>
 4    1  0.1874565E+004  0.2442289E+02  0.7546771E-02  0.1475364E+00
         21   -1    0    0  503  502  0.00000000000E+00  0.00000000000E+00  0.34829395804E+01  0.34829395804E+01  0.00000000000E+00 0.  1.
         21   -1    0    0  501  503 -0.00000000000E+00 -0.00000000000E+00 -0.19131378187E+03  0.19131378187E+03  0.00000000000E+00 0. -1.
          2    1    1    2  501    0  0.24363305567E+02  0.17049268271E+01 -0.62379157850E+02  0.66989825852E+02  0.00000000000E+00 0. -1.
         -2    1    1    2    0  502 -0.24363305567E+02 -0.17049268271E+01 -0.12545168444E+03  0.12780689560E+03  0.00000000000E+00 0.  1.
</event>
<event>
 4    1  0.1874565E+004  0.3962415E+02  0.7546771E-02  0.1350702E+00
         21   -1    0    0  503  502  0.00000000000E+00  0.00000000000E+00  0.29489363114E+02  0.29489363114E+02  0.00000000000E+00 0. -1.
         21   -1    0    0  501  503 -0.00000000000E+00 -0.00000000000E+00 -0.53283788879E+02  0.53283788879E+02  0.00000000000E+00 0.  1.
          2    1    1    2  501    0  0.38125756738E+02  0.10793528657E+02 -0.13055805345E+02  0.41719631361E+02  0.00000000000E+00 0. -1.
         -2    1    1    2    0  502 -0.38125756738E+02 -0.10793528657E+02 -0.10738620420E+02  0.41053520631E+02  0.00000000000E+00 0.  1.
</event>
<event>
 4    1  0.1874565E+004  0.6704852E+02  0.7546771E-02  0.1237598E+00
         21   -1    0    0  501  502  0.00000000000E+00  0.00000000000E+00  0.33615831916E+02  0.33615831916E+02  0.00000000000E+00 0.  1.
         21   -1    0    0  502  503 -0.00000000000E+00 -0.00000000000E+00 -0.47917767665E+03  0.47917767665E+03  0.00000000000E+00 0. -1.
          2    1    1    2  501    0 -0.21322939020E+02 -0.63567573847E+02 -0.50830072885E+01  0.67240918616E+02  0.00000000000E+00 0.  1.
         -2    1    1    2    0  503  0.21322939020E+02  0.63567573847E+02 -0.44047883744E+03  0.44555258995E+03  0.00000000000E+00 0. -1.
</event>
<event>
 4    1  0.1874565E+004  0.2407588E+02  0.7546771E-02  0.1479413E+00
         21   -1    0    0  503  502  0.00000000000E+00  0.00000000000E+00  0.18783989094E+03  0.18783989094E+03  0.00000000000E+00 0.  1.
         21   -1    0    0  501  503 -0.00000000000E+00 -0.00000000000E+00 -0.43351745645E+01  0.43351745645E+01  0.00000000000E+00 0. -1.
          2    1    1    2  501    0  0.23037542967E+02 -0.69942564696E+01  0.40170227772E+02  0.46832629744E+02  0.00000000000E+00 0. -1.
         -2    1    1    2    0  502 -0.23037542967E+02  0.69942564696E+01  0.14333448861E+03  0.14534243576E+03  0.00000000000E+00 0.  1.
</event>
<event>
 4    1  0.1874565E+004  0.2330847E+02  0.7546771E-02  0.1488661E+00
         21   -1    0    0  503  502  0.00000000000E+00  0.00000000000E+00  0.21903280749E+02  0.21903280749E+02  0.00000000000E+00 0. -1.
         21   -1    0    0  501  503 -0.00000000000E+00 -0.00000000000E+00 -0.40170957249E+02  0.40170957249E+02  0.00000000000E+00 0.  1.
          2    1    1    2  501    0 -0.11430141829E+02 -0.20313456341E+02 -0.28330337783E+02  0.36686410150E+02  0.00000000000E+00 0.  1.
         -2    1    1    2    0  502  0.11430141829E+02  0.20313456341E+02  0.10062661284E+02  0.25387827849E+02  0.00000000000E+00 0. -1.
</event>
<event>
 4    1  0.1874565E+004  0.2610663E+02  0.7546771E-02  0.1456795E+00
         21   -1    0    0  501  502  0.00000000000E+00  0.00000000000E+00  0.80414524778E+01  0.80414524778E+01  0.00000000000E+00 0.  1.
         21   -1    0    0  502  503 -0.00000000000E+00 -0.00000000000E+00 -0.15365360716E+03  0.15365360716E+03  0.00000000000E+00 0. -1.
          2    1    1    2  501    0 -0.18643379693E+02 -0.18275135328E+02 -0.18668418580E+02  0.32094641763E+02  0.00000000000E+00 0.  1.
         -2    1    1    2    0  503  0.18643379693E+02  0.18275135328E+02 -0.12694373611E+03  0.12960041788E+03  0.00000000000E+00 0. -1.
</event>
<event>
 4    1  0.1874565E+004  0.2360768E+02  0.7546771E-02  0.1485005E+00
         21   -1    0    0  503  502  0.00000000000E+00  0.00000000000E+00  0.99980968071E+01  0.99980968071E+01  0.00000000000E+00 0.  1.
         21   -1    0    0  501  503 -0.00000000000E+00 -0.00000000000E+00 -0.22011851983E+03  0.22011851983E+03  0.00000000000E+00 0. -1.
          2    1    1    2  501    0  0.63526438366E+01  0.22736894481E+02 -0.20448815447E+03  0.20584636935E+03  0.00000000000E+00 0. -1.
         -2    1    1    2    0  502 -0.63526438366E+01 -0.22736894481E+02 -0.56322685480E+01  0.24270247286E+02  0.00000000000E+00 0.  1.
</event>
<event>
 4    1  0.1874565E+004  0.2435126E+02  0.7546771E-02  0.1476193E+00
         21   -1    0    0  503  502  0.00000000000E+00  0.00000000000E+00  0.55647297177E+01  0.55647297177E+01  0.00000000000E+00 0.  1.
         21   -1    0    0  501  503 -0.00000000000E+00 -0.00000000000E+00 -0.10745320810E+03  0.10745320810E+03  0.00000000000E+00 0. -1.
          2    1    1    2  501    0 -0.19583867124E+02 -0.14472598645E+02 -0.45795441878E+02  0.51867200232E+02  0.00000000000E+00 0.  1.
         -2    1    1    2    0  502  0.19583867124E+02  0.14472598645E+02 -0.56093036500E+02  0.61150737582E+02  0.00000000000E+00 0. -1.
</event>
<event>
 4    1  0.1874565E+004  0.2257738E+02  0.7546771E-02  0.1497874E+00
         21   -1    0    0  501  502  0.00000000000E+00  0.00000000000E+00  0.36411128906E+02  0.36411128906E+02  0.00000000000E+00 0.  1.
         21   -1    0    0  502  503 -0.00000000000E+00 -0.00000000000E+00 -0.13999835174E+02  0.13999835174E+02  0.00000000000E+00 0. -1.
          2    1    1    2  501    0 -0.17388003881E+02  0.14401231787E+02  0.11085163239E+02  0.25151918415E+02  0.00000000000E+00 0.  1.
         -2    1    1    2    0  503  0.17388003881E+02 -0.14401231787E+02  0.11326130492E+02  0.25259045664E+02  0.00000000000E+00 0. -1.
</event>
<event>
 4    1  0.1874565E+004  0.2327879E+02  0.7546771E-02  0.1489027E+00
         21   -1    0    0  503  502  0.00000000000E+00  0.00000000000E+00  0.12342053691E+01  0.12342053691E+01  0.00000000000E+00 0.  1.
         21   -1    0    0  501  503 -0.00000000000E+00 -0.00000000000E+00 -0.47324238409E+03  0.47324238409E+03  0.00000000000E+00 0. -1.
          2    1    1    2  501    0 -0.11632197632E+02  0.20164178425E+02 -0.29975448317E+03  0.30065703434E+03  0.00000000000E+00 0. -1.
         -2    1    1    2    0  502  0.11632197632E+02 -0.20164178425E+02 -0.17225369555E+03  0.17381955512E+03  0.00000000000E+00 0.  1.
</event>
<event>
 4    1  0.1874565E+004  0.2162990E+02  0.7546771E-02  0.1510458E+00
         21   -1    0    0  503  502  0.00000000000E+00  0.00000000000E+00  0.20370838139E+01  0.20370838139E+01  0.00000000000E+00 0.  1.
         21   -1    0    0  501  503 -0.00000000000E+00 -0.00000000000E+00 -0.42838181741E+03  0.42838181741E+03  0.00000000000E+00 0. -1.
          2    1    1    2  501    0 -0.13322100165E+02  0.17040365752E+02 -0.35974745066E+03  0.36039711524E+03  0.00000000000E+00 0. -1.
         -2    1    1    2    0  502  0.13322100165E+02 -0.17040365752E+02 -0.66597282936E+02  0.70021785983E+02  0.00000000000E+00 0.  1.
</event>
<event>
 4    1  0.1874565E+004  0.2509584E+02  0.7546771E-02  0.1467734E+00
         21   -1    0    0  503  502  0.00000000000E+00  0.00000000000E+00  0.71359334850E+01  0.71359334850E+01  0.00000000000E+00 0. -1.
         21   -1    0    0  501  503 -0.00000000000E+00 -0.00000000000E+00 -0.95609298459E+02  0.95609298459E+02  0.00000000000E+00 0.  1.
          2    1    1    2  501    0  0.20600173774E+01 -0.25011149438E+02 -0.58481986223E+02  0.63639170174E+02  0.00000000000E+00 0.  1.
         -2    1    1    2    0  502 -0.20600173774E+01  0.25011149438E+02 -0.29991378751E+02  0.39106061770E+02  0.00000000000E+00 0. -1.
</event>
<event>
 4    1  0.1874565E+004  0.2008847E+02  0.7546771E-02  0.1532688E+00
         21   -1    0    0  501  502  0.00000000000E+00  0.00000000000E+00  0.33245333110E+01  0.33245333110E+01  0.00000000000E+00 0.  1.
         21   -1    0    0  502  503 -0.00000000000E+00 -0.00000000000E+00 -0.43821869327E+03  0.43821869327E+03  0.00000000000E+00 0. -1.
          2    1    1    2  501    0  0.25943410315E+00  0.20086792701E+02 -0.29725647716E+02  0.35877021604E+02  0.00000000000E+00 0.  1.
         -2    1    1    2    0  503 -0.25943410315E+00 -0.20086792701E+02 -0.40516851225E+03  0.40566620498E+03  0.00000000000E+00 0. -1.
</event>
<event>
 4    1  0.1874565E+004  0.4492104E+02  0.7546771E-02  0.1321835E+00
         21   -1    0    0  501  502  0.00000000000E+00  0.00000000000E+00  0.33545368494E+03  0.33545368494E+03  0.00000000000E+00 0. -1.
         21   -1    0    0  502  503 -0.00000000000E+00 -0.00000000000E+00 -0.60162471697E+01  0.60162471697E+01  0.00000000000E+00 0.  1.
          2    1    1    2  501    0  0.23437351324E+02 -0.38322186841E+02  0.16273354577E+03  0.16881974517E+03  0.00000000000E+00 0. -1.
         -2    1    1    2    0  503 -0.23437351324E+02  0.38322186841E+02  0.16670389201E+03  0.17265018694E+03  0.00000000000E+00 0.  1.
</event>
<event>
 4    1  0.1874565E+004  0.2933882E+02  0.7546771E-02  0.1425430E+00
         21   -1    0    0  501  502  0.00000000000E+00  0.00000000000E+00  0.33451186027E+01  0.33451186027E+01  0.00000000000E+00 0. -1.
         21   -1    0    0  502  503 -0.00000000000E+00 -0.00000000000E+00 -0.28048539410E+03  0.28048539410E+03  0.00000000000E+00 0.  1.
          2    1    1    2  501    0 -0.49751739084E+01  0.28913911304E+02 -0.97785948275E+02  0.10209240081E+03  0.00000000000E+00 0. -1.
         -2    1    1    2    0  503  0.49751739084E+01 -0.28913911304E+02 -0.17935432722E+03  0.18173811189E+03  0.00000000000E+00 0.  1.
</event>
<event>
 4    1  0.1874565E+004  0.2010336E+02  0.7546771E-02  0.1532462E+00
         21   -1    0    0  501  502  0.00000000000E+00  0.00000000000E+00  0.10678849063E+03  0.10678849063E+03  0.00000000000E+00 0.  1.
         21   -1    0    0  502  503 -0.00000000000E+00 -0.00000000000E+00 -0.57262718211E+01  0.57262718211E+01  0.00000000000E+00 0. -1.
          2    1    1    2  501    0 -0.48362593647E+01  0.19512957992E+02  0.83290706672E+02  0.85682476342E+02  0.00000000000E+00 0.  1.
         -2    1    1    2    0  503  0.48362593647E+01 -0.19512957992E+02  0.17771512140E+02  0.26832286111E+02  0.00000000000E+00 0. -1.
</event>
<event>
 4    1  0.1874565E+004  0.2008041E+02  0.7546771E-02  0.1532810E+00
         21   -1    0    0  503  502  0.00000000000E+00  0.00000000000E+00  0.72728139683E+02  0.72728139683E+02  0.00000000000E+00 0. -1.
         21   -1    0    0  501  503 -0.00000000000E+00 -0.00000000000E+00 -0.57862156361E+01  0.57862156361E+01  0.00000000000E+00 0.  1.
          2    1    1    2  501    0  0.19793203277E+02  0.33840884047E+01  0.25443115100E+02  0.32412575588E+02  0.00000000000E+00 0. -1.
         -2    1    1    2    0  502 -0.19793203277E+02 -0.33840884047E+01  0.41498808947E+02  0.46101779731E+02  0.00000000000E+00 0.  1.
</event>
<event>
 4    1  0.1874565E+004  0.5927187E+02  0.7546771E-02  0.1262327E+00
         21   -1    0    0  503  502  0.00000000000E+00  0.00000000000E+00  0.92199119881E+01  0.92199119881E+01  0.00000000000E+00 0.  1.
         21   -1    0    0  501  503 -0.00000000000E+00 -0.00000000000E+00 -0.38216972144E+03  0.38216972144E+03  0.00000000000E+00 0. -1.
          2    1    1    2  501    0 -0.17709493592E+02 -0.56564377230E+02 -0.19711495631E+03  0.20583357582E+03  0.00000000000E+00 0. -1.
         -2    1    1    2    0  502  0.17709493592E+02  0.56564377230E+02 -0.17583485314E+03  0.18555605761E+03  0.00000000000E+00 0.  1.
</event>
<event>
 4    1  0.1874565E+004  0.3182248E+02  0.7546771E-02  0.1404393E+00
         21   -1    0    0  501  502  0.00000000000E+00  0.00000000000E+00  0.94962435109E+02  0.94962435109E+02  0.00000000000E+00 0. -1.
         21   -1    0    0  502  503 -0.00000000000E+00 -0.00000000000E+00 -0.27426856132E+02  0.27426856132E+02  0.00000000000E+00 0.  1.
          2    1    1    2  501    0 -0.30907959921E+02 -0.75742031366E+01  0.81608831299E+02  0.87593789081E+02  0.00000000000E+00 0. -1.
         -2    1    1    2    0  503  0.30907959921E+02  0.75742031366E+01 -0.14073252322E+02  0.34795502159E+02  0.00000000000E+00 0.  1.
</event>
<event>
 4    1  0.1874565E+004  0.2306067E+02  0.7546771E-02  0.1491738E+00
         21   -1    0    0  501  502  0.00000000000E+00  0.00000000000E+00  0.33932530689E+01  0.33932530689E+01  0.00000000000E+00 0. -1.
         21   -1    0    0  502  503 -0.00000000000E+00 -0.00000000000E+00 -0.18069929959E+03  0.18069929959E+03  0.00000000000E+00 0.  1.
          2    1    1    2  501    0 -0.20605262130E+02 -0.10354605676E+02 -0.55122881682E+02  0.59752211433E+02  0.00000000000E+00 0. -1.
         -2    1    1    2    0  503  0.20605262130E+02  0.10354605676E+02 -0.12218316484E+03  0.12434034122E+03  0.00000000000E+00 0.  1.
</event>
<event>
 4    1  0.1874565E+004  0.2164597E+02  0.7546771E-02  0.1510239E+00
         21   -1    0    0  501  502  0.00000000000E+00  0.00000000000E+00  0.29869864891E+02  0.29869864891E+02  0.00000000000E+00 0.  1.
         21   -1    0    0  502  503 -0.00000000000E+00 -0.00000000000E+00 -0.68588756139E+02  0.68588756139E+02  0.00000000000E+00 0. -1.
          2    1    1    2  501    0  0.58480249418E+01  0.20841033701E+02  0.23875523184E+02  0.32227142113E+02  0.00000000000E+00 0.  1.
         -2    1    1    2    0  503 -0.58480249418E+01 -0.20841033701E+02 -0.62594414432E+02  0.66231478917E+02  0.00000000000E+00 0. -1.
</event>
<event>
 4    1  0.1874565E+004  0.2701692E+02  0.7546771E-02  0.1447438E+00
         21   -1    0    0  501  502  0.00000000000E+00  0.00000000000E+00  0.33804392183E+01  0.33804392183E+01  0.00000000000E+00 0. -1.
         21   -1    0    0  502  503 -0.00000000000E+00 -0.00000000000E+00 -0.48156276685E+03  0.48156276685E+03  0.00000000000E+00 0.  1.
          2    1    1    2  501    0  0.54607942878E+01  0.26459285263E+02 -0.59004685353E+02  0.64895816078E+02  0.00000000000E+00 0. -1.
         -2    1    1    2    0  503 -0.54607942878E+01 -0.26459285263E+02 -0.41917764228E+03  0.42004738999E+03  0.00000000000E+00 0.  1.
</event>
<event>
 4    1  0.1874565E+004  0.2797460E+02  0.7546771E-02  0.1438056E+00
         21   -1    0    0  503  502  0.00000000000E+00  0.00000000000E+00  0.17165436144E+03  0.17165436144E+03  0.00000000000E+00 0.  1.
         21   -1    0    0  501  503 -0.00000000000E+00 -0.00000000000E+00 -0.51841983312E+01  0.51841983312E+01  0.00000000000E+00 0. -1.
          2    1    1    2  501    0 -0.16727544472E+02  0.22422477831E+02  0.52530520811E+02  0.59514988640E+02  0.00000000000E+00 0. -1.
         -2    1    1    2    0  502  0.16727544472E+02 -0.22422477831E+02  0.11393964230E+03  0.11732357113E+03  0.00000000000E+00 0.  1.
</event>
<event>
 4    1  0.1874565E+004  0.3258490E+02  0.7546771E-02  0.1398386E+00
         21   -1    0    0  501  502  0.00000000000E+00  0.00000000000E+00  0.18424471109E+02  0.18424471109E+02  0.00000000000E+00 0.  1.
         21   -1    0    0  502  503 -0.00000000000E+00 -0.00000000000E+00 -0.12879654879E+03  0.12879654879E+03  0.00000000000E+00 0. -1.
          2    1    1    2  501    0  0.18613776522E+02 -0.26745149727E+02 -0.46805780562E+00  0.32588261513E+02  0.00000000000E+00 0.  1.
         -2    1    1    2    0  503 -0.18613776522E+02  0.26745149727E+02 -0.10990401988E+03  0.11463275839E+03  0.00000000000E+00 0. -1.
</event>
<event>
 4    1  0.1874565E+004  0.2247416E+02  0.7546771E-02  0.1499209E+00
         21   -1    0    0  501  502  0.00000000000E+00  0.00000000000E+00  0.42464966129E+02  0.42464966129E+02  0.00000000000E+00 0. -1.
         21   -1    0    0  502  503 -0.00000000000E+00 -0.00000000000E+00 -0.12772980476E+02  0.12772980476E+02  0.00000000000E+00 0.  1.
          2    1    1    2  501    0  0.10748285894E+01 -0.22448438443E+02  0.22090297204E+02  0.31512995344E+02  0.00000000000E+00 0. -1.
         -2    1    1    2    0  503 -0.10748285894E+01  0.22448438443E+02  0.76016884486E+01  0.23724951260E+02  0.00000000000E+00 0.  1.
</event>
<event>
 4    1  0.1874565E+004  0.2135750E+02  0.7546771E-02  0.1514221E+00
         21   -1    0    0  501  502  0.00000000000E+00  0.00000000000E+00  0.48058390225E+03  0.48058390225E+03  0.00000000000E+00 0.  1.
         21   -1    0    0  502  503 -0.00000000000E+00 -0.00000000000E+00 -0.97478304242E+00  0.97478304242E+00  0.00000000000E+00 0. -1.
          2    1    1    2  501    0 -0.18189674121E+02  0.11192787045E+02  0.27885507146E+03  0.27967176047E+03  0.00000000000E+00 0.  1.
         -2    1    1    2    0  503  0.18189674121E+02 -0.11192787045E+02  0.20075404775E+03  0.20188692482E+03  0.00000000000E+00 0. -1.
</event>
<event>
 4    1  0.1874565E+004  0.2166441E+02  0.7546771E-02  0.1509986E+00
         21   -1    0    0  503  502  0.00000000000E+00  0.00000000000E+00  0.12468492224E+03  0.12468492224E+03  0.00000000000E+00 0.  1.
         21   -1    0    0  501  503 -0.00000000000E+00 -0.00000000000E+00 -0.39047222940E+01  0.39047222940E+01  0.00000000000E+00 0. -1.
          2    1    1    2  501    0 -0.21483261988E+02  0.27957636830E+01  0.48195820187E+02  0.52841119629E+02  0.00000000000E+00 0.  1.
         -2    1    1    2    0  502  0.21483261988E+02 -0.27957636830E+01  0.72584379761E+02  0.75748524906E+02  0.00000000000E+00 0. -1.
</event>
<event>
 4    1  0.1874565E+004  0.2172074E+02  0.7546771E-02  0.1509218E+00
         21   -1    0    0  501  502  0.00000000000E+00  0.00000000000E+00  0.32095474348E+02  0.32095474348E+02  0.00000000000E+00 0.  1.
         21   -1    0    0  502  503 -0.00000000000E+00 -0.00000000000E+00 -0.21948376902E+03  0.21948376902E+03  0.00000000000E+00 0. -1.
          2    1    1    2  501    0 -0.21556402686E+02 -0.26668639677E+01  0.27810194006E+02  0.35287356813E+02  0.00000000000E+00 0.  1.
         -2    1    1    2    0  503  0.21556402686E+02  0.26668639677E+01 -0.21519848867E+03  0.21629188655E+03  0.00000000000E+00 0. -1.
</event>
<event>
 4    1  0.1874565E+004  0.2670123E+02  0.7546771E-02  0.1450633E+00
         21   -1    0    0  503  502  0.00000000000E+00  0.00000000000E+00  0.49842118458E+01  0.49842118458E+01  0.00000000000E+00 0. -1.
         21   -1    0    0  501  503 -0.00000000000E+00 -0.00000000000E+00 -0.21664062428E+03  0.21664062428E+03  0.00000000000E+00 0.  1.
          2    1    1    2  501    0 -0.77350234262E+01  0.25556309651E+02 -0.17041608338E+03  0.17249520870E+03  0.00000000000E+00 0.  1.
         -2    1    1    2    0  502  0.77350234262E+01 -0.25556309651E+02 -0.41240329057E+02  0.49129627427E+02  0.00000000000E+00 0. -1.
</event>
<event>
 4    1  0.1874565E+004  0.2175771E+02  0.7546771E-02  0.1508716E+00
         21   -1    0    0  501  502  0.00000000000E+00  0.00000000000E+00  0.82284437876E+02  0.82284437876E+02  0.00000000000E+00 0.  1.
         21   -1    0    0  502  503 -0.00000000000E+00 -0.00000000000E+00 -0.15231650653E+02  0.15231650653E+02  0.00000000000E+00 0. -1.
          2    1    1    2  501    0 -0.21523600619E+02 -0.31831886288E+01  0.71989262889E+02  0.75205399040E+02  0.00000000000E+00 0.  1.
         -2    1    1    2    0  503  0.21523600619E+02  0.31831886288E+01 -0.49364756665E+01  0.22310689489E+02  0.00000000000E+00 0. -1.
</event>
<event>
 4    1  0.1874565E+004  0.2686166E+02  0.7546771E-02  0.1449003E+00
         21   -1    0    0  501  502  0.00000000000E+00  0.00000000000E+00  0.19802576353E+03  0.19802576353E+03  0.00000000000E+00 0.  1.
         21   -1    0    0  502  503 -0.00000000000E+00 -0.00000000000E+00 -0.40207429286E+01  0.40207429286E+01  0.00000000000E+00 0. -1.
          2    1    1    2  501    0 -0.26209792970E+02  0.58817907169E+01  0.12793800720E+03  0.13072751201E+03  0.00000000000E+00 0. -1.
         -2    1    1    2    0  503  0.26209792970E+02 -0.58817907169E+01  0.66067013396E+02  0.71318994445E+02  0.00000000000E+00 0.  1.
</event>
<event>
 4    1  0.1874565E+004  0.2687754E+02  0.7546771E-02  0.1448842E+00
         21   -1    0    0  503  502  0.00000000000E+00  0.00000000000E+00  0.19050197490E+02  0.19050197490E+02  0.00000000000E+00 0.  1.
         21   -1    0    0  501  503 -0.00000000000E+00 -0.00000000000E+00 -0.89534343452E+02  0.89534343452E+02  0.00000000000E+00 0. -1.
          2    1    1    2  501    0 -0.21111076218E+02 -0.16635046681E+02 -0.76463613955E+02  0.81049901765E+02  0.00000000000E+00 0. -1.
         -2    1    1    2    0  502  0.21111076218E+02  0.16635046681E+02  0.59794679929E+01  0.27534639177E+02  0.00000000000E+00 0.  1.
</event>
<event>
 4    1  0.1874565E+004  0.2449306E+02  0.7546771E-02  0.1474555E+00
         21   -1    0    0  501  502  0.00000000000E+00  0.00000000000E+00  0.85989115065E+02  0.85989115065E+02  0.00000000000E+00 0.  1.
         21   -1    0    0  502  503 -0.00000000000E+00 -0.00000000000E+00 -0.13232477103E+02  0.13232477103E+02  0.00000000000E+00 0. -1.
          2    1    1    2  501    0  0.21596802267E+02  0.11553713742E+02  0.70489780428E+02  0.74623852181E+02  0.00000000000E+00 0.  1.
         -2    1    1    2    0  503 -0.21596802267E+02 -0.11553713742E+02  0.22668575343E+01  0.24597739988E+02  0.00000000000E+00 0. -1.
</event>
<event>
 4    1  0.1874565E+004  0.2513392E+02  0.7546771E-02  0.1467311E+00
         21   -1    0    0  501  502  0.00000000000E+00  0.00000000000E+00  0.77022890117E+02  0.77022890117E+02  0.00000000000E+00 0.  1.
         21   -1    0    0  502  503 -0.00000000000E+00 -0.00000000000E+00 -0.12856813948E+02  0.12856813948E+02  0.00000000000E+00 0. -1.
          2    1    1    2  501    0 -0.12707850301E+01 -0.25101771285E+02  0.59124678697E+02  0.64245166723E+02  0.00000000000E+00 0.  1.
         -2    1    1    2    0  503  0.12707850301E+01  0.25101771285E+02  0.50413974716E+01  0.25634537341E+02  0.00000000000E+00 0. -1.
</event>
<event>
 4    1  0.1874565E+004  0.2824658E+02  0.7546771E-02  0.1435472E+00
         21   -1    0    0  501  502  0.00000000000E+00  0.00000000000E+00  0.39185628982E+02  0.39185628982E+02  0.00000000000E+00 0.  1.
         21   -1    0    0  502  503 -0.00000000000E+00 -0.00000000000E+00 -0.36516255517E+02  0.36516255517E+02  0.00000000000E+00 0. -1.
          2    1    1    2  501    0 -0.42312198038E+01 -0.27927876070E+02  0.26510688265E+02  0.38738689641E+02  0.00000000000E+00 0.  1.
         -2    1    1    2    0  503  0.42312198038E+01  0.27927876070E+02 -0.23841314800E+02  0.36963194859E+02  0.00000000000E+00 0. -1.
</event>
<event>
 4    1  0.1874565E+004  0.2897303E+02  0.7546771E-02  0.1428736E+00
         21   -1    0    0  501  502  0.00000000000E+00  0.00000000000E+00  0.18492634627E+03  0.18492634627E+03  0.00000000000E+00 0.  1.
         21   -1    0    0  502  503 -0.00000000000E+00 -0.00000000000E+00 -0.93060197514E+01  0.93060197514E+01  0.00000000000E+00 0. -1.
          2    1    1    2  501    0  0.28961673125E+02  0.81117406351E+00  0.15731569070E+03  0.15996144240E+03  0.00000000000E+00 0.  1.
         -2    1    1    2    0  503 -0.28961673125E+02 -0.81117406351E+00  0.18304635818E+02  0.34270923623E+02  0.00000000000E+00 0. -1.
</event>
<event>
 4    1  0.1874565E+004  0.2612574E+02  0.7546771E-02  0.1456593E+00
         21   -1    0    0  501  502  0.00000000000E+00  0.00000000000E+00  0.85124744373E+01  0.85124744373E+01  0.00000000000E+00 0. -1.
         21   -1    0    0  502  503 -0.00000000000E+00 -0.00000000000E+00 -0.10965649716E+03  0.10965649716E+03  0.00000000000E+00 0.  1.
          2    1    1    2  501    0 -0.22454535486E+02 -0.13354703926E+02 -0.19940151121E+02  0.32865847130E+02  0.00000000000E+00 0. -1.
         -2    1    1    2    0  503  0.22454535486E+02  0.13354703926E+02 -0.81203871597E+02  0.85303124463E+02  0.00000000000E+00 0.  1.
</event>
<event>
 4    1  0.1874565E+004  0.2032428E+02  0.7546771E-02  0.1529135E+00
         21   -1    0    0  503  502  0.00000000000E+00  0.00000000000E+00  0.15450111331E+03  0.15450111331E+03  0.00000000000E+00 0. -1.
         21   -1    0    0  501  503 -0.00000000000E+00 -0.00000000000E+00 -0.26737366143E+01  0.26737366143E+01  0.00000000000E+00 0.  1.
          2    1    1    2  501    0  0.18368776064E+02  0.86985209338E+01  0.75379551856E+02  0.78071461102E+02  0.00000000000E+00 0.  1.
         -2    1    1    2    0  502 -0.18368776064E+02 -0.86985209338E+01  0.76447824842E+02  0.79103388825E+02  0.00000000000E+00 0. -1.
</event>
<event>
 4    1  0.1874565E+004  0.2075689E+02  0.7546771E-02  0.1522764E+00
         21   -1    0    0  503  502  0.00000000000E+00  0.00000000000E+00  0.43098011558E+01  0.43098011558E+01  0.00000000000E+00 0. -1.
         21   -1    0    0  501  503 -0.00000000000E+00 -0.00000000000E+00 -0.17818287620E+03  0.17818287620E+03  0.00000000000E+00 0.  1.
          2    1    1    2  501    0 -0.16416290207E+02 -0.12702519110E+02 -0.14739025885E+03  0.14884467400E+03  0.00000000000E+00 0.  1.
         -2    1    1    2    0  502  0.16416290207E+02  0.12702519110E+02 -0.26482816194E+02  0.33648003350E+02  0.00000000000E+00 0. -1.
</event>
<event>
 4    1  0.1874565E+004  0.5305898E+02  0.7546771E-02  0.1285428E+00
         21   -1    0    0  501  502  0.00000000000E+00  0.00000000000E+00  0.10132045217E+02  0.10132045217E+02  0.00000000000E+00 0. -1.
         21   -1    0    0  502  503 -0.00000000000E+00 -0.00000000000E+00 -0.74026661366E+03  0.74026661366E+03  0.00000000000E+00 0.  1.
          2    1    1    2  501    0  0.52644899202E+02 -0.66158989652E+01 -0.68528438983E+02  0.86668347627E+02  0.00000000000E+00 0. -1.
         -2    1    1    2    0  503 -0.52644899202E+02  0.66158989652E+01 -0.66160612946E+03  0.66373031125E+03  0.00000000000E+00 0.  1.
</event>
<event>
 4    1  0.1874565E+004  0.2423426E+02  0.7546771E-02  0.1477555E+00
         21   -1    0    0  503  502  0.00000000000E+00  0.00000000000E+00  0.14000332680E+04  0.14000332680E+04  0.00000000000E+00 0. -1.
         21   -1    0    0  501  503 -0.00000000000E+00 -0.00000000000E+00 -0.52704944532E+00  0.52704944532E+00  0.00000000000E+00 0.  1.
          2    1    1    2  501    0 -0.21068503855E+02  0.11975698610E+02  0.38340044921E+03  0.38416559407E+03  0.00000000000E+00 0.  1.
         -2    1    1    2    0  502  0.21068503855E+02 -0.11975698610E+02  0.10161057694E+04  0.10163947234E+04  0.00000000000E+00 0. -1.
</event>
<event>
 4    1  0.1874565E+004  0.2727521E+02  0.7546771E-02  0.1444863E+00
         21   -1    0    0  501  502  0.00000000000E+00  0.00000000000E+00  0.19491353030E+02  0.19491353030E+02  0.00000000000E+00 0.  1.
         21   -1    0    0  502  503 -0.00000000000E+00 -0.00000000000E+00 -0.54849244849E+02  0.54849244849E+02  0.00000000000E+00 0. -1.
          2    1    1    2  501    0 -0.96198292530E+01 -0.25522459983E+02  0.28199697803E+01  0.27420600066E+02  0.00000000000E+00 0.  1.
         -2    1    1    2    0  503  0.96198292530E+01  0.25522459983E+02 -0.38177861599E+02  0.46919997812E+02  0.00000000000E+00 0. -1.
</event>
<event>
 4    1  0.1874565E+004  0.3200459E+02  0.7546771E-02  0.1402941E+00
         21   -1    0    0  503  502  0.00000000000E+00  0.00000000000E+00  0.22470929710E+02  0.22470929710E+02  0.00000000000E+00 0. -1.
         21   -1    0    0  501  503 -0.00000000000E+00 -0.00000000000E+00 -0.45864202682E+02  0.45864202682E+02  0.00000000000E+00 0.  1.
          2    1    1    2  501    0  0.27478892734E+02 -0.16407452997E+02 -0.14371671230E+02  0.35083315033E+02  0.00000000000E+00 0.  1.
         -2    1    1    2    0  502 -0.27478892734E+02  0.16407452997E+02 -0.90216017410E+01  0.33251817360E+02  0.00000000000E+00 0. -1.
</event>
<event>
 4    1  0.1874565E+004  0.2081473E+02  0.7546771E-02  0.1521927E+00
         21   -1    0    0  503  502  0.00000000000E+00  0.00000000000E+00  0.76362765819E+02  0.76362765819E+02  0.00000000000E+00 0. -1.
         21   -1    0    0  501  503 -0.00000000000E+00 -0.00000000000E+00 -0.17787273361E+02  0.17787273361E+02  0.00000000000E+00 0.  1.
          2    1    1    2  501    0  0.25835159893E-01 -0.20814715432E+02 -0.95606821369E+01  0.22905451073E+02  0.00000000000E+00 0.  1.
         -2    1    1    2    0  502 -0.25835159893E-01  0.20814715432E+02  0.68136174595E+02  0.71244588106E+02  0.00000000000E+00 0. -1.
</event>
<event>
 4    1  0.1874565E+004  0.2138282E+02  0.7546771E-02  0.1513869E+00
         21   -1    0    0  503  502  0.00000000000E+00  0.00000000000E+00  0.59895448656E+02  0.59895448656E+02  0.00000000000E+00 0.  1.
         21   -1    0    0  501  503 -0.00000000000E+00 -0.00000000000E+00 -0.12866311886E+02  0.12866311886E+02  0.00000000000E+00 0. -1.
          2    1    1    2  501    0 -0.13390292894E+02 -0.16671081442E+02  0.31367411456E+00  0.21385118463E+02  0.00000000000E+00 0. -1.
         -2    1    1    2    0  502  0.13390292894E+02  0.16671081442E+02  0.46715462656E+02  0.51376642080E+02  0.00000000000E+00 0.  1.
</event>
<event>
 4    1  0.1874565E+004  0.2172624E+02  0.7546771E-02  0.1509144E+00
         21   -1    0    0  501  502  0.00000000000E+00  0.00000000000E+00  0.35019469238E+03  0.35019469238E+03  0.00000000000E+00 0.  1.
         21   -1    0    0  502  503 -0.00000000000E+00 -0.00000000000E+00 -0.25932657163E+01  0.25932657163E+01  0.00000000000E+00 0. -1.
          2    1    1    2  501    0 -0.85151574621E+01 -0.19988035334E+02  0.29603912166E+03  0.29683529274E+03  0.00000000000E+00 0. -1.
         -2    1    1    2    0  503  0.85151574621E+01  0.19988035334E+02  0.51562305000E+02  0.55952665352E+02  0.00000000000E+00 0.  1.
</event>
<event>
 4    1  0.1874565E+004  0.2102704E+02  0.7546771E-02  0.1518879E+00
         21   -1    0    0  503  502  0.00000000000E+00  0.00000000000E+00  0.27794296218E+01  0.27794296218E+01  0.00000000000E+00 0. -1.
         21   -1    0    0  501  503 -0.00000000000E+00 -0.00000000000E+00 -0.15911411603E+03  0.15911411603E+03  0.00000000000E+00 0.  1.
          2    1    1    2  501    0  0.58870872143E+01  0.20186103731E+02 -0.79443433266E+02  0.82179046410E+02  0.00000000000E+00 0. -1.
         -2    1    1    2    0  502 -0.58870872143E+01 -0.20186103731E+02 -0.76891253144E+02  0.79714499244E+02  0.00000000000E+00 0.  1.
</event>
<event>
 4    1  0.1874565E+004  0.3086851E+02  0.7546771E-02  0.1412196E+00
         21   -1    0    0  503  502  0.00000000000E+00  0.00000000000E+00  0.59539486304E+01  0.59539486304E+01  0.00000000000E+00 0.  1.
         21   -1    0    0  501  503 -0.00000000000E+00 -0.00000000000E+00 -0.17929843259E+03  0.17929843259E+03  0.00000000000E+00 0. -1.
          2    1    1    2  501    0 -0.27134934226E+02 -0.14715993407E+02 -0.11702968275E+03  0.12103227570E+03  0.00000000000E+00 0. -1.
         -2    1    1    2    0  502  0.27134934226E+02  0.14715993407E+02 -0.56314801214E+02  0.64220105522E+02  0.00000000000E+00 0.  1.
</event>
