<event>
 4    1  0.6116490E+003  0.2818179E+02  0.7546771E-02  0.1436085E+00
          2   -1    0    0  501    0  0.00000000000E+00  0.00000000000E+00  0.40677605013E+03  0.40677605013E+03  0.00000000000E+00 0. -1.
         -2   -1    0    0    0  501 -0.00000000000E+00 -0.00000000000E+00 -0.41922626489E+02  0.41922626489E+02  0.00000000000E+00 0.  1.
          2    1    1    2  502    0  0.16513799642E+02 -0.22836539260E+02  0.40148946483E+03  0.40247733287E+03  0.00000000000E+00 0. -1.
         -2    1    1    2    0  502 -0.16513799642E+02  0.22836539260E+02 -0.36636041189E+02  0.46221343750E+02  0.00000000000E+00 0.  1.
</event>
<event>
 4    1  0.6116490E+003  0.2192452E+02  0.7546771E-02  0.1506463E+00
          2   -1    0    0  501    0  0.00000000000E+00  0.00000000000E+00  0.75088308143E+02  0.75088308143E+02  0.00000000000E+00 0. -1.
         -2   -1    0    0    0  501 -0.00000000000E+00 -0.00000000000E+00 -0.88187724025E+01  0.88187724025E+01  0.00000000000E+00 0. -1.
          2    1    1    2  502    0  0.26175808649E+01  0.21767689897E+02  0.11170341319E+02  0.24606108555E+02  0.00000000000E+00 0. -1.
         -2    1    1    2    0  502 -0.26175808649E+01 -0.21767689897E+02  0.55099194422E+02  0.59300971991E+02  0.00000000000E+00 0. -1.
</event>
<event>
 4    1  0.6116490E+003  0.4431524E+02  0.7546771E-02  0.1324899E+00
          2   -1    0    0  501    0  0.00000000000E+00  0.00000000000E+00  0.10601132754E+03  0.10601132754E+03  0.00000000000E+00 0.  1.
         -2   -1    0    0    0  501 -0.00000000000E+00 -0.00000000000E+00 -0.19868657844E+02  0.19868657844E+02  0.00000000000E+00 0.  1.
          2    1    1    2  502    0  0.27923781760E+02 -0.34410762919E+02  0.26702424476E+02  0.51738357776E+02  0.00000000000E+00 0.  1.
         -2    1    1    2    0  502 -0.27923781760E+02  0.34410762919E+02  0.59440245218E+02  0.74141627606E+02  0.00000000000E+00 0.  1.
</event>
<event>
 4    1  0.6116490E+003  0.2065462E+02  0.7546771E-02  0.1524253E+00
          2   -1    0    0  501    0  0.00000000000E+00  0.00000000000E+00  0.45336492302E+01  0.45336492302E+01  0.00000000000E+00 0.  1.
         -2   -1    0    0    0  501 -0.00000000000E+00 -0.00000000000E+00 -0.64623473644E+03  0.64623473644E+03  0.00000000000E+00 0.  1.
          2    1    1    2  502    0  0.15204127996E+02  0.13980271671E+02 -0.20087765444E+02  0.28812008341E+02  0.00000000000E+00 0.  1.
         -2    1    1    2    0  502 -0.15204127996E+02 -0.13980271671E+02 -0.62161332177E+03  0.62195637733E+03  0.00000000000E+00 0.  1.
</event>
<event>
 4    1  0.6116490E+003  0.2747900E+02  0.7546771E-02  0.1442855E+00
          2   -1    0    0  501    0  0.00000000000E+00  0.00000000000E+00  0.19464516483E+03  0.19464516483E+03  0.00000000000E+00 0. -1.
         -2   -1    0    0    0  501 -0.00000000000E+00 -0.00000000000E+00 -0.70756299599E+01  0.70756299599E+01  0.00000000000E+00 0.  1.
          2    1    1    2  502    0  0.21178518924E+02  0.17509024703E+02  0.16157403044E+03  0.16389406006E+03  0.00000000000E+00 0. -1.
         -2    1    1    2    0  502 -0.21178518924E+02 -0.17509024703E+02  0.25995504430E+02  0.37826734732E+02  0.00000000000E+00 0.  1.
</event>
<event>
 4    1  0.6116490E+003  0.3212345E+02  0.7546771E-02  0.1401999E+00
          2   -1    0    0  501    0  0.00000000000E+00  0.00000000000E+00  0.94846709849E+02  0.94846709849E+02  0.00000000000E+00 0.  1.
         -2   -1    0    0    0  501 -0.00000000000E+00 -0.00000000000E+00 -0.11428770911E+03  0.11428770911E+03  0.00000000000E+00 0. -1.
          2    1    1    2  502    0 -0.31458273371E+02  0.65032902775E+01  0.89745024962E+02  0.95320959150E+02  0.00000000000E+00 0.  1.
         -2    1    1    2    0  502  0.31458273371E+02 -0.65032902775E+01 -0.10918602422E+03  0.11381345981E+03  0.00000000000E+00 0. -1.
</event>
<event>
 4    1  0.6116490E+003  0.2644049E+02  0.7546771E-02  0.1453311E+00
          2   -1    0    0  501    0  0.00000000000E+00  0.00000000000E+00  0.23668094658E+02  0.23668094658E+02  0.00000000000E+00 0. -1.
         -2   -1    0    0    0  501 -0.00000000000E+00 -0.00000000000E+00 -0.40346601438E+02  0.40346601438E+02  0.00000000000E+00 0.  1.
          2    1    1    2  502    0 -0.25821927755E+02  0.56857283466E+01  0.82275365842E+01  0.27691006086E+02  0.00000000000E+00 0. -1.
         -2    1    1    2    0  502  0.25821927755E+02 -0.56857283466E+01 -0.24906043365E+02  0.36323690010E+02  0.00000000000E+00 0.  1.
</event>
<event>
 4    1  0.6116490E+003  0.2122102E+02  0.7546771E-02  0.1516132E+00
          2   -1    0    0  501    0  0.00000000000E+00  0.00000000000E+00  0.11895788679E+04  0.11895788679E+04  0.00000000000E+00 0. -1.
         -2   -1    0    0    0  501 -0.00000000000E+00 -0.00000000000E+00 -0.46749351988E+01  0.46749351988E+01  0.00000000000E+00 0.  1.
          2    1    1    2  502    0  0.19968833248E+02 -0.71817534208E+01  0.11648916481E+04  0.11650849256E+04  0.00000000000E+00 0. -1.
         -2    1    1    2    0  502 -0.19968833248E+02  0.71817534208E+01  0.20012284590E+02  0.29168877558E+02  0.00000000000E+00 0.  1.
</event>
<event>
 4    1  0.6116490E+003  0.2271248E+02  0.7546771E-02  0.1496140E+00
          2   -1    0    0  501    0  0.00000000000E+00  0.00000000000E+00  0.44479930023E+03  0.44479930023E+03  0.00000000000E+00 0. -1.
         -2   -1    0    0    0  501 -0.00000000000E+00 -0.00000000000E+00 -0.33915594267E+02  0.33915594267E+02  0.00000000000E+00 0. -1.
          2    1    1    2  502    0 -0.38937630013E+01  0.22376219594E+02  0.44067126266E+03  0.44125618220E+03  0.00000000000E+00 0. -1.
         -2    1    1    2    0  502  0.38937630013E+01 -0.22376219594E+02 -0.29787556693E+02  0.37458712303E+02  0.00000000000E+00 0. -1.
</event>
<event>
 4    1  0.6116490E+003  0.2110131E+02  0.7546771E-02  0.1517823E+00
          2   -1    0    0  501    0  0.00000000000E+00  0.00000000000E+00  0.61462300312E+02  0.61462300312E+02  0.00000000000E+00 0.  1.
         -2   -1    0    0    0  501 -0.00000000000E+00 -0.00000000000E+00 -0.21023051577E+03  0.21023051577E+03  0.00000000000E+00 0.  1.
          2    1    1    2  502    0 -0.55033492066E+01 -0.20371018238E+02  0.59101152796E+02  0.62755171089E+02  0.00000000000E+00 0.  1.
         -2    1    1    2    0  502  0.55033492066E+01  0.20371018238E+02 -0.20786936825E+03  0.20893764499E+03  0.00000000000E+00 0.  1.
</event>
<event>
 4    1  0.6116490E+003  0.4496326E+02  0.7546771E-02  0.1321623E+00
          2   -1    0    0  501    0  0.00000000000E+00  0.00000000000E+00  0.19707129902E+04  0.19707129902E+04  0.00000000000E+00 0. -1.
         -2   -1    0    0    0  501 -0.00000000000E+00 -0.00000000000E+00 -0.58945869531E+01  0.58945869531E+01  0.00000000000E+00 0. -1.
          2    1    1    2  502    0  0.25193086914E+02  0.37242486627E+02  0.18806050737E+04  0.18811425086E+04  0.00000000000E+00 0. -1.
         -2    1    1    2    0  502 -0.25193086914E+02 -0.37242486627E+02  0.84213329462E+02  0.95465068468E+02  0.00000000000E+00 0. -1.
</event>
<event>
 4    1  0.6116490E+003  0.2492912E+02  0.7546771E-02  0.1469598E+00
          2   -1    0    0  501    0  0.00000000000E+00  0.00000000000E+00  0.33661145650E+03  0.33661145650E+03  0.00000000000E+00 0.  1.
         -2   -1    0    0    0  501 -0.00000000000E+00 -0.00000000000E+00 -0.14833079098E+04  0.14833079098E+04  0.00000000000E+00 0.  1.
          2    1    1    2  502    0 -0.11288535758E+02 -0.22226782026E+02  0.33604498124E+03  0.33696838175E+03  0.00000000000E+00 0.  1.
         -2    1    1    2    0  502  0.11288535758E+02  0.22226782026E+02 -0.14827414345E+04  0.14829509845E+04  0.00000000000E+00 0.  1.
</event>
<event>
 4    1  0.6116490E+003  0.4429572E+02  0.7546771E-02  0.1324999E+00
          2   -1    0    0  501    0  0.00000000000E+00  0.00000000000E+00  0.95971443868E+03  0.95971443868E+03  0.00000000000E+00 0.  1.
         -2   -1    0    0    0  501 -0.00000000000E+00 -0.00000000000E+00 -0.69248712732E+01  0.69248712732E+01  0.00000000000E+00 0.  1.
          2    1    1    2  502    0  0.42403236349E+02 -0.12809227618E+02  0.88214262069E+03  0.88325404839E+03  0.00000000000E+00 0.  1.
         -2    1    1    2    0  502 -0.42403236349E+02  0.12809227618E+02  0.70646946716E+02  0.83385261559E+02  0.00000000000E+00 0.  1.
</event>
<event>
 4    1  0.6116490E+003  0.2590898E+02  0.7546771E-02  0.1458886E+00
          2   -1    0    0  501    0  0.00000000000E+00  0.00000000000E+00  0.19455781783E+04  0.19455781783E+04  0.00000000000E+00 0.  1.
         -2   -1    0    0    0  501 -0.00000000000E+00 -0.00000000000E+00 -0.20534528820E+01  0.20534528820E+01  0.00000000000E+00 0.  1.
          2    1    1    2  502    0  0.24540494568E+02 -0.83089998297E+01  0.18600070763E+04  0.18601875172E+04  0.00000000000E+00 0.  1.
         -2    1    1    2    0  502 -0.24540494568E+02  0.83089998297E+01  0.83517649142E+02  0.87444113981E+02  0.00000000000E+00 0.  1.
</event>
<event>
 4    1  0.6116490E+003  0.2026731E+02  0.7546771E-02  0.1529988E+00
          2   -1    0    0  501    0  0.00000000000E+00  0.00000000000E+00  0.11710500479E+04  0.11710500479E+04  0.00000000000E+00 0.  1.
         -2   -1    0    0    0  501 -0.00000000000E+00 -0.00000000000E+00 -0.42397600725E+01  0.42397600725E+01  0.00000000000E+00 0.  1.
          2    1    1    2  502    0  0.82298345640E+01 -0.18521165806E+02  0.11462167075E+04  0.11463958759E+04  0.00000000000E+00 0.  1.
         -2    1    1    2    0  502 -0.82298345640E+01  0.18521165806E+02  0.20593580368E+02  0.28893932099E+02  0.00000000000E+00 0.  1.
</event>
<event>
 4    1  0.6116490E+003  0.3072674E+02  0.7546771E-02  0.1413384E+00
          2   -1    0    0  501    0  0.00000000000E+00  0.00000000000E+00  0.44887324273E+03  0.44887324273E+03  0.00000000000E+00 0.  1.
         -2   -1    0    0    0  501 -0.00000000000E+00 -0.00000000000E+00 -0.21364949497E+01  0.21364949497E+01  0.00000000000E+00 0.  1.
          2    1    1    2  502    0 -0.30035574947E+02  0.64804931102E+01  0.25146061376E+03  0.25333095513E+03  0.00000000000E+00 0.  1.
         -2    1    1    2    0  502  0.30035574947E+02 -0.64804931102E+01  0.19527613402E+03  0.19767878255E+03  0.00000000000E+00 0.  1.
</event>
<event>
 4    1  0.6116490E+003  0.2277936E+02  0.7546771E-02  0.1495288E+00
          2   -1    0    0  501    0  0.00000000000E+00  0.00000000000E+00  0.45355082148E+03  0.45355082148E+03  0.00000000000E+00 0. -1.
         -2   -1    0    0    0  501 -0.00000000000E+00 -0.00000000000E+00 -0.11444318000E+01  0.11444318000E+01  0.00000000000E+00 0. -1.
          2    1    1    2  502    0  0.22577037520E+02  0.30291787862E+01  0.22221868129E+03  0.22338317050E+03  0.00000000000E+00 0. -1.
         -2    1    1    2    0  502 -0.22577037520E+02 -0.30291787862E+01  0.23018770839E+03  0.23131208279E+03  0.00000000000E+00 0. -1.
</event>
<event>
 4    1  0.6116490E+003  0.3158152E+02  0.7546771E-02  0.1406333E+00
          2   -1    0    0  501    0  0.00000000000E+00  0.00000000000E+00  0.59012189466E+03  0.59012189466E+03  0.00000000000E+00 0.  1.
         -2   -1    0    0    0  501 -0.00000000000E+00 -0.00000000000E+00 -0.21303060595E+01  0.21303060595E+01  0.00000000000E+00 0.  1.
          2    1    1    2  502    0  0.10008660406E+00  0.31581361008E+02  0.42860067815E+03  0.42976264808E+03  0.00000000000E+00 0.  1.
         -2    1    1    2    0  502 -0.10008660406E+00 -0.31581361008E+02  0.15939091046E+03  0.16248955264E+03  0.00000000000E+00 0.  1.
</event>
<event>
 4    1  0.6116490E+003  0.3713029E+02  0.7546771E-02  0.1366176E+00
          2   -1    0    0  501    0  0.00000000000E+00  0.00000000000E+00  0.17327077685E+04  0.17327077685E+04  0.00000000000E+00 0.  1.
         -2   -1    0    0    0  501 -0.00000000000E+00 -0.00000000000E+00 -0.24905364204E+01  0.24905364204E+01  0.00000000000E+00 0. -1.
          2    1    1    2  502    0  0.79164478491E+00 -0.37121848670E+02  0.15808247307E+04  0.15812607273E+04  0.00000000000E+00 0.  1.
         -2    1    1    2    0  502 -0.79164478491E+00  0.37121848670E+02  0.14939250133E+03  0.15393757762E+03  0.00000000000E+00 0. -1.
</event>
<event>
 4    1  0.6116490E+003  0.2453071E+02  0.7546771E-02  0.1474122E+00
          2   -1    0    0  501    0  0.00000000000E+00  0.00000000000E+00  0.82821968081E+03  0.82821968081E+03  0.00000000000E+00 0.  1.
         -2   -1    0    0    0  501 -0.00000000000E+00 -0.00000000000E+00 -0.20330370869E+01  0.20330370869E+01  0.00000000000E+00 0.  1.
          2    1    1    2  502    0  0.11681032961E+02 -0.21571030736E+02  0.74587364104E+03  0.74627692199E+03  0.00000000000E+00 0.  1.
         -2    1    1    2    0  502 -0.11681032961E+02  0.21571030736E+02  0.80313002683E+02  0.83975795905E+02  0.00000000000E+00 0.  1.
</event>
<event>
 4    1  0.6116490E+003  0.3781462E+02  0.7546771E-02  0.1361791E+00
          2   -1    0    0  501    0  0.00000000000E+00  0.00000000000E+00  0.37968993995E+03  0.37968993995E+03  0.00000000000E+00 0.  1.
         -2   -1    0    0    0  501 -0.00000000000E+00 -0.00000000000E+00 -0.57699364706E+01  0.57699364706E+01  0.00000000000E+00 0. -1.
          2    1    1    2  502    0  0.37098380308E+02  0.73250174204E+01  0.30053849743E+03  0.30290812821E+03  0.00000000000E+00 0.  1.
         -2    1    1    2    0  502 -0.37098380308E+02 -0.73250174204E+01  0.73381506053E+02  0.82551748209E+02  0.00000000000E+00 0. -1.
</event>
<event>
 4    1  0.6116490E+003  0.2555833E+02  0.7546771E-02  0.1462653E+00
          2   -1    0    0  501    0  0.00000000000E+00  0.00000000000E+00  0.25264484479E+01  0.25264484479E+01  0.00000000000E+00 0.  1.
         -2   -1    0    0    0  501 -0.00000000000E+00 -0.00000000000E+00 -0.44943290952E+03  0.44943290952E+03  0.00000000000E+00 0. -1.
          2    1    1    2  502    0  0.14959846686E+02  0.20722723113E+02 -0.76183425425E+02  0.80356347450E+02  0.00000000000E+00 0.  1.
         -2    1    1    2    0  502 -0.14959846686E+02 -0.20722723113E+02 -0.37072303565E+03  0.37160301052E+03  0.00000000000E+00 0. -1.
</event>
<event>
 4    1  0.6116490E+003  0.2773372E+02  0.7546771E-02  0.1440374E+00
          2   -1    0    0  501    0  0.00000000000E+00  0.00000000000E+00  0.15770858702E+04  0.15770858702E+04  0.00000000000E+00 0.  1.
         -2   -1    0    0    0  501 -0.00000000000E+00 -0.00000000000E+00 -0.89254935581E+01  0.89254935581E+01  0.00000000000E+00 0.  1.
          2    1    1    2  502    0  0.10654587824E+02  0.25605452185E+02  0.15551157116E+04  0.15553629917E+04  0.00000000000E+00 0.  1.
         -2    1    1    2    0  502 -0.10654587824E+02 -0.25605452185E+02  0.13044664994E+02  0.30648372030E+02  0.00000000000E+00 0.  1.
</event>
<event>
 4    1  0.6116490E+003  0.2145540E+02  0.7546771E-02  0.1512861E+00
          2   -1    0    0  501    0  0.00000000000E+00  0.00000000000E+00  0.44360259978E+02  0.44360259978E+02  0.00000000000E+00 0. -1.
         -2   -1    0    0    0  501 -0.00000000000E+00 -0.00000000000E+00 -0.11753740181E+03  0.11753740181E+03  0.00000000000E+00 0.  1.
          2    1    1    2  502    0 -0.11088803185E+01 -0.21426725397E+02  0.40704284191E+02  0.46012747455E+02  0.00000000000E+00 0. -1.
         -2    1    1    2    0  502  0.11088803185E+01  0.21426725397E+02 -0.11388142602E+03  0.11588491433E+03  0.00000000000E+00 0.  1.
</event>
<event>
 4    1  0.6116490E+003  0.2910778E+02  0.7546771E-02  0.1427511E+00
          2   -1    0    0  501    0  0.00000000000E+00  0.00000000000E+00  0.82149619523E+01  0.82149619523E+01  0.00000000000E+00 0.  1.
         -2   -1    0    0    0  501 -0.00000000000E+00 -0.00000000000E+00 -0.40030761391E+03  0.40030761391E+03  0.00000000000E+00 0.  1.
          2    1    1    2  502    0 -0.28867739228E+02  0.37304874984E+01 -0.20054541885E+02  0.35347525448E+02  0.00000000000E+00 0.  1.
         -2    1    1    2    0  502  0.28867739228E+02 -0.37304874984E+01 -0.37203811007E+03  0.37317505041E+03  0.00000000000E+00 0.  1.
</event>
<event>
 4    1  0.6116490E+003  0.3677914E+02  0.7546771E-02  0.1368469E+00
          2   -1    0    0  501    0  0.00000000000E+00  0.00000000000E+00  0.96731885441E+03  0.96731885441E+03  0.00000000000E+00 0. -1.
         -2   -1    0    0    0  501 -0.00000000000E+00 -0.00000000000E+00 -0.15251966474E+03  0.15251966474E+03  0.00000000000E+00 0.  1.
          2    1    1    2  502    0  0.27318065786E+02  0.24625763061E+02  0.96474607883E+03  0.96544689213E+03  0.00000000000E+00 0. -1.
         -2    1    1    2    0  502 -0.27318065786E+02 -0.24625763061E+02 -0.14994688915E+03  0.15439162701E+03  0.00000000000E+00 0.  1.
</event>
<event>
 4    1  0.6116490E+003  0.2841064E+02  0.7546771E-02  0.1433930E+00
          2   -1    0    0  501    0  0.00000000000E+00  0.00000000000E+00  0.11070698409E+03  0.11070698409E+03  0.00000000000E+00 0. -1.
         -2   -1    0    0    0  501 -0.00000000000E+00 -0.00000000000E+00 -0.10621634952E+02  0.10621634952E+02  0.00000000000E+00 0. -1.
          2    1    1    2  502    0  0.12703547981E+02 -0.25412286384E+02  0.84013116982E+02  0.88686911411E+02  0.00000000000E+00 0. -1.
         -2    1    1    2    0  502 -0.12703547981E+02  0.25412286384E+02  0.16072232155E+02  0.32641707630E+02  0.00000000000E+00 0. -1.
</event>
<event>
 4    1  0.6116490E+003  0.2681228E+02  0.7546771E-02  0.1449503E+00
          2   -1    0    0  501    0  0.00000000000E+00  0.00000000000E+00  0.77324109536E+03  0.77324109536E+03  0.00000000000E+00 0. -1.
         -2   -1    0    0    0  501 -0.00000000000E+00 -0.00000000000E+00 -0.29445174414E+02  0.29445174414E+02  0.00000000000E+00 0.  1.
          2    1    1    2  502    0 -0.25910766459E+02 -0.68942461449E+01  0.76685414086E+03  0.76732272988E+03  0.00000000000E+00 0. -1.
         -2    1    1    2    0  502  0.25910766459E+02  0.68942461449E+01 -0.23058219908E+02  0.35363539893E+02  0.00000000000E+00 0.  1.
</event>
<event>
 4    1  0.6116490E+003  0.2473907E+02  0.7546771E-02  0.1471744E+00
          2   -1    0    0  501    0  0.00000000000E+00  0.00000000000E+00  0.14417149003E+04  0.14417149003E+04  0.00000000000E+00 0.  1.
         -2   -1    0    0    0  501 -0.00000000000E+00 -0.00000000000E+00 -0.11647111661E+01  0.11647111661E+01  0.00000000000E+00 0.  1.
          2    1    1    2  502    0  0.68241734547E+01  0.23779234946E+02  0.12954051641E+04  0.12956413703E+04  0.00000000000E+00 0.  1.
         -2    1    1    2    0  502 -0.68241734547E+01 -0.23779234946E+02  0.14514502502E+03  0.14723824111E+03  0.00000000000E+00 0.  1.
</event>
<event>
 4    1  0.6116490E+003  0.2481000E+02  0.7546771E-02  0.1470940E+00
          2   -1    0    0  501    0  0.00000000000E+00  0.00000000000E+00  0.13024623637E+03  0.13024623637E+03  0.00000000000E+00 0.  1.
         -2   -1    0    0    0  501 -0.00000000000E+00 -0.00000000000E+00 -0.95833443880E+01  0.95833443880E+01  0.00000000000E+00 0.  1.
          2    1    1    2  502    0  0.22479964772E+02 -0.10497001283E+02  0.11010660527E+03  0.11286718025E+03  0.00000000000E+00 0.  1.
         -2    1    1    2    0  502 -0.22479964772E+02  0.10497001283E+02  0.10556286704E+02  0.26962400507E+02  0.00000000000E+00 0.  1.
</event>
<event>
 4    1  0.6116490E+003  0.2534801E+02  0.7546771E-02  0.1464948E+00
          2   -1    0    0  501    0  0.00000000000E+00  0.00000000000E+00  0.18464243654E+02  0.18464243654E+02  0.00000000000E+00 0.  1.
         -2   -1    0    0    0  501 -0.00000000000E+00 -0.00000000000E+00 -0.37387202651E+02  0.37387202651E+02  0.00000000000E+00 0.  1.
          2    1    1    2  502    0  0.23658250917E+02  0.90999289448E+01 -0.21127327788E+01  0.25435903425E+02  0.00000000000E+00 0.  1.
         -2    1    1    2    0  502 -0.23658250917E+02 -0.90999289448E+01 -0.16810226218E+02  0.30415542881E+02  0.00000000000E+00 0.  1.
</event>
<event>
 4    1  0.6116490E+003  0.2864350E+02  0.7546771E-02  0.1431762E+00
          2   -1    0    0  501    0  0.00000000000E+00  0.00000000000E+00  0.20403585482E+02  0.20403585482E+02  0.00000000000E+00 0. -1.
         -2   -1    0    0    0  501 -0.00000000000E+00 -0.00000000000E+00 -0.14793798166E+03  0.14793798166E+03  0.00000000000E+00 0.  1.
          2    1    1    2  502    0 -0.22603690258E+02 -0.17593277667E+02  0.80591205407E+01  0.29755665952E+02  0.00000000000E+00 0. -1.
         -2    1    1    2    0  502  0.22603690258E+02  0.17593277667E+02 -0.13559351672E+03  0.13858590119E+03  0.00000000000E+00 0.  1.
</event>
<event>
 4    1  0.6116490E+003  0.2335042E+02  0.7546771E-02  0.1488144E+00
          2   -1    0    0  501    0  0.00000000000E+00  0.00000000000E+00  0.14672362957E+02  0.14672362957E+02  0.00000000000E+00 0. -1.
         -2   -1    0    0    0  501 -0.00000000000E+00 -0.00000000000E+00 -0.57112261887E+02  0.57112261887E+02  0.00000000000E+00 0.  1.
          2    1    1    2  502    0 -0.20236051222E+02 -0.11650946898E+02 -0.60759059399E-02  0.23350425469E+02  0.00000000000E+00 0. -1.
         -2    1    1    2    0  502  0.20236051222E+02  0.11650946898E+02 -0.42433823024E+02  0.48434199375E+02  0.00000000000E+00 0.  1.
</event>
<event>
 4    1  0.6116490E+003  0.2262227E+02  0.7546771E-02  0.1497297E+00
          2   -1    0    0  501    0  0.00000000000E+00  0.00000000000E+00  0.27415746919E+03  0.27415746919E+03  0.00000000000E+00 0. -1.
         -2   -1    0    0    0  501 -0.00000000000E+00 -0.00000000000E+00 -0.39608216856E+01  0.39608216856E+01  0.00000000000E+00 0.  1.
          2    1    1    2  502    0 -0.16532996631E+02 -0.15441085025E+02  0.23621176124E+03  0.23729256885E+03  0.00000000000E+00 0. -1.
         -2    1    1    2    0  502  0.16532996631E+02  0.15441085025E+02  0.33984886266E+02  0.40825722025E+02  0.00000000000E+00 0.  1.
</event>
<event>
 4    1  0.6116490E+003  0.4061898E+02  0.7546771E-02  0.1344896E+00
          2   -1    0    0  501    0  0.00000000000E+00  0.00000000000E+00  0.50665593988E+03  0.50665593988E+03  0.00000000000E+00 0. -1.
         -2   -1    0    0    0  501 -0.00000000000E+00 -0.00000000000E+00 -0.85086768074E+02  0.85086768074E+02  0.00000000000E+00 0.  1.
          2    1    1    2  502    0 -0.14066630215E+02  0.38105526668E+02  0.50093888986E+03  0.50258300073E+03  0.00000000000E+00 0. -1.
         -2    1    1    2    0  502  0.14066630215E+02 -0.38105526668E+02 -0.79369718055E+02  0.89159707225E+02  0.00000000000E+00 0.  1.
</event>
<event>
 4    1  0.6116490E+003  0.2395268E+02  0.7546771E-02  0.1480870E+00
          2   -1    0    0  501    0  0.00000000000E+00  0.00000000000E+00  0.93879829273E+02  0.93879829273E+02  0.00000000000E+00 0. -1.
         -2   -1    0    0    0  501 -0.00000000000E+00 -0.00000000000E+00 -0.84378608096E+02  0.84378608096E+02  0.00000000000E+00 0. -1.
          2    1    1    2  502    0 -0.16406414803E+02 -0.17451665445E+02  0.90591463236E+02  0.93704558506E+02  0.00000000000E+00 0. -1.
         -2    1    1    2    0  502  0.16406414803E+02  0.17451665445E+02 -0.81090242059E+02  0.84553878863E+02  0.00000000000E+00 0. -1.
</event>
<event>
 4    1  0.6116490E+003  0.3286461E+02  0.7546771E-02  0.1396231E+00
          2   -1    0    0  501    0  0.00000000000E+00  0.00000000000E+00  0.10091747819E+03  0.10091747819E+03  0.00000000000E+00 0. -1.
         -2   -1    0    0    0  501 -0.00000000000E+00 -0.00000000000E+00 -0.11448987068E+02  0.11448987068E+02  0.00000000000E+00 0. -1.
          2    1    1    2  502    0 -0.23207390835E+02 -0.23270148646E+02  0.59079076260E+02  0.67604881918E+02  0.00000000000E+00 0. -1.
         -2    1    1    2    0  502  0.23207390835E+02  0.23270148646E+02  0.30389414861E+02  0.44761583339E+02  0.00000000000E+00 0. -1.
</event>
<event>
 4    1  0.6116490E+003  0.2924162E+02  0.7546771E-02  0.1426303E+00
          2   -1    0    0  501    0  0.00000000000E+00  0.00000000000E+00  0.35121346948E+03  0.35121346948E+03  0.00000000000E+00 0.  1.
         -2   -1    0    0    0  501 -0.00000000000E+00 -0.00000000000E+00 -0.33635459485E+02  0.33635459485E+02  0.00000000000E+00 0. -1.
          2    1    1    2  502    0 -0.17760424527E+02 -0.23230144582E+02  0.34411857785E+03  0.34535875248E+03  0.00000000000E+00 0.  1.
         -2    1    1    2    0  502  0.17760424527E+02  0.23230144582E+02 -0.26540567852E+02  0.39490176482E+02  0.00000000000E+00 0. -1.
</event>
<event>
 4    1  0.6116490E+003  0.2447892E+02  0.7546771E-02  0.1474718E+00
          2   -1    0    0  501    0  0.00000000000E+00  0.00000000000E+00  0.17336278489E+04  0.17336278489E+04  0.00000000000E+00 0. -1.
         -2   -1    0    0    0  501 -0.00000000000E+00 -0.00000000000E+00 -0.24778242241E+02  0.24778242241E+02  0.00000000000E+00 0. -1.
          2    1    1    2  502    0 -0.45308447569E+01  0.24055955328E+02  0.17274740986E+04  0.17276475274E+04  0.00000000000E+00 0. -1.
         -2    1    1    2    0  502  0.45308447569E+01 -0.24055955328E+02 -0.18624491976E+02  0.30758563723E+02  0.00000000000E+00 0. -1.
</event>
<event>
 4    1  0.6116490E+003  0.2352134E+02  0.7546771E-02  0.1486053E+00
          2   -1    0    0  501    0  0.00000000000E+00  0.00000000000E+00  0.23995964022E+02  0.23995964022E+02  0.00000000000E+00 0.  1.
         -2   -1    0    0    0  501 -0.00000000000E+00 -0.00000000000E+00 -0.70216778210E+02  0.70216778210E+02  0.00000000000E+00 0.  1.
          2    1    1    2  502    0 -0.68038170798E+00  0.23511500953E+02  0.15495092132E+02  0.28166495638E+02  0.00000000000E+00 0.  1.
         -2    1    1    2    0  502  0.68038170798E+00 -0.23511500953E+02 -0.61715906320E+02  0.66046246595E+02  0.00000000000E+00 0.  1.
</event>
<event>
 4    1  0.6116490E+003  0.2482881E+02  0.7546771E-02  0.1470728E+00
          2   -1    0    0  501    0  0.00000000000E+00  0.00000000000E+00  0.51582064294E+02  0.51582064294E+02  0.00000000000E+00 0. -1.
         -2   -1    0    0    0  501 -0.00000000000E+00 -0.00000000000E+00 -0.59140493450E+02  0.59140493450E+02  0.00000000000E+00 0. -1.
          2    1    1    2  502    0 -0.13866504217E+02 -0.20595873543E+02  0.45672934207E+02  0.51985448592E+02  0.00000000000E+00 0. -1.
         -2    1    1    2    0  502  0.13866504217E+02  0.20595873543E+02 -0.53231363363E+02  0.58737109153E+02  0.00000000000E+00 0. -1.
</event>
<event>
 4    1  0.6116490E+003  0.5771555E+02  0.7546771E-02  0.1267798E+00
          2   -1    0    0  501    0  0.00000000000E+00  0.00000000000E+00  0.42881702793E+03  0.42881702793E+03  0.00000000000E+00 0. -1.
         -2   -1    0    0    0  501 -0.00000000000E+00 -0.00000000000E+00 -0.17274020195E+03  0.17274020195E+03  0.00000000000E+00 0.  1.
          2    1    1    2  502    0 -0.79142004875E+00  0.57710124665E+02  0.42197627051E+03  0.42590498672E+03  0.00000000000E+00 0. -1.
         -2    1    1    2    0  502  0.79142004875E+00 -0.57710124665E+02 -0.16589944453E+03  0.17565224317E+03  0.00000000000E+00 0.  1.
</event>
<event>
 4    1  0.6116490E+003  0.2363199E+02  0.7546771E-02  0.1484711E+00
          2   -1    0    0  501    0  0.00000000000E+00  0.00000000000E+00  0.24402321442E+03  0.24402321442E+03  0.00000000000E+00 0.  1.
         -2   -1    0    0    0  501 -0.00000000000E+00 -0.00000000000E+00 -0.28882566160E+02  0.28882566160E+02  0.00000000000E+00 0. -1.
          2    1    1    2  502    0  0.19583703988E+02 -0.13226845594E+02  0.23850552761E+03  0.23967343951E+03  0.00000000000E+00 0.  1.
         -2    1    1    2    0  502 -0.19583703988E+02  0.13226845594E+02 -0.23364879347E+02  0.33232341072E+02  0.00000000000E+00 0. -1.
</event>
<event>
 4    1  0.6116490E+003  0.3124764E+02  0.7546771E-02  0.1409056E+00
          2   -1    0    0  501    0  0.00000000000E+00  0.00000000000E+00  0.17203638664E+04  0.17203638664E+04  0.00000000000E+00 0.  1.
         -2   -1    0    0    0  501 -0.00000000000E+00 -0.00000000000E+00 -0.74207732904E+01  0.74207732904E+01  0.00000000000E+00 0.  1.
          2    1    1    2  502    0  0.35430527108E+01  0.31046124659E+02  0.16866702612E+04  0.16869596868E+04  0.00000000000E+00 0.  1.
         -2    1    1    2    0  502 -0.35430527108E+01 -0.31046124659E+02  0.26272831976E+02  0.40824952895E+02  0.00000000000E+00 0.  1.
</event>
<event>
 4    1  0.6116490E+003  0.4347368E+02  0.7546771E-02  0.1329250E+00
          2   -1    0    0  501    0  0.00000000000E+00  0.00000000000E+00  0.33333222820E+03  0.33333222820E+03  0.00000000000E+00 0. -1.
         -2   -1    0    0    0  501 -0.00000000000E+00 -0.00000000000E+00 -0.25722511379E+03  0.25722511379E+03  0.00000000000E+00 0. -1.
          2    1    1    2  502    0  0.43171786205E+02  0.51144835999E+01  0.33005974417E+03  0.33291049215E+03  0.00000000000E+00 0. -1.
         -2    1    1    2    0  502 -0.43171786205E+02 -0.51144835999E+01 -0.25395262976E+03  0.25764684983E+03  0.00000000000E+00 0. -1.
</event>
<event>
 4    1  0.6116490E+003  0.3855009E+02  0.7546771E-02  0.1357198E+00
          2   -1    0    0  501    0  0.00000000000E+00  0.00000000000E+00  0.39207482447E+03  0.39207482447E+03  0.00000000000E+00 0. -1.
         -2   -1    0    0    0  501 -0.00000000000E+00 -0.00000000000E+00 -0.62647087316E+02  0.62647087316E+02  0.00000000000E+00 0. -1.
          2    1    1    2  502    0  0.22966711903E+02 -0.30961910713E+02  0.38508944031E+03  0.38701419458E+03  0.00000000000E+00 0. -1.
         -2    1    1    2    0  502 -0.22966711903E+02  0.30961910713E+02 -0.55661703156E+02  0.67707717203E+02  0.00000000000E+00 0. -1.
</event>
<event>
 4    1  0.6116490E+003  0.2161138E+02  0.7546771E-02  0.1510712E+00
          2   -1    0    0  501    0  0.00000000000E+00  0.00000000000E+00  0.74534580351E+03  0.74534580351E+03  0.00000000000E+00 0. -1.
         -2   -1    0    0    0  501 -0.00000000000E+00 -0.00000000000E+00 -0.60157897944E+02  0.60157897944E+02  0.00000000000E+00 0. -1.
          2    1    1    2  502    0  0.63283929774E+01  0.20664051091E+02  0.74324271622E+03  0.74355684838E+03  0.00000000000E+00 0. -1.
         -2    1    1    2    0  502 -0.63283929774E+01 -0.20664051091E+02 -0.58054810654E+02  0.61946853070E+02  0.00000000000E+00 0. -1.
</event>
<event>
 4    1  0.6116490E+003  0.2052278E+02  0.7546771E-02  0.1526189E+00
          2   -1    0    0  501    0  0.00000000000E+00  0.00000000000E+00  0.45341424446E+03  0.45341424446E+03  0.00000000000E+00 0. -1.
         -2   -1    0    0    0  501 -0.00000000000E+00 -0.00000000000E+00 -0.11686158036E+02  0.11686158036E+02  0.00000000000E+00 0.  1.
          2    1    1    2  502    0 -0.88503551832E+00 -0.20503690993E+02  0.44398032961E+03  0.44445440454E+03  0.00000000000E+00 0. -1.
         -2    1    1    2    0  502  0.88503551832E+00  0.20503690993E+02 -0.22522431890E+01  0.20645997955E+02  0.00000000000E+00 0.  1.
</event>
<event>
 4    1  0.6116490E+003  0.2231559E+02  0.7546771E-02  0.1501276E+00
          2   -1    0    0  501    0  0.00000000000E+00  0.00000000000E+00  0.57462217128E+03  0.57462217128E+03  0.00000000000E+00 0.  1.
         -2   -1    0    0    0  501 -0.00000000000E+00 -0.00000000000E+00 -0.65714329564E+02  0.65714329564E+02  0.00000000000E+00 0.  1.
          2    1    1    2  502    0 -0.27910658889E+01  0.22140354242E+02  0.57250399868E+03  0.57293875226E+03  0.00000000000E+00 0.  1.
         -2    1    1    2    0  502  0.27910658889E+01 -0.22140354242E+02 -0.63596156961E+02  0.67397748589E+02  0.00000000000E+00 0.  1.
</event>
<event>
 4    1  0.6116490E+003  0.2510640E+02  0.7546771E-02  0.1467617E+00
          2   -1    0    0  501    0  0.00000000000E+00  0.00000000000E+00  0.53982798712E+02  0.53982798712E+02  0.00000000000E+00 0.  1.
         -2   -1    0    0    0  501 -0.00000000000E+00 -0.00000000000E+00 -0.23743909019E+03  0.23743909019E+03  0.00000000000E+00 0.  1.
          2    1    1    2  502    0  0.33826929363E+01  0.24877472286E+02  0.50354826504E+02  0.56266684557E+02  0.00000000000E+00 0.  1.
         -2    1    1    2    0  502 -0.33826929363E+01 -0.24877472286E+02 -0.23381111798E+03  0.23515520434E+03  0.00000000000E+00 0.  1.
</event>
<event>
 4    1  0.6116490E+003  0.2553286E+02  0.7546771E-02  0.1462930E+00
          2   -1    0    0  501    0  0.00000000000E+00  0.00000000000E+00  0.40385912425E+02  0.40385912425E+02  0.00000000000E+00 0. -1.
         -2   -1    0    0    0  501 -0.00000000000E+00 -0.00000000000E+00 -0.21810977047E+02  0.21810977047E+02  0.00000000000E+00 0. -1.
          2    1    1    2  502    0 -0.21008159262E+02 -0.14511512823E+02  0.25141399705E+02  0.35833179305E+02  0.00000000000E+00 0. -1.
         -2    1    1    2    0  502  0.21008159262E+02  0.14511512823E+02 -0.65664643267E+01  0.26363710167E+02  0.00000000000E+00 0. -1.
</event>
<event>
 4    1  0.6116490E+003  0.2879869E+02  0.7546771E-02  0.1430331E+00
          2   -1    0    0  501    0  0.00000000000E+00  0.00000000000E+00  0.49703842686E+03  0.49703842686E+03  0.00000000000E+00 0.  1.
         -2   -1    0    0    0  501 -0.00000000000E+00 -0.00000000000E+00 -0.25653628700E+01  0.25653628700E+01  0.00000000000E+00 0. -1.
          2    1    1    2  502    0 -0.55961126365E+01  0.28249748757E+02  0.39492853716E+03  0.39597716379E+03  0.00000000000E+00 0.  1.
         -2    1    1    2    0  502  0.55961126365E+01 -0.28249748757E+02  0.99544526834E+02  0.10362662594E+03  0.00000000000E+00 0. -1.
</event>
<event>
 4    1  0.6116490E+003  0.3899250E+02  0.7546771E-02  0.1354493E+00
          2   -1    0    0  501    0  0.00000000000E+00  0.00000000000E+00  0.86884262165E+02  0.86884262165E+02  0.00000000000E+00 0. -1.
         -2   -1    0    0    0  501 -0.00000000000E+00 -0.00000000000E+00 -0.28134817571E+03  0.28134817571E+03  0.00000000000E+00 0.  1.
          2    1    1    2  502    0 -0.36751852519E+02  0.13027510104E+02  0.81066511021E+02  0.89956622281E+02  0.00000000000E+00 0. -1.
         -2    1    1    2    0  502  0.36751852519E+02 -0.13027510104E+02 -0.27553042457E+03  0.27827581560E+03  0.00000000000E+00 0.  1.
</event>
<event>
 4    1  0.6116490E+003  0.2331452E+02  0.7546771E-02  0.1488586E+00
          2   -1    0    0  501    0  0.00000000000E+00  0.00000000000E+00  0.46492452169E+03  0.46492452169E+03  0.00000000000E+00 0.  1.
         -2   -1    0    0    0  501 -0.00000000000E+00 -0.00000000000E+00 -0.12539349872E+01  0.12539349872E+01  0.00000000000E+00 0.  1.
          2    1    1    2  502    0 -0.22762467377E+02 -0.50435019098E+01  0.29244502569E+03  0.29337290244E+03  0.00000000000E+00 0.  1.
         -2    1    1    2    0  502  0.22762467377E+02  0.50435019098E+01  0.17122556101E+03  0.17280555424E+03  0.00000000000E+00 0.  1.
</event>
<event>
 4    1  0.6116490E+003  0.2224859E+02  0.7546771E-02  0.1502155E+00
          2   -1    0    0  501    0  0.00000000000E+00  0.00000000000E+00  0.12814349427E+03  0.12814349427E+03  0.00000000000E+00 0. -1.
         -2   -1    0    0    0  501 -0.00000000000E+00 -0.00000000000E+00 -0.21363847809E+03  0.21363847809E+03  0.00000000000E+00 0. -1.
          2    1    1    2  502    0 -0.11321663702E+02  0.19152536398E+02  0.12659148371E+03  0.12853172164E+03  0.00000000000E+00 0. -1.
         -2    1    1    2    0  502  0.11321663702E+02 -0.19152536398E+02 -0.21208646754E+03  0.21325025072E+03  0.00000000000E+00 0. -1.
</event>
<event>
 4    1  0.6116490E+003  0.2364222E+02  0.7546771E-02  0.1484587E+00
          2   -1    0    0  501    0  0.00000000000E+00  0.00000000000E+00  0.17903098468E+04  0.17903098468E+04  0.00000000000E+00 0.  1.
         -2   -1    0    0    0  501 -0.00000000000E+00 -0.00000000000E+00 -0.34404663405E+00  0.34404663405E+00  0.00000000000E+00 0.  1.
          2    1    1    2  502    0 -0.21796435930E+02  0.91580454531E+01  0.11673344153E+04  0.11675738056E+04  0.00000000000E+00 0.  1.
         -2    1    1    2    0  502  0.21796435930E+02 -0.91580454531E+01  0.62263138481E+03  0.62308008776E+03  0.00000000000E+00 0.  1.
</event>
<event>
 4    1  0.6116490E+003  0.2410331E+02  0.7546771E-02  0.1479090E+00
          2   -1    0    0  501    0  0.00000000000E+00  0.00000000000E+00  0.24909866169E+03  0.24909866169E+03  0.00000000000E+00 0.  1.
         -2   -1    0    0    0  501 -0.00000000000E+00 -0.00000000000E+00 -0.18624534328E+02  0.18624534328E+02  0.00000000000E+00 0. -1.
          2    1    1    2  502    0  0.19286636391E+02  0.14456664577E+02  0.24043690980E+03  0.24164204329E+03  0.00000000000E+00 0.  1.
         -2    1    1    2    0  502 -0.19286636391E+02 -0.14456664577E+02 -0.99627824301E+01  0.26081152730E+02  0.00000000000E+00 0. -1.
</event>
<event>
 4    1  0.6116490E+003  0.2918022E+02  0.7546771E-02  0.1426856E+00
          2   -1    0    0  501    0  0.00000000000E+00  0.00000000000E+00  0.28055965625E+03  0.28055965625E+03  0.00000000000E+00 0.  1.
         -2   -1    0    0    0  501 -0.00000000000E+00 -0.00000000000E+00 -0.31226938817E+02  0.31226938817E+02  0.00000000000E+00 0.  1.
          2    1    1    2  502    0 -0.16661133735E+01  0.29132618930E+02  0.27279040605E+03  0.27434666219E+03  0.00000000000E+00 0.  1.
         -2    1    1    2    0  502  0.16661133735E+01 -0.29132618930E+02 -0.23457688612E+02  0.37439932886E+02  0.00000000000E+00 0.  1.
</event>
<event>
 4    1  0.6116490E+003  0.4811090E+02  0.7546771E-02  0.1306577E+00
          2   -1    0    0  501    0  0.00000000000E+00  0.00000000000E+00  0.20118123569E+02  0.20118123569E+02  0.00000000000E+00 0. -1.
         -2   -1    0    0    0  501 -0.00000000000E+00 -0.00000000000E+00 -0.74691194393E+03  0.74691194393E+03  0.00000000000E+00 0. -1.
          2    1    1    2  502    0 -0.43327078263E+02 -0.20914669040E+02 -0.10654553490E+02  0.49276552253E+02  0.00000000000E+00 0. -1.
         -2    1    1    2    0  502  0.43327078263E+02  0.20914669040E+02 -0.71613926687E+03  0.71775351524E+03  0.00000000000E+00 0. -1.
</event>
<event>
 4    1  0.6116490E+003  0.2700811E+02  0.7546771E-02  0.1447527E+00
          2   -1    0    0  501    0  0.00000000000E+00  0.00000000000E+00  0.32200756597E+03  0.32200756597E+03  0.00000000000E+00 0.  1.
         -2   -1    0    0    0  501 -0.00000000000E+00 -0.00000000000E+00 -0.68060642200E+02  0.68060642200E+02  0.00000000000E+00 0.  1.
          2    1    1    2  502    0  0.59162016231E+01  0.26352161909E+02  0.31873441226E+03  0.31987663785E+03  0.00000000000E+00 0.  1.
         -2    1    1    2    0  502 -0.59162016231E+01 -0.26352161909E+02 -0.64787488494E+02  0.70191570323E+02  0.00000000000E+00 0.  1.
</event>
<event>
 4    1  0.6116490E+003  0.2531476E+02  0.7546771E-02  0.1465313E+00
          2   -1    0    0  501    0  0.00000000000E+00  0.00000000000E+00  0.10918434324E+04  0.10918434324E+04  0.00000000000E+00 0.  1.
         -2   -1    0    0    0  501 -0.00000000000E+00 -0.00000000000E+00 -0.99142084297E+01  0.99142084297E+01  0.00000000000E+00 0.  1.
          2    1    1    2  502    0  0.11482221407E+02 -0.22560932925E+02  0.10752883797E+04  0.10755863223E+04  0.00000000000E+00 0.  1.
         -2    1    1    2    0  502 -0.11482221407E+02  0.22560932925E+02  0.66408442587E+01  0.26171318564E+02  0.00000000000E+00 0.  1.
</event>
<event>
 4    1  0.6116490E+003  0.2209923E+02  0.7546771E-02  0.1504130E+00
          2   -1    0    0  501    0  0.00000000000E+00  0.00000000000E+00  0.18223175334E+03  0.18223175334E+03  0.00000000000E+00 0.  1.
         -2   -1    0    0    0  501 -0.00000000000E+00 -0.00000000000E+00 -0.11411081647E+03  0.11411081647E+03  0.00000000000E+00 0.  1.
          2    1    1    2  502    0  0.47351284657E+00 -0.22094155752E+02  0.18048146290E+03  0.18182941011E+03  0.00000000000E+00 0.  1.
         -2    1    1    2    0  502 -0.47351284657E+00  0.22094155752E+02 -0.11236052603E+03  0.11451315970E+03  0.00000000000E+00 0.  1.
</event>
<event>
 4    1  0.6116490E+003  0.2110679E+02  0.7546771E-02  0.1517746E+00
          2   -1    0    0  501    0  0.00000000000E+00  0.00000000000E+00  0.51547624490E+03  0.51547624490E+03  0.00000000000E+00 0.  1.
         -2   -1    0    0    0  501 -0.00000000000E+00 -0.00000000000E+00 -0.30152156277E+01  0.30152156277E+01  0.00000000000E+00 0.  1.
          2    1    1    2  502    0  0.19074671049E+02 -0.90362272102E+01  0.47519310247E+03  0.47566162460E+03  0.00000000000E+00 0.  1.
         -2    1    1    2    0  502 -0.19074671049E+02  0.90362272102E+01  0.37267926802E+02  0.42829835932E+02  0.00000000000E+00 0.  1.
</event>
<event>
 4    1  0.6116490E+003  0.2084588E+02  0.7546771E-02  0.1521477E+00
          2   -1    0    0  501    0  0.00000000000E+00  0.00000000000E+00  0.76522862223E+02  0.76522862223E+02  0.00000000000E+00 0. -1.
         -2   -1    0    0    0  501 -0.00000000000E+00 -0.00000000000E+00 -0.26575788322E+02  0.26575788322E+02  0.00000000000E+00 0. -1.
          2    1    1    2  502    0  0.15047101156E+02 -0.14426907674E+02  0.70684747531E+02  0.73694534748E+02  0.00000000000E+00 0. -1.
         -2    1    1    2    0  502 -0.15047101156E+02  0.14426907674E+02 -0.20737673629E+02  0.29404115797E+02  0.00000000000E+00 0. -1.
</event>
<event>
 4    1  0.6116490E+003  0.2117668E+02  0.7546771E-02  0.1516757E+00
          2   -1    0    0  501    0  0.00000000000E+00  0.00000000000E+00  0.14768024987E+03  0.14768024987E+03  0.00000000000E+00 0. -1.
         -2   -1    0    0    0  501 -0.00000000000E+00 -0.00000000000E+00 -0.30699488042E+01  0.30699488042E+01  0.00000000000E+00 0. -1.
          2    1    1    2  502    0  0.19423039888E+02 -0.84378581662E+01  0.80156315977E+02  0.82906495040E+02  0.00000000000E+00 0. -1.
         -2    1    1    2    0  502 -0.19423039888E+02  0.84378581662E+01  0.64453985088E+02  0.67843703633E+02  0.00000000000E+00 0. -1.
</event>
<event>
 4    1  0.6116490E+003  0.2191231E+02  0.7546771E-02  0.1506627E+00
          2   -1    0    0  501    0  0.00000000000E+00  0.00000000000E+00  0.15049019748E+04  0.15049019748E+04  0.00000000000E+00 0. -1.
         -2   -1    0    0    0  501 -0.00000000000E+00 -0.00000000000E+00 -0.23161565966E+01  0.23161565966E+01  0.00000000000E+00 0.  1.
          2    1    1    2  502    0 -0.21911141867E+02  0.22610632696E+00  0.14510737287E+04  0.14512391654E+04  0.00000000000E+00 0. -1.
         -2    1    1    2    0  502  0.21911141867E+02 -0.22610632696E+00  0.51512089551E+02  0.55978965977E+02  0.00000000000E+00 0.  1.
</event>
<event>
 4    1  0.6116490E+003  0.2014691E+02  0.7546771E-02  0.1531802E+00
          2   -1    0    0  501    0  0.00000000000E+00  0.00000000000E+00  0.22583101149E+03  0.22583101149E+03  0.00000000000E+00 0. -1.
         -2   -1    0    0    0  501 -0.00000000000E+00 -0.00000000000E+00 -0.21822605614E+02  0.21822605614E+02  0.00000000000E+00 0. -1.
          2    1    1    2  502    0  0.21096356325E+01 -0.20036152373E+02  0.22062214454E+03  0.22154012870E+03  0.00000000000E+00 0. -1.
         -2    1    1    2    0  502 -0.21096356325E+01  0.20036152373E+02 -0.16613738660E+02  0.26113488405E+02  0.00000000000E+00 0. -1.
</event>
<event>
 4    1  0.6116490E+003  0.2516277E+02  0.7546771E-02  0.1466991E+00
          2   -1    0    0  501    0  0.00000000000E+00  0.00000000000E+00  0.45925618488E+02  0.45925618488E+02  0.00000000000E+00 0.  1.
         -2   -1    0    0    0  501 -0.00000000000E+00 -0.00000000000E+00 -0.15350707813E+02  0.15350707813E+02  0.00000000000E+00 0.  1.
          2    1    1    2  502    0  0.24937511395E+02 -0.33593664999E+01  0.25066842770E+02  0.35517762097E+02  0.00000000000E+00 0.  1.
         -2    1    1    2    0  502 -0.24937511395E+02  0.33593664999E+01  0.55080679048E+01  0.25758564205E+02  0.00000000000E+00 0.  1.
</event>
<event>
 4    1  0.6116490E+003  0.2189475E+02  0.7546771E-02  0.1506864E+00
          2   -1    0    0  501    0  0.00000000000E+00  0.00000000000E+00  0.11953319465E+04  0.11953319465E+04  0.00000000000E+00 0. -1.
         -2   -1    0    0    0  501 -0.00000000000E+00 -0.00000000000E+00 -0.20109965504E+01  0.20109965504E+01  0.00000000000E+00 0. -1.
          2    1    1    2  502    0 -0.21387703706E+02 -0.46846639375E+01  0.11323208540E+04  0.11325325145E+04  0.00000000000E+00 0. -1.
         -2    1    1    2    0  502  0.21387703706E+02  0.46846639375E+01  0.61000095962E+02  0.64810428585E+02  0.00000000000E+00 0. -1.
</event>
<event>
 4    1  0.6116490E+003  0.2071210E+02  0.7546771E-02  0.1523415E+00
          2   -1    0    0  501    0  0.00000000000E+00  0.00000000000E+00  0.93191171592E+03  0.93191171592E+03  0.00000000000E+00 0.  1.
         -2   -1    0    0    0  501 -0.00000000000E+00 -0.00000000000E+00 -0.50991288779E+01  0.50991288779E+01  0.00000000000E+00 0.  1.
          2    1    1    2  502    0  0.30818324076E+01 -0.20481536080E+02  0.91026393974E+03  0.91049955025E+03  0.00000000000E+00 0.  1.
         -2    1    1    2    0  502 -0.30818324076E+01  0.20481536080E+02  0.16548647302E+02  0.26511294549E+02  0.00000000000E+00 0.  1.
</event>
<event>
 4    1  0.6116490E+003  0.2488245E+02  0.7546771E-02  0.1470123E+00
          2   -1    0    0  501    0  0.00000000000E+00  0.00000000000E+00  0.27251496144E+03  0.27251496144E+03  0.00000000000E+00 0.  1.
         -2   -1    0    0    0  501 -0.00000000000E+00 -0.00000000000E+00 -0.34794756491E+02  0.34794756491E+02  0.00000000000E+00 0.  1.
          2    1    1    2  502    0  0.11537650843E+02  0.22045831512E+02  0.26741381519E+03  0.26856895693E+03  0.00000000000E+00 0.  1.
         -2    1    1    2    0  502 -0.11537650843E+02 -0.22045831512E+02 -0.29693610237E+02  0.38740761001E+02  0.00000000000E+00 0.  1.
</event>
<event>
 4    1  0.6116490E+003  0.2091061E+02  0.7546771E-02  0.1520545E+00
          2   -1    0    0  501    0  0.00000000000E+00  0.00000000000E+00  0.24741371691E+03  0.24741371691E+03  0.00000000000E+00 0.  1.
         -2   -1    0    0    0  501 -0.00000000000E+00 -0.00000000000E+00 -0.24047968650E+01  0.24047968650E+01  0.00000000000E+00 0. -1.
          2    1    1    2  502    0 -0.18568640055E+02  0.96155713140E+01  0.18681695482E+03  0.18798358495E+03  0.00000000000E+00 0.  1.
         -2    1    1    2    0  502  0.18568640055E+02 -0.96155713140E+01  0.58191965232E+02  0.61834928824E+02  0.00000000000E+00 0. -1.
</event>
<event>
 4    1  0.6116490E+003  0.4742235E+02  0.7546771E-02  0.1309752E+00
          2   -1    0    0  501    0  0.00000000000E+00  0.00000000000E+00  0.28552844139E+03  0.28552844139E+03  0.00000000000E+00 0. -1.
         -2   -1    0    0    0  501 -0.00000000000E+00 -0.00000000000E+00 -0.17286462078E+02  0.17286462078E+02  0.00000000000E+00 0. -1.
          2    1    1    2  502    0  0.11220502775E+02 -0.46075805505E+02  0.24583175217E+03  0.25036399484E+03  0.00000000000E+00 0. -1.
         -2    1    1    2    0  502 -0.11220502775E+02  0.46075805505E+02  0.22410227138E+02  0.52450908627E+02  0.00000000000E+00 0. -1.
</event>
<event>
 4    1  0.6116490E+003  0.4728807E+02  0.7546771E-02  0.1310379E+00
          2   -1    0    0  501    0  0.00000000000E+00  0.00000000000E+00  0.82989960467E+03  0.82989960467E+03  0.00000000000E+00 0. -1.
         -2   -1    0    0    0  501 -0.00000000000E+00 -0.00000000000E+00 -0.30198097400E+02  0.30198097400E+02  0.00000000000E+00 0. -1.
          2    1    1    2  502    0 -0.25590955433E+02  0.39765116731E+02  0.81026533326E+03  0.81164405486E+03  0.00000000000E+00 0. -1.
         -2    1    1    2    0  502  0.25590955433E+02 -0.39765116731E+02 -0.10563825987E+02  0.48453647212E+02  0.00000000000E+00 0. -1.
</event>
<event>
 4    1  0.6116490E+003  0.3364283E+02  0.7546771E-02  0.1390364E+00
          2   -1    0    0  501    0  0.00000000000E+00  0.00000000000E+00  0.12525439919E+01  0.12525439919E+01  0.00000000000E+00 0.  1.
         -2   -1    0    0    0  501 -0.00000000000E+00 -0.00000000000E+00 -0.10094613479E+04  0.10094613479E+04  0.00000000000E+00 0.  1.
          2    1    1    2  502    0  0.31544659878E+02  0.11695057414E+02 -0.34047752305E+03  0.34213562171E+03  0.00000000000E+00 0.  1.
         -2    1    1    2    0  502 -0.31544659878E+02 -0.11695057414E+02 -0.66773128090E+03  0.66857827023E+03  0.00000000000E+00 0.  1.
</event>
<event>
 4    1  0.6116490E+003  0.2332384E+02  0.7546771E-02  0.1488471E+00
          2   -1    0    0  501    0  0.00000000000E+00  0.00000000000E+00  0.12046929348E+04  0.12046929348E+04  0.00000000000E+00 0.  1.
         -2   -1    0    0    0  501 -0.00000000000E+00 -0.00000000000E+00 -0.85143802329E+00  0.85143802329E+00  0.00000000000E+00 0. -1.
          2    1    1    2  502    0 -0.10723560245E+02 -0.20712475071E+02  0.10150023410E+04  0.10152702860E+04  0.00000000000E+00 0.  1.
         -2    1    1    2    0  502  0.10723560245E+02  0.20712475071E+02  0.18883915580E+03  0.19027408686E+03  0.00000000000E+00 0. -1.
</event>
<event>
 4    1  0.6116490E+003  0.2462490E+02  0.7546771E-02  0.1473044E+00
          2   -1    0    0  501    0  0.00000000000E+00  0.00000000000E+00  0.10207889154E+04  0.10207889154E+04  0.00000000000E+00 0.  1.
         -2   -1    0    0    0  501 -0.00000000000E+00 -0.00000000000E+00 -0.11023976194E+01  0.11023976194E+01  0.00000000000E+00 0.  1.
          2    1    1    2  502    0  0.20118791815E+02  0.14199288023E+02  0.85681321543E+03  0.85716700339E+03  0.00000000000E+00 0.  1.
         -2    1    1    2    0  502 -0.20118791815E+02 -0.14199288023E+02  0.16287330235E+03  0.16472430963E+03  0.00000000000E+00 0.  1.
</event>
<event>
 4    1  0.6116490E+003  0.2311193E+02  0.7546771E-02  0.1491097E+00
          2   -1    0    0  501    0  0.00000000000E+00  0.00000000000E+00  0.14215746282E+02  0.14215746282E+02  0.00000000000E+00 0. -1.
         -2   -1    0    0    0  501 -0.00000000000E+00 -0.00000000000E+00 -0.63743482979E+02  0.63743482979E+02  0.00000000000E+00 0. -1.
          2    1    1    2  502    0 -0.52754643138E+01  0.22501799887E+02  0.21116549706E+00  0.23112899272E+02  0.00000000000E+00 0. -1.
         -2    1    1    2    0  502  0.52754643138E+01 -0.22501799887E+02 -0.49738902194E+02  0.54846329989E+02  0.00000000000E+00 0. -1.
</event>
<event>
 4    1  0.6116490E+003  0.2221294E+02  0.7546771E-02  0.1502625E+00
          2   -1    0    0  501    0  0.00000000000E+00  0.00000000000E+00  0.12942711537E+03  0.12942711537E+03  0.00000000000E+00 0.  1.
         -2   -1    0    0    0  501 -0.00000000000E+00 -0.00000000000E+00 -0.38423732735E+01  0.38423732735E+01  0.00000000000E+00 0.  1.
          2    1    1    2  502    0  0.19414173575E+02 -0.10793723751E+02  0.68687763592E+02  0.72190189606E+02  0.00000000000E+00 0.  1.
         -2    1    1    2    0  502 -0.19414173575E+02  0.10793723751E+02  0.56896978503E+02  0.61079299037E+02  0.00000000000E+00 0.  1.
</event>
<event>
 4    1  0.6116490E+003  0.2815132E+02  0.7546771E-02  0.1436373E+00
          2   -1    0    0  501    0  0.00000000000E+00  0.00000000000E+00  0.48022369483E+02  0.48022369483E+02  0.00000000000E+00 0. -1.
         -2   -1    0    0    0  501 -0.00000000000E+00 -0.00000000000E+00 -0.31336328520E+02  0.31336328520E+02  0.00000000000E+00 0. -1.
          2    1    1    2  502    0 -0.21855856436E+02 -0.17743121696E+02  0.35643153922E+02  0.45419502965E+02  0.00000000000E+00 0. -1.
         -2    1    1    2    0  502  0.21855856436E+02  0.17743121696E+02 -0.18957112959E+02  0.33939195038E+02  0.00000000000E+00 0. -1.
</event>
<event>
 4    1  0.6116490E+003  0.2072543E+02  0.7546771E-02  0.1523221E+00
          2   -1    0    0  501    0  0.00000000000E+00  0.00000000000E+00  0.11106535285E+04  0.11106535285E+04  0.00000000000E+00 0.  1.
         -2   -1    0    0    0  501 -0.00000000000E+00 -0.00000000000E+00 -0.40408903057E+02  0.40408903057E+02  0.00000000000E+00 0.  1.
          2    1    1    2  502    0  0.26837606812E+00  0.20723687363E+02  0.11078927408E+04  0.11080865798E+04  0.00000000000E+00 0.  1.
         -2    1    1    2    0  502 -0.26837606812E+00 -0.20723687363E+02 -0.37648115355E+02  0.42975851747E+02  0.00000000000E+00 0.  1.
</event>
<event>
 4    1  0.6116490E+003  0.2464333E+02  0.7546771E-02  0.1472833E+00
          2   -1    0    0  501    0  0.00000000000E+00  0.00000000000E+00  0.31427223151E+02  0.31427223151E+02  0.00000000000E+00 0. -1.
         -2   -1    0    0    0  501 -0.00000000000E+00 -0.00000000000E+00 -0.22329268095E+02  0.22329268095E+02  0.00000000000E+00 0. -1.
          2    1    1    2  502    0  0.14321833430E+02  0.20054399351E+02  0.14409925140E+02  0.28547150272E+02  0.00000000000E+00 0. -1.
         -2    1    1    2    0  502 -0.14321833430E+02 -0.20054399351E+02 -0.53119700837E+01  0.25209340973E+02  0.00000000000E+00 0. -1.
</event>
<event>
 4    1  0.6116490E+003  0.2785932E+02  0.7546771E-02  0.1439162E+00
          2   -1    0    0  501    0  0.00000000000E+00  0.00000000000E+00  0.27819793092E+03  0.27819793092E+03  0.00000000000E+00 0. -1.
         -2   -1    0    0    0  501 -0.00000000000E+00 -0.00000000000E+00 -0.23086138382E+02  0.23086138382E+02  0.00000000000E+00 0.  1.
          2    1    1    2  502    0 -0.27336374839E+02  0.53725289293E+01  0.26880263093E+03  0.27024247603E+03  0.00000000000E+00 0. -1.
         -2    1    1    2    0  502  0.27336374839E+02 -0.53725289293E+01 -0.13690838398E+02  0.31041593265E+02  0.00000000000E+00 0.  1.
</event>
<event>
 4    1  0.6116490E+003  0.3176046E+02  0.7546771E-02  0.1404891E+00
          2   -1    0    0  501    0  0.00000000000E+00  0.00000000000E+00  0.17567730312E+04  0.17567730312E+04  0.00000000000E+00 0. -1.
         -2   -1    0    0    0  501 -0.00000000000E+00 -0.00000000000E+00 -0.58274121596E+00  0.58274121596E+00  0.00000000000E+00 0.  1.
          2    1    1    2  502    0 -0.30688917565E+02  0.81803099257E+01  0.98451543602E+03  0.98502759905E+03  0.00000000000E+00 0. -1.
         -2    1    1    2    0  502  0.30688917565E+02 -0.81803099257E+01  0.77167485398E+03  0.77232817338E+03  0.00000000000E+00 0.  1.
</event>
<event>
 4    1  0.6116490E+003  0.3295778E+02  0.7546771E-02  0.1395519E+00
          2   -1    0    0  501    0  0.00000000000E+00  0.00000000000E+00  0.16625627930E+04  0.16625627930E+04  0.00000000000E+00 0. -1.
         -2   -1    0    0    0  501 -0.00000000000E+00 -0.00000000000E+00 -0.11429066776E+01  0.11429066776E+01  0.00000000000E+00 0.  1.
          2    1    1    2  502    0 -0.32800511533E+02 -0.32158197254E+01  0.13751474563E+04  0.13755423446E+04  0.00000000000E+00 0. -1.
         -2    1    1    2    0  502  0.32800511533E+02  0.32158197254E+01  0.28627242999E+03  0.28816335511E+03  0.00000000000E+00 0.  1.
</event>
<event>
 4    1  0.6116490E+003  0.3884237E+02  0.7546771E-02  0.1355406E+00
          2   -1    0    0  501    0  0.00000000000E+00  0.00000000000E+00  0.17676575944E+03  0.17676575944E+03  0.00000000000E+00 0. -1.
         -2   -1    0    0    0  501 -0.00000000000E+00 -0.00000000000E+00 -0.48126282106E+02  0.48126282106E+02  0.00000000000E+00 0. -1.
          2    1    1    2  502    0  0.22673188684E+02 -0.31538173691E+02  0.16630834544E+03  0.17078406145E+03  0.00000000000E+00 0. -1.
         -2    1    1    2    0  502 -0.22673188684E+02  0.31538173691E+02 -0.37668868106E+02  0.54107980089E+02  0.00000000000E+00 0. -1.
</event>
<event>
 4    1  0.6116490E+003  0.2317840E+02  0.7546771E-02  0.1490270E+00
          2   -1    0    0  501    0  0.00000000000E+00  0.00000000000E+00  0.11588343651E+04  0.11588343651E+04  0.00000000000E+00 0. -1.
         -2   -1    0    0    0  501 -0.00000000000E+00 -0.00000000000E+00 -0.41187353355E+01  0.41187353355E+01  0.00000000000E+00 0.  1.
          2    1    1    2  502    0  0.17037427343E+02  0.15715104863E+02  0.11251323610E+04  0.11253710802E+04  0.00000000000E+00 0. -1.
         -2    1    1    2    0  502 -0.17037427343E+02 -0.15715104863E+02  0.29583268732E+02  0.37582020172E+02  0.00000000000E+00 0.  1.
</event>
<event>
 4    1  0.6116490E+003  0.2289358E+02  0.7546771E-02  0.1493839E+00
          2   -1    0    0  501    0  0.00000000000E+00  0.00000000000E+00  0.39259307702E+03  0.39259307702E+03  0.00000000000E+00 0.  1.
         -2   -1    0    0    0  501 -0.00000000000E+00 -0.00000000000E+00 -0.24023216487E+01  0.24023216487E+01  0.00000000000E+00 0.  1.
          2    1    1    2  502    0 -0.27176712348E+01  0.22731698474E+02  0.32673662865E+03  0.32753769302E+03  0.00000000000E+00 0.  1.
         -2    1    1    2    0  502  0.27176712348E+01 -0.22731698474E+02  0.63454126730E+02  0.67457705650E+02  0.00000000000E+00 0.  1.
</event>
<event>
 4    1  0.6116490E+003  0.2724819E+02  0.7546771E-02  0.1445131E+00
          2   -1    0    0  501    0  0.00000000000E+00  0.00000000000E+00  0.17719534884E+01  0.17719534884E+01  0.00000000000E+00 0.  1.
         -2   -1    0    0    0  501 -0.00000000000E+00 -0.00000000000E+00 -0.43651910893E+03  0.43651910893E+03  0.00000000000E+00 0.  1.
          2    1    1    2  502    0 -0.10997746157E+02 -0.24930170992E+02 -0.17348215051E+03  0.17560899861E+03  0.00000000000E+00 0.  1.
         -2    1    1    2    0  502  0.10997746157E+02  0.24930170992E+02 -0.26126500492E+03  0.26268206380E+03  0.00000000000E+00 0.  1.
</event>
<event>
 4    1  0.6116490E+003  0.4223355E+02  0.7546771E-02  0.1335872E+00
          2   -1    0    0  501    0  0.00000000000E+00  0.00000000000E+00  0.85251912488E+03  0.85251912488E+03  0.00000000000E+00 0.  1.
         -2   -1    0    0    0  501 -0.00000000000E+00 -0.00000000000E+00 -0.93134163793E+02  0.93134163793E+02  0.00000000000E+00 0.  1.
          2    1    1    2  502    0  0.37693832655E+02 -0.19048564009E+02  0.84717798592E+03  0.84823004700E+03  0.00000000000E+00 0.  1.
         -2    1    1    2    0  502 -0.37693832655E+02  0.19048564009E+02 -0.87793024825E+02  0.97423241677E+02  0.00000000000E+00 0.  1.
</event>
<event>
 4    1  0.6116490E+003  0.2357548E+02  0.7546771E-02  0.1485395E+00
          2   -1    0    0  501    0  0.00000000000E+00  0.00000000000E+00  0.43923590257E+01  0.43923590257E+01  0.00000000000E+00 0. -1.
         -2   -1    0    0    0  501 -0.00000000000E+00 -0.00000000000E+00 -0.30476498934E+03  0.30476498934E+03  0.00000000000E+00 0. -1.
          2    1    1    2  502    0 -0.22295779559E+02  0.76616988826E+01 -0.31976668518E+02  0.39727959240E+02  0.00000000000E+00 0. -1.
         -2    1    1    2    0  502  0.22295779559E+02 -0.76616988826E+01 -0.26839596180E+03  0.26942938913E+03  0.00000000000E+00 0. -1.
</event>
<event>
 4    1  0.6116490E+003  0.3889761E+02  0.7546771E-02  0.1355070E+00
          2   -1    0    0  501    0  0.00000000000E+00  0.00000000000E+00  0.47133333034E+01  0.47133333034E+01  0.00000000000E+00 0.  1.
         -2   -1    0    0    0  501 -0.00000000000E+00 -0.00000000000E+00 -0.63402420802E+03  0.63402420802E+03  0.00000000000E+00 0. -1.
          2    1    1    2  502    0 -0.88956490575E+01  0.37866759127E+02 -0.90255873258E+02  0.98280957853E+02  0.00000000000E+00 0.  1.
         -2    1    1    2    0  502  0.88956490575E+01 -0.37866759127E+02 -0.53905500146E+03  0.54045658347E+03  0.00000000000E+00 0. -1.
</event>
<event>
 4    1  0.6116490E+003  0.2508904E+02  0.7546771E-02  0.1467810E+00
          2   -1    0    0  501    0  0.00000000000E+00  0.00000000000E+00  0.15770213771E+04  0.15770213771E+04  0.00000000000E+00 0.  1.
         -2   -1    0    0    0  501 -0.00000000000E+00 -0.00000000000E+00 -0.22342188346E+02  0.22342188346E+02  0.00000000000E+00 0. -1.
          2    1    1    2  502    0  0.24563990777E+02  0.51059111417E+01  0.15698459982E+04  0.15700464700E+04  0.00000000000E+00 0.  1.
         -2    1    1    2    0  502 -0.24563990777E+02 -0.51059111417E+01 -0.15166809488E+02  0.29317095380E+02  0.00000000000E+00 0. -1.
</event>
<event>
 4    1  0.6419734E+003  0.2991231E+02  0.7546771E-02  0.1420360E+00
          2   -1    0    0  501    0  0.00000000000E+00  0.00000000000E+00  0.89875250576E+03  0.89875250576E+03  0.00000000000E+00 0.  1.
         -2   -1    0    0    0  501 -0.00000000000E+00 -0.00000000000E+00 -0.17679292509E+03  0.17679292509E+03  0.00000000000E+00 0.  1.
          2    1    1    2  502    0 -0.27883127196E+02  0.10829463925E+02  0.89723623675E+03  0.89773471059E+03  0.00000000000E+00 0.  1.
         -2    1    1    2    0  502  0.27883127196E+02 -0.10829463925E+02 -0.17527665608E+03  0.17781072026E+03  0.00000000000E+00 0.  1.
</event>
<event>
 4    1  0.6116490E+003  0.3738331E+02  0.7546771E-02  0.1364542E+00
          2   -1    0    0  501    0  0.00000000000E+00  0.00000000000E+00  0.16160416455E+03  0.16160416455E+03  0.00000000000E+00 0. -1.
         -2   -1    0    0    0  501 -0.00000000000E+00 -0.00000000000E+00 -0.21292325795E+03  0.21292325795E+03  0.00000000000E+00 0. -1.
          2    1    1    2  502    0  0.29808236111E+02  0.22560602195E+02  0.15776194831E+03  0.16213063882E+03  0.00000000000E+00 0. -1.
         -2    1    1    2    0  502 -0.29808236111E+02 -0.22560602195E+02 -0.20908104172E+03  0.21239678368E+03  0.00000000000E+00 0. -1.
</event>
<event>
 4    1  0.6116490E+003  0.2268340E+02  0.7546771E-02  0.1496512E+00
          2   -1    0    0  501    0  0.00000000000E+00  0.00000000000E+00  0.13169971181E+04  0.13169971181E+04  0.00000000000E+00 0.  1.
         -2   -1    0    0    0  501 -0.00000000000E+00 -0.00000000000E+00 -0.84214916443E+01  0.84214916443E+01  0.00000000000E+00 0. -1.
          2    1    1    2  502    0  0.22325591272E+02  0.40130820253E+01  0.13014423833E+04  0.13016400477E+04  0.00000000000E+00 0.  1.
         -2    1    1    2    0  502 -0.22325591272E+02 -0.40130820253E+01  0.71332431647E+01  0.23778562005E+02  0.00000000000E+00 0. -1.
</event>
<event>
 4    1  0.6116490E+003  0.5202119E+02  0.7546771E-02  0.1289639E+00
          2   -1    0    0  501    0  0.00000000000E+00  0.00000000000E+00  0.22478044943E+03  0.22478044943E+03  0.00000000000E+00 0.  1.
         -2   -1    0    0    0  501 -0.00000000000E+00 -0.00000000000E+00 -0.13030085757E+02  0.13030085757E+02  0.00000000000E+00 0. -1.
          2    1    1    2  502    0 -0.31413187297E+02 -0.41465840172E+02  0.13866299764E+03  0.14810007142E+03  0.00000000000E+00 0.  1.
         -2    1    1    2    0  502  0.31413187297E+02  0.41465840172E+02  0.73087366028E+02  0.89710463772E+02  0.00000000000E+00 0. -1.
</event>
<event>
 4    1  0.6116490E+003  0.3687016E+02  0.7546771E-02  0.1367872E+00
          2   -1    0    0  501    0  0.00000000000E+00  0.00000000000E+00  0.47583155773E+02  0.47583155773E+02  0.00000000000E+00 0.  1.
         -2   -1    0    0    0  501 -0.00000000000E+00 -0.00000000000E+00 -0.14693184033E+03  0.14693184033E+03  0.00000000000E+00 0.  1.
          2    1    1    2  502    0  0.28740122182E+02  0.23095757741E+02  0.37617289547E+02  0.52673229648E+02  0.00000000000E+00 0.  1.
         -2    1    1    2    0  502 -0.28740122182E+02 -0.23095757741E+02 -0.13696597411E+03  0.14184176646E+03  0.00000000000E+00 0.  1.
</event>
<event>
 4    1  0.6116490E+003  0.2854151E+02  0.7546771E-02  0.1432709E+00
          2   -1    0    0  501    0  0.00000000000E+00  0.00000000000E+00  0.16189121207E+04  0.16189121207E+04  0.00000000000E+00 0.  1.
         -2   -1    0    0    0  501 -0.00000000000E+00 -0.00000000000E+00 -0.11473275159E+01  0.11473275159E+01  0.00000000000E+00 0.  1.
          2    1    1    2  502    0  0.17909027966E+02 -0.22223507683E+02  0.14158243163E+04  0.14161119702E+04  0.00000000000E+00 0.  1.
         -2    1    1    2    0  502 -0.17909027966E+02  0.22223507683E+02  0.20194047690E+03  0.20394747801E+03  0.00000000000E+00 0.  1.
</event>
<event>
 4    1  0.6116490E+003  0.2509470E+02  0.7546771E-02  0.1467747E+00
          2   -1    0    0  501    0  0.00000000000E+00  0.00000000000E+00  0.11595640245E+02  0.11595640245E+02  0.00000000000E+00 0. -1.
         -2   -1    0    0    0  501 -0.00000000000E+00 -0.00000000000E+00 -0.62386376216E+02  0.62386376216E+02  0.00000000000E+00 0. -1.
          2    1    1    2  502    0  0.25027886903E+02  0.18300279557E+01 -0.12084862133E+02  0.27852971438E+02  0.00000000000E+00 0. -1.
         -2    1    1    2    0  502 -0.25027886903E+02 -0.18300279557E+01 -0.38705873838E+02  0.46129045023E+02  0.00000000000E+00 0. -1.
</event>
<event>
 4    1  0.6116490E+003  0.2995934E+02  0.7546771E-02  0.1419950E+00
          2   -1    0    0  501    0  0.00000000000E+00  0.00000000000E+00  0.61180964457E+03  0.61180964457E+03  0.00000000000E+00 0.  1.
         -2   -1    0    0    0  501 -0.00000000000E+00 -0.00000000000E+00 -0.10362788851E+03  0.10362788851E+03  0.00000000000E+00 0. -1.
          2    1    1    2  502    0 -0.29941044118E+02 -0.10468733921E+01  0.60926850480E+03  0.61000464999E+03  0.00000000000E+00 0.  1.
         -2    1    1    2    0  502  0.29941044118E+02  0.10468733921E+01 -0.10108674874E+03  0.10543288310E+03  0.00000000000E+00 0. -1.
</event>
<event>
 4    1  0.6116490E+003  0.3368123E+02  0.7546771E-02  0.1390079E+00
          2   -1    0    0  501    0  0.00000000000E+00  0.00000000000E+00  0.12247216083E+04  0.12247216083E+04  0.00000000000E+00 0.  1.
         -2   -1    0    0    0  501 -0.00000000000E+00 -0.00000000000E+00 -0.27365359070E+02  0.27365359070E+02  0.00000000000E+00 0.  1.
          2    1    1    2  502    0  0.65218205238E+01  0.33043776985E+02  0.12140351333E+04  0.12145022561E+04  0.00000000000E+00 0.  1.
         -2    1    1    2    0  502 -0.65218205238E+01 -0.33043776985E+02 -0.16678884091E+02  0.37584711185E+02  0.00000000000E+00 0.  1.
</event>
<event>
 4    1  0.6116490E+003  0.2629244E+02  0.7546771E-02  0.1454848E+00
          2   -1    0    0  501    0  0.00000000000E+00  0.00000000000E+00  0.79684445751E+03  0.79684445751E+03  0.00000000000E+00 0.  1.
         -2   -1    0    0    0  501 -0.00000000000E+00 -0.00000000000E+00 -0.11666611452E+01  0.11666611452E+01  0.00000000000E+00 0. -1.
          2    1    1    2  502    0 -0.23125084644E+02  0.12510903987E+02  0.59987646294E+03  0.60045238200E+03  0.00000000000E+00 0.  1.
         -2    1    1    2    0  502  0.23125084644E+02 -0.12510903987E+02  0.19580133343E+03  0.19755873666E+03  0.00000000000E+00 0. -1.
</event>
<event>
 4    1  0.6116490E+003  0.2352446E+02  0.7546771E-02  0.1486015E+00
          2   -1    0    0  501    0  0.00000000000E+00  0.00000000000E+00  0.17126835370E+04  0.17126835370E+04  0.00000000000E+00 0.  1.
         -2   -1    0    0    0  501 -0.00000000000E+00 -0.00000000000E+00 -0.25580914598E+01  0.25580914598E+01  0.00000000000E+00 0. -1.
          2    1    1    2  502    0  0.14695268893E+01 -0.23478514542E+02  0.16566916703E+04  0.16568586816E+04  0.00000000000E+00 0.  1.
         -2    1    1    2    0  502 -0.14695268893E+01  0.23478514542E+02  0.53433775219E+02  0.58382946898E+02  0.00000000000E+00 0. -1.
</event>
<event>
 4    1  0.6116490E+003  0.2028302E+02  0.7546771E-02  0.1529752E+00
          2   -1    0    0  501    0  0.00000000000E+00  0.00000000000E+00  0.14173237687E+03  0.14173237687E+03  0.00000000000E+00 0. -1.
         -2   -1    0    0    0  501 -0.00000000000E+00 -0.00000000000E+00 -0.41531642803E+01  0.41531642803E+01  0.00000000000E+00 0. -1.
          2    1    1    2  502    0  0.10218595218E+02  0.17520878854E+02  0.10881497232E+03  0.11068920040E+03  0.00000000000E+00 0. -1.
         -2    1    1    2    0  502 -0.10218595218E+02 -0.17520878854E+02  0.28764240275E+02  0.35196340756E+02  0.00000000000E+00 0. -1.
</event>
<event>
 4    1  0.6116490E+003  0.3300608E+02  0.7546771E-02  0.1395150E+00
          2   -1    0    0  501    0  0.00000000000E+00  0.00000000000E+00  0.53849686118E+03  0.53849686118E+03  0.00000000000E+00 0.  1.
         -2   -1    0    0    0  501 -0.00000000000E+00 -0.00000000000E+00 -0.27124836981E+03  0.27124836981E+03  0.00000000000E+00 0. -1.
          2    1    1    2  502    0 -0.25835902935E+02  0.20540381242E+02  0.53698421288E+03  0.53799762641E+03  0.00000000000E+00 0.  1.
         -2    1    1    2    0  502  0.25835902935E+02 -0.20540381242E+02 -0.26973572151E+03  0.27174760459E+03  0.00000000000E+00 0. -1.
</event>
<event>
 4    1  0.6116490E+003  0.3028439E+02  0.7546771E-02  0.1417141E+00
          2   -1    0    0  501    0  0.00000000000E+00  0.00000000000E+00  0.29441465243E+02  0.29441465243E+02  0.00000000000E+00 0.  1.
         -2   -1    0    0    0  501 -0.00000000000E+00 -0.00000000000E+00 -0.69054065583E+02  0.69054065583E+02  0.00000000000E+00 0. -1.
          2    1    1    2  502    0 -0.26231462691E+02  0.15134553420E+02  0.16679719799E+02  0.34573940977E+02  0.00000000000E+00 0.  1.
         -2    1    1    2    0  502  0.26231462691E+02 -0.15134553420E+02 -0.56292320139E+02  0.63921589849E+02  0.00000000000E+00 0. -1.
</event>
<event>
 4    1  0.6116490E+003  0.4688556E+02  0.7546771E-02  0.1312271E+00
          2   -1    0    0  501    0  0.00000000000E+00  0.00000000000E+00  0.15998103530E+02  0.15998103530E+02  0.00000000000E+00 0.  1.
         -2   -1    0    0    0  501 -0.00000000000E+00 -0.00000000000E+00 -0.51099113065E+03  0.51099113065E+03  0.00000000000E+00 0. -1.
          2    1    1    2  502    0 -0.43794902467E+02  0.16741048872E+02 -0.22197597474E+02  0.51874748510E+02  0.00000000000E+00 0.  1.
         -2    1    1    2    0  502  0.43794902467E+02 -0.16741048872E+02 -0.47279542965E+03  0.47511448567E+03  0.00000000000E+00 0. -1.
</event>
<event>
 4    1  0.6116490E+003  0.2865665E+02  0.7546771E-02  0.1431641E+00
          2   -1    0    0  501    0  0.00000000000E+00  0.00000000000E+00  0.20531615890E+02  0.20531615890E+02  0.00000000000E+00 0. -1.
         -2   -1    0    0    0  501 -0.00000000000E+00 -0.00000000000E+00 -0.21207915152E+03  0.21207915152E+03  0.00000000000E+00 0. -1.
          2    1    1    2  502    0 -0.28369361699E+02  0.40475765567E+01  0.89918338852E+01  0.30034257703E+02  0.00000000000E+00 0. -1.
         -2    1    1    2    0  502  0.28369361699E+02 -0.40475765567E+01 -0.20053936952E+03  0.20257650971E+03  0.00000000000E+00 0. -1.
</event>
<event>
 4    1  0.6116490E+003  0.3043991E+02  0.7546771E-02  0.1415811E+00
          2   -1    0    0  501    0  0.00000000000E+00  0.00000000000E+00  0.15656662151E+03  0.15656662151E+03  0.00000000000E+00 0.  1.
         -2   -1    0    0    0  501 -0.00000000000E+00 -0.00000000000E+00 -0.43854488485E+02  0.43854488485E+02  0.00000000000E+00 0.  1.
          2    1    1    2  502    0 -0.20289301322E+02  0.22692119622E+02  0.14955995423E+03  0.15262623612E+03  0.00000000000E+00 0.  1.
         -2    1    1    2    0  502  0.20289301322E+02 -0.22692119622E+02 -0.36847821209E+02  0.47794873877E+02  0.00000000000E+00 0.  1.
</event>
<event>
 4    1  0.6116490E+003  0.2800597E+02  0.7546771E-02  0.1437757E+00
          2   -1    0    0  501    0  0.00000000000E+00  0.00000000000E+00  0.32162460219E+03  0.32162460219E+03  0.00000000000E+00 0.  1.
         -2   -1    0    0    0  501 -0.00000000000E+00 -0.00000000000E+00 -0.24552152798E+01  0.24552152798E+01  0.00000000000E+00 0.  1.
          2    1    1    2  502    0 -0.25585799030E+02  0.11388634786E+02  0.17288930355E+03  0.17514292848E+03  0.00000000000E+00 0.  1.
         -2    1    1    2    0  502  0.25585799030E+02 -0.11388634786E+02  0.14628008336E+03  0.14893688899E+03  0.00000000000E+00 0.  1.
</event>
<event>
 4    1  0.6116490E+003  0.2232908E+02  0.7546771E-02  0.1501099E+00
          2   -1    0    0  501    0  0.00000000000E+00  0.00000000000E+00  0.37001127746E+03  0.37001127746E+03  0.00000000000E+00 0.  1.
         -2   -1    0    0    0  501 -0.00000000000E+00 -0.00000000000E+00 -0.16408138801E+01  0.16408138801E+01  0.00000000000E+00 0.  1.
          2    1    1    2  502    0 -0.21990814064E+02  0.38719207637E+01  0.26275369885E+03  0.26370076589E+03  0.00000000000E+00 0.  1.
         -2    1    1    2    0  502  0.21990814064E+02 -0.38719207637E+01  0.10561676473E+03  0.10795132545E+03  0.00000000000E+00 0.  1.
</event>
<event>
 4    1  0.6116490E+003  0.2719301E+02  0.7546771E-02  0.1445679E+00
          2   -1    0    0  501    0  0.00000000000E+00  0.00000000000E+00  0.12494774908E+04  0.12494774908E+04  0.00000000000E+00 0.  1.
         -2   -1    0    0    0  501 -0.00000000000E+00 -0.00000000000E+00 -0.36771485845E+01  0.36771485845E+01  0.00000000000E+00 0.  1.
          2    1    1    2  502    0  0.57969397410E+01 -0.26567936502E+02  0.11968449783E+04  0.11971538589E+04  0.00000000000E+00 0.  1.
         -2    1    1    2    0  502 -0.57969397410E+01  0.26567936502E+02  0.48955363903E+02  0.56000780487E+02  0.00000000000E+00 0.  1.
</event>
<event>
 4    1  0.6116490E+003  0.2004062E+02  0.7546771E-02  0.1533416E+00
          2   -1    0    0  501    0  0.00000000000E+00  0.00000000000E+00  0.59046162992E+02  0.59046162992E+02  0.00000000000E+00 0. -1.
         -2   -1    0    0    0  501 -0.00000000000E+00 -0.00000000000E+00 -0.11587765870E+03  0.11587765870E+03  0.00000000000E+00 0.  1.
          2    1    1    2  502    0  0.83784605935E+01  0.18205160680E+02  0.56440380742E+02  0.59892762965E+02  0.00000000000E+00 0. -1.
         -2    1    1    2    0  502 -0.83784605935E+01 -0.18205160680E+02 -0.11327187645E+03  0.11503105872E+03  0.00000000000E+00 0.  1.
</event>
<event>
 4    1  0.6116490E+003  0.2963251E+02  0.7546771E-02  0.1422817E+00
          2   -1    0    0  501    0  0.00000000000E+00  0.00000000000E+00  0.13297400946E+04  0.13297400946E+04  0.00000000000E+00 0. -1.
         -2   -1    0    0    0  501 -0.00000000000E+00 -0.00000000000E+00 -0.22261642641E+01  0.22261642641E+01  0.00000000000E+00 0. -1.
          2    1    1    2  502    0 -0.15892651419E+02  0.25010183136E+02  0.12222986703E+04  0.12226578119E+04  0.00000000000E+00 0. -1.
         -2    1    1    2    0  502  0.15892651419E+02 -0.25010183136E+02  0.10521526010E+03  0.10930844701E+03  0.00000000000E+00 0. -1.
</event>
<event>
 4    1  0.6116490E+003  0.3308408E+02  0.7546771E-02  0.1394557E+00
          2   -1    0    0  501    0  0.00000000000E+00  0.00000000000E+00  0.36354337691E+03  0.36354337691E+03  0.00000000000E+00 0.  1.
         -2   -1    0    0    0  501 -0.00000000000E+00 -0.00000000000E+00 -0.12769801683E+03  0.12769801683E+03  0.00000000000E+00 0. -1.
          2    1    1    2  502    0  0.25135749773E+02 -0.21511629384E+02  0.36063054493E+03  0.36214492410E+03  0.00000000000E+00 0.  1.
         -2    1    1    2    0  502 -0.25135749773E+02  0.21511629384E+02 -0.12478518485E+03  0.12909646964E+03  0.00000000000E+00 0. -1.
</event>
<event>
 4    1  0.6116490E+003  0.4888105E+02  0.7546771E-02  0.1303098E+00
          2   -1    0    0  501    0  0.00000000000E+00  0.00000000000E+00  0.16511908498E+04  0.16511908498E+04  0.00000000000E+00 0. -1.
         -2   -1    0    0    0  501 -0.00000000000E+00 -0.00000000000E+00 -0.81220359487E+01  0.81220359487E+01  0.00000000000E+00 0.  1.
          2    1    1    2  502    0  0.44882323879E+02  0.19363216310E+02  0.15736610726E+04  0.15744200610E+04  0.00000000000E+00 0. -1.
         -2    1    1    2    0  502 -0.44882323879E+02 -0.19363216310E+02  0.69407741210E+02  0.84892824682E+02  0.00000000000E+00 0.  1.
</event>
<event>
 4    1  0.6116490E+003  0.2223590E+02  0.7546771E-02  0.1502323E+00
          2   -1    0    0  501    0  0.00000000000E+00  0.00000000000E+00  0.28091840770E+02  0.28091840770E+02  0.00000000000E+00 0.  1.
         -2   -1    0    0    0  501 -0.00000000000E+00 -0.00000000000E+00 -0.41942707067E+02  0.41942707067E+02  0.00000000000E+00 0. -1.
          2    1    1    2  502    0 -0.21623364803E+02  0.51831700976E+01  0.19751296283E+02  0.29741366185E+02  0.00000000000E+00 0.  1.
         -2    1    1    2    0  502  0.21623364803E+02 -0.51831700976E+01 -0.33602162579E+02  0.40293181652E+02  0.00000000000E+00 0. -1.
</event>
<event>
 4    1  0.6542712E+003  0.2263944E+02  0.7546771E-02  0.1497076E+00
          2   -1    0    0  501    0  0.00000000000E+00  0.00000000000E+00  0.88117923457E+03  0.88117923457E+03  0.00000000000E+00 0.  1.
         -2   -1    0    0    0  501 -0.00000000000E+00 -0.00000000000E+00 -0.17242064405E+03  0.17242064405E+03  0.00000000000E+00 0. -1.
          2    1    1    2  502    0 -0.21716032555E+02  0.63998739845E+01  0.88028990961E+03  0.88058098402E+03  0.00000000000E+00 0.  1.
         -2    1    1    2    0  502  0.21716032555E+02 -0.63998739845E+01 -0.17153131910E+03  0.17301889460E+03  0.00000000000E+00 0. -1.
</event>
<event>
 4    1  0.6116490E+003  0.3264556E+02  0.7546771E-02  0.1397917E+00
          2   -1    0    0  501    0  0.00000000000E+00  0.00000000000E+00  0.16045248097E+04  0.16045248097E+04  0.00000000000E+00 0.  1.
         -2   -1    0    0    0  501 -0.00000000000E+00 -0.00000000000E+00 -0.14221586670E+02  0.14221586670E+02  0.00000000000E+00 0.  1.
          2    1    1    2  502    0 -0.30035713045E+02  0.12790167237E+02  0.15853983529E+04  0.15857344260E+04  0.00000000000E+00 0.  1.
         -2    1    1    2    0  502  0.30035713045E+02 -0.12790167237E+02  0.49048701247E+01  0.33011970360E+02  0.00000000000E+00 0.  1.
</event>
<event>
 4    1  0.6116490E+003  0.4211320E+02  0.7546771E-02  0.1336528E+00
          2   -1    0    0  501    0  0.00000000000E+00  0.00000000000E+00  0.13987665487E+02  0.13987665487E+02  0.00000000000E+00 0. -1.
         -2   -1    0    0    0  501 -0.00000000000E+00 -0.00000000000E+00 -0.56786350959E+03  0.56786350959E+03  0.00000000000E+00 0. -1.
          2    1    1    2  502    0 -0.41323210304E+02  0.81187540643E+01 -0.20539989122E+02  0.46855234825E+02  0.00000000000E+00 0. -1.
         -2    1    1    2    0  502  0.41323210304E+02 -0.81187540643E+01 -0.53333585499E+03  0.53499594026E+03  0.00000000000E+00 0. -1.
</event>
<event>
 4    1  0.6116490E+003  0.2790832E+02  0.7546771E-02  0.1438691E+00
          2   -1    0    0  501    0  0.00000000000E+00  0.00000000000E+00  0.89277320964E+02  0.89277320964E+02  0.00000000000E+00 0. -1.
         -2   -1    0    0    0  501 -0.00000000000E+00 -0.00000000000E+00 -0.90011816177E+02  0.90011816177E+02  0.00000000000E+00 0. -1.
          2    1    1    2  502    0  0.23483850238E+02  0.15079236331E+02  0.84822311682E+02  0.89295571836E+02  0.00000000000E+00 0. -1.
         -2    1    1    2    0  502 -0.23483850238E+02 -0.15079236331E+02 -0.85556806895E+02  0.89993565306E+02  0.00000000000E+00 0. -1.
</event>
<event>
 4    1  0.6116490E+003  0.2349936E+02  0.7546771E-02  0.1486321E+00
          2   -1    0    0  501    0  0.00000000000E+00  0.00000000000E+00  0.35222475812E+03  0.35222475812E+03  0.00000000000E+00 0.  1.
         -2   -1    0    0    0  501 -0.00000000000E+00 -0.00000000000E+00 -0.27058103454E+03  0.27058103454E+03  0.00000000000E+00 0. -1.
          2    1    1    2  502    0  0.77278522876E+01  0.22192348162E+02  0.35132127917E+03  0.35210632090E+03  0.00000000000E+00 0.  1.
         -2    1    1    2    0  502 -0.77278522876E+01 -0.22192348162E+02 -0.26967755559E+03  0.27069947176E+03  0.00000000000E+00 0. -1.
</event>
<event>
 4    1  0.6116490E+003  0.2565883E+02  0.7546771E-02  0.1461566E+00
          2   -1    0    0  501    0  0.00000000000E+00  0.00000000000E+00  0.68304197761E+03  0.68304197761E+03  0.00000000000E+00 0. -1.
         -2   -1    0    0    0  501 -0.00000000000E+00 -0.00000000000E+00 -0.27963721579E+01  0.27963721579E+01  0.00000000000E+00 0. -1.
          2    1    1    2  502    0 -0.19124844541E+02 -0.17106020531E+02  0.61771960577E+03  0.61825228424E+03  0.00000000000E+00 0. -1.
         -2    1    1    2    0  502  0.19124844541E+02  0.17106020531E+02  0.62525999682E+02  0.67586065526E+02  0.00000000000E+00 0. -1.
</event>
<event>
 4    1  0.6116490E+003  0.3930802E+02  0.7546771E-02  0.1352589E+00
          2   -1    0    0  501    0  0.00000000000E+00  0.00000000000E+00  0.11460694573E+03  0.11460694573E+03  0.00000000000E+00 0.  1.
         -2   -1    0    0    0  501 -0.00000000000E+00 -0.00000000000E+00 -0.20277236446E+02  0.20277236446E+02  0.00000000000E+00 0.  1.
          2    1    1    2  502    0 -0.63742909376E+01 -0.38787738530E+02  0.86206839257E+02  0.94745656259E+02  0.00000000000E+00 0.  1.
         -2    1    1    2    0  502  0.63742909376E+01  0.38787738530E+02  0.81228700264E+01  0.40138525916E+02  0.00000000000E+00 0.  1.
</event>
<event>
 4    1  0.6116490E+003  0.2746355E+02  0.7546771E-02  0.1443006E+00
          2   -1    0    0  501    0  0.00000000000E+00  0.00000000000E+00  0.82007291696E+02  0.82007291696E+02  0.00000000000E+00 0.  1.
         -2   -1    0    0    0  501 -0.00000000000E+00 -0.00000000000E+00 -0.20839985107E+02  0.20839985107E+02  0.00000000000E+00 0. -1.
          2    1    1    2  502    0 -0.17708468696E+02 -0.20991820351E+02  0.69019859160E+02  0.74283156528E+02  0.00000000000E+00 0.  1.
         -2    1    1    2    0  502  0.17708468696E+02  0.20991820351E+02 -0.78525525715E+01  0.28564120276E+02  0.00000000000E+00 0. -1.
</event>
<event>
 4    1  0.6116490E+003  0.5516671E+02  0.7546771E-02  0.1277202E+00
          2   -1    0    0  501    0  0.00000000000E+00  0.00000000000E+00  0.11119350565E+04  0.11119350565E+04  0.00000000000E+00 0.  1.
         -2   -1    0    0    0  501 -0.00000000000E+00 -0.00000000000E+00 -0.24215116868E+02  0.24215116868E+02  0.00000000000E+00 0. -1.
          2    1    1    2  502    0 -0.41333727294E+02 -0.36536127066E+02  0.10788683260E+04  0.10802778487E+04  0.00000000000E+00 0.  1.
         -2    1    1    2    0  502  0.41333727294E+02  0.36536127066E+02  0.88516135852E+01  0.55872324599E+02  0.00000000000E+00 0. -1.
</event>
<event>
 4    1  0.6116490E+003  0.2291904E+02  0.7546771E-02  0.1493517E+00
          2   -1    0    0  501    0  0.00000000000E+00  0.00000000000E+00  0.43084249769E+02  0.43084249769E+02  0.00000000000E+00 0.  1.
         -2   -1    0    0    0  501 -0.00000000000E+00 -0.00000000000E+00 -0.99960001973E+02  0.99960001973E+02  0.00000000000E+00 0. -1.
          2    1    1    2  502    0  0.16588942427E+02  0.15814210917E+02  0.38580738194E+02  0.44874888717E+02  0.00000000000E+00 0.  1.
         -2    1    1    2    0  502 -0.16588942427E+02 -0.15814210917E+02 -0.95456490398E+02  0.98169363026E+02  0.00000000000E+00 0. -1.
</event>
<event>
 4    1  0.7977182E+003  0.2229422E+02  0.7546771E-02  0.1501556E+00
          2   -1    0    0  501    0  0.00000000000E+00  0.00000000000E+00  0.10390184818E+04  0.10390184818E+04  0.00000000000E+00 0.  1.
         -2   -1    0    0    0  501 -0.00000000000E+00 -0.00000000000E+00 -0.22642962962E+03  0.22642962962E+03  0.00000000000E+00 0.  1.
          2    1    1    2  502    0 -0.20146667376E+02  0.95469289056E+01  0.10383497657E+04  0.10385890756E+04  0.00000000000E+00 0.  1.
         -2    1    1    2    0  502  0.20146667376E+02 -0.95469289056E+01 -0.22576091352E+03  0.22685903581E+03  0.00000000000E+00 0.  1.
</event>
<event>
 4    1  0.6116490E+003  0.2251182E+02  0.7546771E-02  0.1498721E+00
          2   -1    0    0  501    0  0.00000000000E+00  0.00000000000E+00  0.98467985979E+02  0.98467985979E+02  0.00000000000E+00 0. -1.
         -2   -1    0    0    0  501 -0.00000000000E+00 -0.00000000000E+00 -0.18806359297E+03  0.18806359297E+03  0.00000000000E+00 0. -1.
          2    1    1    2  502    0 -0.21499040533E+02  0.66763380200E+01  0.96494035017E+02  0.99085221032E+02  0.00000000000E+00 0. -1.
         -2    1    1    2    0  502  0.21499040533E+02 -0.66763380200E+01 -0.18608964201E+03  0.18744635792E+03  0.00000000000E+00 0. -1.
</event>
<event>
 4    1  0.6116490E+003  0.2279695E+02  0.7546771E-02  0.1495064E+00
          2   -1    0    0  501    0  0.00000000000E+00  0.00000000000E+00  0.22314928211E+03  0.22314928211E+03  0.00000000000E+00 0. -1.
         -2   -1    0    0    0  501 -0.00000000000E+00 -0.00000000000E+00 -0.35430091879E+02  0.35430091879E+02  0.00000000000E+00 0.  1.
          2    1    1    2  502    0 -0.22084467666E+01 -0.22689730709E+02  0.21882773436E+03  0.22001199613E+03  0.00000000000E+00 0. -1.
         -2    1    1    2    0  502  0.22084467666E+01  0.22689730709E+02 -0.31108544130E+02  0.38567377856E+02  0.00000000000E+00 0.  1.
</event>
<event>
 4    1  0.6116490E+003  0.2346513E+02  0.7546771E-02  0.1486739E+00
          2   -1    0    0  501    0  0.00000000000E+00  0.00000000000E+00  0.42340216824E+01  0.42340216824E+01  0.00000000000E+00 0. -1.
         -2   -1    0    0    0  501 -0.00000000000E+00 -0.00000000000E+00 -0.10027862610E+04  0.10027862610E+04  0.00000000000E+00 0. -1.
          2    1    1    2  502    0  0.16164442269E+02 -0.17009499004E+02 -0.29547681758E+02  0.37731654450E+02  0.00000000000E+00 0. -1.
         -2    1    1    2    0  502 -0.16164442269E+02  0.17009499004E+02 -0.96900455755E+03  0.96928862823E+03  0.00000000000E+00 0. -1.
</event>
<event>
 4    1  0.6116490E+003  0.2464572E+02  0.7546771E-02  0.1472806E+00
          2   -1    0    0  501    0  0.00000000000E+00  0.00000000000E+00  0.37217181218E+02  0.37217181218E+02  0.00000000000E+00 0.  1.
         -2   -1    0    0    0  501 -0.00000000000E+00 -0.00000000000E+00 -0.56857277091E+02  0.56857277091E+02  0.00000000000E+00 0.  1.
          2    1    1    2  502    0 -0.20080342427E+02 -0.14289552725E+02  0.29896554739E+02  0.38745521732E+02  0.00000000000E+00 0.  1.
         -2    1    1    2    0  502  0.20080342427E+02  0.14289552725E+02 -0.49536650611E+02  0.55328936578E+02  0.00000000000E+00 0.  1.
</event>
<event>
 4    1  0.6116490E+003  0.2739571E+02  0.7546771E-02  0.1443673E+00
          2   -1    0    0  501    0  0.00000000000E+00  0.00000000000E+00  0.12244785370E+04  0.12244785370E+04  0.00000000000E+00 0.  1.
         -2   -1    0    0    0  501 -0.00000000000E+00 -0.00000000000E+00 -0.12824034219E+02  0.12824034219E+02  0.00000000000E+00 0.  1.
          2    1    1    2  502    0  0.23949856327E+01 -0.27290825368E+02  0.12095130718E+04  0.12098232912E+04  0.00000000000E+00 0.  1.
         -2    1    1    2    0  502 -0.23949856327E+01  0.27290825368E+02  0.21414310282E+01  0.27479280054E+02  0.00000000000E+00 0.  1.
</event>
<event>
 4    1  0.6116490E+003  0.2050678E+02  0.7546771E-02  0.1526425E+00
          2   -1    0    0  501    0  0.00000000000E+00  0.00000000000E+00  0.28587387643E+02  0.28587387643E+02  0.00000000000E+00 0.  1.
         -2   -1    0    0    0  501 -0.00000000000E+00 -0.00000000000E+00 -0.16950088791E+02  0.16950088791E+02  0.00000000000E+00 0.  1.
          2    1    1    2  502    0 -0.14420824651E+02 -0.14579711592E+02  0.14095392518E+02  0.24883895675E+02  0.00000000000E+00 0.  1.
         -2    1    1    2    0  502  0.14420824651E+02  0.14579711592E+02 -0.24580936657E+01  0.20653580759E+02  0.00000000000E+00 0.  1.
</event>
<event>
 4    1  0.6116490E+003  0.2027879E+02  0.7546771E-02  0.1529816E+00
          2   -1    0    0  501    0  0.00000000000E+00  0.00000000000E+00  0.13400384997E+04  0.13400384997E+04  0.00000000000E+00 0.  1.
         -2   -1    0    0    0  501 -0.00000000000E+00 -0.00000000000E+00 -0.74690210055E+00  0.74690210055E+00  0.00000000000E+00 0. -1.
          2    1    1    2  502    0  0.20098238644E+02  0.27000209960E+01  0.11842049537E+04  0.11843785720E+04  0.00000000000E+00 0.  1.
         -2    1    1    2    0  502 -0.20098238644E+02 -0.27000209960E+01  0.15508664384E+03  0.15640682980E+03  0.00000000000E+00 0. -1.
</event>
<event>
 4    1  0.6116490E+003  0.2053125E+02  0.7546771E-02  0.1526064E+00
          2   -1    0    0  501    0  0.00000000000E+00  0.00000000000E+00  0.33742143745E+03  0.33742143745E+03  0.00000000000E+00 0.  1.
         -2   -1    0    0    0  501 -0.00000000000E+00 -0.00000000000E+00 -0.31612483637E+02  0.31612483637E+02  0.00000000000E+00 0. -1.
          2    1    1    2  502    0 -0.14197704882E+02 -0.14830967337E+02  0.33373877713E+03  0.33436971121E+03  0.00000000000E+00 0.  1.
         -2    1    1    2    0  502  0.14197704882E+02  0.14830967337E+02 -0.27929823314E+02  0.34664209877E+02  0.00000000000E+00 0. -1.
</event>
<event>
 4    1  0.6116490E+003  0.2832515E+02  0.7546771E-02  0.1434732E+00
          2   -1    0    0  501    0  0.00000000000E+00  0.00000000000E+00  0.22254232831E+03  0.22254232831E+03  0.00000000000E+00 0. -1.
         -2   -1    0    0    0  501 -0.00000000000E+00 -0.00000000000E+00 -0.49005079527E+01  0.49005079527E+01  0.00000000000E+00 0.  1.
          2    1    1    2  502    0 -0.21728694313E+02  0.18170806316E+02  0.16728708090E+03  0.16966815197E+03  0.00000000000E+00 0. -1.
         -2    1    1    2    0  502  0.21728694313E+02 -0.18170806316E+02  0.50354739459E+02  0.57774684289E+02  0.00000000000E+00 0.  1.
</event>
<event>
 4    1  0.6116490E+003  0.4479888E+02  0.7546771E-02  0.1322448E+00
          2   -1    0    0  501    0  0.00000000000E+00  0.00000000000E+00  0.24929854315E+03  0.24929854315E+03  0.00000000000E+00 0. -1.
         -2   -1    0    0    0  501 -0.00000000000E+00 -0.00000000000E+00 -0.17351484081E+02  0.17351484081E+02  0.00000000000E+00 0. -1.
          2    1    1    2  502    0  0.17554880668E+02  0.41216081588E+02  0.21358736979E+03  0.21823497371E+03  0.00000000000E+00 0. -1.
         -2    1    1    2    0  502 -0.17554880668E+02 -0.41216081588E+02  0.18359689277E+02  0.48415053517E+02  0.00000000000E+00 0. -1.
</event>
<event>
 4    1  0.6116490E+003  0.4576554E+02  0.7546771E-02  0.1317655E+00
          2   -1    0    0  501    0  0.00000000000E+00  0.00000000000E+00  0.26764380987E+01  0.26764380987E+01  0.00000000000E+00 0. -1.
         -2   -1    0    0    0  501 -0.00000000000E+00 -0.00000000000E+00 -0.80880173596E+03  0.80880173596E+03  0.00000000000E+00 0. -1.
          2    1    1    2  502    0 -0.39195493657E+02 -0.23626210291E+02 -0.32998448039E+03  0.33314297506E+03  0.00000000000E+00 0. -1.
         -2    1    1    2    0  502  0.39195493657E+02  0.23626210291E+02 -0.47614081747E+03  0.47833519899E+03  0.00000000000E+00 0. -1.
</event>
<event>
 4    1  0.6116490E+003  0.2520780E+02  0.7546771E-02  0.1466492E+00
          2   -1    0    0  501    0  0.00000000000E+00  0.00000000000E+00  0.14027616926E+03  0.14027616926E+03  0.00000000000E+00 0.  1.
         -2   -1    0    0    0  501 -0.00000000000E+00 -0.00000000000E+00 -0.52639871344E+01  0.52639871344E+01  0.00000000000E+00 0.  1.
          2    1    1    2  502    0  0.10324387302E+02  0.22996527666E+02  0.94681567685E+02  0.97979755650E+02  0.00000000000E+00 0.  1.
         -2    1    1    2    0  502 -0.10324387302E+02 -0.22996527666E+02  0.40330614439E+02  0.47560400743E+02  0.00000000000E+00 0.  1.
</event>
<event>
 4    1  0.6116490E+003  0.2848467E+02  0.7546771E-02  0.1433239E+00
          2   -1    0    0  501    0  0.00000000000E+00  0.00000000000E+00  0.13959927625E+03  0.13959927625E+03  0.00000000000E+00 0. -1.
         -2   -1    0    0    0  501 -0.00000000000E+00 -0.00000000000E+00 -0.53115985252E+02  0.53115985252E+02  0.00000000000E+00 0.  1.
          2    1    1    2  502    0  0.22235680207E+02 -0.17803109968E+02  0.13417464746E+03  0.13716490885E+03  0.00000000000E+00 0. -1.
         -2    1    1    2    0  502 -0.22235680207E+02  0.17803109968E+02 -0.47691356461E+02  0.55550352653E+02  0.00000000000E+00 0.  1.
</event>
<event>
 4    1  0.6116490E+003  0.2337281E+02  0.7546771E-02  0.1487869E+00
          2   -1    0    0  501    0  0.00000000000E+00  0.00000000000E+00  0.34337744125E+03  0.34337744125E+03  0.00000000000E+00 0. -1.
         -2   -1    0    0    0  501 -0.00000000000E+00 -0.00000000000E+00 -0.10029277732E+02  0.10029277732E+02  0.00000000000E+00 0. -1.
          2    1    1    2  502    0 -0.93276753574E+01 -0.21430887093E+02  0.32875756569E+03  0.32958735632E+03  0.00000000000E+00 0. -1.
         -2    1    1    2    0  502  0.93276753574E+01  0.21430887093E+02  0.45905978303E+01  0.23819362662E+02  0.00000000000E+00 0. -1.
</event>
<event>
 4    1  0.6116490E+003  0.2323131E+02  0.7546771E-02  0.1489614E+00
          2   -1    0    0  501    0  0.00000000000E+00  0.00000000000E+00  0.24021912023E+03  0.24021912023E+03  0.00000000000E+00 0.  1.
         -2   -1    0    0    0  501 -0.00000000000E+00 -0.00000000000E+00 -0.14193408310E+02  0.14193408310E+02  0.00000000000E+00 0.  1.
          2    1    1    2  502    0  0.19271310735E+02  0.12973443335E+02  0.22971794209E+03  0.23088964153E+03  0.00000000000E+00 0.  1.
         -2    1    1    2    0  502 -0.19271310735E+02 -0.12973443335E+02 -0.36922301712E+01  0.23522887005E+02  0.00000000000E+00 0.  1.
</event>
<event>
 4    1  0.6116490E+003  0.3414810E+02  0.7546771E-02  0.1386653E+00
          2   -1    0    0  501    0  0.00000000000E+00  0.00000000000E+00  0.42056643061E+02  0.42056643061E+02  0.00000000000E+00 0.  1.
         -2   -1    0    0    0  501 -0.00000000000E+00 -0.00000000000E+00 -0.31079976607E+02  0.31079976607E+02  0.00000000000E+00 0.  1.
          2    1    1    2  502    0  0.52399404634E+01 -0.33743674698E+02  0.17499861318E+02  0.38371052948E+02  0.00000000000E+00 0.  1.
         -2    1    1    2    0  502 -0.52399404634E+01  0.33743674698E+02 -0.65231948639E+01  0.34765566721E+02  0.00000000000E+00 0.  1.
</event>
<event>
 4    1  0.6116490E+003  0.2722459E+02  0.7546771E-02  0.1445365E+00
          2   -1    0    0  501    0  0.00000000000E+00  0.00000000000E+00  0.32680217850E+03  0.32680217850E+03  0.00000000000E+00 0. -1.
         -2   -1    0    0    0  501 -0.00000000000E+00 -0.00000000000E+00 -0.37974470805E+01  0.37974470805E+01  0.00000000000E+00 0.  1.
          2    1    1    2  502    0 -0.26091392780E+02 -0.77728696248E+01  0.26640772138E+03  0.26779516854E+03  0.00000000000E+00 0. -1.
         -2    1    1    2    0  502  0.26091392780E+02  0.77728696248E+01  0.56597010033E+02  0.62804457040E+02  0.00000000000E+00 0.  1.
</event>
<event>
 4    1  0.6116490E+003  0.2858847E+02  0.7546771E-02  0.1432273E+00
          2   -1    0    0  501    0  0.00000000000E+00  0.00000000000E+00  0.63615724246E+01  0.63615724246E+01  0.00000000000E+00 0.  1.
         -2   -1    0    0    0  501 -0.00000000000E+00 -0.00000000000E+00 -0.96163934641E+03  0.96163934641E+03  0.00000000000E+00 0. -1.
          2    1    1    2  502    0 -0.24377863734E+02  0.14933857749E+02 -0.27128187899E+02  0.39411152307E+02  0.00000000000E+00 0.  1.
         -2    1    1    2    0  502  0.24377863734E+02 -0.14933857749E+02 -0.92814958609E+03  0.92858976653E+03  0.00000000000E+00 0. -1.
</event>
<event>
 4    1  0.6116490E+003  0.2272102E+02  0.7546771E-02  0.1496031E+00
          2   -1    0    0  501    0  0.00000000000E+00  0.00000000000E+00  0.11756684626E+04  0.11756684626E+04  0.00000000000E+00 0.  1.
         -2   -1    0    0    0  501 -0.00000000000E+00 -0.00000000000E+00 -0.23293897644E+01  0.23293897644E+01  0.00000000000E+00 0.  1.
          2    1    1    2  502    0 -0.43025306832E+01  0.22309926810E+02  0.11172567433E+04  0.11174877516E+04  0.00000000000E+00 0.  1.
         -2    1    1    2    0  502  0.43025306832E+01 -0.22309926810E+02  0.56082329579E+02  0.60510100773E+02  0.00000000000E+00 0.  1.
</event>
<event>
 4    1  0.6116490E+003  0.2973426E+02  0.7546771E-02  0.1421920E+00
          2   -1    0    0  501    0  0.00000000000E+00  0.00000000000E+00  0.98268699658E+03  0.98268699658E+03  0.00000000000E+00 0. -1.
         -2   -1    0    0    0  501 -0.00000000000E+00 -0.00000000000E+00 -0.20450308808E+01  0.20450308808E+01  0.00000000000E+00 0. -1.
          2    1    1    2  502    0  0.18414477677E+02 -0.23345949016E+02  0.85879177752E+03  0.85930637345E+03  0.00000000000E+00 0. -1.
         -2    1    1    2    0  502 -0.18414477677E+02  0.23345949016E+02  0.12185018818E+03  0.12542565401E+03  0.00000000000E+00 0. -1.
</event>
<event>
 4    1  0.6116490E+003  0.2454524E+02  0.7546771E-02  0.1473956E+00
          2   -1    0    0  501    0  0.00000000000E+00  0.00000000000E+00  0.41020203962E+03  0.41020203962E+03  0.00000000000E+00 0. -1.
         -2   -1    0    0    0  501 -0.00000000000E+00 -0.00000000000E+00 -0.29292233343E+01  0.29292233343E+01  0.00000000000E+00 0.  1.
          2    1    1    2  502    0 -0.20471731052E+02 -0.13541678394E+02  0.34949574254E+03  0.35035659389E+03  0.00000000000E+00 0. -1.
         -2    1    1    2    0  502  0.20471731052E+02  0.13541678394E+02  0.57777073744E+02  0.62774669066E+02  0.00000000000E+00 0.  1.
</event>
<event>
 4    1  0.6116490E+003  0.4058269E+02  0.7546771E-02  0.1345105E+00
          2   -1    0    0  501    0  0.00000000000E+00  0.00000000000E+00  0.14245684328E+04  0.14245684328E+04  0.00000000000E+00 0. -1.
         -2   -1    0    0    0  501 -0.00000000000E+00 -0.00000000000E+00 -0.43668959202E+01  0.43668959202E+01  0.00000000000E+00 0. -1.
          2    1    1    2  502    0 -0.98638478528E+01 -0.39365708988E+02  0.13227360270E+04  0.13233584366E+04  0.00000000000E+00 0. -1.
         -2    1    1    2    0  502  0.98638478528E+01  0.39365708988E+02  0.97465509898E+02  0.10557689216E+03  0.00000000000E+00 0. -1.
</event>
<event>
 4    1  0.6116490E+003  0.3531445E+02  0.7546771E-02  0.1378366E+00
          2   -1    0    0  501    0  0.00000000000E+00  0.00000000000E+00  0.37848870450E+02  0.37848870450E+02  0.00000000000E+00 0. -1.
         -2   -1    0    0    0  501 -0.00000000000E+00 -0.00000000000E+00 -0.10957096830E+03  0.10957096830E+03  0.00000000000E+00 0.  1.
          2    1    1    2  502    0  0.68584371549E+01 -0.34642055895E+02  0.25777550152E+02  0.43721759899E+02  0.00000000000E+00 0. -1.
         -2    1    1    2    0  502 -0.68584371549E+01  0.34642055895E+02 -0.97499648007E+02  0.10369807886E+03  0.00000000000E+00 0.  1.
</event>
<event>
 4    1  0.6116490E+003  0.2106349E+02  0.7546771E-02  0.1518360E+00
          2   -1    0    0  501    0  0.00000000000E+00  0.00000000000E+00  0.22011187655E+02  0.22011187655E+02  0.00000000000E+00 0.  1.
         -2   -1    0    0    0  501 -0.00000000000E+00 -0.00000000000E+00 -0.42148667787E+02  0.42148667787E+02  0.00000000000E+00 0.  1.
          2    1    1    2  502    0 -0.12529448086E+02  0.16931737639E+02  0.13103842657E+02  0.24806884149E+02  0.00000000000E+00 0.  1.
         -2    1    1    2    0  502  0.12529448086E+02 -0.16931737639E+02 -0.33241322789E+02  0.39352971293E+02  0.00000000000E+00 0.  1.
</event>
<event>
 4    1  0.6116490E+003  0.2601143E+02  0.7546771E-02  0.1457799E+00
          2   -1    0    0  501    0  0.00000000000E+00  0.00000000000E+00  0.27781991286E+02  0.27781991286E+02  0.00000000000E+00 0.  1.
         -2   -1    0    0    0  501 -0.00000000000E+00 -0.00000000000E+00 -0.79204446808E+03  0.79204446808E+03  0.00000000000E+00 0.  1.
          2    1    1    2  502    0  0.24051371472E+02  0.99058452971E+01  0.21430804653E+02  0.33702724353E+02  0.00000000000E+00 0.  1.
         -2    1    1    2    0  502 -0.24051371472E+02 -0.99058452971E+01 -0.78569328144E+03  0.78612373501E+03  0.00000000000E+00 0.  1.
</event>
<event>
 4    1  0.6116490E+003  0.2229534E+02  0.7546771E-02  0.1501541E+00
          2   -1    0    0  501    0  0.00000000000E+00  0.00000000000E+00  0.15912388236E+04  0.15912388236E+04  0.00000000000E+00 0. -1.
         -2   -1    0    0    0  501 -0.00000000000E+00 -0.00000000000E+00 -0.43400607316E+01  0.43400607316E+01  0.00000000000E+00 0.  1.
          2    1    1    2  502    0 -0.22248864258E+02  0.14388352238E+01  0.15619912402E+04  0.15621503503E+04  0.00000000000E+00 0. -1.
         -2    1    1    2    0  502  0.22248864258E+02 -0.14388352238E+01  0.24907522651E+02  0.33428534102E+02  0.00000000000E+00 0.  1.
</event>
<event>
 4    1  0.6116490E+003  0.2436398E+02  0.7546771E-02  0.1476046E+00
          2   -1    0    0  501    0  0.00000000000E+00  0.00000000000E+00  0.73706072574E+01  0.73706072574E+01  0.00000000000E+00 0. -1.
         -2   -1    0    0    0  501 -0.00000000000E+00 -0.00000000000E+00 -0.28221114657E+03  0.28221114657E+03  0.00000000000E+00 0. -1.
          2    1    1    2  502    0  0.21608130055E+02 -0.11255762508E+02 -0.15020757504E+02  0.28622135317E+02  0.00000000000E+00 0. -1.
         -2    1    1    2    0  502 -0.21608130055E+02  0.11255762508E+02 -0.25981978181E+03  0.26095961851E+03  0.00000000000E+00 0. -1.
</event>
<event>
 4    1  0.6116490E+003  0.2401083E+02  0.7546771E-02  0.1480181E+00
          2   -1    0    0  501    0  0.00000000000E+00  0.00000000000E+00  0.43108952508E+02  0.43108952508E+02  0.00000000000E+00 0. -1.
         -2   -1    0    0    0  501 -0.00000000000E+00 -0.00000000000E+00 -0.17473533010E+02  0.17473533010E+02  0.00000000000E+00 0. -1.
          2    1    1    2  502    0  0.21413463053E+02  0.10862031368E+02  0.27490654225E+02  0.36500084864E+02  0.00000000000E+00 0. -1.
         -2    1    1    2    0  502 -0.21413463053E+02 -0.10862031368E+02 -0.18552347265E+01  0.24082400654E+02  0.00000000000E+00 0. -1.
</event>
<event>
 4    1  0.6116490E+003  0.2121497E+02  0.7546771E-02  0.1516218E+00
          2   -1    0    0  501    0  0.00000000000E+00  0.00000000000E+00  0.15692098974E+04  0.15692098974E+04  0.00000000000E+00 0.  1.
         -2   -1    0    0    0  501 -0.00000000000E+00 -0.00000000000E+00 -0.16373333624E+01  0.16373333624E+01  0.00000000000E+00 0. -1.
          2    1    1    2  502    0 -0.20112539607E+02 -0.67498645454E+01  0.14971079936E+04  0.14972583009E+04  0.00000000000E+00 0.  1.
         -2    1    1    2    0  502  0.20112539607E+02  0.67498645454E+01  0.70464570450E+02  0.73588929939E+02  0.00000000000E+00 0. -1.
</event>
<event>
 4    1  0.6116490E+003  0.2332755E+02  0.7546771E-02  0.1488426E+00
          2   -1    0    0  501    0  0.00000000000E+00  0.00000000000E+00  0.42055415260E+03  0.42055415260E+03  0.00000000000E+00 0.  1.
         -2   -1    0    0    0  501 -0.00000000000E+00 -0.00000000000E+00 -0.38685350197E+01  0.38685350197E+01  0.00000000000E+00 0. -1.
          2    1    1    2  502    0 -0.15118466574E+02 -0.17765316276E+02  0.38146361240E+03  0.38217621862E+03  0.00000000000E+00 0.  1.
         -2    1    1    2    0  502  0.15118466574E+02  0.17765316276E+02  0.35222005179E+02  0.42246468998E+02  0.00000000000E+00 0. -1.
</event>
<event>
 4    1  0.6116490E+003  0.3947923E+02  0.7546771E-02  0.1351565E+00
          2   -1    0    0  501    0  0.00000000000E+00  0.00000000000E+00  0.92839483422E+03  0.92839483422E+03  0.00000000000E+00 0.  1.
         -2   -1    0    0    0  501 -0.00000000000E+00 -0.00000000000E+00 -0.17339671253E+03  0.17339671253E+03  0.00000000000E+00 0.  1.
          2    1    1    2  502    0 -0.27189994162E+02 -0.28623656369E+02  0.92572146939E+03  0.92656292198E+03  0.00000000000E+00 0.  1.
         -2    1    1    2    0  502  0.27189994162E+02  0.28623656369E+02 -0.17072334771E+03  0.17522862477E+03  0.00000000000E+00 0.  1.
</event>
<event>
 4    1  0.6116490E+003  0.2187312E+02  0.7546771E-02  0.1507155E+00
          2   -1    0    0  501    0  0.00000000000E+00  0.00000000000E+00  0.64432823793E+02  0.64432823793E+02  0.00000000000E+00 0.  1.
         -2   -1    0    0    0  501 -0.00000000000E+00 -0.00000000000E+00 -0.15454177589E+02  0.15454177589E+02  0.00000000000E+00 0.  1.
          2    1    1    2  502    0  0.21512854781E+02  0.39535247354E+01  0.53279908522E+02  0.57594981820E+02  0.00000000000E+00 0.  1.
         -2    1    1    2    0  502 -0.21512854781E+02 -0.39535247354E+01 -0.43012623180E+01  0.22292019563E+02  0.00000000000E+00 0.  1.
</event>
<event>
 4    1  0.6116490E+003  0.2035779E+02  0.7546771E-02  0.1528635E+00
          2   -1    0    0  501    0  0.00000000000E+00  0.00000000000E+00  0.41848266403E+03  0.41848266403E+03  0.00000000000E+00 0.  1.
         -2   -1    0    0    0  501 -0.00000000000E+00 -0.00000000000E+00 -0.27166211130E+02  0.27166211130E+02  0.00000000000E+00 0.  1.
          2    1    1    2  502    0 -0.10850211836E+02 -0.17225339575E+02  0.41438344998E+03  0.41488321614E+03  0.00000000000E+00 0.  1.
         -2    1    1    2    0  502  0.10850211836E+02  0.17225339575E+02 -0.23066997081E+02  0.30765659016E+02  0.00000000000E+00 0.  1.
</event>
<event>
 4    1  0.6116490E+003  0.2908069E+02  0.7546771E-02  0.1427757E+00
          2   -1    0    0  501    0  0.00000000000E+00  0.00000000000E+00  0.10192966450E+04  0.10192966450E+04  0.00000000000E+00 0.  1.
         -2   -1    0    0    0  501 -0.00000000000E+00 -0.00000000000E+00 -0.53290175927E+01  0.53290175927E+01  0.00000000000E+00 0. -1.
          2    1    1    2  502    0  0.27640989795E+02 -0.90367282427E+01  0.97772923119E+03  0.97816161052E+03  0.00000000000E+00 0.  1.
         -2    1    1    2    0  502 -0.27640989795E+02  0.90367282427E+01  0.36238396203E+02  0.46464052057E+02  0.00000000000E+00 0. -1.
</event>
<event>
 4    1  0.6116490E+003  0.2959648E+02  0.7546771E-02  0.1423136E+00
          2   -1    0    0  501    0  0.00000000000E+00  0.00000000000E+00  0.42041177164E+03  0.42041177164E+03  0.00000000000E+00 0.  1.
         -2   -1    0    0    0  501 -0.00000000000E+00 -0.00000000000E+00 -0.74912283244E+01  0.74912283244E+01  0.00000000000E+00 0.  1.
          2    1    1    2  502    0 -0.34975814846E+01 -0.29389091451E+02  0.38823938197E+03  0.38936585557E+03  0.00000000000E+00 0.  1.
         -2    1    1    2    0  502  0.34975814846E+01  0.29389091451E+02  0.24681161345E+02  0.38537144393E+02  0.00000000000E+00 0.  1.
</event>
<event>
 4    1  0.6116490E+003  0.4254028E+02  0.7546771E-02  0.1334210E+00
          2   -1    0    0  501    0  0.00000000000E+00  0.00000000000E+00  0.84969190968E+03  0.84969190968E+03  0.00000000000E+00 0. -1.
         -2   -1    0    0    0  501 -0.00000000000E+00 -0.00000000000E+00 -0.25579669401E+01  0.25579669401E+01  0.00000000000E+00 0. -1.
          2    1    1    2  502    0 -0.33174990637E+02 -0.26628844663E+02  0.59790620501E+03  0.59941763851E+03  0.00000000000E+00 0. -1.
         -2    1    1    2    0  502  0.33174990637E+02  0.26628844663E+02  0.24922773773E+03  0.25283223811E+03  0.00000000000E+00 0. -1.
</event>
<event>
 4    1  0.6116490E+003  0.3999834E+02  0.7546771E-02  0.1348496E+00
          2   -1    0    0  501    0  0.00000000000E+00  0.00000000000E+00  0.30704880102E+03  0.30704880102E+03  0.00000000000E+00 0. -1.
         -2   -1    0    0    0  501 -0.00000000000E+00 -0.00000000000E+00 -0.32221283451E+02  0.32221283451E+02  0.00000000000E+00 0. -1.
          2    1    1    2  502    0 -0.29479309567E+02  0.27034006588E+02  0.29272862286E+03  0.29544866533E+03  0.00000000000E+00 0. -1.
         -2    1    1    2    0  502  0.29479309567E+02 -0.27034006588E+02 -0.17901105292E+02  0.43821419139E+02  0.00000000000E+00 0. -1.
</event>
<event>
 4    1  0.6116490E+003  0.3146796E+02  0.7546771E-02  0.1407255E+00
          2   -1    0    0  501    0  0.00000000000E+00  0.00000000000E+00  0.11033935492E+02  0.11033935492E+02  0.00000000000E+00 0. -1.
         -2   -1    0    0    0  501 -0.00000000000E+00 -0.00000000000E+00 -0.20853124914E+03  0.20853124914E+03  0.00000000000E+00 0.  1.
          2    1    1    2  502    0  0.20747443081E+02  0.23659586006E+02 -0.15891058326E+02  0.35252774913E+02  0.00000000000E+00 0. -1.
         -2    1    1    2    0  502 -0.20747443081E+02 -0.23659586006E+02 -0.18160625532E+03  0.18431240972E+03  0.00000000000E+00 0.  1.
</event>
<event>
 4    1  0.6116490E+003  0.3123407E+02  0.7546771E-02  0.1409167E+00
          2   -1    0    0  501    0  0.00000000000E+00  0.00000000000E+00  0.93476890945E+03  0.93476890945E+03  0.00000000000E+00 0.  1.
         -2   -1    0    0    0  501 -0.00000000000E+00 -0.00000000000E+00 -0.26404727606E+01  0.26404727606E+01  0.00000000000E+00 0. -1.
          2    1    1    2  502    0 -0.24004745488E+02  0.19983474595E+02  0.83055577092E+03  0.83114286117E+03  0.00000000000E+00 0.  1.
         -2    1    1    2    0  502  0.24004745488E+02 -0.19983474595E+02  0.10157266576E+03  0.10626652104E+03  0.00000000000E+00 0. -1.
</event>
<event>
 4    1  0.6116490E+003  0.2585529E+02  0.7546771E-02  0.1459459E+00
          2   -1    0    0  501    0  0.00000000000E+00  0.00000000000E+00  0.11356773764E+04  0.11356773764E+04  0.00000000000E+00 0.  1.
         -2   -1    0    0    0  501 -0.00000000000E+00 -0.00000000000E+00 -0.11624608146E+02  0.11624608146E+02  0.00000000000E+00 0. -1.
          2    1    1    2  502    0 -0.25855279599E+02 -0.21306018626E-01  0.11209648087E+04  0.11212629479E+04  0.00000000000E+00 0.  1.
         -2    1    1    2    0  502  0.25855279599E+02  0.21306018626E-01  0.30879595670E+01  0.26039036683E+02  0.00000000000E+00 0. -1.
</event>
<event>
 4    1  0.6116490E+003  0.2505321E+02  0.7546771E-02  0.1468209E+00
          2   -1    0    0  501    0  0.00000000000E+00  0.00000000000E+00  0.23705184417E+01  0.23705184417E+01  0.00000000000E+00 0.  1.
         -2   -1    0    0    0  501 -0.00000000000E+00 -0.00000000000E+00 -0.47629377658E+03  0.47629377658E+03  0.00000000000E+00 0.  1.
          2    1    1    2  502    0  0.24350333337E+02  0.58927659814E+01 -0.77471439414E+02  0.81421663882E+02  0.00000000000E+00 0.  1.
         -2    1    1    2    0  502 -0.24350333337E+02 -0.58927659814E+01 -0.39645181873E+03  0.39724263114E+03  0.00000000000E+00 0.  1.
</event>
<event>
 4    1  0.6116490E+003  0.2586568E+02  0.7546771E-02  0.1459348E+00
          2   -1    0    0  501    0  0.00000000000E+00  0.00000000000E+00  0.36149112059E+03  0.36149112059E+03  0.00000000000E+00 0. -1.
         -2   -1    0    0    0  501 -0.00000000000E+00 -0.00000000000E+00 -0.49123014214E+01  0.49123014214E+01  0.00000000000E+00 0.  1.
          2    1    1    2  502    0 -0.20013858155E+02 -0.16385329346E+02  0.32291896341E+03  0.32395322265E+03  0.00000000000E+00 0. -1.
         -2    1    1    2    0  502  0.20013858155E+02  0.16385329346E+02  0.33659855756E+02  0.42450199358E+02  0.00000000000E+00 0.  1.
</event>
<event>
 4    1  0.6116490E+003  0.2020559E+02  0.7546771E-02  0.1530916E+00
          2   -1    0    0  501    0  0.00000000000E+00  0.00000000000E+00  0.11679396569E+02  0.11679396569E+02  0.00000000000E+00 0.  1.
         -2   -1    0    0    0  501 -0.00000000000E+00 -0.00000000000E+00 -0.11146184036E+03  0.11146184036E+03  0.00000000000E+00 0. -1.
          2    1    1    2  502    0 -0.10205686413E+02  0.17438740042E+02  0.11190379005E+01  0.20236549490E+02  0.00000000000E+00 0.  1.
         -2    1    1    2    0  502  0.10205686413E+02 -0.17438740042E+02 -0.10090148170E+03  0.10290468744E+03  0.00000000000E+00 0. -1.
</event>
<event>
 4    1  0.6116490E+003  0.2024674E+02  0.7546771E-02  0.1530297E+00
          2   -1    0    0  501    0  0.00000000000E+00  0.00000000000E+00  0.55870657774E+03  0.55870657774E+03  0.00000000000E+00 0. -1.
         -2   -1    0    0    0  501 -0.00000000000E+00 -0.00000000000E+00 -0.47284907997E+01  0.47284907997E+01  0.00000000000E+00 0.  1.
          2    1    1    2  502    0  0.17225296114E+02  0.10640479737E+02  0.53592888841E+03  0.53631120077E+03  0.00000000000E+00 0. -1.
         -2    1    1    2    0  502 -0.17225296114E+02 -0.10640479737E+02  0.18049198523E+02  0.27123867766E+02  0.00000000000E+00 0.  1.
</event>
<event>
 4    1  0.6116490E+003  0.3565918E+02  0.7546771E-02  0.1375987E+00
          2   -1    0    0  501    0  0.00000000000E+00  0.00000000000E+00  0.60580659771E+03  0.60580659771E+03  0.00000000000E+00 0.  1.
         -2   -1    0    0    0  501 -0.00000000000E+00 -0.00000000000E+00 -0.21822591849E+01  0.21822591849E+01  0.00000000000E+00 0.  1.
          2    1    1    2  502    0 -0.33819495646E+02 -0.11305684015E+02  0.36119720985E+03  0.36295316665E+03  0.00000000000E+00 0.  1.
         -2    1    1    2    0  502  0.33819495646E+02  0.11305684015E+02  0.24242712867E+03  0.24503569024E+03  0.00000000000E+00 0.  1.
</event>
<event>
 4    1  0.6116490E+003  0.2093946E+02  0.7546771E-02  0.1520131E+00
          2   -1    0    0  501    0  0.00000000000E+00  0.00000000000E+00  0.72105360851E+02  0.72105360851E+02  0.00000000000E+00 0. -1.
         -2   -1    0    0    0  501 -0.00000000000E+00 -0.00000000000E+00 -0.47407907945E+02  0.47407907945E+02  0.00000000000E+00 0.  1.
          2    1    1    2  502    0 -0.12766168860E+02 -0.16597766690E+02  0.68141512427E+02  0.71286230383E+02  0.00000000000E+00 0. -1.
         -2    1    1    2    0  502  0.12766168860E+02  0.16597766690E+02 -0.43444059520E+02  0.48227038413E+02  0.00000000000E+00 0.  1.
</event>
<event>
 4    1  0.6116490E+003  0.2366007E+02  0.7546771E-02  0.1484372E+00
          2   -1    0    0  501    0  0.00000000000E+00  0.00000000000E+00  0.97189578297E+03  0.97189578297E+03  0.00000000000E+00 0.  1.
         -2   -1    0    0    0  501 -0.00000000000E+00 -0.00000000000E+00 -0.36996098402E+01  0.36996098402E+01  0.00000000000E+00 0.  1.
          2    1    1    2  502    0  0.31337633347E+01  0.23451623253E+02  0.93231794436E+03  0.93261811503E+03  0.00000000000E+00 0.  1.
         -2    1    1    2    0  502 -0.31337633347E+01 -0.23451623253E+02  0.35878228776E+02  0.42977277787E+02  0.00000000000E+00 0.  1.
</event>
<event>
 4    1  0.6116490E+003  0.5442100E+02  0.7546771E-02  0.1280064E+00
          2   -1    0    0  501    0  0.00000000000E+00  0.00000000000E+00  0.46680389797E+03  0.46680389797E+03  0.00000000000E+00 0.  1.
         -2   -1    0    0    0  501 -0.00000000000E+00 -0.00000000000E+00 -0.24904833463E+02  0.24904833463E+02  0.00000000000E+00 0. -1.
          2    1    1    2  502    0 -0.45798639006E+02  0.29396095644E+02  0.43319028601E+03  0.43659531567E+03  0.00000000000E+00 0.  1.
         -2    1    1    2    0  502  0.45798639006E+02 -0.29396095644E+02  0.87087784968E+01  0.55113415760E+02  0.00000000000E+00 0. -1.
</event>
<event>
 4    1  0.6116490E+003  0.3735387E+02  0.7546771E-02  0.1364731E+00
          2   -1    0    0  501    0  0.00000000000E+00  0.00000000000E+00  0.34810929565E+03  0.34810929565E+03  0.00000000000E+00 0.  1.
         -2   -1    0    0    0  501 -0.00000000000E+00 -0.00000000000E+00 -0.78735287621E+03  0.78735287621E+03  0.00000000000E+00 0. -1.
          2    1    1    2  502    0  0.30456079836E+02  0.21627262968E+02  0.34666234893E+03  0.34866903429E+03  0.00000000000E+00 0.  1.
         -2    1    1    2    0  502 -0.30456079836E+02 -0.21627262968E+02 -0.78590592950E+03  0.78679313757E+03  0.00000000000E+00 0. -1.
</event>
<event>
 4    1  0.6116490E+003  0.2226954E+02  0.7546771E-02  0.1501880E+00
          2   -1    0    0  501    0  0.00000000000E+00  0.00000000000E+00  0.33490821923E+03  0.33490821923E+03  0.00000000000E+00 0. -1.
         -2   -1    0    0    0  501 -0.00000000000E+00 -0.00000000000E+00 -0.61515196576E+02  0.61515196576E+02  0.00000000000E+00 0. -1.
          2    1    1    2  502    0  0.16357657407E+02 -0.15111573013E+02  0.33250799812E+03  0.33325290908E+03  0.00000000000E+00 0. -1.
         -2    1    1    2    0  502 -0.16357657407E+02  0.15111573013E+02 -0.59114975471E+02  0.63170506724E+02  0.00000000000E+00 0. -1.
</event>
<event>
 4    1  0.6116490E+003  0.2817180E+02  0.7546771E-02  0.1436179E+00
          2   -1    0    0  501    0  0.00000000000E+00  0.00000000000E+00  0.23187127460E+03  0.23187127460E+03  0.00000000000E+00 0. -1.
         -2   -1    0    0    0  501 -0.00000000000E+00 -0.00000000000E+00 -0.38023045829E+02  0.38023045829E+02  0.00000000000E+00 0. -1.
          2    1    1    2  502    0  0.50545472633E+01  0.27714651633E+02  0.22565413939E+03  0.22740589479E+03  0.00000000000E+00 0. -1.
         -2    1    1    2    0  502 -0.50545472633E+01 -0.27714651633E+02 -0.31805910615E+02  0.42488425639E+02  0.00000000000E+00 0. -1.
</event>
<event>
 4    1  0.6116490E+003  0.2497242E+02  0.7546771E-02  0.1469112E+00
          2   -1    0    0  501    0  0.00000000000E+00  0.00000000000E+00  0.19937988578E+03  0.19937988578E+03  0.00000000000E+00 0. -1.
         -2   -1    0    0    0  501 -0.00000000000E+00 -0.00000000000E+00 -0.13425757888E+02  0.13425757888E+02  0.00000000000E+00 0.  1.
          2    1    1    2  502    0 -0.66559676586E+01  0.24069065111E+02  0.18616488316E+03  0.18783233354E+03  0.00000000000E+00 0. -1.
         -2    1    1    2    0  502  0.66559676586E+01 -0.24069065111E+02 -0.21075527303E+00  0.24973310125E+02  0.00000000000E+00 0.  1.
</event>
<event>
 4    1  0.6116490E+003  0.2267555E+02  0.7546771E-02  0.1496613E+00
          2   -1    0    0  501    0  0.00000000000E+00  0.00000000000E+00  0.85008001602E+02  0.85008001602E+02  0.00000000000E+00 0.  1.
         -2   -1    0    0    0  501 -0.00000000000E+00 -0.00000000000E+00 -0.56420480644E+02  0.56420480644E+02  0.00000000000E+00 0.  1.
          2    1    1    2  502    0 -0.21651620354E+02  0.67370387251E+01  0.81110076786E+02  0.84220098023E+02  0.00000000000E+00 0.  1.
         -2    1    1    2    0  502  0.21651620354E+02 -0.67370387251E+01 -0.52522555828E+02  0.57208384224E+02  0.00000000000E+00 0.  1.
</event>
<event>
 4    1  0.6116490E+003  0.2015634E+02  0.7546771E-02  0.1531659E+00
          2   -1    0    0  501    0  0.00000000000E+00  0.00000000000E+00  0.78238150837E+01  0.78238150837E+01  0.00000000000E+00 0. -1.
         -2   -1    0    0    0  501 -0.00000000000E+00 -0.00000000000E+00 -0.78401494364E+02  0.78401494364E+02  0.00000000000E+00 0.  1.
          2    1    1    2  502    0 -0.19410181127E+02  0.54334822486E+01 -0.10236672277E+02  0.22606798094E+02  0.00000000000E+00 0. -1.
         -2    1    1    2    0  502  0.19410181127E+02 -0.54334822486E+01 -0.60341007003E+02  0.63618511354E+02  0.00000000000E+00 0.  1.
</event>
<event>
 4    1  0.6116490E+003  0.2532600E+02  0.7546771E-02  0.1465189E+00
          2   -1    0    0  501    0  0.00000000000E+00  0.00000000000E+00  0.55487669320E+02  0.55487669320E+02  0.00000000000E+00 0.  1.
         -2   -1    0    0    0  501 -0.00000000000E+00 -0.00000000000E+00 -0.63483447278E+02  0.63483447278E+02  0.00000000000E+00 0.  1.
          2    1    1    2  502    0 -0.16934216183E+02 -0.18831849525E+02  0.49800020949E+02  0.55869923221E+02  0.00000000000E+00 0.  1.
         -2    1    1    2    0  502  0.16934216183E+02  0.18831849525E+02 -0.57795798906E+02  0.63101193376E+02  0.00000000000E+00 0.  1.
</event>
<event>
 4    1  0.6116490E+003  0.3820560E+02  0.7546771E-02  0.1359334E+00
          2   -1    0    0  501    0  0.00000000000E+00  0.00000000000E+00  0.99467332054E+03  0.99467332054E+03  0.00000000000E+00 0. -1.
         -2   -1    0    0    0  501 -0.00000000000E+00 -0.00000000000E+00 -0.10746449255E+02  0.10746449255E+02  0.00000000000E+00 0.  1.
          2    1    1    2  502    0 -0.38054186049E+02 -0.33980192812E+01  0.95909013738E+03  0.95985080051E+03  0.00000000000E+00 0. -1.
         -2    1    1    2    0  502  0.38054186049E+02  0.33980192812E+01  0.24836733900E+02  0.45568969285E+02  0.00000000000E+00 0.  1.
</event>
<event>
 4    1  0.6116490E+003  0.3388760E+02  0.7546771E-02  0.1388557E+00
          2   -1    0    0  501    0  0.00000000000E+00  0.00000000000E+00  0.59025031698E+02  0.59025031698E+02  0.00000000000E+00 0.  1.
         -2   -1    0    0    0  501 -0.00000000000E+00 -0.00000000000E+00 -0.16878876539E+03  0.16878876539E+03  0.00000000000E+00 0. -1.
          2    1    1    2  502    0  0.29782341266E+02 -0.16167301621E+02  0.52259292839E+02  0.62284855150E+02  0.00000000000E+00 0.  1.
         -2    1    1    2    0  502 -0.29782341266E+02  0.16167301621E+02 -0.16202302653E+03  0.16552894194E+03  0.00000000000E+00 0. -1.
</event>
<event>
 4    1  0.6116490E+003  0.3850461E+02  0.7546771E-02  0.1357479E+00
          2   -1    0    0  501    0  0.00000000000E+00  0.00000000000E+00  0.56547635075E+01  0.56547635075E+01  0.00000000000E+00 0. -1.
         -2   -1    0    0    0  501 -0.00000000000E+00 -0.00000000000E+00 -0.12101293881E+04  0.12101293881E+04  0.00000000000E+00 0.  1.
          2    1    1    2  502    0 -0.35579306657E+02 -0.14721347662E+02 -0.64213417840E+02  0.74873013629E+02  0.00000000000E+00 0. -1.
         -2    1    1    2    0  502  0.35579306657E+02  0.14721347662E+02 -0.11402612068E+04  0.11409111380E+04  0.00000000000E+00 0.  1.
</event>
<event>
 4    1  0.6116490E+003  0.4315529E+02  0.7546771E-02  0.1330926E+00
          2   -1    0    0  501    0  0.00000000000E+00  0.00000000000E+00  0.11269388730E+04  0.11269388730E+04  0.00000000000E+00 0. -1.
         -2   -1    0    0    0  501 -0.00000000000E+00 -0.00000000000E+00 -0.22289062188E+02  0.22289062188E+02  0.00000000000E+00 0.  1.
          2    1    1    2  502    0 -0.16667051483E+02 -0.39806890410E+02  0.11052265785E+04  0.11060687903E+04  0.00000000000E+00 0. -1.
         -2    1    1    2    0  502  0.16667051483E+02  0.39806890410E+02 -0.57676762238E+00  0.43159144919E+02  0.00000000000E+00 0.  1.
</event>
<event>
 4    1  0.6116490E+003  0.2584727E+02  0.7546771E-02  0.1459544E+00
          2   -1    0    0  501    0  0.00000000000E+00  0.00000000000E+00  0.15093088086E+03  0.15093088086E+03  0.00000000000E+00 0.  1.
         -2   -1    0    0    0  501 -0.00000000000E+00 -0.00000000000E+00 -0.69087290287E+01  0.69087290287E+01  0.00000000000E+00 0.  1.
          2    1    1    2  502    0  0.21569441867E+02 -0.14242216784E+02  0.11931704602E+03  0.12208455690E+03  0.00000000000E+00 0.  1.
         -2    1    1    2    0  502 -0.21569441867E+02  0.14242216784E+02  0.24705105809E+02  0.35755052991E+02  0.00000000000E+00 0.  1.
</event>
<event>
 4    1  0.6116490E+003  0.2492535E+02  0.7546771E-02  0.1469640E+00
          2   -1    0    0  501    0  0.00000000000E+00  0.00000000000E+00  0.33451496106E+01  0.33451496106E+01  0.00000000000E+00 0. -1.
         -2   -1    0    0    0  501 -0.00000000000E+00 -0.00000000000E+00 -0.30027312371E+03  0.30027312371E+03  0.00000000000E+00 0. -1.
          2    1    1    2  502    0  0.26649739571E+01 -0.24782472533E+02 -0.54699920360E+02  0.60111182973E+02  0.00000000000E+00 0. -1.
         -2    1    1    2    0  502 -0.26649739571E+01  0.24782472533E+02 -0.24222805374E+03  0.24350709035E+03  0.00000000000E+00 0. -1.
</event>
<event>
 4    1  0.6116490E+003  0.2739538E+02  0.7546771E-02  0.1443676E+00
          2   -1    0    0  501    0  0.00000000000E+00  0.00000000000E+00  0.79584067809E+03  0.79584067809E+03  0.00000000000E+00 0. -1.
         -2   -1    0    0    0  501 -0.00000000000E+00 -0.00000000000E+00 -0.95821936018E+01  0.95821936018E+01  0.00000000000E+00 0.  1.
          2    1    1    2  502    0  0.13718228247E+02 -0.23713231156E+02  0.77551100232E+03  0.77599473055E+03  0.00000000000E+00 0. -1.
         -2    1    1    2    0  502 -0.13718228247E+02  0.23713231156E+02  0.10747482164E+02  0.29428141140E+02  0.00000000000E+00 0.  1.
</event>
<event>
 4    1  0.6116490E+003  0.2097884E+02  0.7546771E-02  0.1519567E+00
          2   -1    0    0  501    0  0.00000000000E+00  0.00000000000E+00  0.76265998811E+02  0.76265998811E+02  0.00000000000E+00 0.  1.
         -2   -1    0    0    0  501 -0.00000000000E+00 -0.00000000000E+00 -0.16979239115E+03  0.16979239115E+03  0.00000000000E+00 0. -1.
          2    1    1    2  502    0 -0.67451395030E+01 -0.19864915638E+02  0.74157224841E+02  0.77067540355E+02  0.00000000000E+00 0.  1.
         -2    1    1    2    0  502  0.67451395030E+01  0.19864915638E+02 -0.16768361718E+03  0.16899084961E+03  0.00000000000E+00 0. -1.
</event>
<event>
 4    1  0.6116490E+003  0.4463302E+02  0.7546771E-02  0.1323285E+00
          2   -1    0    0  501    0  0.00000000000E+00  0.00000000000E+00  0.30194455744E+04  0.30194455744E+04  0.00000000000E+00 0. -1.
         -2   -1    0    0    0  501 -0.00000000000E+00 -0.00000000000E+00 -0.10148226386E+01  0.10148226386E+01  0.00000000000E+00 0. -1.
          2    1    1    2  502    0 -0.31524770031E+02 -0.31595817199E+02  0.24025231138E+04  0.24029376645E+04  0.00000000000E+00 0. -1.
         -2    1    1    2    0  502  0.31524770031E+02  0.31595817199E+02  0.61590763797E+03  0.61752273262E+03  0.00000000000E+00 0. -1.
</event>
<event>
 4    1  0.6116490E+003  0.2535532E+02  0.7546771E-02  0.1464867E+00
          2   -1    0    0  501    0  0.00000000000E+00  0.00000000000E+00  0.21985080501E+04  0.21985080501E+04  0.00000000000E+00 0. -1.
         -2   -1    0    0    0  501 -0.00000000000E+00 -0.00000000000E+00 -0.38348113850E+00  0.38348113850E+00  0.00000000000E+00 0. -1.
          2    1    1    2  502    0  0.21264072052E+02  0.13810548694E+02  0.16348141477E+04  0.16350107613E+04  0.00000000000E+00 0. -1.
         -2    1    1    2    0  502 -0.21264072052E+02 -0.13810548694E+02  0.56331042129E+03  0.56388076998E+03  0.00000000000E+00 0. -1.
</event>
<event>
 4    1  0.6116490E+003  0.3579283E+02  0.7546771E-02  0.1375073E+00
          2   -1    0    0  501    0  0.00000000000E+00  0.00000000000E+00  0.10861759485E+03  0.10861759485E+03  0.00000000000E+00 0. -1.
         -2   -1    0    0    0  501 -0.00000000000E+00 -0.00000000000E+00 -0.15409565840E+02  0.15409565840E+02  0.00000000000E+00 0. -1.
          2    1    1    2  502    0 -0.22056680840E+02 -0.28189170967E+02  0.76639152454E+02  0.84585378278E+02  0.00000000000E+00 0. -1.
         -2    1    1    2    0  502  0.22056680840E+02  0.28189170967E+02  0.16568876555E+02  0.39441782412E+02  0.00000000000E+00 0. -1.
</event>
<event>
 4    1  0.6116490E+003  0.3606026E+02  0.7546771E-02  0.1373259E+00
          2   -1    0    0  501    0  0.00000000000E+00  0.00000000000E+00  0.13808327921E+04  0.13808327921E+04  0.00000000000E+00 0. -1.
         -2   -1    0    0    0  501 -0.00000000000E+00 -0.00000000000E+00 -0.40574848473E+01  0.40574848473E+01  0.00000000000E+00 0. -1.
          2    1    1    2  502    0 -0.34399684533E+02  0.10816837937E+02  0.12951799243E+04  0.12956818199E+04  0.00000000000E+00 0. -1.
         -2    1    1    2    0  502  0.34399684533E+02 -0.10816837937E+02  0.81595383022E+02  0.89208457051E+02  0.00000000000E+00 0. -1.
</event>
<event>
 4    1  0.6116490E+003  0.2392327E+02  0.7546771E-02  0.1481219E+00
          2   -1    0    0  501    0  0.00000000000E+00  0.00000000000E+00  0.94783944710E+03  0.94783944710E+03  0.00000000000E+00 0.  1.
         -2   -1    0    0    0  501 -0.00000000000E+00 -0.00000000000E+00 -0.11127125781E+01  0.11127125781E+01  0.00000000000E+00 0. -1.
          2    1    1    2  502    0 -0.20566527391E+02  0.12220511675E+02  0.79423885377E+03  0.79459906858E+03  0.00000000000E+00 0.  1.
         -2    1    1    2    0  502  0.20566527391E+02 -0.12220511675E+02  0.15248788076E+03  0.15435309110E+03  0.00000000000E+00 0. -1.
</event>
<event>
 4    1  0.6116490E+003  0.2347602E+02  0.7546771E-02  0.1486606E+00
          2   -1    0    0  501    0  0.00000000000E+00  0.00000000000E+00  0.51035854337E+03  0.51035854337E+03  0.00000000000E+00 0.  1.
         -2   -1    0    0    0  501 -0.00000000000E+00 -0.00000000000E+00 -0.32737379145E+01  0.32737379145E+01  0.00000000000E+00 0.  1.
          2    1    1    2  502    0 -0.16523616123E+02  0.16676146064E+02  0.46377741538E+03  0.46437120362E+03  0.00000000000E+00 0.  1.
         -2    1    1    2    0  502  0.16523616123E+02 -0.16676146064E+02  0.43307390079E+02  0.49261077665E+02  0.00000000000E+00 0.  1.
</event>
<event>
 4    1  0.6116490E+003  0.2189144E+02  0.7546771E-02  0.1506908E+00
          2   -1    0    0  501    0  0.00000000000E+00  0.00000000000E+00  0.19848705024E+02  0.19848705024E+02  0.00000000000E+00 0. -1.
         -2   -1    0    0    0  501 -0.00000000000E+00 -0.00000000000E+00 -0.24162155659E+02  0.24162155659E+02  0.00000000000E+00 0. -1.
          2    1    1    2  502    0  0.19515067748E+02  0.99195498989E+01 -0.15604228666E+01  0.21946987468E+02  0.00000000000E+00 0. -1.
         -2    1    1    2    0  502 -0.19515067748E+02 -0.99195498989E+01 -0.27530277682E+01  0.22063873216E+02  0.00000000000E+00 0. -1.
</event>
<event>
 4    1  0.6116490E+003  0.2513340E+02  0.7546771E-02  0.1467317E+00
          2   -1    0    0  501    0  0.00000000000E+00  0.00000000000E+00  0.40972164794E+03  0.40972164794E+03  0.00000000000E+00 0.  1.
         -2   -1    0    0    0  501 -0.00000000000E+00 -0.00000000000E+00 -0.15417704220E+01  0.15417704220E+01  0.00000000000E+00 0.  1.
          2    1    1    2  502    0 -0.69715592168E+01  0.24147142766E+02  0.20328930011E+03  0.20483707350E+03  0.00000000000E+00 0.  1.
         -2    1    1    2    0  502  0.69715592168E+01 -0.24147142766E+02  0.20489057741E+03  0.20642634486E+03  0.00000000000E+00 0.  1.
</event>
<event>
 4    1  0.6116490E+003  0.3776017E+02  0.7546771E-02  0.1362136E+00
          2   -1    0    0  501    0  0.00000000000E+00  0.00000000000E+00  0.11004437616E+02  0.11004437616E+02  0.00000000000E+00 0. -1.
         -2   -1    0    0    0  501 -0.00000000000E+00 -0.00000000000E+00 -0.38148467535E+03  0.38148467535E+03  0.00000000000E+00 0. -1.
          2    1    1    2  502    0  0.58568483429E+01 -0.37303191860E+02 -0.25767210032E+02  0.45714110603E+02  0.00000000000E+00 0. -1.
         -2    1    1    2    0  502 -0.58568483429E+01  0.37303191860E+02 -0.34471302770E+03  0.34677500236E+03  0.00000000000E+00 0. -1.
</event>
<event>
 4    1  0.6116490E+003  0.2284006E+02  0.7546771E-02  0.1494516E+00
          2   -1    0    0  501    0  0.00000000000E+00  0.00000000000E+00  0.61105375927E+03  0.61105375927E+03  0.00000000000E+00 0. -1.
         -2   -1    0    0    0  501 -0.00000000000E+00 -0.00000000000E+00 -0.10540561419E+02  0.10540561419E+02  0.00000000000E+00 0.  1.
          2    1    1    2  502    0 -0.12882818003E+02 -0.18860047409E+02  0.59820172213E+03  0.59863759383E+03  0.00000000000E+00 0. -1.
         -2    1    1    2    0  502  0.12882818003E+02  0.18860047409E+02  0.23114757203E+01  0.22956726857E+02  0.00000000000E+00 0.  1.
</event>
<event>
 4    1  0.6116490E+003  0.3155494E+02  0.7546771E-02  0.1406549E+00
          2   -1    0    0  501    0  0.00000000000E+00  0.00000000000E+00  0.23944473899E+01  0.23944473899E+01  0.00000000000E+00 0. -1.
         -2   -1    0    0    0  501 -0.00000000000E+00 -0.00000000000E+00 -0.42376353306E+03  0.42376353306E+03  0.00000000000E+00 0.  1.
          2    1    1    2  502    0 -0.51425855827E+01  0.31133074405E+02 -0.18155374674E+03  0.18427554766E+03  0.00000000000E+00 0. -1.
         -2    1    1    2    0  502  0.51425855827E+01 -0.31133074405E+02 -0.23981533893E+03  0.24188243279E+03  0.00000000000E+00 0.  1.
</event>
<event>
 4    1  0.6116490E+003  0.2657469E+02  0.7546771E-02  0.1451928E+00
          2   -1    0    0  501    0  0.00000000000E+00  0.00000000000E+00  0.33652417669E+03  0.33652417669E+03  0.00000000000E+00 0. -1.
         -2   -1    0    0    0  501 -0.00000000000E+00 -0.00000000000E+00 -0.35926950044E+01  0.35926950044E+01  0.00000000000E+00 0. -1.
          2    1    1    2  502    0  0.26180062985E+02 -0.45627470775E+01  0.27613469712E+03  0.27741049965E+03  0.00000000000E+00 0. -1.
         -2    1    1    2    0  502 -0.26180062985E+02  0.45627470775E+01  0.56796784564E+02  0.62706372049E+02  0.00000000000E+00 0. -1.
</event>
<event>
 4    1  0.6116490E+003  0.2110453E+02  0.7546771E-02  0.1517778E+00
          2   -1    0    0  501    0  0.00000000000E+00  0.00000000000E+00  0.48471883837E+02  0.48471883837E+02  0.00000000000E+00 0. -1.
         -2   -1    0    0    0  501 -0.00000000000E+00 -0.00000000000E+00 -0.53848066368E+03  0.53848066368E+03  0.00000000000E+00 0.  1.
          2    1    1    2  502    0 -0.15914902463E+02  0.13860625397E+02  0.45957109925E+02  0.50571306187E+02  0.00000000000E+00 0. -1.
         -2    1    1    2    0  502  0.15914902463E+02 -0.13860625397E+02 -0.53596588976E+03  0.53638124133E+03  0.00000000000E+00 0.  1.
</event>
<event>
 4    1  0.6116490E+003  0.2431794E+02  0.7546771E-02  0.1476580E+00
          2   -1    0    0  501    0  0.00000000000E+00  0.00000000000E+00  0.21885529151E+04  0.21885529151E+04  0.00000000000E+00 0.  1.
         -2   -1    0    0    0  501 -0.00000000000E+00 -0.00000000000E+00 -0.39822592531E+00  0.39822592531E+00  0.00000000000E+00 0. -1.
          2    1    1    2  502    0 -0.15068946718E+02 -0.19086358845E+02  0.17146297290E+04  0.17148021664E+04  0.00000000000E+00 0.  1.
         -2    1    1    2    0  502  0.15068946718E+02  0.19086358845E+02  0.47352496010E+03  0.47414897457E+03  0.00000000000E+00 0. -1.
</event>
<event>
 4    1  0.6116490E+003  0.4242503E+02  0.7546771E-02  0.1334833E+00
          2   -1    0    0  501    0  0.00000000000E+00  0.00000000000E+00  0.44414725470E+02  0.44414725470E+02  0.00000000000E+00 0.  1.
         -2   -1    0    0    0  501 -0.00000000000E+00 -0.00000000000E+00 -0.59459194648E+02  0.59459194648E+02  0.00000000000E+00 0. -1.
          2    1    1    2  502    0  0.44238288661E+01  0.42193754034E+02  0.21786463658E+02  0.47692065797E+02  0.00000000000E+00 0.  1.
         -2    1    1    2    0  502 -0.44238288661E+01 -0.42193754034E+02 -0.36830932836E+02  0.56181854320E+02  0.00000000000E+00 0. -1.
</event>
<event>
 4    1  0.6116490E+003  0.4097746E+02  0.7546771E-02  0.1342851E+00
          2   -1    0    0  501    0  0.00000000000E+00  0.00000000000E+00  0.18689672175E+04  0.18689672175E+04  0.00000000000E+00 0.  1.
         -2   -1    0    0    0  501 -0.00000000000E+00 -0.00000000000E+00 -0.13872521346E+04  0.13872521346E+04  0.00000000000E+00 0.  1.
          2    1    1    2  502    0 -0.12567832687E+02  0.39002586961E+02  0.18684399185E+04  0.18688892105E+04  0.00000000000E+00 0.  1.
         -2    1    1    2    0  502  0.12567832687E+02 -0.39002586961E+02 -0.13867248355E+04  0.13873301416E+04  0.00000000000E+00 0.  1.
</event>
<event>
 4    1  0.6116490E+003  0.2293378E+02  0.7546771E-02  0.1493331E+00
          2   -1    0    0  501    0  0.00000000000E+00  0.00000000000E+00  0.53342406318E+03  0.53342406318E+03  0.00000000000E+00 0.  1.
         -2   -1    0    0    0  501 -0.00000000000E+00 -0.00000000000E+00 -0.10230109859E+02  0.10230109859E+02  0.00000000000E+00 0. -1.
          2    1    1    2  502    0 -0.22624466453E+02 -0.37538905727E+01  0.51999253272E+03  0.52049802330E+03  0.00000000000E+00 0.  1.
         -2    1    1    2    0  502  0.22624466453E+02  0.37538905727E+01  0.32014205994E+01  0.23156149736E+02  0.00000000000E+00 0. -1.
</event>
<event>
 4    1  0.6116490E+003  0.2672497E+02  0.7546771E-02  0.1450391E+00
          2   -1    0    0  501    0  0.00000000000E+00  0.00000000000E+00  0.45523621752E+03  0.45523621752E+03  0.00000000000E+00 0.  1.
         -2   -1    0    0    0  501 -0.00000000000E+00 -0.00000000000E+00 -0.32004458302E+01  0.32004458302E+01  0.00000000000E+00 0. -1.
          2    1    1    2  502    0  0.84567796019E+01  0.25351668498E+02  0.38967788422E+03  0.39059323813E+03  0.00000000000E+00 0.  1.
         -2    1    1    2    0  502 -0.84567796019E+01 -0.25351668498E+02  0.62357887464E+02  0.67843425222E+02  0.00000000000E+00 0. -1.
</event>
<event>
 4    1  0.6116490E+003  0.2193164E+02  0.7546771E-02  0.1506368E+00
          2   -1    0    0  501    0  0.00000000000E+00  0.00000000000E+00  0.88011529221E+03  0.88011529221E+03  0.00000000000E+00 0.  1.
         -2   -1    0    0    0  501 -0.00000000000E+00 -0.00000000000E+00 -0.14931621688E+01  0.14931621688E+01  0.00000000000E+00 0. -1.
          2    1    1    2  502    0 -0.10483826566E+02 -0.19263598406E+02  0.79029413356E+03  0.79059839007E+03  0.00000000000E+00 0.  1.
         -2    1    1    2    0  502  0.10483826566E+02  0.19263598406E+02  0.88327996482E+02  0.91010064309E+02  0.00000000000E+00 0. -1.
</event>
<event>
 4    1  0.6116490E+003  0.2807326E+02  0.7546771E-02  0.1437115E+00
          2   -1    0    0  501    0  0.00000000000E+00  0.00000000000E+00  0.38402052035E+03  0.38402052035E+03  0.00000000000E+00 0.  1.
         -2   -1    0    0    0  501 -0.00000000000E+00 -0.00000000000E+00 -0.78856703009E+03  0.78856703009E+03  0.00000000000E+00 0. -1.
          2    1    1    2  502    0  0.95566060122E+01  0.26396578194E+02  0.38325710506E+03  0.38428390109E+03  0.00000000000E+00 0.  1.
         -2    1    1    2    0  502 -0.95566060122E+01 -0.26396578194E+02 -0.78780361481E+03  0.78830364934E+03  0.00000000000E+00 0. -1.
</event>
<event>
 4    1  0.6116490E+003  0.2542042E+02  0.7546771E-02  0.1464155E+00
          2   -1    0    0  501    0  0.00000000000E+00  0.00000000000E+00  0.31290422132E+04  0.31290422132E+04  0.00000000000E+00 0. -1.
         -2   -1    0    0    0  501 -0.00000000000E+00 -0.00000000000E+00 -0.20703888449E+00  0.20703888449E+00  0.00000000000E+00 0. -1.
          2    1    1    2  502    0  0.19401327723E+02 -0.16425171570E+02  0.16430354324E+04  0.16432320682E+04  0.00000000000E+00 0. -1.
         -2    1    1    2    0  502 -0.19401327723E+02  0.16425171570E+02  0.14857997419E+04  0.14860171839E+04  0.00000000000E+00 0. -1.
</event>
<event>
 4    1  0.6116490E+003  0.2994191E+02  0.7546771E-02  0.1420102E+00
          2   -1    0    0  501    0  0.00000000000E+00  0.00000000000E+00  0.78601968088E+03  0.78601968088E+03  0.00000000000E+00 0. -1.
         -2   -1    0    0    0  501 -0.00000000000E+00 -0.00000000000E+00 -0.12682229012E+01  0.12682229012E+01  0.00000000000E+00 0. -1.
          2    1    1    2  502    0 -0.29072430261E+02 -0.71632387295E+01  0.51725904385E+03  0.51812492377E+03  0.00000000000E+00 0. -1.
         -2    1    1    2    0  502  0.29072430261E+02  0.71632387295E+01  0.26749241413E+03  0.26916298001E+03  0.00000000000E+00 0. -1.
</event>
<event>
 4    1  0.6116490E+003  0.2109945E+02  0.7546771E-02  0.1517850E+00
          2   -1    0    0  501    0  0.00000000000E+00  0.00000000000E+00  0.59241575553E+01  0.59241575553E+01  0.00000000000E+00 0.  1.
         -2   -1    0    0    0  501 -0.00000000000E+00 -0.00000000000E+00 -0.13609523415E+03  0.13609523415E+03  0.00000000000E+00 0.  1.
          2    1    1    2  502    0 -0.14090359044E+02  0.15705049754E+02 -0.17565774967E+02  0.27454385004E+02  0.00000000000E+00 0.  1.
         -2    1    1    2    0  502  0.14090359044E+02 -0.15705049754E+02 -0.11260530163E+03  0.11456500670E+03  0.00000000000E+00 0.  1.
</event>
<event>
 4    1  0.6116490E+003  0.2577990E+02  0.7546771E-02  0.1460265E+00
          2   -1    0    0  501    0  0.00000000000E+00  0.00000000000E+00  0.88703243079E+01  0.88703243079E+01  0.00000000000E+00 0. -1.
         -2   -1    0    0    0  501 -0.00000000000E+00 -0.00000000000E+00 -0.12781161527E+03  0.12781161527E+03  0.00000000000E+00 0.  1.
          2    1    1    2  502    0  0.24794552181E+02  0.70592956143E+01 -0.15509252688E+02  0.30085551206E+02  0.00000000000E+00 0. -1.
         -2    1    1    2    0  502 -0.24794552181E+02 -0.70592956143E+01 -0.10343203828E+03  0.10659638838E+03  0.00000000000E+00 0.  1.
</event>
<event>
 4    1  0.6116490E+003  0.2434237E+02  0.7546771E-02  0.1476297E+00
          2   -1    0    0  501    0  0.00000000000E+00  0.00000000000E+00  0.58187114257E+03  0.58187114257E+03  0.00000000000E+00 0. -1.
         -2   -1    0    0    0  501 -0.00000000000E+00 -0.00000000000E+00 -0.10986054666E+02  0.10986054666E+02  0.00000000000E+00 0. -1.
          2    1    1    2  502    0  0.21467788225E+02 -0.11475401647E+02  0.56779834701E+03  0.56831990432E+03  0.00000000000E+00 0. -1.
         -2    1    1    2    0  502 -0.21467788225E+02  0.11475401647E+02  0.30867408883E+01  0.24537292914E+02  0.00000000000E+00 0. -1.
</event>
<event>
 4    1  0.6116490E+003  0.2570934E+02  0.7546771E-02  0.1461022E+00
          2   -1    0    0  501    0  0.00000000000E+00  0.00000000000E+00  0.54229327063E+02  0.54229327063E+02  0.00000000000E+00 0.  1.
         -2   -1    0    0    0  501 -0.00000000000E+00 -0.00000000000E+00 -0.69631054865E+03  0.69631054865E+03  0.00000000000E+00 0.  1.
          2    1    1    2  502    0 -0.60908471801E+01 -0.24977421767E+02  0.50930409585E+02  0.57051526167E+02  0.00000000000E+00 0.  1.
         -2    1    1    2    0  502  0.60908471801E+01  0.24977421767E+02 -0.69301163118E+03  0.69348834955E+03  0.00000000000E+00 0.  1.
</event>
<event>
 4    1  0.6116490E+003  0.2868868E+02  0.7546771E-02  0.1431345E+00
          2   -1    0    0  501    0  0.00000000000E+00  0.00000000000E+00  0.21089822148E+03  0.21089822148E+03  0.00000000000E+00 0.  1.
         -2   -1    0    0    0  501 -0.00000000000E+00 -0.00000000000E+00 -0.33543775006E+03  0.33543775006E+03  0.00000000000E+00 0. -1.
          2    1    1    2  502    0  0.22699788200E+02 -0.17543082324E+02  0.20930452846E+03  0.21126151035E+03  0.00000000000E+00 0.  1.
         -2    1    1    2    0  502 -0.22699788200E+02  0.17543082324E+02 -0.33384405704E+03  0.33507446119E+03  0.00000000000E+00 0. -1.
</event>
<event>
 4    1  0.6116490E+003  0.5439138E+02  0.7546771E-02  0.1280179E+00
          2   -1    0    0  501    0  0.00000000000E+00  0.00000000000E+00  0.27198823743E+04  0.27198823743E+04  0.00000000000E+00 0. -1.
         -2   -1    0    0    0  501 -0.00000000000E+00 -0.00000000000E+00 -0.54202429921E+01  0.54202429921E+01  0.00000000000E+00 0. -1.
          2    1    1    2  502    0  0.13142700578E+02  0.52779653329E+02  0.25755098555E+04  0.25760841288E+04  0.00000000000E+00 0. -1.
         -2    1    1    2    0  502 -0.13142700578E+02 -0.52779653329E+02  0.13895227580E+03  0.14921848858E+03  0.00000000000E+00 0. -1.
</event>
<event>
 4    1  0.6116490E+003  0.3369684E+02  0.7546771E-02  0.1389964E+00
          2   -1    0    0  501    0  0.00000000000E+00  0.00000000000E+00  0.58690336607E+03  0.58690336607E+03  0.00000000000E+00 0. -1.
         -2   -1    0    0    0  501 -0.00000000000E+00 -0.00000000000E+00 -0.21301146557E+02  0.21301146557E+02  0.00000000000E+00 0. -1.
          2    1    1    2  502    0  0.16935607123E+02 -0.29131810004E+02  0.57276453065E+03  0.57375489951E+03  0.00000000000E+00 0. -1.
         -2    1    1    2    0  502 -0.16935607123E+02  0.29131810004E+02 -0.71623111395E+01  0.34449613112E+02  0.00000000000E+00 0. -1.
</event>
<event>
 4    1  0.6116490E+003  0.4593905E+02  0.7546771E-02  0.1316809E+00
          2   -1    0    0  501    0  0.00000000000E+00  0.00000000000E+00  0.15778019294E+03  0.15778019294E+03  0.00000000000E+00 0. -1.
         -2   -1    0    0    0  501 -0.00000000000E+00 -0.00000000000E+00 -0.58437939692E+02  0.58437939692E+02  0.00000000000E+00 0.  1.
          2    1    1    2  502    0 -0.32393329659E+02  0.32574044454E+02  0.14460513075E+03  0.15172685990E+03  0.00000000000E+00 0. -1.
         -2    1    1    2    0  502  0.32393329659E+02 -0.32574044454E+02 -0.45262877498E+02  0.64491272727E+02  0.00000000000E+00 0.  1.
</event>
<event>
 4    1  0.6116490E+003  0.2731061E+02  0.7546771E-02  0.1444513E+00
          2   -1    0    0  501    0  0.00000000000E+00  0.00000000000E+00  0.43780229911E+03  0.43780229911E+03  0.00000000000E+00 0.  1.
         -2   -1    0    0    0  501 -0.00000000000E+00 -0.00000000000E+00 -0.39457650742E+03  0.39457650742E+03  0.00000000000E+00 0. -1.
          2    1    1    2  502    0  0.12946407926E+02 -0.24047031603E+02  0.43690283469E+03  0.43775558953E+03  0.00000000000E+00 0.  1.
         -2    1    1    2    0  502 -0.12946407926E+02  0.24047031603E+02 -0.39367704301E+03  0.39462321700E+03  0.00000000000E+00 0. -1.
</event>
<event>
 4    1  0.6116490E+003  0.2268386E+02  0.7546771E-02  0.1496507E+00
          2   -1    0    0  501    0  0.00000000000E+00  0.00000000000E+00  0.39478367141E+02  0.39478367141E+02  0.00000000000E+00 0.  1.
         -2   -1    0    0    0  501 -0.00000000000E+00 -0.00000000000E+00 -0.61513679047E+02  0.61513679047E+02  0.00000000000E+00 0. -1.
          2    1    1    2  502    0  0.20933099005E+02  0.87385763706E+01  0.33810576048E+02  0.40715014474E+02  0.00000000000E+00 0.  1.
         -2    1    1    2    0  502 -0.20933099005E+02 -0.87385763706E+01 -0.55845887953E+02  0.60277031714E+02  0.00000000000E+00 0. -1.
</event>
<event>
 4    1  0.6116490E+003  0.3558842E+02  0.7546771E-02  0.1376473E+00
          2   -1    0    0  501    0  0.00000000000E+00  0.00000000000E+00  0.24481772763E+03  0.24481772763E+03  0.00000000000E+00 0. -1.
         -2   -1    0    0    0  501 -0.00000000000E+00 -0.00000000000E+00 -0.53852356614E+02  0.53852356614E+02  0.00000000000E+00 0. -1.
          2    1    1    2  502    0 -0.87217859899E+00  0.35577730221E+02  0.23746363750E+03  0.24011562781E+03  0.00000000000E+00 0. -1.
         -2    1    1    2    0  502  0.87217859899E+00 -0.35577730221E+02 -0.46498266480E+02  0.58554456439E+02  0.00000000000E+00 0. -1.
</event>
<event>
 4    1  0.6116490E+003  0.2712527E+02  0.7546771E-02  0.1446354E+00
          2   -1    0    0  501    0  0.00000000000E+00  0.00000000000E+00  0.18103860792E+03  0.18103860792E+03  0.00000000000E+00 0. -1.
         -2   -1    0    0    0  501 -0.00000000000E+00 -0.00000000000E+00 -0.75781612768E+01  0.75781612768E+01  0.00000000000E+00 0.  1.
          2    1    1    2  502    0 -0.27124989266E+02 -0.12341127608E+00  0.15094955628E+03  0.15336736554E+03  0.00000000000E+00 0. -1.
         -2    1    1    2    0  502  0.27124989266E+02  0.12341127608E+00  0.22510890370E+02  0.35249403658E+02  0.00000000000E+00 0.  1.
</event>
<event>
 4    1  0.6116490E+003  0.2043412E+02  0.7546771E-02  0.1527500E+00
          2   -1    0    0  501    0  0.00000000000E+00  0.00000000000E+00  0.11540758384E+02  0.11540758384E+02  0.00000000000E+00 0. -1.
         -2   -1    0    0    0  501 -0.00000000000E+00 -0.00000000000E+00 -0.27041376282E+03  0.27041376282E+03  0.00000000000E+00 0. -1.
          2    1    1    2  502    0  0.40560469314E+01  0.20027527123E+02  0.17710153075E+01  0.20510725355E+02  0.00000000000E+00 0. -1.
         -2    1    1    2    0  502 -0.40560469314E+01 -0.20027527123E+02 -0.26064401974E+03  0.26144379585E+03  0.00000000000E+00 0. -1.
</event>
<event>
 4    1  0.6116490E+003  0.2285926E+02  0.7546771E-02  0.1494273E+00
          2   -1    0    0  501    0  0.00000000000E+00  0.00000000000E+00  0.80139732784E+03  0.80139732784E+03  0.00000000000E+00 0.  1.
         -2   -1    0    0    0  501 -0.00000000000E+00 -0.00000000000E+00 -0.23126985629E+03  0.23126985629E+03  0.00000000000E+00 0. -1.
          2    1    1    2  502    0  0.23636622443E+01 -0.22736731465E+02  0.80066893728E+03  0.80099518911E+03  0.00000000000E+00 0.  1.
         -2    1    1    2    0  502 -0.23636622443E+01  0.22736731465E+02 -0.23054146573E+03  0.23167199502E+03  0.00000000000E+00 0. -1.
</event>
<event>
 4    1  0.6116490E+003  0.3823312E+02  0.7546771E-02  0.1359163E+00
          2   -1    0    0  501    0  0.00000000000E+00  0.00000000000E+00  0.10063984407E+03  0.10063984407E+03  0.00000000000E+00 0. -1.
         -2   -1    0    0    0  501 -0.00000000000E+00 -0.00000000000E+00 -0.21200289207E+02  0.21200289207E+02  0.00000000000E+00 0.  1.
          2    1    1    2  502    0 -0.26196454329E+01 -0.38143270110E+02  0.73904469781E+02  0.83208426560E+02  0.00000000000E+00 0. -1.
         -2    1    1    2    0  502  0.26196454329E+01  0.38143270110E+02  0.55350850793E+01  0.38631706715E+02  0.00000000000E+00 0.  1.
</event>
<event>
 4    1  0.6116490E+003  0.2389477E+02  0.7546771E-02  0.1481558E+00
          2   -1    0    0  501    0  0.00000000000E+00  0.00000000000E+00  0.34652721150E+03  0.34652721150E+03  0.00000000000E+00 0.  1.
         -2   -1    0    0    0  501 -0.00000000000E+00 -0.00000000000E+00 -0.33633088280E+01  0.33633088280E+01  0.00000000000E+00 0. -1.
          2    1    1    2  502    0 -0.20594580762E+02 -0.12117071699E+02  0.29653089328E+03  0.29749206855E+03  0.00000000000E+00 0.  1.
         -2    1    1    2    0  502  0.20594580762E+02  0.12117071699E+02  0.46633009392E+02  0.52398451774E+02  0.00000000000E+00 0. -1.
</event>
<event>
 4    1  0.6116490E+003  0.3024233E+02  0.7546771E-02  0.1417502E+00
          2   -1    0    0  501    0  0.00000000000E+00  0.00000000000E+00  0.13382381083E+04  0.13382381083E+04  0.00000000000E+00 0. -1.
         -2   -1    0    0    0  501 -0.00000000000E+00 -0.00000000000E+00 -0.14005464668E+01  0.14005464668E+01  0.00000000000E+00 0.  1.
          2    1    1    2  502    0 -0.11638299748E+02 -0.27913228064E+02  0.11477131720E+04  0.11481115466E+04  0.00000000000E+00 0. -1.
         -2    1    1    2    0  502  0.11638299748E+02  0.27913228064E+02  0.18912438990E+03  0.19152710821E+03  0.00000000000E+00 0.  1.
</event>
<event>
 4    1  0.6116490E+003  0.2065793E+02  0.7546771E-02  0.1524205E+00
          2   -1    0    0  501    0  0.00000000000E+00  0.00000000000E+00  0.43010435329E+01  0.43010435329E+01  0.00000000000E+00 0. -1.
         -2   -1    0    0    0  501 -0.00000000000E+00 -0.00000000000E+00 -0.18211742784E+03  0.18211742784E+03  0.00000000000E+00 0. -1.
          2    1    1    2  502    0 -0.92619612547E+01  0.18465263879E+02 -0.26022259962E+02  0.33225109630E+02  0.00000000000E+00 0. -1.
         -2    1    1    2    0  502  0.92619612547E+01 -0.18465263879E+02 -0.15179412434E+03  0.15319336174E+03  0.00000000000E+00 0. -1.
</event>
<event>
 4    1  0.6116490E+003  0.2261396E+02  0.7546771E-02  0.1497403E+00
          2   -1    0    0  501    0  0.00000000000E+00  0.00000000000E+00  0.54783106167E+03  0.54783106167E+03  0.00000000000E+00 0.  1.
         -2   -1    0    0    0  501 -0.00000000000E+00 -0.00000000000E+00 -0.11145286603E+01  0.11145286603E+01  0.00000000000E+00 0.  1.
          2    1    1    2  502    0 -0.35947450394E+01  0.22326407577E+02  0.16273450145E+03  0.16429823076E+03  0.00000000000E+00 0.  1.
         -2    1    1    2    0  502  0.35947450394E+01 -0.22326407577E+02  0.38398203156E+03  0.38464735958E+03  0.00000000000E+00 0.  1.
</event>
<event>
 4    1  0.6116490E+003  0.2963115E+02  0.7546771E-02  0.1422829E+00
          2   -1    0    0  501    0  0.00000000000E+00  0.00000000000E+00  0.14849118204E+02  0.14849118204E+02  0.00000000000E+00 0. -1.
         -2   -1    0    0    0  501 -0.00000000000E+00 -0.00000000000E+00 -0.47243337721E+03  0.47243337721E+03  0.00000000000E+00 0. -1.
          2    1    1    2  502    0 -0.23649884614E+02 -0.17851837204E+02 -0.90708353017E+00  0.29645032204E+02  0.00000000000E+00 0. -1.
         -2    1    1    2    0  502  0.23649884614E+02  0.17851837204E+02 -0.45667717547E+03  0.45763746321E+03  0.00000000000E+00 0. -1.
</event>
<event>
 4    1  0.6116490E+003  0.2661084E+02  0.7546771E-02  0.1451557E+00
          2   -1    0    0  501    0  0.00000000000E+00  0.00000000000E+00  0.10116728037E+02  0.10116728037E+02  0.00000000000E+00 0. -1.
         -2   -1    0    0    0  501 -0.00000000000E+00 -0.00000000000E+00 -0.26136387440E+03  0.26136387440E+03  0.00000000000E+00 0.  1.
          2    1    1    2  502    0  0.13442505179E+01 -0.26576867796E+02 -0.94734095914E+01  0.28246812220E+02  0.00000000000E+00 0. -1.
         -2    1    1    2    0  502 -0.13442505179E+01  0.26576867796E+02 -0.24177373678E+03  0.24323379022E+03  0.00000000000E+00 0.  1.
</event>
<event>
 4    1  0.6116490E+003  0.2145647E+02  0.7546771E-02  0.1512846E+00
          2   -1    0    0  501    0  0.00000000000E+00  0.00000000000E+00  0.43665719070E+03  0.43665719070E+03  0.00000000000E+00 0.  1.
         -2   -1    0    0    0  501 -0.00000000000E+00 -0.00000000000E+00 -0.10543275899E+01  0.10543275899E+01  0.00000000000E+00 0.  1.
          2    1    1    2  502    0 -0.16853397109E+02  0.13279401138E+02  0.21764514857E+03  0.21870022905E+03  0.00000000000E+00 0.  1.
         -2    1    1    2    0  502  0.16853397109E+02 -0.13279401138E+02  0.21795771453E+03  0.21901128924E+03  0.00000000000E+00 0.  1.
</event>
<event>
 4    1  0.6116490E+003  0.2589675E+02  0.7546771E-02  0.1459017E+00
          2   -1    0    0  501    0  0.00000000000E+00  0.00000000000E+00  0.22939223264E+02  0.22939223264E+02  0.00000000000E+00 0. -1.
         -2   -1    0    0    0  501 -0.00000000000E+00 -0.00000000000E+00 -0.57901534297E+02  0.57901534297E+02  0.00000000000E+00 0.  1.
          2    1    1    2  502    0  0.20223174885E+02  0.16176050482E+02  0.10959432625E+02  0.28120287607E+02  0.00000000000E+00 0. -1.
         -2    1    1    2    0  502 -0.20223174885E+02 -0.16176050482E+02 -0.45921743658E+02  0.52720469954E+02  0.00000000000E+00 0.  1.
</event>
<event>
 4    1  0.6116490E+003  0.2526180E+02  0.7546771E-02  0.1465896E+00
          2   -1    0    0  501    0  0.00000000000E+00  0.00000000000E+00  0.21252305271E+03  0.21252305271E+03  0.00000000000E+00 0. -1.
         -2   -1    0    0    0  501 -0.00000000000E+00 -0.00000000000E+00 -0.44636176389E+02  0.44636176389E+02  0.00000000000E+00 0. -1.
          2    1    1    2  502    0  0.13371554939E+02 -0.21432686336E+02  0.20812284561E+03  0.20965036940E+03  0.00000000000E+00 0. -1.
         -2    1    1    2    0  502 -0.13371554939E+02  0.21432686336E+02 -0.40235969289E+02  0.47508859697E+02  0.00000000000E+00 0. -1.
</event>
<event>
 4    1  0.6116490E+003  0.2379618E+02  0.7546771E-02  0.1482735E+00
          2   -1    0    0  501    0  0.00000000000E+00  0.00000000000E+00  0.14378740849E+04  0.14378740849E+04  0.00000000000E+00 0. -1.
         -2   -1    0    0    0  501 -0.00000000000E+00 -0.00000000000E+00 -0.58464241921E+01  0.58464241921E+01  0.00000000000E+00 0. -1.
          2    1    1    2  502    0 -0.13875019829E+02 -0.19332413810E+02  0.14131379335E+04  0.14133382742E+04  0.00000000000E+00 0. -1.
         -2    1    1    2    0  502  0.13875019829E+02  0.19332413810E+02  0.18889727196E+02  0.30382234818E+02  0.00000000000E+00 0. -1.
</event>
<event>
 4    1  0.6116490E+003  0.3203214E+02  0.7546771E-02  0.1402722E+00
          2   -1    0    0  501    0  0.00000000000E+00  0.00000000000E+00  0.89998154154E+03  0.89998154154E+03  0.00000000000E+00 0. -1.
         -2   -1    0    0    0  501 -0.00000000000E+00 -0.00000000000E+00 -0.14257081333E+01  0.14257081333E+01  0.00000000000E+00 0. -1.
          2    1    1    2  502    0 -0.24524469562E+00 -0.32031198349E+02  0.65100789229E+03  0.65179546917E+03  0.00000000000E+00 0. -1.
         -2    1    1    2    0  502  0.24524469562E+00  0.32031198349E+02  0.24754794112E+03  0.24961178050E+03  0.00000000000E+00 0. -1.
</event>
<event>
 4    1  0.6116490E+003  0.2030728E+02  0.7546771E-02  0.1529389E+00
          2   -1    0    0  501    0  0.00000000000E+00  0.00000000000E+00  0.10905023457E+03  0.10905023457E+03  0.00000000000E+00 0. -1.
         -2   -1    0    0    0  501 -0.00000000000E+00 -0.00000000000E+00 -0.81125661226E+01  0.81125661226E+01  0.00000000000E+00 0. -1.
          2    1    1    2  502    0  0.20124804177E+02  0.27161908266E+01  0.93271668343E+02  0.95456741780E+02  0.00000000000E+00 0. -1.
         -2    1    1    2    0  502 -0.20124804177E+02 -0.27161908266E+01  0.76660001000E+01  0.21706058908E+02  0.00000000000E+00 0. -1.
</event>
<event>
 4    1  0.6116490E+003  0.2105173E+02  0.7546771E-02  0.1518527E+00
          2   -1    0    0  501    0  0.00000000000E+00  0.00000000000E+00  0.29834475945E+01  0.29834475945E+01  0.00000000000E+00 0.  1.
         -2   -1    0    0    0  501 -0.00000000000E+00 -0.00000000000E+00 -0.15133982349E+03  0.15133982349E+03  0.00000000000E+00 0. -1.
          2    1    1    2  502    0  0.33651955885E+01 -0.20781009735E+02 -0.84664825882E+02  0.87242808578E+02  0.00000000000E+00 0.  1.
         -2    1    1    2    0  502 -0.33651955885E+01  0.20781009735E+02 -0.63691550016E+02  0.67080462509E+02  0.00000000000E+00 0. -1.
</event>
<event>
 4    1  0.6116490E+003  0.2901054E+02  0.7546771E-02  0.1428394E+00
          2   -1    0    0  501    0  0.00000000000E+00  0.00000000000E+00  0.75054179901E+02  0.75054179901E+02  0.00000000000E+00 0.  1.
         -2   -1    0    0    0  501 -0.00000000000E+00 -0.00000000000E+00 -0.34426193465E+02  0.34426193465E+02  0.00000000000E+00 0.  1.
          2    1    1    2  502    0 -0.20385643328E+02  0.20640661235E+02  0.65263571727E+02  0.71420901316E+02  0.00000000000E+00 0.  1.
         -2    1    1    2    0  502  0.20385643328E+02 -0.20640661235E+02 -0.24635585291E+02  0.38059472051E+02  0.00000000000E+00 0.  1.
</event>
<event>
 4    1  0.6116490E+003  0.2976049E+02  0.7546771E-02  0.1421689E+00
          2   -1    0    0  501    0  0.00000000000E+00  0.00000000000E+00  0.16436364195E+03  0.16436364195E+03  0.00000000000E+00 0. -1.
         -2   -1    0    0    0  501 -0.00000000000E+00 -0.00000000000E+00 -0.29643806769E+03  0.29643806769E+03  0.00000000000E+00 0. -1.
          2    1    1    2  502    0  0.26408344521E+02 -0.13721743780E+02  0.16225995165E+03  0.16496659911E+03  0.00000000000E+00 0. -1.
         -2    1    1    2    0  502 -0.26408344521E+02  0.13721743780E+02 -0.29433437739E+03  0.29583511054E+03  0.00000000000E+00 0. -1.
</event>
<event>
 4    1  0.6116490E+003  0.2107756E+02  0.7546771E-02  0.1518160E+00
          2   -1    0    0  501    0  0.00000000000E+00  0.00000000000E+00  0.33247050518E+01  0.33247050518E+01  0.00000000000E+00 0.  1.
         -2   -1    0    0    0  501 -0.00000000000E+00 -0.00000000000E+00 -0.15382073108E+03  0.15382073108E+03  0.00000000000E+00 0.  1.
          2    1    1    2  502    0 -0.13101251525E+02  0.16511220648E+02 -0.10371855877E+03  0.10583856874E+03  0.00000000000E+00 0.  1.
         -2    1    1    2    0  502  0.13101251525E+02 -0.16511220648E+02 -0.46777467254E+02  0.51306867392E+02  0.00000000000E+00 0.  1.
</event>
<event>
 4    1  0.6116490E+003  0.3133280E+02  0.7546771E-02  0.1408357E+00
          2   -1    0    0  501    0  0.00000000000E+00  0.00000000000E+00  0.35233228250E+02  0.35233228250E+02  0.00000000000E+00 0.  1.
         -2   -1    0    0    0  501 -0.00000000000E+00 -0.00000000000E+00 -0.44970092720E+02  0.44970092720E+02  0.00000000000E+00 0. -1.
          2    1    1    2  502    0  0.14253779955E+02 -0.27902944150E+02  0.19864394932E+02  0.37099039357E+02  0.00000000000E+00 0.  1.
         -2    1    1    2    0  502 -0.14253779955E+02  0.27902944150E+02 -0.29601259402E+02  0.43104281613E+02  0.00000000000E+00 0. -1.
</event>
<event>
 4    1  0.6116490E+003  0.3973928E+02  0.7546771E-02  0.1350020E+00
          2   -1    0    0  501    0  0.00000000000E+00  0.00000000000E+00  0.77902870509E+01  0.77902870509E+01  0.00000000000E+00 0. -1.
         -2   -1    0    0    0  501 -0.00000000000E+00 -0.00000000000E+00 -0.34082617900E+03  0.34082617900E+03  0.00000000000E+00 0. -1.
          2    1    1    2  502    0  0.20292689513E+02  0.34167487778E+02 -0.55558225594E+02  0.68307590353E+02  0.00000000000E+00 0. -1.
         -2    1    1    2    0  502 -0.20292689513E+02 -0.34167487778E+02 -0.27747766636E+03  0.28030887570E+03  0.00000000000E+00 0. -1.
</event>
<event>
 4    1  0.6116490E+003  0.3523119E+02  0.7546771E-02  0.1378945E+00
          2   -1    0    0  501    0  0.00000000000E+00  0.00000000000E+00  0.40171604803E+03  0.40171604803E+03  0.00000000000E+00 0. -1.
         -2   -1    0    0    0  501 -0.00000000000E+00 -0.00000000000E+00 -0.32963691417E+01  0.32963691417E+01  0.00000000000E+00 0.  1.
          2    1    1    2  502    0  0.28301964468E+02 -0.20981786027E+02  0.24989907499E+03  0.25237033150E+03  0.00000000000E+00 0. -1.
         -2    1    1    2    0  502 -0.28301964468E+02  0.20981786027E+02  0.14852060389E+03  0.15264208567E+03  0.00000000000E+00 0.  1.
</event>
<event>
 4    1  0.6116490E+003  0.2659315E+02  0.7546771E-02  0.1451738E+00
          2   -1    0    0  501    0  0.00000000000E+00  0.00000000000E+00  0.28386558367E+02  0.28386558367E+02  0.00000000000E+00 0.  1.
         -2   -1    0    0    0  501 -0.00000000000E+00 -0.00000000000E+00 -0.40962251298E+02  0.40962251298E+02  0.00000000000E+00 0.  1.
          2    1    1    2  502    0  0.17882000527E+01  0.26532960307E+02  0.15416357855E+02  0.30738570748E+02  0.00000000000E+00 0.  1.
         -2    1    1    2    0  502 -0.17882000527E+01 -0.26532960307E+02 -0.27992050785E+02  0.38610238917E+02  0.00000000000E+00 0.  1.
</event>
<event>
 4    1  0.6116490E+003  0.2069571E+02  0.7546771E-02  0.1523654E+00
          2   -1    0    0  501    0  0.00000000000E+00  0.00000000000E+00  0.23285427586E+03  0.23285427586E+03  0.00000000000E+00 0. -1.
         -2   -1    0    0    0  501 -0.00000000000E+00 -0.00000000000E+00 -0.46768487074E+01  0.46768487074E+01  0.00000000000E+00 0. -1.
          2    1    1    2  502    0  0.83660013104E+01 -0.18929402598E+02  0.20659640515E+03  0.20763040934E+03  0.00000000000E+00 0. -1.
         -2    1    1    2    0  502 -0.83660013104E+01  0.18929402598E+02  0.21581022005E+02  0.29900715232E+02  0.00000000000E+00 0. -1.
</event>
<event>
 4    1  0.6116490E+003  0.2212688E+02  0.7546771E-02  0.1503763E+00
          2   -1    0    0  501    0  0.00000000000E+00  0.00000000000E+00  0.53287673405E+03  0.53287673405E+03  0.00000000000E+00 0. -1.
         -2   -1    0    0    0  501 -0.00000000000E+00 -0.00000000000E+00 -0.13365488397E+02  0.13365488397E+02  0.00000000000E+00 0.  1.
          2    1    1    2  502    0 -0.95808211824E+01  0.19945088703E+02  0.52332201950E+03  0.52378959019E+03  0.00000000000E+00 0. -1.
         -2    1    1    2    0  502  0.95808211824E+01 -0.19945088703E+02 -0.38107738490E+01  0.22452632256E+02  0.00000000000E+00 0.  1.
</event>
<event>
 4    1  0.6116490E+003  0.3473504E+02  0.7546771E-02  0.1382436E+00
          2   -1    0    0  501    0  0.00000000000E+00  0.00000000000E+00  0.25172758563E+02  0.25172758563E+02  0.00000000000E+00 0. -1.
         -2   -1    0    0    0  501 -0.00000000000E+00 -0.00000000000E+00 -0.43820932703E+03  0.43820932703E+03  0.00000000000E+00 0.  1.
          2    1    1    2  502    0 -0.11103373758E+02 -0.32912579393E+02  0.12135186715E+02  0.36793824859E+02  0.00000000000E+00 0. -1.
         -2    1    1    2    0  502  0.11103373758E+02  0.32912579393E+02 -0.42517175519E+03  0.42658826074E+03  0.00000000000E+00 0.  1.
</event>
<event>
 4    1  0.6116490E+003  0.2044757E+02  0.7546771E-02  0.1527300E+00
          2   -1    0    0  501    0  0.00000000000E+00  0.00000000000E+00  0.56652219282E+01  0.56652219282E+01  0.00000000000E+00 0. -1.
         -2   -1    0    0    0  501 -0.00000000000E+00 -0.00000000000E+00 -0.28246310897E+03  0.28246310897E+03  0.00000000000E+00 0.  1.
          2    1    1    2  502    0 -0.20124972651E+02 -0.36177951595E+01 -0.14577410687E+02  0.25111827260E+02  0.00000000000E+00 0. -1.
         -2    1    1    2    0  502  0.20124972651E+02  0.36177951595E+01 -0.26222047636E+03  0.26301650364E+03  0.00000000000E+00 0.  1.
</event>
<event>
 4    1  0.6116490E+003  0.5512926E+02  0.7546771E-02  0.1277344E+00
          2   -1    0    0  501    0  0.00000000000E+00  0.00000000000E+00  0.67975074739E+03  0.67975074739E+03  0.00000000000E+00 0.  1.
         -2   -1    0    0    0  501 -0.00000000000E+00 -0.00000000000E+00 -0.58670009069E+01  0.58670009069E+01  0.00000000000E+00 0.  1.
          2    1    1    2  502    0 -0.51270838178E+02  0.20261711440E+02  0.50415515180E+03  0.50716038181E+03  0.00000000000E+00 0.  1.
         -2    1    1    2    0  502  0.51270838178E+02 -0.20261711440E+02  0.16972859469E+03  0.17845736649E+03  0.00000000000E+00 0.  1.
</event>
<event>
 4    1  0.6116490E+003  0.3404725E+02  0.7546771E-02  0.1387388E+00
          2   -1    0    0  501    0  0.00000000000E+00  0.00000000000E+00  0.16195970087E+04  0.16195970087E+04  0.00000000000E+00 0.  1.
         -2   -1    0    0    0  501 -0.00000000000E+00 -0.00000000000E+00 -0.90743517359E+00  0.90743517359E+00  0.00000000000E+00 0.  1.
          2    1    1    2  502    0  0.20732563032E+02  0.27006959203E+02  0.11817491506E+04  0.11822395146E+04  0.00000000000E+00 0.  1.
         -2    1    1    2    0  502 -0.20732563032E+02 -0.27006959203E+02  0.43694042289E+03  0.43826492921E+03  0.00000000000E+00 0.  1.
</event>
<event>
 4    1  0.6116490E+003  0.2508822E+02  0.7546771E-02  0.1467819E+00
          2   -1    0    0  501    0  0.00000000000E+00  0.00000000000E+00  0.24778525024E+02  0.24778525024E+02  0.00000000000E+00 0.  1.
         -2   -1    0    0    0  501 -0.00000000000E+00 -0.00000000000E+00 -0.36523766312E+03  0.36523766312E+03  0.00000000000E+00 0. -1.
          2    1    1    2  502    0 -0.25437776240E+01 -0.24958926838E+02  0.17875055160E+02  0.30804811807E+02  0.00000000000E+00 0.  1.
         -2    1    1    2    0  502  0.25437776240E+01  0.24958926838E+02 -0.35833419325E+03  0.35921137633E+03  0.00000000000E+00 0. -1.
</event>
<event>
 4    1  0.6116490E+003  0.2325093E+02  0.7546771E-02  0.1489371E+00
          2   -1    0    0  501    0  0.00000000000E+00  0.00000000000E+00  0.79687041672E+02  0.79687041672E+02  0.00000000000E+00 0. -1.
         -2   -1    0    0    0  501 -0.00000000000E+00 -0.00000000000E+00 -0.10330660643E+02  0.10330660643E+02  0.00000000000E+00 0. -1.
          2    1    1    2  502    0  0.22854948496E+02 -0.42728131511E+01  0.61049822339E+02  0.65327531797E+02  0.00000000000E+00 0. -1.
         -2    1    1    2    0  502 -0.22854948496E+02  0.42728131511E+01  0.83065586891E+01  0.24690170518E+02  0.00000000000E+00 0. -1.
</event>
<event>
 4    1  0.6116490E+003  0.3989494E+02  0.7546771E-02  0.1349103E+00
          2   -1    0    0  501    0  0.00000000000E+00  0.00000000000E+00  0.13076702254E+02  0.13076702254E+02  0.00000000000E+00 0. -1.
         -2   -1    0    0    0  501 -0.00000000000E+00 -0.00000000000E+00 -0.29813424025E+03  0.29813424025E+03  0.00000000000E+00 0. -1.
          2    1    1    2  502    0  0.36507785915E+02 -0.16086871433E+02 -0.22828739659E+02  0.45964738870E+02  0.00000000000E+00 0. -1.
         -2    1    1    2    0  502 -0.36507785915E+02  0.16086871433E+02 -0.26222879833E+03  0.26524620363E+03  0.00000000000E+00 0. -1.
</event>
<event>
 4    1  0.6116490E+003  0.2097098E+02  0.7546771E-02  0.1519680E+00
          2   -1    0    0  501    0  0.00000000000E+00  0.00000000000E+00  0.11209776250E+04  0.11209776250E+04  0.00000000000E+00 0. -1.
         -2   -1    0    0    0  501 -0.00000000000E+00 -0.00000000000E+00 -0.45213870927E+00  0.45213870927E+00  0.00000000000E+00 0.  1.
          2    1    1    2  502    0 -0.87785696261E+01 -0.19045171928E+02  0.76421336160E+03  0.76450104245E+03  0.00000000000E+00 0. -1.
         -2    1    1    2    0  502  0.87785696261E+01  0.19045171928E+02  0.35631212464E+03  0.35692872121E+03  0.00000000000E+00 0.  1.
</event>
<event>
 4    1  0.6116490E+003  0.2860118E+02  0.7546771E-02  0.1432155E+00
          2   -1    0    0  501    0  0.00000000000E+00  0.00000000000E+00  0.42823536960E+03  0.42823536960E+03  0.00000000000E+00 0. -1.
         -2   -1    0    0    0  501 -0.00000000000E+00 -0.00000000000E+00 -0.72812993983E+02  0.72812993983E+02  0.00000000000E+00 0. -1.
          2    1    1    2  502    0 -0.31867498691E+01 -0.28423090501E+02  0.42492731289E+03  0.42588877502E+03  0.00000000000E+00 0. -1.
         -2    1    1    2    0  502  0.31867498691E+01  0.28423090501E+02 -0.69504937270E+02  0.75159588565E+02  0.00000000000E+00 0. -1.
</event>
<event>
 4    1  0.6116490E+003  0.2458356E+02  0.7546771E-02  0.1473516E+00
          2   -1    0    0  501    0  0.00000000000E+00  0.00000000000E+00  0.16597548236E+04  0.16597548236E+04  0.00000000000E+00 0. -1.
         -2   -1    0    0    0  501 -0.00000000000E+00 -0.00000000000E+00 -0.18661326796E+01  0.18661326796E+01  0.00000000000E+00 0. -1.
          2    1    1    2  502    0 -0.20101209083E+02 -0.14152486479E+02  0.15743065555E+04  0.15744984859E+04  0.00000000000E+00 0. -1.
         -2    1    1    2    0  502  0.20101209083E+02  0.14152486479E+02  0.83582135466E+02  0.87122470404E+02  0.00000000000E+00 0. -1.
</event>
<event>
 4    1  0.6116490E+003  0.2130295E+02  0.7546771E-02  0.1514983E+00
          2   -1    0    0  501    0  0.00000000000E+00  0.00000000000E+00  0.27644221161E+04  0.27644221161E+04  0.00000000000E+00 0.  1.
         -2   -1    0    0    0  501 -0.00000000000E+00 -0.00000000000E+00 -0.16418336911E+00  0.16418336911E+00  0.00000000000E+00 0.  1.
          2    1    1    2  502    0  0.19877352684E+02 -0.76619886609E+01  0.13666495978E+04  0.13668156198E+04  0.00000000000E+00 0.  1.
         -2    1    1    2    0  502 -0.19877352684E+02  0.76619886609E+01  0.13976083349E+04  0.13977706797E+04  0.00000000000E+00 0.  1.
</event>
<event>
 4    1  0.6116490E+003  0.3030355E+02  0.7546771E-02  0.1416977E+00
          2   -1    0    0  501    0  0.00000000000E+00  0.00000000000E+00  0.61227320660E+03  0.61227320660E+03  0.00000000000E+00 0.  1.
         -2   -1    0    0    0  501 -0.00000000000E+00 -0.00000000000E+00 -0.37275591659E+01  0.37275591659E+01  0.00000000000E+00 0.  1.
          2    1    1    2  502    0  0.10305018482E+02 -0.28497574652E+02  0.54237878442E+03  0.54322467815E+03  0.00000000000E+00 0.  1.
         -2    1    1    2    0  502 -0.10305018482E+02  0.28497574652E+02  0.66166863017E+02  0.72776087614E+02  0.00000000000E+00 0.  1.
</event>
<event>
 4    1  0.6116490E+003  0.2213393E+02  0.7546771E-02  0.1503669E+00
          2   -1    0    0  501    0  0.00000000000E+00  0.00000000000E+00  0.98040729551E+01  0.98040729551E+01  0.00000000000E+00 0.  1.
         -2   -1    0    0    0  501 -0.00000000000E+00 -0.00000000000E+00 -0.61026300240E+02  0.61026300240E+02  0.00000000000E+00 0.  1.
          2    1    1    2  502    0 -0.96535434471E+01 -0.19917832251E+02 -0.10536954821E+02  0.24514044129E+02  0.00000000000E+00 0.  1.
         -2    1    1    2    0  502  0.96535434471E+01  0.19917832251E+02 -0.40685272463E+02  0.46316329065E+02  0.00000000000E+00 0.  1.
</event>
<event>
 4    1  0.6116490E+003  0.2408739E+02  0.7546771E-02  0.1479277E+00
          2   -1    0    0  501    0  0.00000000000E+00  0.00000000000E+00  0.45252719142E+03  0.45252719142E+03  0.00000000000E+00 0.  1.
         -2   -1    0    0    0  501 -0.00000000000E+00 -0.00000000000E+00 -0.21127267956E+03  0.21127267956E+03  0.00000000000E+00 0. -1.
          2    1    1    2  502    0 -0.17634660617E+02  0.16407958597E+02  0.45151856801E+03  0.45216061264E+03  0.00000000000E+00 0.  1.
         -2    1    1    2    0  502  0.17634660617E+02 -0.16407958597E+02 -0.21026405616E+03  0.21163925834E+03  0.00000000000E+00 0. -1.
</event>
<event>
 4    1  0.6116490E+003  0.2822854E+02  0.7546771E-02  0.1435643E+00
          2   -1    0    0  501    0  0.00000000000E+00  0.00000000000E+00  0.30159461285E+01  0.30159461285E+01  0.00000000000E+00 0. -1.
         -2   -1    0    0    0  501 -0.00000000000E+00 -0.00000000000E+00 -0.39332310394E+03  0.39332310394E+03  0.00000000000E+00 0.  1.
          2    1    1    2  502    0 -0.46588009215E+01 -0.27841442421E+02 -0.81615046357E+02  0.86358937777E+02  0.00000000000E+00 0. -1.
         -2    1    1    2    0  502  0.46588009215E+01  0.27841442421E+02 -0.30869211145E+03  0.30998011229E+03  0.00000000000E+00 0.  1.
</event>
<event>
 4    1  0.6116490E+003  0.2129639E+02  0.7546771E-02  0.1515075E+00
          2   -1    0    0  501    0  0.00000000000E+00  0.00000000000E+00  0.51885885502E+03  0.51885885502E+03  0.00000000000E+00 0.  1.
         -2   -1    0    0    0  501 -0.00000000000E+00 -0.00000000000E+00 -0.40565302843E+02  0.40565302843E+02  0.00000000000E+00 0. -1.
          2    1    1    2  502    0 -0.21267316590E+02  0.11123901884E+01  0.51582881839E+03  0.51626825009E+03  0.00000000000E+00 0.  1.
         -2    1    1    2    0  502  0.21267316590E+02 -0.11123901884E+01 -0.37535266210E+02  0.43155907780E+02  0.00000000000E+00 0. -1.
</event>
<event>
 4    1  0.6116490E+003  0.3209765E+02  0.7546771E-02  0.1402203E+00
          2   -1    0    0  501    0  0.00000000000E+00  0.00000000000E+00  0.44552599041E+03  0.44552599041E+03  0.00000000000E+00 0.  1.
         -2   -1    0    0    0  501 -0.00000000000E+00 -0.00000000000E+00 -0.65779545426E+01  0.65779545426E+01  0.00000000000E+00 0. -1.
          2    1    1    2  502    0  0.20845158333E+02 -0.24407752715E+02  0.40150603955E+03  0.40278698938E+03  0.00000000000E+00 0.  1.
         -2    1    1    2    0  502 -0.20845158333E+02  0.24407752715E+02  0.37441996309E+02  0.49316955564E+02  0.00000000000E+00 0. -1.
</event>
<event>
 4    1  0.6116490E+003  0.4066621E+02  0.7546771E-02  0.1344625E+00
          2   -1    0    0  501    0  0.00000000000E+00  0.00000000000E+00  0.21635625320E+03  0.21635625320E+03  0.00000000000E+00 0. -1.
         -2   -1    0    0    0  501 -0.00000000000E+00 -0.00000000000E+00 -0.12020245825E+02  0.12020245825E+02  0.00000000000E+00 0. -1.
          2    1    1    2  502    0 -0.17502269934E+02 -0.36707082298E+02  0.33265382532E+02  0.52538795367E+02  0.00000000000E+00 0. -1.
         -2    1    1    2    0  502  0.17502269934E+02  0.36707082298E+02  0.17107062485E+03  0.17583770366E+03  0.00000000000E+00 0. -1.
</event>
<event>
 4    1  0.6116490E+003  0.2059397E+02  0.7546771E-02  0.1525142E+00
          2   -1    0    0  501    0  0.00000000000E+00  0.00000000000E+00  0.53871456162E+01  0.53871456162E+01  0.00000000000E+00 0. -1.
         -2   -1    0    0    0  501 -0.00000000000E+00 -0.00000000000E+00 -0.10565783440E+03  0.10565783440E+03  0.00000000000E+00 0. -1.
          2    1    1    2  502    0  0.16585290576E+02  0.12208165228E+02 -0.78166884210E+02  0.80834231293E+02  0.00000000000E+00 0. -1.
         -2    1    1    2    0  502 -0.16585290576E+02 -0.12208165228E+02 -0.22103804573E+02  0.30210748722E+02  0.00000000000E+00 0. -1.
</event>
<event>
 4    1  0.6116490E+003  0.2369232E+02  0.7546771E-02  0.1483983E+00
          2   -1    0    0  501    0  0.00000000000E+00  0.00000000000E+00  0.49358219088E+02  0.49358219088E+02  0.00000000000E+00 0.  1.
         -2   -1    0    0    0  501 -0.00000000000E+00 -0.00000000000E+00 -0.20430937647E+02  0.20430937647E+02  0.00000000000E+00 0. -1.
          2    1    1    2  502    0 -0.23468536904E+02  0.32486397845E+01  0.37698533877E+02  0.44525333703E+02  0.00000000000E+00 0.  1.
         -2    1    1    2    0  502  0.23468536904E+02 -0.32486397845E+01 -0.87712524359E+01  0.25263823031E+02  0.00000000000E+00 0. -1.
</event>
<event>
 4    1  0.6116490E+003  0.2411998E+02  0.7546771E-02  0.1478894E+00
          2   -1    0    0  501    0  0.00000000000E+00  0.00000000000E+00  0.48372425010E+02  0.48372425010E+02  0.00000000000E+00 0.  1.
         -2   -1    0    0    0  501 -0.00000000000E+00 -0.00000000000E+00 -0.13377380763E+02  0.13377380763E+02  0.00000000000E+00 0.  1.
          2    1    1    2  502    0  0.11404299707E+02  0.21253596100E+02  0.27307183513E+02  0.36434265059E+02  0.00000000000E+00 0.  1.
         -2    1    1    2    0  502 -0.11404299707E+02 -0.21253596100E+02  0.76878607337E+01  0.25315540714E+02  0.00000000000E+00 0.  1.
</event>
<event>
 4    1  0.6116490E+003  0.2267648E+02  0.7546771E-02  0.1496601E+00
          2   -1    0    0  501    0  0.00000000000E+00  0.00000000000E+00  0.34029543534E+01  0.34029543534E+01  0.00000000000E+00 0.  1.
         -2   -1    0    0    0  501 -0.00000000000E+00 -0.00000000000E+00 -0.23590634373E+03  0.23590634373E+03  0.00000000000E+00 0. -1.
          2    1    1    2  502    0 -0.67678689296E+01  0.21642977398E+02 -0.44514108520E+02  0.49957265516E+02  0.00000000000E+00 0.  1.
         -2    1    1    2    0  502  0.67678689296E+01 -0.21642977398E+02 -0.18798928085E+03  0.18935203256E+03  0.00000000000E+00 0. -1.
</event>
<event>
 4    1  0.6116490E+003  0.2789679E+02  0.7546771E-02  0.1438802E+00
          2   -1    0    0  501    0  0.00000000000E+00  0.00000000000E+00  0.22978496078E+02  0.22978496078E+02  0.00000000000E+00 0. -1.
         -2   -1    0    0    0  501 -0.00000000000E+00 -0.00000000000E+00 -0.19087619031E+03  0.19087619031E+03  0.00000000000E+00 0. -1.
          2    1    1    2  502    0 -0.10153242979E+02  0.25983501232E+02  0.13029405231E+02  0.30789544978E+02  0.00000000000E+00 0. -1.
         -2    1    1    2    0  502  0.10153242979E+02 -0.25983501232E+02 -0.18092709946E+03  0.18306514141E+03  0.00000000000E+00 0. -1.
</event>
<event>
 4    1  0.6116490E+003  0.2486031E+02  0.7546771E-02  0.1470372E+00
          2   -1    0    0  501    0  0.00000000000E+00  0.00000000000E+00  0.13470029975E+04  0.13470029975E+04  0.00000000000E+00 0. -1.
         -2   -1    0    0    0  501 -0.00000000000E+00 -0.00000000000E+00 -0.45618869433E+02  0.45618869433E+02  0.00000000000E+00 0. -1.
          2    1    1    2  502    0 -0.13690874318E+02 -0.20750779815E+02  0.13434924950E+04  0.13437224859E+04  0.00000000000E+00 0. -1.
         -2    1    1    2    0  502  0.13690874318E+02  0.20750779815E+02 -0.42108366936E+02  0.48899381065E+02  0.00000000000E+00 0. -1.
</event>
<event>
 4    1  0.6116490E+003  0.2585719E+02  0.7546771E-02  0.1459438E+00
          2   -1    0    0  501    0  0.00000000000E+00  0.00000000000E+00  0.97646716259E+03  0.97646716259E+03  0.00000000000E+00 0.  1.
         -2   -1    0    0    0  501 -0.00000000000E+00 -0.00000000000E+00 -0.39969184617E+02  0.39969184617E+02  0.00000000000E+00 0.  1.
          2    1    1    2  502    0  0.22524787593E+02 -0.12697570337E+02  0.97209524476E+03  0.97243907739E+03  0.00000000000E+00 0.  1.
         -2    1    1    2    0  502 -0.22524787593E+02  0.12697570337E+02 -0.35597266788E+02  0.43997269817E+02  0.00000000000E+00 0.  1.
</event>
<event>
 4    1  0.6116490E+003  0.2508032E+02  0.7546771E-02  0.1467907E+00
          2   -1    0    0  501    0  0.00000000000E+00  0.00000000000E+00  0.20499817608E+01  0.20499817608E+01  0.00000000000E+00 0. -1.
         -2   -1    0    0    0  501 -0.00000000000E+00 -0.00000000000E+00 -0.34322889340E+03  0.34322889340E+03  0.00000000000E+00 0.  1.
          2    1    1    2  502    0  0.18223486688E+02 -0.17231562325E+02 -0.11437919224E+03  0.11709663456E+03  0.00000000000E+00 0. -1.
         -2    1    1    2    0  502 -0.18223486688E+02  0.17231562325E+02 -0.22679971940E+03  0.22818224061E+03  0.00000000000E+00 0.  1.
</event>
<event>
 4    1  0.6116490E+003  0.2005161E+02  0.7546771E-02  0.1533248E+00
          2   -1    0    0  501    0  0.00000000000E+00  0.00000000000E+00  0.99354151464E+02  0.99354151464E+02  0.00000000000E+00 0. -1.
         -2   -1    0    0    0  501 -0.00000000000E+00 -0.00000000000E+00 -0.14663881158E+03  0.14663881158E+03  0.00000000000E+00 0.  1.
          2    1    1    2  502    0  0.19972420754E+02 -0.17803456989E+01  0.97645103614E+02  0.99682663896E+02  0.00000000000E+00 0. -1.
         -2    1    1    2    0  502 -0.19972420754E+02  0.17803456989E+01 -0.14492976373E+03  0.14631029915E+03  0.00000000000E+00 0.  1.
</event>
<event>
 4    1  0.6116490E+003  0.2584954E+02  0.7546771E-02  0.1459520E+00
          2   -1    0    0  501    0  0.00000000000E+00  0.00000000000E+00  0.57215654282E+03  0.57215654282E+03  0.00000000000E+00 0.  1.
         -2   -1    0    0    0  501 -0.00000000000E+00 -0.00000000000E+00 -0.11701417749E+01  0.11701417749E+01  0.00000000000E+00 0.  1.
          2    1    1    2  502    0  0.25142870448E+02 -0.60028521643E+01  0.27283172349E+03  0.27405354862E+03  0.00000000000E+00 0.  1.
         -2    1    1    2    0  502 -0.25142870448E+02  0.60028521643E+01  0.29815467755E+03  0.29927313597E+03  0.00000000000E+00 0.  1.
</event>
<event>
 4    1  0.6116490E+003  0.4121260E+02  0.7546771E-02  0.1341523E+00
          2   -1    0    0  501    0  0.00000000000E+00  0.00000000000E+00  0.20397492084E+03  0.20397492084E+03  0.00000000000E+00 0. -1.
         -2   -1    0    0    0  501 -0.00000000000E+00 -0.00000000000E+00 -0.52035964675E+03  0.52035964675E+03  0.00000000000E+00 0. -1.
          2    1    1    2  502    0  0.21547173969E+02 -0.35131149085E+02  0.20106549839E+03  0.20524573804E+03  0.00000000000E+00 0. -1.
         -2    1    1    2    0  502 -0.21547173969E+02  0.35131149085E+02 -0.51745022430E+03  0.51908882955E+03  0.00000000000E+00 0. -1.
</event>
<event>
 4    1  0.6116490E+003  0.2140836E+02  0.7546771E-02  0.1513514E+00
          2   -1    0    0  501    0  0.00000000000E+00  0.00000000000E+00  0.39021922097E+03  0.39021922097E+03  0.00000000000E+00 0.  1.
         -2   -1    0    0    0  501 -0.00000000000E+00 -0.00000000000E+00 -0.10787064828E+02  0.10787064828E+02  0.00000000000E+00 0. -1.
          2    1    1    2  502    0 -0.16429243004E+02 -0.13725805250E+02  0.37898916942E+03  0.37959334595E+03  0.00000000000E+00 0.  1.
         -2    1    1    2    0  502  0.16429243004E+02  0.13725805250E+02  0.44298672005E+00  0.21412939842E+02  0.00000000000E+00 0. -1.
</event>
<event>
 4    1  0.6116490E+003  0.2824475E+02  0.7546771E-02  0.1435490E+00
          2   -1    0    0  501    0  0.00000000000E+00  0.00000000000E+00  0.11345448849E+04  0.11345448849E+04  0.00000000000E+00 0.  1.
         -2   -1    0    0    0  501 -0.00000000000E+00 -0.00000000000E+00 -0.20670454018E+01  0.20670454018E+01  0.00000000000E+00 0. -1.
          2    1    1    2  502    0 -0.19206091270E+02 -0.20709708832E+02  0.10278712653E+04  0.10282592592E+04  0.00000000000E+00 0.  1.
         -2    1    1    2    0  502  0.19206091270E+02  0.20709708832E+02  0.10460657417E+03  0.10835267113E+03  0.00000000000E+00 0. -1.
</event>
<event>
 4    1  0.6116490E+003  0.3339432E+02  0.7546771E-02  0.1392217E+00
          2   -1    0    0  501    0  0.00000000000E+00  0.00000000000E+00  0.11636516763E+04  0.11636516763E+04  0.00000000000E+00 0.  1.
         -2   -1    0    0    0  501 -0.00000000000E+00 -0.00000000000E+00 -0.26410850513E+02  0.26410850513E+02  0.00000000000E+00 0.  1.
          2    1    1    2  502    0 -0.96592408717E+01 -0.31966851756E+02  0.11527562554E+04  0.11532398557E+04  0.00000000000E+00 0.  1.
         -2    1    1    2    0  502  0.96592408717E+01  0.31966851756E+02 -0.15515429633E+02  0.36822671035E+02  0.00000000000E+00 0.  1.
</event>
<event>
 4    1  0.6116490E+003  0.4024762E+02  0.7546771E-02  0.1347041E+00
          2   -1    0    0  501    0  0.00000000000E+00  0.00000000000E+00  0.11637907511E+04  0.11637907511E+04  0.00000000000E+00 0. -1.
         -2   -1    0    0    0  501 -0.00000000000E+00 -0.00000000000E+00 -0.31092945053E+01  0.31092945053E+01  0.00000000000E+00 0.  1.
          2    1    1    2  502    0  0.38873421251E+02 -0.10427207559E+02  0.14672109248E+03  0.15214121241E+03  0.00000000000E+00 0.  1.
         -2    1    1    2    0  502 -0.38873421251E+02  0.10427207559E+02  0.10139603641E+04  0.10147588332E+04  0.00000000000E+00 0. -1.
</event>
<event>
 4    1  0.6116490E+003  0.4041645E+02  0.7546771E-02  0.1346063E+00
          2   -1    0    0  501    0  0.00000000000E+00  0.00000000000E+00  0.13493039534E+04  0.13493039534E+04  0.00000000000E+00 0. -1.
         -2   -1    0    0    0  501 -0.00000000000E+00 -0.00000000000E+00 -0.15835762855E+02  0.15835762855E+02  0.00000000000E+00 0.  1.
          2    1    1    2  502    0  0.13112431760E+02 -0.38230269841E+02  0.13226946499E+04  0.13233119913E+04  0.00000000000E+00 0. -1.
         -2    1    1    2    0  502 -0.13112431760E+02  0.38230269841E+02  0.10773540652E+02  0.41827724980E+02  0.00000000000E+00 0.  1.
</event>
<event>
 4    1  0.6116490E+003  0.2054763E+02  0.7546771E-02  0.1525823E+00
          2   -1    0    0  501    0  0.00000000000E+00  0.00000000000E+00  0.10267676856E+04  0.10267676856E+04  0.00000000000E+00 0. -1.
         -2   -1    0    0    0  501 -0.00000000000E+00 -0.00000000000E+00 -0.15955719711E+01  0.15955719711E+01  0.00000000000E+00 0.  1.
          2    1    1    2  502    0 -0.19660840500E+02 -0.59712948041E+01  0.95558506029E+03  0.95580594916E+03  0.00000000000E+00 0. -1.
         -2    1    1    2    0  502  0.19660840500E+02  0.59712948041E+01  0.69587053360E+02  0.72557308426E+02  0.00000000000E+00 0.  1.
</event>
<event>
 4    1  0.6978420E+003  0.2514538E+02  0.7546771E-02  0.1467183E+00
          2   -1    0    0  501    0  0.00000000000E+00  0.00000000000E+00  0.17150885810E+04  0.17150885810E+04  0.00000000000E+00 0. -1.
         -2   -1    0    0    0  501 -0.00000000000E+00 -0.00000000000E+00 -0.20901206911E+03  0.20901206911E+03  0.00000000000E+00 0.  1.
          2    1    1    2  502    0  0.10696894413E+02  0.22756686110E+02  0.17142397563E+04  0.17144241693E+04  0.00000000000E+00 0. -1.
         -2    1    1    2    0  502 -0.10696894413E+02 -0.22756686110E+02 -0.20816324435E+03  0.20967648083E+03  0.00000000000E+00 0.  1.
</event>
<event>
 4    1  0.6116490E+003  0.2992399E+02  0.7546771E-02  0.1420258E+00
          2   -1    0    0  501    0  0.00000000000E+00  0.00000000000E+00  0.17190131816E+04  0.17190131816E+04  0.00000000000E+00 0.  1.
         -2   -1    0    0    0  501 -0.00000000000E+00 -0.00000000000E+00 -0.38055173931E+01  0.38055173931E+01  0.00000000000E+00 0.  1.
          2    1    1    2  502    0  0.22294608244E+02  0.19959856515E+02  0.16578888358E+04  0.16581588698E+04  0.00000000000E+00 0.  1.
         -2    1    1    2    0  502 -0.22294608244E+02 -0.19959856515E+02  0.57318828395E+02  0.64659829240E+02  0.00000000000E+00 0.  1.
</event>
<event>
 4    1  0.6116490E+003  0.2990498E+02  0.7546771E-02  0.1420424E+00
          2   -1    0    0  501    0  0.00000000000E+00  0.00000000000E+00  0.80196486935E+03  0.80196486935E+03  0.00000000000E+00 0. -1.
         -2   -1    0    0    0  501 -0.00000000000E+00 -0.00000000000E+00 -0.12047691719E+01  0.12047691719E+01  0.00000000000E+00 0. -1.
          2    1    1    2  502    0  0.27375203612E+02  0.12037689580E+02  0.50991079513E+03  0.51078696806E+03  0.00000000000E+00 0. -1.
         -2    1    1    2    0  502 -0.27375203612E+02 -0.12037689580E+02  0.29084930504E+03  0.29238267046E+03  0.00000000000E+00 0. -1.
</event>
<event>
 4    1  0.6116490E+003  0.2231840E+02  0.7546771E-02  0.1501239E+00
          2   -1    0    0  501    0  0.00000000000E+00  0.00000000000E+00  0.10942318169E+04  0.10942318169E+04  0.00000000000E+00 0. -1.
         -2   -1    0    0    0  501 -0.00000000000E+00 -0.00000000000E+00 -0.71969284750E+01  0.71969284750E+01  0.00000000000E+00 0.  1.
          2    1    1    2  502    0  0.20003744712E+02 -0.98975294199E+01  0.10765306370E+04  0.10767619623E+04  0.00000000000E+00 0. -1.
         -2    1    1    2    0  502 -0.20003744712E+02  0.98975294199E+01  0.10504251357E+02  0.24666783084E+02  0.00000000000E+00 0.  1.
</event>
<event>
 4    1  0.6116490E+003  0.2685273E+02  0.7546771E-02  0.1449093E+00
          2   -1    0    0  501    0  0.00000000000E+00  0.00000000000E+00  0.43857210654E+01  0.43857210654E+01  0.00000000000E+00 0. -1.
         -2   -1    0    0    0  501 -0.00000000000E+00 -0.00000000000E+00 -0.14441585378E+04  0.14441585378E+04  0.00000000000E+00 0. -1.
          2    1    1    2  502    0  0.91052293362E+01  0.25261911086E+02 -0.38087726376E+02  0.46601976927E+02  0.00000000000E+00 0. -1.
         -2    1    1    2    0  502 -0.91052293362E+01 -0.25261911086E+02 -0.14016850903E+04  0.14019422819E+04  0.00000000000E+00 0. -1.
</event>
<event>
 4    1  0.6116490E+003  0.3247083E+02  0.7546771E-02  0.1399273E+00
          2   -1    0    0  501    0  0.00000000000E+00  0.00000000000E+00  0.39666392106E+03  0.39666392106E+03  0.00000000000E+00 0.  1.
         -2   -1    0    0    0  501 -0.00000000000E+00 -0.00000000000E+00 -0.43015632856E+01  0.43015632856E+01  0.00000000000E+00 0. -1.
          2    1    1    2  502    0  0.16946460380E+02  0.27697878227E+02  0.32010352633E+03  0.32174620829E+03  0.00000000000E+00 0.  1.
         -2    1    1    2    0  502 -0.16946460380E+02 -0.27697878227E+02  0.72258831445E+02  0.79219276060E+02  0.00000000000E+00 0. -1.
</event>
<event>
 4    1  0.6116490E+003  0.2433619E+02  0.7546771E-02  0.1476368E+00
          2   -1    0    0  501    0  0.00000000000E+00  0.00000000000E+00  0.80575520816E+02  0.80575520816E+02  0.00000000000E+00 0.  1.
         -2   -1    0    0    0  501 -0.00000000000E+00 -0.00000000000E+00 -0.31656227208E+02  0.31656227208E+02  0.00000000000E+00 0.  1.
          2    1    1    2  502    0  0.19223574397E+02  0.14923281723E+02  0.73631061731E+02  0.77548587360E+02  0.00000000000E+00 0.  1.
         -2    1    1    2    0  502 -0.19223574397E+02 -0.14923281723E+02 -0.24711768123E+02  0.34683160665E+02  0.00000000000E+00 0.  1.
</event>
<event>
 4    1  0.6116490E+003  0.2139322E+02  0.7546771E-02  0.1513724E+00
          2   -1    0    0  501    0  0.00000000000E+00  0.00000000000E+00  0.42558281733E+02  0.42558281733E+02  0.00000000000E+00 0.  1.
         -2   -1    0    0    0  501 -0.00000000000E+00 -0.00000000000E+00 -0.22573411920E+02  0.22573411920E+02  0.00000000000E+00 0. -1.
          2    1    1    2  502    0 -0.20706878902E+02  0.53754241710E+01  0.33557164424E+02  0.39796398117E+02  0.00000000000E+00 0.  1.
         -2    1    1    2    0  502  0.20706878902E+02 -0.53754241710E+01 -0.13572294611E+02  0.25335295536E+02  0.00000000000E+00 0. -1.
</event>
<event>
 4    1  0.6116490E+003  0.3341657E+02  0.7546771E-02  0.1392050E+00
          2   -1    0    0  501    0  0.00000000000E+00  0.00000000000E+00  0.17043887681E+04  0.17043887681E+04  0.00000000000E+00 0.  1.
         -2   -1    0    0    0  501 -0.00000000000E+00 -0.00000000000E+00 -0.22471757118E+01  0.22471757118E+01  0.00000000000E+00 0.  1.
          2    1    1    2  502    0 -0.10657734776E+02  0.31671432908E+02  0.15693023491E+04  0.15696580933E+04  0.00000000000E+00 0.  1.
         -2    1    1    2    0  502  0.10657734776E+02 -0.31671432908E+02  0.13283924325E+03  0.13697785047E+03  0.00000000000E+00 0.  1.
</event>
<event>
 4    1  0.6116490E+003  0.3295239E+02  0.7546771E-02  0.1395560E+00
          2   -1    0    0  501    0  0.00000000000E+00  0.00000000000E+00  0.48595281448E+03  0.48595281448E+03  0.00000000000E+00 0.  1.
         -2   -1    0    0    0  501 -0.00000000000E+00 -0.00000000000E+00 -0.31968175318E+01  0.31968175318E+01  0.00000000000E+00 0. -1.
          2    1    1    2  502    0 -0.10454374714E+02  0.31250057914E+02  0.37556569688E+03  0.37700855791E+03  0.00000000000E+00 0.  1.
         -2    1    1    2    0  502  0.10454374714E+02 -0.31250057914E+02  0.10719030008E+03  0.11214107410E+03  0.00000000000E+00 0. -1.
</event>
<event>
 4    1  0.6116490E+003  0.3395732E+02  0.7546771E-02  0.1388045E+00
          2   -1    0    0  501    0  0.00000000000E+00  0.00000000000E+00  0.52905161193E+02  0.52905161193E+02  0.00000000000E+00 0.  1.
         -2   -1    0    0    0  501 -0.00000000000E+00 -0.00000000000E+00 -0.31136840691E+02  0.31136840691E+02  0.00000000000E+00 0. -1.
          2    1    1    2  502    0 -0.22803135182E+02  0.25161805767E+02  0.33900249262E+02  0.47982562911E+02  0.00000000000E+00 0.  1.
         -2    1    1    2    0  502  0.22803135182E+02 -0.25161805767E+02 -0.12131928760E+02  0.36059438972E+02  0.00000000000E+00 0. -1.
</event>
<event>
 4    1  0.6116490E+003  0.5110452E+02  0.7546771E-02  0.1293453E+00
          2   -1    0    0  501    0  0.00000000000E+00  0.00000000000E+00  0.14906781240E+03  0.14906781240E+03  0.00000000000E+00 0.  1.
         -2   -1    0    0    0  501 -0.00000000000E+00 -0.00000000000E+00 -0.29471806794E+02  0.29471806794E+02  0.00000000000E+00 0.  1.
          2    1    1    2  502    0  0.69592019294E+01  0.50628468448E+02  0.11664630430E+03  0.12735003972E+03  0.00000000000E+00 0.  1.
         -2    1    1    2    0  502 -0.69592019294E+01 -0.50628468448E+02  0.29497013007E+01  0.51189579473E+02  0.00000000000E+00 0.  1.
</event>
<event>
 4    1  0.6116490E+003  0.2138376E+02  0.7546771E-02  0.1513856E+00
          2   -1    0    0  501    0  0.00000000000E+00  0.00000000000E+00  0.15213303039E+02  0.15213303039E+02  0.00000000000E+00 0. -1.
         -2   -1    0    0    0  501 -0.00000000000E+00 -0.00000000000E+00 -0.15442611316E+03  0.15442611316E+03  0.00000000000E+00 0. -1.
          2    1    1    2  502    0  0.15603271176E+01  0.21326757114E+02  0.65125457666E+01  0.22353488364E+02  0.00000000000E+00 0. -1.
         -2    1    1    2    0  502 -0.15603271176E+01 -0.21326757114E+02 -0.14572535589E+03  0.14728592783E+03  0.00000000000E+00 0. -1.
</event>
<event>
 4    1  0.6116490E+003  0.2601794E+02  0.7546771E-02  0.1457730E+00
          2   -1    0    0  501    0  0.00000000000E+00  0.00000000000E+00  0.13072761644E+04  0.13072761644E+04  0.00000000000E+00 0.  1.
         -2   -1    0    0    0  501 -0.00000000000E+00 -0.00000000000E+00 -0.11315471265E+02  0.11315471265E+02  0.00000000000E+00 0. -1.
          2    1    1    2  502    0  0.58701272387E+01 -0.25347087806E+02  0.12920141366E+04  0.12922760782E+04  0.00000000000E+00 0.  1.
         -2    1    1    2    0  502 -0.58701272387E+01  0.25347087806E+02  0.39465565490E+01  0.26315557426E+02  0.00000000000E+00 0. -1.
</event>
<event>
 4    1  0.6116490E+003  0.2054019E+02  0.7546771E-02  0.1525932E+00
          2   -1    0    0  501    0  0.00000000000E+00  0.00000000000E+00  0.73101706594E+03  0.73101706594E+03  0.00000000000E+00 0. -1.
         -2   -1    0    0    0  501 -0.00000000000E+00 -0.00000000000E+00 -0.38349162324E+01  0.38349162324E+01  0.00000000000E+00 0. -1.
          2    1    1    2  502    0 -0.10539663590E+02 -0.17629938013E+02  0.70224222549E+03  0.70254255564E+03  0.00000000000E+00 0. -1.
         -2    1    1    2    0  502  0.10539663590E+02  0.17629938013E+02  0.24939924218E+02  0.32309426533E+02  0.00000000000E+00 0. -1.
</event>
<event>
 4    1  0.6116490E+003  0.2694165E+02  0.7546771E-02  0.1448195E+00
          2   -1    0    0  501    0  0.00000000000E+00  0.00000000000E+00  0.20600664674E+03  0.20600664674E+03  0.00000000000E+00 0.  1.
         -2   -1    0    0    0  501 -0.00000000000E+00 -0.00000000000E+00 -0.34000425999E+02  0.34000425999E+02  0.00000000000E+00 0. -1.
          2    1    1    2  502    0  0.19344271970E+02  0.18752381446E+02  0.19961868044E+03  0.20142857357E+03  0.00000000000E+00 0.  1.
         -2    1    1    2    0  502 -0.19344271970E+02 -0.18752381446E+02 -0.27612459699E+02  0.38578499174E+02  0.00000000000E+00 0. -1.
</event>
<event>
 4    1  0.6116490E+003  0.3383348E+02  0.7546771E-02  0.1388955E+00
          2   -1    0    0  501    0  0.00000000000E+00  0.00000000000E+00  0.44023924538E+03  0.44023924538E+03  0.00000000000E+00 0. -1.
         -2   -1    0    0    0  501 -0.00000000000E+00 -0.00000000000E+00 -0.36175052078E+01  0.36175052078E+01  0.00000000000E+00 0.  1.
          2    1    1    2  502    0 -0.15929108819E+02  0.29849087846E+02  0.33600005844E+03  0.33769919133E+03  0.00000000000E+00 0. -1.
         -2    1    1    2    0  502  0.15929108819E+02 -0.29849087846E+02  0.10062168173E+03  0.10615755926E+03  0.00000000000E+00 0.  1.
</event>
<event>
 4    1  0.6116490E+003  0.2022394E+02  0.7546771E-02  0.1530640E+00
          2   -1    0    0  501    0  0.00000000000E+00  0.00000000000E+00  0.80054358955E+02  0.80054358955E+02  0.00000000000E+00 0. -1.
         -2   -1    0    0    0  501 -0.00000000000E+00 -0.00000000000E+00 -0.76643574211E+01  0.76643574211E+01  0.00000000000E+00 0. -1.
          2    1    1    2  502    0 -0.64895608520E+01 -0.19154457810E+02  0.61519430772E+02  0.64758381824E+02  0.00000000000E+00 0. -1.
         -2    1    1    2    0  502  0.64895608520E+01  0.19154457810E+02  0.10870570762E+02  0.22960334552E+02  0.00000000000E+00 0. -1.
</event>
<event>
 4    1  0.6116490E+003  0.2103729E+02  0.7546771E-02  0.1518733E+00
          2   -1    0    0  501    0  0.00000000000E+00  0.00000000000E+00  0.11356170229E+02  0.11356170229E+02  0.00000000000E+00 0. -1.
         -2   -1    0    0    0  501 -0.00000000000E+00 -0.00000000000E+00 -0.43850375531E+02  0.43850375531E+02  0.00000000000E+00 0. -1.
          2    1    1    2  502    0  0.11125271359E+02 -0.17854853061E+02 -0.70398085477E+01  0.22183920867E+02  0.00000000000E+00 0. -1.
         -2    1    1    2    0  502 -0.11125271359E+02  0.17854853061E+02 -0.25454396754E+02  0.33022624892E+02  0.00000000000E+00 0. -1.
</event>
<event>
 4    1  0.6116490E+003  0.2528663E+02  0.7546771E-02  0.1465622E+00
          2   -1    0    0  501    0  0.00000000000E+00  0.00000000000E+00  0.13393761496E+04  0.13393761496E+04  0.00000000000E+00 0.  1.
         -2   -1    0    0    0  501 -0.00000000000E+00 -0.00000000000E+00 -0.55162547417E+00  0.55162547417E+00  0.00000000000E+00 0. -1.
          2    1    1    2  502    0 -0.15297088500E+02  0.20134870043E+02  0.91517443834E+03  0.91552371160E+03  0.00000000000E+00 0.  1.
         -2    1    1    2    0  502  0.15297088500E+02 -0.20134870043E+02  0.42365008575E+03  0.42440406344E+03  0.00000000000E+00 0. -1.
</event>
<event>
 4    1  0.6116490E+003  0.2575571E+02  0.7546771E-02  0.1460524E+00
          2   -1    0    0  501    0  0.00000000000E+00  0.00000000000E+00  0.33297166080E+03  0.33297166080E+03  0.00000000000E+00 0.  1.
         -2   -1    0    0    0  501 -0.00000000000E+00 -0.00000000000E+00 -0.21549779771E+01  0.21549779771E+01  0.00000000000E+00 0.  1.
          2    1    1    2  502    0  0.25709760131E+02 -0.15378001896E+01  0.21145662838E+03  0.21301939414E+03  0.00000000000E+00 0.  1.
         -2    1    1    2    0  502 -0.25709760131E+02  0.15378001896E+01  0.11936005444E+03  0.12210724463E+03  0.00000000000E+00 0.  1.
</event>
<event>
 4    1  0.6116490E+003  0.2513170E+02  0.7546771E-02  0.1467335E+00
          2   -1    0    0  501    0  0.00000000000E+00  0.00000000000E+00  0.40000685339E+03  0.40000685339E+03  0.00000000000E+00 0. -1.
         -2   -1    0    0    0  501 -0.00000000000E+00 -0.00000000000E+00 -0.30849889130E+01  0.30849889130E+01  0.00000000000E+00 0.  1.
          2    1    1    2  502    0 -0.78774577468E+01 -0.23865204702E+02  0.33927989972E+03  0.34020942475E+03  0.00000000000E+00 0. -1.
         -2    1    1    2    0  502  0.78774577468E+01  0.23865204702E+02  0.57641964759E+02  0.62882417553E+02  0.00000000000E+00 0.  1.
</event>
<event>
 4    1  0.6116490E+003  0.2349508E+02  0.7546771E-02  0.1486373E+00
          2   -1    0    0  501    0  0.00000000000E+00  0.00000000000E+00  0.17916707209E+04  0.17916707209E+04  0.00000000000E+00 0.  1.
         -2   -1    0    0    0  501 -0.00000000000E+00 -0.00000000000E+00 -0.51900680707E+00  0.51900680707E+00  0.00000000000E+00 0.  1.
          2    1    1    2  502    0 -0.20730460336E+02 -0.11057435414E+02  0.14668042954E+04  0.14669924539E+04  0.00000000000E+00 0.  1.
         -2    1    1    2    0  502  0.20730460336E+02  0.11057435414E+02  0.32434741868E+03  0.32519727377E+03  0.00000000000E+00 0.  1.
</event>
<event>
 4    1  0.6116490E+003  0.9445604E+02  0.7546771E-02  0.1173777E+00
          2   -1    0    0  501    0  0.00000000000E+00  0.00000000000E+00  0.26556613103E+03  0.26556613103E+03  0.00000000000E+00 0.  1.
         -2   -1    0    0    0  501 -0.00000000000E+00 -0.00000000000E+00 -0.33726770986E+02  0.33726770986E+02  0.00000000000E+00 0. -1.
          2    1    1    2  502    0 -0.72894079335E+02  0.60069935542E+02  0.12524005497E+03  0.15686623387E+03  0.00000000000E+00 0.  1.
         -2    1    1    2    0  502  0.72894079335E+02 -0.60069935542E+02  0.10659930507E+03  0.14242666814E+03  0.00000000000E+00 0. -1.
</event>
<event>
 4    1  0.6116490E+003  0.2913473E+02  0.7546771E-02  0.1427268E+00
          2   -1    0    0  501    0  0.00000000000E+00  0.00000000000E+00  0.55550420851E+03  0.55550420851E+03  0.00000000000E+00 0. -1.
         -2   -1    0    0    0  501 -0.00000000000E+00 -0.00000000000E+00 -0.38821946226E+01  0.38821946226E+01  0.00000000000E+00 0.  1.
          2    1    1    2  502    0  0.61686307724E+01 -0.28474207485E+02  0.49361246156E+03  0.49447153073E+03  0.00000000000E+00 0. -1.
         -2    1    1    2    0  502 -0.61686307724E+01  0.28474207485E+02  0.58009552328E+02  0.64914872400E+02  0.00000000000E+00 0.  1.
</event>
<event>
 4    1  0.6116490E+003  0.2386064E+02  0.7546771E-02  0.1481965E+00
          2   -1    0    0  501    0  0.00000000000E+00  0.00000000000E+00  0.17667679314E+04  0.17667679314E+04  0.00000000000E+00 0. -1.
         -2   -1    0    0    0  501 -0.00000000000E+00 -0.00000000000E+00 -0.64708384395E+02  0.64708384395E+02  0.00000000000E+00 0.  1.
          2    1    1    2  502    0  0.18546068476E+02  0.15012450396E+02  0.17644849243E+04  0.17646462474E+04  0.00000000000E+00 0. -1.
         -2    1    1    2    0  502 -0.18546068476E+02 -0.15012450396E+02 -0.62425377259E+02  0.66830068448E+02  0.00000000000E+00 0.  1.
</event>
<event>
 4    1  0.6116490E+003  0.2788215E+02  0.7546771E-02  0.1438942E+00
          2   -1    0    0  501    0  0.00000000000E+00  0.00000000000E+00  0.18220782092E+03  0.18220782092E+03  0.00000000000E+00 0. -1.
         -2   -1    0    0    0  501 -0.00000000000E+00 -0.00000000000E+00 -0.11691496412E+03  0.11691496412E+03  0.00000000000E+00 0. -1.
          2    1    1    2  502    0 -0.26584556403E+02 -0.84068867686E+01  0.17945344926E+03  0.18160659359E+03  0.00000000000E+00 0. -1.
         -2    1    1    2    0  502  0.26584556403E+02  0.84068867686E+01 -0.11416059245E+03  0.11751619145E+03  0.00000000000E+00 0. -1.
</event>
<event>
 4    1  0.6116490E+003  0.5576110E+02  0.7546771E-02  0.1274957E+00
          2   -1    0    0  501    0  0.00000000000E+00  0.00000000000E+00  0.12359716710E+04  0.12359716710E+04  0.00000000000E+00 0. -1.
         -2   -1    0    0    0  501 -0.00000000000E+00 -0.00000000000E+00 -0.49054423195E+01  0.49054423195E+01  0.00000000000E+00 0.  1.
          2    1    1    2  502    0 -0.53899877338E+02  0.14286466507E+02  0.10485828035E+04  0.10500643770E+04  0.00000000000E+00 0. -1.
         -2    1    1    2    0  502  0.53899877338E+02 -0.14286466507E+02  0.18248342515E+03  0.19081273636E+03  0.00000000000E+00 0.  1.
</event>
<event>
 4    1  0.6116490E+003  0.2803446E+02  0.7546771E-02  0.1437485E+00
          2   -1    0    0  501    0  0.00000000000E+00  0.00000000000E+00  0.93446423437E+03  0.93446423437E+03  0.00000000000E+00 0.  1.
         -2   -1    0    0    0  501 -0.00000000000E+00 -0.00000000000E+00 -0.12667796095E+01  0.12667796095E+01  0.00000000000E+00 0. -1.
          2    1    1    2  502    0 -0.11410509516E+02  0.25607246097E+02  0.73782866449E+03  0.73836106948E+03  0.00000000000E+00 0.  1.
         -2    1    1    2    0  502  0.11410509516E+02 -0.25607246097E+02  0.19536879027E+03  0.19736994450E+03  0.00000000000E+00 0. -1.
</event>
<event>
 4    1  0.6116490E+003  0.2626090E+02  0.7546771E-02  0.1455177E+00
          2   -1    0    0  501    0  0.00000000000E+00  0.00000000000E+00  0.84129646447E+03  0.84129646447E+03  0.00000000000E+00 0. -1.
         -2   -1    0    0    0  501 -0.00000000000E+00 -0.00000000000E+00 -0.81982037473E+00  0.81982037473E+00  0.00000000000E+00 0. -1.
          2    1    1    2  502    0 -0.95845606220E-01  0.26260722026E+02  0.42469517031E+03  0.42550631299E+03  0.00000000000E+00 0. -1.
         -2    1    1    2    0  502  0.95845606220E-01 -0.26260722026E+02  0.41578147379E+03  0.41660997186E+03  0.00000000000E+00 0. -1.
</event>
<event>
 4    1  0.6116490E+003  0.2081882E+02  0.7546771E-02  0.1521867E+00
          2   -1    0    0  501    0  0.00000000000E+00  0.00000000000E+00  0.17779867483E+03  0.17779867483E+03  0.00000000000E+00 0.  1.
         -2   -1    0    0    0  501 -0.00000000000E+00 -0.00000000000E+00 -0.29337091195E+01  0.29337091195E+01  0.00000000000E+00 0.  1.
          2    1    1    2  502    0 -0.19984647513E+02 -0.58340890861E+01  0.50275953534E+02  0.54415937329E+02  0.00000000000E+00 0.  1.
         -2    1    1    2    0  502  0.19984647513E+02  0.58340890861E+01  0.12458901218E+03  0.12631644662E+03  0.00000000000E+00 0.  1.
</event>
<event>
 4    1  0.6116490E+003  0.2654675E+02  0.7546771E-02  0.1452215E+00
          2   -1    0    0  501    0  0.00000000000E+00  0.00000000000E+00  0.15046832398E+03  0.15046832398E+03  0.00000000000E+00 0.  1.
         -2   -1    0    0    0  501 -0.00000000000E+00 -0.00000000000E+00 -0.85747174691E+01  0.85747174691E+01  0.00000000000E+00 0.  1.
          2    1    1    2  502    0  0.25553247086E+02  0.71945379509E+01  0.12451577177E+03  0.12731420672E+03  0.00000000000E+00 0.  1.
         -2    1    1    2    0  502 -0.25553247086E+02 -0.71945379509E+01  0.17377834739E+02  0.31728834728E+02  0.00000000000E+00 0.  1.
</event>
<event>
 4    1  0.6116490E+003  0.2257748E+02  0.7546771E-02  0.1497873E+00
          2   -1    0    0  501    0  0.00000000000E+00  0.00000000000E+00  0.85657434056E+03  0.85657434056E+03  0.00000000000E+00 0. -1.
         -2   -1    0    0    0  501 -0.00000000000E+00 -0.00000000000E+00 -0.10713098170E+01  0.10713098170E+01  0.00000000000E+00 0. -1.
          2    1    1    2  502    0 -0.15485482731E+02  0.16429929749E+02  0.71365666943E+03  0.71401371456E+03  0.00000000000E+00 0. -1.
         -2    1    1    2    0  502  0.15485482731E+02 -0.16429929749E+02  0.14184636132E+03  0.14363193582E+03  0.00000000000E+00 0. -1.
</event>
<event>
 4    1  0.6116490E+003  0.3177625E+02  0.7546771E-02  0.1404764E+00
          2   -1    0    0  501    0  0.00000000000E+00  0.00000000000E+00  0.53509176686E+02  0.53509176686E+02  0.00000000000E+00 0. -1.
         -2   -1    0    0    0  501 -0.00000000000E+00 -0.00000000000E+00 -0.79715869463E+02  0.79715869463E+02  0.00000000000E+00 0.  1.
          2    1    1    2  502    0 -0.17376576726E+02 -0.26604220238E+02  0.45093339599E+02  0.55164655617E+02  0.00000000000E+00 0. -1.
         -2    1    1    2    0  502  0.17376576726E+02  0.26604220238E+02 -0.71300032376E+02  0.78060390532E+02  0.00000000000E+00 0.  1.
</event>
<event>
 4    1  0.6116490E+003  0.2046713E+02  0.7546771E-02  0.1527011E+00
          2   -1    0    0  501    0  0.00000000000E+00  0.00000000000E+00  0.17219317520E+03  0.17219317520E+03  0.00000000000E+00 0. -1.
         -2   -1    0    0    0  501 -0.00000000000E+00 -0.00000000000E+00 -0.71926979161E+01  0.71926979161E+01  0.00000000000E+00 0. -1.
          2    1    1    2  502    0  0.17451476111E+02 -0.10693435423E+02  0.15546501663E+03  0.15680648894E+03  0.00000000000E+00 0. -1.
         -2    1    1    2    0  502 -0.17451476111E+02  0.10693435423E+02  0.95354606526E+01  0.22579384169E+02  0.00000000000E+00 0. -1.
</event>
<event>
 4    1  0.6116490E+003  0.3699023E+02  0.7546771E-02  0.1367087E+00
          2   -1    0    0  501    0  0.00000000000E+00  0.00000000000E+00  0.52278509610E+03  0.52278509610E+03  0.00000000000E+00 0.  1.
         -2   -1    0    0    0  501 -0.00000000000E+00 -0.00000000000E+00 -0.28871468210E+02  0.28871468210E+02  0.00000000000E+00 0. -1.
          2    1    1    2  502    0  0.36085282699E+02  0.81320186971E+01  0.50998580513E+03  0.51132553113E+03  0.00000000000E+00 0.  1.
         -2    1    1    2    0  502 -0.36085282699E+02 -0.81320186971E+01 -0.16072177243E+02  0.40331033174E+02  0.00000000000E+00 0. -1.
</event>
<event>
 4    1  0.6116490E+003  0.3045242E+02  0.7546771E-02  0.1415705E+00
          2   -1    0    0  501    0  0.00000000000E+00  0.00000000000E+00  0.11607254400E+04  0.11607254400E+04  0.00000000000E+00 0.  1.
         -2   -1    0    0    0  501 -0.00000000000E+00 -0.00000000000E+00 -0.16329521607E+01  0.16329521607E+01  0.00000000000E+00 0. -1.
          2    1    1    2  502    0  0.30438215252E+02 -0.93000779377E+00  0.99489178034E+03  0.99535772688E+03  0.00000000000E+00 0.  1.
         -2    1    1    2    0  502 -0.30438215252E+02  0.93000779377E+00  0.16420070746E+03  0.16700066524E+03  0.00000000000E+00 0. -1.
</event>
<event>
 4    1  0.6116490E+003  0.2068866E+02  0.7546771E-02  0.1523757E+00
          2   -1    0    0  501    0  0.00000000000E+00  0.00000000000E+00  0.24470432432E+03  0.24470432432E+03  0.00000000000E+00 0.  1.
         -2   -1    0    0    0  501 -0.00000000000E+00 -0.00000000000E+00 -0.53480111112E+01  0.53480111112E+01  0.00000000000E+00 0. -1.
          2    1    1    2  502    0 -0.18533959759E+02 -0.91930843400E+01  0.22224059190E+03  0.22320148107E+03  0.00000000000E+00 0.  1.
         -2    1    1    2    0  502  0.18533959759E+02  0.91930843400E+01  0.17115721311E+02  0.26850854363E+02  0.00000000000E+00 0. -1.
</event>
<event>
 4    1  0.6116490E+003  0.2096549E+02  0.7546771E-02  0.1519758E+00
          2   -1    0    0  501    0  0.00000000000E+00  0.00000000000E+00  0.34051733310E+03  0.34051733310E+03  0.00000000000E+00 0. -1.
         -2   -1    0    0    0  501 -0.00000000000E+00 -0.00000000000E+00 -0.34866735517E+01  0.34866735517E+01  0.00000000000E+00 0.  1.
          2    1    1    2  502    0  0.68089528777E+00 -0.20954432507E+02  0.30501387268E+03  0.30573356765E+03  0.00000000000E+00 0. -1.
         -2    1    1    2    0  502 -0.68089528777E+00  0.20954432507E+02  0.32016786869E+02  0.38270439004E+02  0.00000000000E+00 0.  1.
</event>
<event>
 4    1  0.6116490E+003  0.2074760E+02  0.7546771E-02  0.1522899E+00
          2   -1    0    0  501    0  0.00000000000E+00  0.00000000000E+00  0.12418007690E+02  0.12418007690E+02  0.00000000000E+00 0. -1.
         -2   -1    0    0    0  501 -0.00000000000E+00 -0.00000000000E+00 -0.14049018704E+03  0.14049018704E+03  0.00000000000E+00 0. -1.
          2    1    1    2  502    0 -0.12143623741E+02  0.16822467338E+02  0.23188849258E+01  0.20876786922E+02  0.00000000000E+00 0. -1.
         -2    1    1    2    0  502  0.12143623741E+02 -0.16822467338E+02 -0.13039106428E+03  0.13203140781E+03  0.00000000000E+00 0. -1.
</event>
<event>
 4    1  0.6116490E+003  0.2103075E+02  0.7546771E-02  0.1518826E+00
          2   -1    0    0  501    0  0.00000000000E+00  0.00000000000E+00  0.14399898976E+04  0.14399898976E+04  0.00000000000E+00 0. -1.
         -2   -1    0    0    0  501 -0.00000000000E+00 -0.00000000000E+00 -0.83101981408E+01  0.83101981408E+01  0.00000000000E+00 0. -1.
          2    1    1    2  502    0 -0.13772635794E+02  0.15893618087E+02  0.14264813971E+04  0.14266364178E+04  0.00000000000E+00 0. -1.
         -2    1    1    2    0  502  0.13772635794E+02 -0.15893618087E+02  0.51983024270E+01  0.21663677913E+02  0.00000000000E+00 0. -1.
</event>
<event>
 4    1  0.6116490E+003  0.4225299E+02  0.7546771E-02  0.1335766E+00
          2   -1    0    0  501    0  0.00000000000E+00  0.00000000000E+00  0.15640269806E+04  0.15640269806E+04  0.00000000000E+00 0. -1.
         -2   -1    0    0    0  501 -0.00000000000E+00 -0.00000000000E+00 -0.28146952583E+01  0.28146952583E+01  0.00000000000E+00 0. -1.
          2    1    1    2  502    0  0.17075142317E+02 -0.38649122686E+02  0.13846306163E+04  0.13852751564E+04  0.00000000000E+00 0. -1.
         -2    1    1    2    0  502 -0.17075142317E+02  0.38649122686E+02  0.17658166905E+03  0.18156651953E+03  0.00000000000E+00 0. -1.
</event>
<event>
 4    1  0.6116490E+003  0.2447129E+02  0.7546771E-02  0.1474806E+00
          2   -1    0    0  501    0  0.00000000000E+00  0.00000000000E+00  0.71758898269E+03  0.71758898269E+03  0.00000000000E+00 0.  1.
         -2   -1    0    0    0  501 -0.00000000000E+00 -0.00000000000E+00 -0.57622566899E+01  0.57622566899E+01  0.00000000000E+00 0.  1.
          2    1    1    2  502    0 -0.17710472492E+02  0.16887367233E+02  0.69037520658E+03  0.69080877952E+03  0.00000000000E+00 0.  1.
         -2    1    1    2    0  502  0.17710472492E+02 -0.16887367233E+02  0.21451519419E+02  0.32542459854E+02  0.00000000000E+00 0.  1.
</event>
<event>
 4    1  0.6116490E+003  0.2364101E+02  0.7546771E-02  0.1484602E+00
          2   -1    0    0  501    0  0.00000000000E+00  0.00000000000E+00  0.25841801062E+03  0.25841801062E+03  0.00000000000E+00 0. -1.
         -2   -1    0    0    0  501 -0.00000000000E+00 -0.00000000000E+00 -0.14918516764E+02  0.14918516764E+02  0.00000000000E+00 0. -1.
          2    1    1    2  502    0 -0.14861711457E+02  0.18385504162E+02  0.24812379468E+03  0.24924749691E+03  0.00000000000E+00 0. -1.
         -2    1    1    2    0  502  0.14861711457E+02 -0.18385504162E+02 -0.46243008275E+01  0.24089030468E+02  0.00000000000E+00 0. -1.
</event>
<event>
 4    1  0.6116490E+003  0.2842985E+02  0.7546771E-02  0.1433751E+00
          2   -1    0    0  501    0  0.00000000000E+00  0.00000000000E+00  0.22985682301E+03  0.22985682301E+03  0.00000000000E+00 0. -1.
         -2   -1    0    0    0  501 -0.00000000000E+00 -0.00000000000E+00 -0.53954803244E+01  0.53954803244E+01  0.00000000000E+00 0.  1.
          2    1    1    2  502    0  0.32943014629E+01 -0.28238337077E+02  0.18164797705E+03  0.18385930401E+03  0.00000000000E+00 0. -1.
         -2    1    1    2    0  502 -0.32943014629E+01  0.28238337077E+02  0.42813365635E+02  0.51392999329E+02  0.00000000000E+00 0.  1.
</event>
<event>
 4    1  0.6116490E+003  0.2620896E+02  0.7546771E-02  0.1455720E+00
          2   -1    0    0  501    0  0.00000000000E+00  0.00000000000E+00  0.56048463540E+02  0.56048463540E+02  0.00000000000E+00 0. -1.
         -2   -1    0    0    0  501 -0.00000000000E+00 -0.00000000000E+00 -0.33800755748E+02  0.33800755748E+02  0.00000000000E+00 0.  1.
          2    1    1    2  502    0 -0.83054264154E+01  0.24858184641E+02  0.46990897748E+02  0.53805705299E+02  0.00000000000E+00 0. -1.
         -2    1    1    2    0  502  0.83054264154E+01 -0.24858184641E+02 -0.24743189955E+02  0.36043513990E+02  0.00000000000E+00 0.  1.
</event>
<event>
 4    1  0.6116490E+003  0.2040500E+02  0.7546771E-02  0.1527932E+00
          2   -1    0    0  501    0  0.00000000000E+00  0.00000000000E+00  0.66279401243E+03  0.66279401243E+03  0.00000000000E+00 0.  1.
         -2   -1    0    0    0  501 -0.00000000000E+00 -0.00000000000E+00 -0.20363012522E+01  0.20363012522E+01  0.00000000000E+00 0. -1.
          2    1    1    2  502    0  0.13425045973E+02  0.15366595598E+02  0.60680394725E+03  0.60714692993E+03  0.00000000000E+00 0.  1.
         -2    1    1    2    0  502 -0.13425045973E+02 -0.15366595598E+02  0.53953763926E+02  0.57683383755E+02  0.00000000000E+00 0. -1.
</event>
<event>
 4    1  0.6116490E+003  0.2211237E+02  0.7546771E-02  0.1503955E+00
          2   -1    0    0  501    0  0.00000000000E+00  0.00000000000E+00  0.19380474041E+03  0.19380474041E+03  0.00000000000E+00 0.  1.
         -2   -1    0    0    0  501 -0.00000000000E+00 -0.00000000000E+00 -0.34188452975E+01  0.34188452975E+01  0.00000000000E+00 0.  1.
          2    1    1    2  502    0  0.35856317206E+01 -0.21819715237E+02  0.14567319067E+03  0.14734189903E+03  0.00000000000E+00 0.  1.
         -2    1    1    2    0  502 -0.35856317206E+01  0.21819715237E+02  0.44712704437E+02  0.49881686679E+02  0.00000000000E+00 0.  1.
</event>
<event>
 4    1  0.6116490E+003  0.2373074E+02  0.7546771E-02  0.1483520E+00
          2   -1    0    0  501    0  0.00000000000E+00  0.00000000000E+00  0.53062704654E+02  0.53062704654E+02  0.00000000000E+00 0. -1.
         -2   -1    0    0    0  501 -0.00000000000E+00 -0.00000000000E+00 -0.15640068256E+02  0.15640068256E+02  0.00000000000E+00 0.  1.
          2    1    1    2  502    0 -0.23173871601E+02 -0.51107635754E+01  0.38186765057E+02  0.44959729257E+02  0.00000000000E+00 0. -1.
         -2    1    1    2    0  502  0.23173871601E+02  0.51107635754E+01 -0.76412865940E+00  0.23743043653E+02  0.00000000000E+00 0.  1.
</event>
<event>
 4    1  0.6116490E+003  0.2872602E+02  0.7546771E-02  0.1431000E+00
          2   -1    0    0  501    0  0.00000000000E+00  0.00000000000E+00  0.54527175918E+03  0.54527175918E+03  0.00000000000E+00 0.  1.
         -2   -1    0    0    0  501 -0.00000000000E+00 -0.00000000000E+00 -0.92854895047E+01  0.92854895047E+01  0.00000000000E+00 0.  1.
          2    1    1    2  502    0 -0.45398694448E+00 -0.28722429177E+02  0.52167208695E+03  0.52246239133E+03  0.00000000000E+00 0.  1.
         -2    1    1    2    0  502  0.45398694448E+00  0.28722429177E+02  0.14314182722E+02  0.32094857360E+02  0.00000000000E+00 0.  1.
</event>
<event>
 4    1  0.6116490E+003  0.2499473E+02  0.7546771E-02  0.1468862E+00
          2   -1    0    0  501    0  0.00000000000E+00  0.00000000000E+00  0.15643146792E+02  0.15643146792E+02  0.00000000000E+00 0.  1.
         -2   -1    0    0    0  501 -0.00000000000E+00 -0.00000000000E+00 -0.54001414678E+02  0.54001414678E+02  0.00000000000E+00 0. -1.
          2    1    1    2  502    0  0.21994118527E+02 -0.11874149330E+02 -0.14078376144E+01  0.25034349979E+02  0.00000000000E+00 0.  1.
         -2    1    1    2    0  502 -0.21994118527E+02  0.11874149330E+02 -0.36950430271E+02  0.44610211491E+02  0.00000000000E+00 0. -1.
</event>
<event>
 4    1  0.6116490E+003  0.3724605E+02  0.7546771E-02  0.1365426E+00
          2   -1    0    0  501    0  0.00000000000E+00  0.00000000000E+00  0.67559442505E+02  0.67559442505E+02  0.00000000000E+00 0. -1.
         -2   -1    0    0    0  501 -0.00000000000E+00 -0.00000000000E+00 -0.37589482623E+02  0.37589482623E+02  0.00000000000E+00 0. -1.
          2    1    1    2  502    0 -0.35441185247E+02  0.11453846237E+02  0.50398833083E+02  0.62668258165E+02  0.00000000000E+00 0. -1.
         -2    1    1    2    0  502  0.35441185247E+02 -0.11453846237E+02 -0.20428873201E+02  0.42480666963E+02  0.00000000000E+00 0. -1.
</event>
<event>
 4    1  0.6116490E+003  0.3050057E+02  0.7546771E-02  0.1415295E+00
          2   -1    0    0  501    0  0.00000000000E+00  0.00000000000E+00  0.16394053986E+04  0.16394053986E+04  0.00000000000E+00 0. -1.
         -2   -1    0    0    0  501 -0.00000000000E+00 -0.00000000000E+00 -0.18475505285E+02  0.18475505285E+02  0.00000000000E+00 0. -1.
          2    1    1    2  502    0 -0.23104301128E+02  0.19911709087E+02  0.16265761742E+04  0.16268621132E+04  0.00000000000E+00 0. -1.
         -2    1    1    2    0  502  0.23104301128E+02 -0.19911709087E+02 -0.56462808619E+01  0.31018790708E+02  0.00000000000E+00 0. -1.
</event>
<event>
 4    1  0.6116490E+003  0.2468340E+02  0.7546771E-02  0.1472376E+00
          2   -1    0    0  501    0  0.00000000000E+00  0.00000000000E+00  0.11377781031E+04  0.11377781031E+04  0.00000000000E+00 0. -1.
         -2   -1    0    0    0  501 -0.00000000000E+00 -0.00000000000E+00 -0.50085553333E+02  0.50085553333E+02  0.00000000000E+00 0. -1.
          2    1    1    2  502    0 -0.20793260360E+02 -0.13300774232E+02  0.11345945504E+04  0.11348630155E+04  0.00000000000E+00 0. -1.
         -2    1    1    2    0  502  0.20793260360E+02  0.13300774232E+02 -0.46902000627E+02  0.53000640887E+02  0.00000000000E+00 0. -1.
</event>
<event>
 4    1  0.6116490E+003  0.4179326E+02  0.7546771E-02  0.1338286E+00
          2   -1    0    0  501    0  0.00000000000E+00  0.00000000000E+00  0.21156689731E+02  0.21156689731E+02  0.00000000000E+00 0. -1.
         -2   -1    0    0    0  501 -0.00000000000E+00 -0.00000000000E+00 -0.11958198587E+03  0.11958198587E+03  0.00000000000E+00 0. -1.
          2    1    1    2  502    0  0.11249154094E+02 -0.40250852920E+02 -0.88367577720E+02  0.97752255323E+02  0.00000000000E+00 0. -1.
         -2    1    1    2    0  502 -0.11249154094E+02  0.40250852920E+02 -0.10057718420E+02  0.42986420279E+02  0.00000000000E+00 0. -1.
</event>
<event>
 4    1  0.6116490E+003  0.2009305E+02  0.7546771E-02  0.1532618E+00
          2   -1    0    0  501    0  0.00000000000E+00  0.00000000000E+00  0.21965209757E+03  0.21965209757E+03  0.00000000000E+00 0. -1.
         -2   -1    0    0    0  501 -0.00000000000E+00 -0.00000000000E+00 -0.72082558909E+02  0.72082558909E+02  0.00000000000E+00 0.  1.
          2    1    1    2  502    0  0.20057317977E+02 -0.11976992129E+01  0.21778034077E+03  0.21870529786E+03  0.00000000000E+00 0. -1.
         -2    1    1    2    0  502 -0.20057317977E+02  0.11976992129E+01 -0.70210802106E+02  0.73029358619E+02  0.00000000000E+00 0.  1.
</event>
<event>
 4    1  0.6116490E+003  0.2300817E+02  0.7546771E-02  0.1492396E+00
          2   -1    0    0  501    0  0.00000000000E+00  0.00000000000E+00  0.32885071802E+02  0.32885071802E+02  0.00000000000E+00 0.  1.
         -2   -1    0    0    0  501 -0.00000000000E+00 -0.00000000000E+00 -0.27490582263E+02  0.27490582263E+02  0.00000000000E+00 0.  1.
          2    1    1    2  502    0 -0.21133768920E+02  0.90961429973E+01  0.22130946701E+02  0.31924204110E+02  0.00000000000E+00 0.  1.
         -2    1    1    2    0  502  0.21133768920E+02 -0.90961429973E+01 -0.16736457162E+02  0.28451449954E+02  0.00000000000E+00 0.  1.
</event>
<event>
 4    1  0.6116490E+003  0.2835926E+02  0.7546771E-02  0.1434412E+00
          2   -1    0    0  501    0  0.00000000000E+00  0.00000000000E+00  0.10594017143E+03  0.10594017143E+03  0.00000000000E+00 0.  1.
         -2   -1    0    0    0  501 -0.00000000000E+00 -0.00000000000E+00 -0.13927192744E+03  0.13927192744E+03  0.00000000000E+00 0.  1.
          2    1    1    2  502    0 -0.21387071634E+02  0.18623655469E+02  0.10255180577E+03  0.10640075302E+03  0.00000000000E+00 0.  1.
         -2    1    1    2    0  502  0.21387071634E+02 -0.18623655469E+02 -0.13588356178E+03  0.13881134585E+03  0.00000000000E+00 0.  1.
</event>
<event>
 4    1  0.6116490E+003  0.2087760E+02  0.7546771E-02  0.1521020E+00
          2   -1    0    0  501    0  0.00000000000E+00  0.00000000000E+00  0.15263076888E+04  0.15263076888E+04  0.00000000000E+00 0.  1.
         -2   -1    0    0    0  501 -0.00000000000E+00 -0.00000000000E+00 -0.62423131991E+02  0.62423131991E+02  0.00000000000E+00 0.  1.
          2    1    1    2  502    0 -0.20869774473E+02 -0.57163365082E+00  0.15244885684E+04  0.15246315192E+04  0.00000000000E+00 0.  1.
         -2    1    1    2    0  502  0.20869774473E+02  0.57163365082E+00 -0.60604011543E+02  0.64099301608E+02  0.00000000000E+00 0.  1.
</event>
<event>
 4    1  0.6116490E+003  0.2117157E+02  0.7546771E-02  0.1516829E+00
          2   -1    0    0  501    0  0.00000000000E+00  0.00000000000E+00  0.73909449571E+03  0.73909449571E+03  0.00000000000E+00 0. -1.
         -2   -1    0    0    0  501 -0.00000000000E+00 -0.00000000000E+00 -0.36339688340E+01  0.36339688340E+01  0.00000000000E+00 0. -1.
          2    1    1    2  502    0 -0.12975694396E+02 -0.16729223793E+02  0.70669284853E+03  0.70700991347E+03  0.00000000000E+00 0. -1.
         -2    1    1    2    0  502  0.12975694396E+02  0.16729223793E+02  0.28767678344E+02  0.35718551077E+02  0.00000000000E+00 0. -1.
</event>
<event>
 4    1  0.6116490E+003  0.2438843E+02  0.7546771E-02  0.1475763E+00
          2   -1    0    0  501    0  0.00000000000E+00  0.00000000000E+00  0.62718156133E+01  0.62718156133E+01  0.00000000000E+00 0.  1.
         -2   -1    0    0    0  501 -0.00000000000E+00 -0.00000000000E+00 -0.22137965572E+03  0.22137965572E+03  0.00000000000E+00 0.  1.
          2    1    1    2  502    0 -0.23815104401E+02  0.52570163606E+01 -0.21495892799E+02  0.32509519004E+02  0.00000000000E+00 0.  1.
         -2    1    1    2    0  502  0.23815104401E+02 -0.52570163606E+01 -0.19361194731E+03  0.19514195233E+03  0.00000000000E+00 0.  1.
</event>
<event>
 4    1  0.6116490E+003  0.2611914E+02  0.7546771E-02  0.1456663E+00
          2   -1    0    0  501    0  0.00000000000E+00  0.00000000000E+00  0.51245581523E+03  0.51245581523E+03  0.00000000000E+00 0. -1.
         -2   -1    0    0    0  501 -0.00000000000E+00 -0.00000000000E+00 -0.22920769317E+01  0.22920769317E+01  0.00000000000E+00 0.  1.
          2    1    1    2  502    0 -0.25753661280E+02 -0.43541224595E+01  0.42171885532E+03  0.42252692504E+03  0.00000000000E+00 0. -1.
         -2    1    1    2    0  502  0.25753661280E+02  0.43541224595E+01  0.88444882980E+02  0.92220967122E+02  0.00000000000E+00 0.  1.
</event>
<event>
 4    1  0.6116490E+003  0.3489088E+02  0.7546771E-02  0.1381332E+00
          2   -1    0    0  501    0  0.00000000000E+00  0.00000000000E+00  0.18678267954E+03  0.18678267954E+03  0.00000000000E+00 0. -1.
         -2   -1    0    0    0  501 -0.00000000000E+00 -0.00000000000E+00 -0.38757450217E+02  0.38757450217E+02  0.00000000000E+00 0.  1.
          2    1    1    2  502    0 -0.72692005923E+01 -0.34125241280E+02  0.17686462632E+03  0.18027331864E+03  0.00000000000E+00 0. -1.
         -2    1    1    2    0  502  0.72692005923E+01  0.34125241280E+02 -0.28839396998E+02  0.45266811119E+02  0.00000000000E+00 0.  1.
</event>
<event>
 4    1  0.6116490E+003  0.4251308E+02  0.7546771E-02  0.1334357E+00
          2   -1    0    0  501    0  0.00000000000E+00  0.00000000000E+00  0.19223083221E+04  0.19223083221E+04  0.00000000000E+00 0.  1.
         -2   -1    0    0    0  501 -0.00000000000E+00 -0.00000000000E+00 -0.93745743291E+01  0.93745743291E+01  0.00000000000E+00 0. -1.
          2    1    1    2  502    0 -0.27115354081E+02  0.32743235258E+02  0.18725953751E+04  0.18730778950E+04  0.00000000000E+00 0.  1.
         -2    1    1    2    0  502  0.27115354081E+02 -0.32743235258E+02  0.40338372645E+02  0.58605001405E+02  0.00000000000E+00 0. -1.
</event>
<event>
 4    1  0.6116490E+003  0.2556650E+02  0.7546771E-02  0.1462565E+00
          2   -1    0    0  501    0  0.00000000000E+00  0.00000000000E+00  0.49385345552E+01  0.49385345552E+01  0.00000000000E+00 0.  1.
         -2   -1    0    0    0  501 -0.00000000000E+00 -0.00000000000E+00 -0.31730702117E+03  0.31730702117E+03  0.00000000000E+00 0.  1.
          2    1    1    2  502    0  0.37160067131E+01 -0.25295003975E+02 -0.33172897817E+02  0.41881822806E+02  0.00000000000E+00 0.  1.
         -2    1    1    2    0  502 -0.37160067131E+01  0.25295003975E+02 -0.27919558879E+03  0.28036373291E+03  0.00000000000E+00 0.  1.
</event>
<event>
 4    1  0.6116490E+003  0.2065334E+02  0.7546771E-02  0.1524272E+00
          2   -1    0    0  501    0  0.00000000000E+00  0.00000000000E+00  0.60544729993E+01  0.60544729993E+01  0.00000000000E+00 0. -1.
         -2   -1    0    0    0  501 -0.00000000000E+00 -0.00000000000E+00 -0.97854599713E+02  0.97854599713E+02  0.00000000000E+00 0. -1.
          2    1    1    2  502    0  0.10376436841E+02 -0.17857492460E+02 -0.18407535844E+02  0.27665824664E+02  0.00000000000E+00 0. -1.
         -2    1    1    2    0  502 -0.10376436841E+02  0.17857492460E+02 -0.73392590870E+02  0.76243248049E+02  0.00000000000E+00 0. -1.
</event>
<event>
 4    1  0.6116490E+003  0.3932414E+02  0.7546771E-02  0.1352492E+00
          2   -1    0    0  501    0  0.00000000000E+00  0.00000000000E+00  0.28467899518E+02  0.28467899518E+02  0.00000000000E+00 0. -1.
         -2   -1    0    0    0  501 -0.00000000000E+00 -0.00000000000E+00 -0.24416874771E+03  0.24416874771E+03  0.00000000000E+00 0.  1.
          2    1    1    2  502    0 -0.21033360417E+02 -0.33226283786E+02  0.12351823876E+02  0.41218390770E+02  0.00000000000E+00 0. -1.
         -2    1    1    2    0  502  0.21033360417E+02  0.33226283786E+02 -0.22805267207E+03  0.23141825646E+03  0.00000000000E+00 0.  1.
</event>
<event>
 4    1  0.6116490E+003  0.2972291E+02  0.7546771E-02  0.1422020E+00
          2   -1    0    0  501    0  0.00000000000E+00  0.00000000000E+00  0.42196605713E+02  0.42196605713E+02  0.00000000000E+00 0. -1.
         -2   -1    0    0    0  501 -0.00000000000E+00 -0.00000000000E+00 -0.15107129072E+03  0.15107129072E+03  0.00000000000E+00 0. -1.
          2    1    1    2  502    0  0.29673411448E+02 -0.17146246131E+01  0.35250872809E+02  0.46109384276E+02  0.00000000000E+00 0. -1.
         -2    1    1    2    0  502 -0.29673411448E+02  0.17146246131E+01 -0.14412555781E+03  0.14715851216E+03  0.00000000000E+00 0. -1.
</event>
<event>
 4    1  0.6116490E+003  0.2158077E+02  0.7546771E-02  0.1511132E+00
          2   -1    0    0  501    0  0.00000000000E+00  0.00000000000E+00  0.41274748846E+02  0.41274748846E+02  0.00000000000E+00 0. -1.
         -2   -1    0    0    0  501 -0.00000000000E+00 -0.00000000000E+00 -0.63744265344E+02  0.63744265344E+02  0.00000000000E+00 0.  1.
          2    1    1    2  502    0  0.12434134772E+02 -0.17638648518E+02  0.36401110592E+02  0.42317496161E+02  0.00000000000E+00 0. -1.
         -2    1    1    2    0  502 -0.12434134772E+02  0.17638648518E+02 -0.58870627091E+02  0.62701518029E+02  0.00000000000E+00 0.  1.
</event>
<event>
 4    1  0.6116490E+003  0.6731980E+02  0.7546771E-02  0.1236804E+00
          2   -1    0    0  501    0  0.00000000000E+00  0.00000000000E+00  0.15016053542E+04  0.15016053542E+04  0.00000000000E+00 0. -1.
         -2   -1    0    0    0  501 -0.00000000000E+00 -0.00000000000E+00 -0.35229369259E+01  0.35229369259E+01  0.00000000000E+00 0. -1.
          2    1    1    2  502    0 -0.31777977927E+01 -0.67244752311E+02  0.10339317996E+04  0.10361210939E+04  0.00000000000E+00 0. -1.
         -2    1    1    2    0  502  0.31777977927E+01  0.67244752311E+02  0.46415061771E+03  0.46900719721E+03  0.00000000000E+00 0. -1.
</event>
<event>
 4    1  0.6116490E+003  0.2497051E+02  0.7546771E-02  0.1469134E+00
          2   -1    0    0  501    0  0.00000000000E+00  0.00000000000E+00  0.58897903751E+03  0.58897903751E+03  0.00000000000E+00 0. -1.
         -2   -1    0    0    0  501 -0.00000000000E+00 -0.00000000000E+00 -0.11302130660E+02  0.11302130660E+02  0.00000000000E+00 0.  1.
          2    1    1    2  502    0 -0.19358014245E+02  0.15773193462E+02  0.57457658766E+03  0.57511892808E+03  0.00000000000E+00 0. -1.
         -2    1    1    2    0  502  0.19358014245E+02 -0.15773193462E+02  0.31003191928E+01  0.25162240094E+02  0.00000000000E+00 0.  1.
</event>
<event>
 4    1  0.6116490E+003  0.2211597E+02  0.7546771E-02  0.1503908E+00
          2   -1    0    0  501    0  0.00000000000E+00  0.00000000000E+00  0.88236725590E+03  0.88236725590E+03  0.00000000000E+00 0.  1.
         -2   -1    0    0    0  501 -0.00000000000E+00 -0.00000000000E+00 -0.87686983579E+00  0.87686983579E+00  0.00000000000E+00 0.  1.
          2    1    1    2  502    0  0.91343852934E+01 -0.20141475715E+02  0.70858795481E+03  0.70893300512E+03  0.00000000000E+00 0.  1.
         -2    1    1    2    0  502 -0.91343852934E+01  0.20141475715E+02  0.17290243125E+03  0.17431112061E+03  0.00000000000E+00 0.  1.
</event>
<event>
 4    1  0.6116490E+003  0.2155795E+02  0.7546771E-02  0.1511446E+00
          2   -1    0    0  501    0  0.00000000000E+00  0.00000000000E+00  0.21431732684E+02  0.21431732684E+02  0.00000000000E+00 0.  1.
         -2   -1    0    0    0  501 -0.00000000000E+00 -0.00000000000E+00 -0.48634421971E+02  0.48634421971E+02  0.00000000000E+00 0. -1.
          2    1    1    2  502    0 -0.21557906153E+02 -0.42245953077E-01  0.12477112585E+02  0.24908300642E+02  0.00000000000E+00 0.  1.
         -2    1    1    2    0  502  0.21557906153E+02  0.42245953077E-01 -0.39679801872E+02  0.45157854012E+02  0.00000000000E+00 0. -1.
</event>
<event>
 4    1  0.6116490E+003  0.2270846E+02  0.7546771E-02  0.1496192E+00
          2   -1    0    0  501    0  0.00000000000E+00  0.00000000000E+00  0.55841813188E+03  0.55841813188E+03  0.00000000000E+00 0.  1.
         -2   -1    0    0    0  501 -0.00000000000E+00 -0.00000000000E+00 -0.93715112510E+00  0.93715112510E+00  0.00000000000E+00 0.  1.
          2    1    1    2  502    0 -0.22147077954E+02  0.50180213530E+01  0.24492905605E+03  0.24597950341E+03  0.00000000000E+00 0.  1.
         -2    1    1    2    0  502  0.22147077954E+02 -0.50180213530E+01  0.31255192470E+03  0.31337577959E+03  0.00000000000E+00 0.  1.
</event>
<event>
 4    1  0.6116490E+003  0.2057151E+02  0.7546771E-02  0.1525471E+00
          2   -1    0    0  501    0  0.00000000000E+00  0.00000000000E+00  0.72472675906E+03  0.72472675906E+03  0.00000000000E+00 0. -1.
         -2   -1    0    0    0  501 -0.00000000000E+00 -0.00000000000E+00 -0.16393429569E+02  0.16393429569E+02  0.00000000000E+00 0.  1.
          2    1    1    2  502    0  0.20370590488E+02 -0.28681387643E+01  0.71806732868E+03  0.71836193920E+03  0.00000000000E+00 0. -1.
         -2    1    1    2    0  502 -0.20370590488E+02  0.28681387643E+01 -0.97339991883E+01  0.22758249428E+02  0.00000000000E+00 0.  1.
</event>
<event>
 4    1  0.6116490E+003  0.2549285E+02  0.7546771E-02  0.1463365E+00
          2   -1    0    0  501    0  0.00000000000E+00  0.00000000000E+00  0.10150324683E+01  0.10150324683E+01  0.00000000000E+00 0. -1.
         -2   -1    0    0    0  501 -0.00000000000E+00 -0.00000000000E+00 -0.65328057384E+03  0.65328057384E+03  0.00000000000E+00 0. -1.
          2    1    1    2  502    0  0.82550591292E+01 -0.24119271301E+02 -0.27994787370E+03  0.28110620278E+03  0.00000000000E+00 0. -1.
         -2    1    1    2    0  502 -0.82550591292E+01  0.24119271301E+02 -0.37231766768E+03  0.37318940354E+03  0.00000000000E+00 0. -1.
</event>
<event>
 4    1  0.6116490E+003  0.2635244E+02  0.7546771E-02  0.1454224E+00
          2   -1    0    0  501    0  0.00000000000E+00  0.00000000000E+00  0.11227200713E+04  0.11227200713E+04  0.00000000000E+00 0. -1.
         -2   -1    0    0    0  501 -0.00000000000E+00 -0.00000000000E+00 -0.61877530274E+00  0.61877530274E+00  0.00000000000E+00 0. -1.
          2    1    1    2  502    0  0.18864558196E+02  0.18400525113E+02  0.57192847477E+03  0.57253526628E+03  0.00000000000E+00 0. -1.
         -2    1    1    2    0  502 -0.18864558196E+02 -0.18400525113E+02  0.55017282123E+03  0.55080358033E+03  0.00000000000E+00 0. -1.
</event>
<event>
 4    1  0.6116490E+003  0.2018216E+02  0.7546771E-02  0.1531269E+00
          2   -1    0    0  501    0  0.00000000000E+00  0.00000000000E+00  0.25765254234E+03  0.25765254234E+03  0.00000000000E+00 0. -1.
         -2   -1    0    0    0  501 -0.00000000000E+00 -0.00000000000E+00 -0.14431804897E+02  0.14431804897E+02  0.00000000000E+00 0. -1.
          2    1    1    2  502    0  0.69985528354E+01  0.18929862854E+02  0.24998532809E+03  0.25079869160E+03  0.00000000000E+00 0. -1.
         -2    1    1    2    0  502 -0.69985528354E+01 -0.18929862854E+02 -0.67645906417E+01  0.21285655640E+02  0.00000000000E+00 0. -1.
</event>
<event>
 4    1  0.6116490E+003  0.2359803E+02  0.7546771E-02  0.1485122E+00
          2   -1    0    0  501    0  0.00000000000E+00  0.00000000000E+00  0.16106336615E+04  0.16106336615E+04  0.00000000000E+00 0.  1.
         -2   -1    0    0    0  501 -0.00000000000E+00 -0.00000000000E+00 -0.21750414023E+01  0.21750414023E+01  0.00000000000E+00 0.  1.
          2    1    1    2  502    0  0.86969246835E+01  0.21936966006E+02  0.15437686026E+04  0.15439489517E+04  0.00000000000E+00 0.  1.
         -2    1    1    2    0  502 -0.86969246835E+01 -0.21936966006E+02  0.64690017496E+02  0.68859751235E+02  0.00000000000E+00 0.  1.
</event>
<event>
 4    1  0.6116490E+003  0.2576448E+02  0.7546771E-02  0.1460430E+00
          2   -1    0    0  501    0  0.00000000000E+00  0.00000000000E+00  0.22593899665E+04  0.22593899665E+04  0.00000000000E+00 0. -1.
         -2   -1    0    0    0  501 -0.00000000000E+00 -0.00000000000E+00 -0.35771937811E+00  0.35771937811E+00  0.00000000000E+00 0. -1.
          2    1    1    2  502    0  0.13323459659E+02 -0.22052075576E+02  0.16071281222E+04  0.16073346290E+04  0.00000000000E+00 0. -1.
         -2    1    1    2    0  502 -0.13323459659E+02  0.22052075576E+02  0.65190412495E+03  0.65241305684E+03  0.00000000000E+00 0. -1.
</event>
<event>
 4    1  0.6116490E+003  0.2077665E+02  0.7546771E-02  0.1522478E+00
          2   -1    0    0  501    0  0.00000000000E+00  0.00000000000E+00  0.10488647691E+04  0.10488647691E+04  0.00000000000E+00 0. -1.
         -2   -1    0    0    0  501 -0.00000000000E+00 -0.00000000000E+00 -0.11233652701E+02  0.11233652701E+02  0.00000000000E+00 0. -1.
          2    1    1    2  502    0  0.18249048389E+02 -0.99318434260E+01  0.10390646723E+04  0.10392723717E+04  0.00000000000E+00 0. -1.
         -2    1    1    2    0  502 -0.18249048389E+02  0.99318434260E+01 -0.14335559209E+01  0.20826050118E+02  0.00000000000E+00 0. -1.
</event>
<event>
 4    1  0.6116490E+003  0.2041591E+02  0.7546771E-02  0.1527770E+00
          2   -1    0    0  501    0  0.00000000000E+00  0.00000000000E+00  0.20621465166E+01  0.20621465166E+01  0.00000000000E+00 0.  1.
         -2   -1    0    0    0  501 -0.00000000000E+00 -0.00000000000E+00 -0.23820776782E+03  0.23820776782E+03  0.00000000000E+00 0.  1.
          2    1    1    2  502    0  0.32269543632E+01 -0.20159272799E+02 -0.71315797544E+02  0.74180539858E+02  0.00000000000E+00 0.  1.
         -2    1    1    2    0  502 -0.32269543632E+01  0.20159272799E+02 -0.16482982376E+03  0.16608937448E+03  0.00000000000E+00 0.  1.
</event>
<event>
 4    1  0.6116490E+003  0.2368925E+02  0.7546771E-02  0.1484020E+00
          2   -1    0    0  501    0  0.00000000000E+00  0.00000000000E+00  0.59443862853E+02  0.59443862853E+02  0.00000000000E+00 0. -1.
         -2   -1    0    0    0  501 -0.00000000000E+00 -0.00000000000E+00 -0.12270544603E+02  0.12270544603E+02  0.00000000000E+00 0. -1.
          2    1    1    2  502    0 -0.10152042508E+02  0.21403655643E+02  0.40806942528E+02  0.47184605545E+02  0.00000000000E+00 0. -1.
         -2    1    1    2    0  502  0.10152042508E+02 -0.21403655643E+02  0.63663757221E+01  0.24529801911E+02  0.00000000000E+00 0. -1.
</event>
<event>
 4    1  0.6116490E+003  0.2069842E+02  0.7546771E-02  0.1523615E+00
          2   -1    0    0  501    0  0.00000000000E+00  0.00000000000E+00  0.38390550088E+01  0.38390550088E+01  0.00000000000E+00 0. -1.
         -2   -1    0    0    0  501 -0.00000000000E+00 -0.00000000000E+00 -0.22939367109E+03  0.22939367109E+03  0.00000000000E+00 0.  1.
          2    1    1    2  502    0  0.95084518322E+01  0.18385151294E+02 -0.29209978650E+02  0.35800101914E+02  0.00000000000E+00 0. -1.
         -2    1    1    2    0  502 -0.95084518322E+01 -0.18385151294E+02 -0.19634463743E+03  0.19743262418E+03  0.00000000000E+00 0.  1.
</event>
<event>
 4    1  0.6116490E+003  0.3776977E+02  0.7546771E-02  0.1362075E+00
          2   -1    0    0  501    0  0.00000000000E+00  0.00000000000E+00  0.18694541314E+03  0.18694541314E+03  0.00000000000E+00 0. -1.
         -2   -1    0    0    0  501 -0.00000000000E+00 -0.00000000000E+00 -0.13848232671E+03  0.13848232671E+03  0.00000000000E+00 0.  1.
          2    1    1    2  502    0 -0.46575626425E+01 -0.37481495830E+02  0.18239883766E+03  0.18626833171E+03  0.00000000000E+00 0. -1.
         -2    1    1    2    0  502  0.46575626425E+01  0.37481495830E+02 -0.13393575122E+03  0.13915940814E+03  0.00000000000E+00 0.  1.
</event>
<event>
 4    1  0.6116490E+003  0.2572273E+02  0.7546771E-02  0.1460878E+00
          2   -1    0    0  501    0  0.00000000000E+00  0.00000000000E+00  0.19676689170E+04  0.19676689170E+04  0.00000000000E+00 0.  1.
         -2   -1    0    0    0  501 -0.00000000000E+00 -0.00000000000E+00 -0.24922355929E+01  0.24922355929E+01  0.00000000000E+00 0. -1.
          2    1    1    2  502    0 -0.26544615910E+01 -0.25585395118E+02  0.18988058849E+04  0.18989801071E+04  0.00000000000E+00 0.  1.
         -2    1    1    2    0  502  0.26544615910E+01  0.25585395118E+02  0.66370796553E+02  0.71181045544E+02  0.00000000000E+00 0. -1.
</event>
<event>
 4    1  0.6116490E+003  0.2356053E+02  0.7546771E-02  0.1485577E+00
          2   -1    0    0  501    0  0.00000000000E+00  0.00000000000E+00  0.55313821593E+00  0.55313821593E+00  0.00000000000E+00 0. -1.
         -2   -1    0    0    0  501 -0.00000000000E+00 -0.00000000000E+00 -0.15972041086E+04  0.15972041086E+04  0.00000000000E+00 0.  1.
          2    1    1    2  502    0 -0.21692780877E+02 -0.91935790764E+01 -0.31128007157E+03  0.31217043677E+03  0.00000000000E+00 0. -1.
         -2    1    1    2    0  502  0.21692780877E+02  0.91935790764E+01 -0.12853708988E+04  0.12855868100E+04  0.00000000000E+00 0.  1.
</event>
<event>
 4    1  0.6116490E+003  0.2776432E+02  0.7546771E-02  0.1440078E+00
          2   -1    0    0  501    0  0.00000000000E+00  0.00000000000E+00  0.69185707938E+01  0.69185707938E+01  0.00000000000E+00 0. -1.
         -2   -1    0    0    0  501 -0.00000000000E+00 -0.00000000000E+00 -0.17171307689E+03  0.17171307689E+03  0.00000000000E+00 0. -1.
          2    1    1    2  502    0  0.13997050613E+02  0.23977903242E+02 -0.29471676916E+02  0.40489961842E+02  0.00000000000E+00 0. -1.
         -2    1    1    2    0  502 -0.13997050613E+02 -0.23977903242E+02 -0.13532282918E+03  0.13814168584E+03  0.00000000000E+00 0. -1.
</event>
<event>
 4    1  0.6116490E+003  0.2315217E+02  0.7546771E-02  0.1490596E+00
          2   -1    0    0  501    0  0.00000000000E+00  0.00000000000E+00  0.69134555935E+03  0.69134555935E+03  0.00000000000E+00 0.  1.
         -2   -1    0    0    0  501 -0.00000000000E+00 -0.00000000000E+00 -0.34054594127E+01  0.34054594127E+01  0.00000000000E+00 0. -1.
          2    1    1    2  502    0 -0.22019462731E+02  0.71530600151E+01  0.64925096590E+03  0.64966363583E+03  0.00000000000E+00 0.  1.
         -2    1    1    2    0  502  0.22019462731E+02 -0.71530600151E+01  0.38689134037E+02  0.45087382926E+02  0.00000000000E+00 0. -1.
</event>
<event>
 4    1  0.6116490E+003  0.2760998E+02  0.7546771E-02  0.1441575E+00
          2   -1    0    0  501    0  0.00000000000E+00  0.00000000000E+00  0.16959037423E+03  0.16959037423E+03  0.00000000000E+00 0.  1.
         -2   -1    0    0    0  501 -0.00000000000E+00 -0.00000000000E+00 -0.78874367719E+03  0.78874367719E+03  0.00000000000E+00 0.  1.
          2    1    1    2  502    0  0.27574598949E+02  0.13972265198E+01  0.16822304856E+03  0.17047376577E+03  0.00000000000E+00 0.  1.
         -2    1    1    2    0  502 -0.27574598949E+02 -0.13972265198E+01 -0.78737635153E+03  0.78786028565E+03  0.00000000000E+00 0.  1.
</event>
<event>
 4    1  0.6116490E+003  0.2971760E+02  0.7546771E-02  0.1422067E+00
          2   -1    0    0  501    0  0.00000000000E+00  0.00000000000E+00  0.98604865661E+03  0.98604865661E+03  0.00000000000E+00 0. -1.
         -2   -1    0    0    0  501 -0.00000000000E+00 -0.00000000000E+00 -0.13970003238E+01  0.13970003238E+01  0.00000000000E+00 0.  1.
          2    1    1    2  502    0  0.15466282097E+02  0.25375768876E+02  0.78810250766E+03  0.78866260093E+03  0.00000000000E+00 0. -1.
         -2    1    1    2    0  502 -0.15466282097E+02 -0.25375768876E+02  0.19654914862E+03  0.19878305600E+03  0.00000000000E+00 0.  1.
</event>
<event>
 4    1  0.6116490E+003  0.2053739E+02  0.7546771E-02  0.1525973E+00
          2   -1    0    0  501    0  0.00000000000E+00  0.00000000000E+00  0.11800830730E+04  0.11800830730E+04  0.00000000000E+00 0. -1.
         -2   -1    0    0    0  501 -0.00000000000E+00 -0.00000000000E+00 -0.22360968673E+01  0.22360968673E+01  0.00000000000E+00 0.  1.
          2    1    1    2  502    0  0.13978451369E+02 -0.15046170536E+02  0.11307815822E+04  0.11309680680E+04  0.00000000000E+00 0. -1.
         -2    1    1    2    0  502 -0.13978451369E+02  0.15046170536E+02  0.47065394012E+02  0.51351101877E+02  0.00000000000E+00 0.  1.
</event>
<event>
 4    1  0.6116490E+003  0.2239719E+02  0.7546771E-02  0.1500210E+00
          2   -1    0    0  501    0  0.00000000000E+00  0.00000000000E+00  0.63999147601E+03  0.63999147601E+03  0.00000000000E+00 0. -1.
         -2   -1    0    0    0  501 -0.00000000000E+00 -0.00000000000E+00 -0.10929109479E+02  0.10929109479E+02  0.00000000000E+00 0.  1.
          2    1    1    2  502    0  0.18783114449E+02 -0.12199538699E+02  0.62810368981E+03  0.62850288725E+03  0.00000000000E+00 0. -1.
         -2    1    1    2    0  502 -0.18783114449E+02  0.12199538699E+02  0.95867671563E+00  0.22417698230E+02  0.00000000000E+00 0.  1.
</event>
<event>
 4    1  0.6116490E+003  0.2352543E+02  0.7546771E-02  0.1486004E+00
          2   -1    0    0  501    0  0.00000000000E+00  0.00000000000E+00  0.23379898991E+02  0.23379898991E+02  0.00000000000E+00 0. -1.
         -2   -1    0    0    0  501 -0.00000000000E+00 -0.00000000000E+00 -0.35875648242E+02  0.35875648242E+02  0.00000000000E+00 0. -1.
          2    1    1    2  502    0 -0.20355369962E+02  0.11794272014E+02  0.11032226742E+02  0.25983763497E+02  0.00000000000E+00 0. -1.
         -2    1    1    2    0  502  0.20355369962E+02 -0.11794272014E+02 -0.23527975993E+02  0.33271783736E+02  0.00000000000E+00 0. -1.
</event>
<event>
 4    1  0.6116490E+003  0.3464917E+02  0.7546771E-02  0.1383047E+00
          2   -1    0    0  501    0  0.00000000000E+00  0.00000000000E+00  0.96718965112E+03  0.96718965112E+03  0.00000000000E+00 0. -1.
         -2   -1    0    0    0  501 -0.00000000000E+00 -0.00000000000E+00 -0.34009798309E+01  0.34009798309E+01  0.00000000000E+00 0. -1.
          2    1    1    2  502    0 -0.13951919808E+02 -0.31716063810E+02  0.86861694390E+03  0.86930774758E+03  0.00000000000E+00 0. -1.
         -2    1    1    2    0  502  0.13951919808E+02  0.31716063810E+02  0.95171727383E+02  0.10128288337E+03  0.00000000000E+00 0. -1.
</event>
<event>
 4    1  0.6116490E+003  0.2124975E+02  0.7546771E-02  0.1515729E+00
          2   -1    0    0  501    0  0.00000000000E+00  0.00000000000E+00  0.84637269421E+03  0.84637269421E+03  0.00000000000E+00 0. -1.
         -2   -1    0    0    0  501 -0.00000000000E+00 -0.00000000000E+00 -0.35405847506E+03  0.35405847506E+03  0.00000000000E+00 0.  1.
          2    1    1    2  502    0  0.49554336693E+01 -0.20663868840E+02  0.84592030534E+03  0.84618716298E+03  0.00000000000E+00 0. -1.
         -2    1    1    2    0  502 -0.49554336693E+01  0.20663868840E+02 -0.35360608619E+03  0.35424400629E+03  0.00000000000E+00 0.  1.
</event>
<event>
 4    1  0.6116490E+003  0.2936035E+02  0.7546771E-02  0.1425238E+00
          2   -1    0    0  501    0  0.00000000000E+00  0.00000000000E+00  0.62590301571E+03  0.62590301571E+03  0.00000000000E+00 0. -1.
         -2   -1    0    0    0  501 -0.00000000000E+00 -0.00000000000E+00 -0.58163819733E+01  0.58163819733E+01  0.00000000000E+00 0.  1.
          2    1    1    2  502    0 -0.28819264089E+02  0.56107380569E+01  0.58598439738E+03  0.58671947670E+03  0.00000000000E+00 0. -1.
         -2    1    1    2    0  502  0.28819264089E+02 -0.56107380569E+01  0.34102236358E+02  0.44999920986E+02  0.00000000000E+00 0.  1.
</event>
<event>
 4    1  0.6116490E+003  0.2799331E+02  0.7546771E-02  0.1437877E+00
          2   -1    0    0  501    0  0.00000000000E+00  0.00000000000E+00  0.10577630057E+04  0.10577630057E+04  0.00000000000E+00 0.  1.
         -2   -1    0    0    0  501 -0.00000000000E+00 -0.00000000000E+00 -0.13774422170E+01  0.13774422170E+01  0.00000000000E+00 0. -1.
          2    1    1    2  502    0 -0.27630912816E+02  0.44897700463E+01  0.88821014053E+03  0.88865115716E+03  0.00000000000E+00 0.  1.
         -2    1    1    2    0  502  0.27630912816E+02 -0.44897700463E+01  0.16817542297E+03  0.17048929077E+03  0.00000000000E+00 0. -1.
</event>
<event>
 4    1  0.6116490E+003  0.2116909E+02  0.7546771E-02  0.1516864E+00
          2   -1    0    0  501    0  0.00000000000E+00  0.00000000000E+00  0.16907726208E+03  0.16907726208E+03  0.00000000000E+00 0. -1.
         -2   -1    0    0    0  501 -0.00000000000E+00 -0.00000000000E+00 -0.13400482991E+02  0.13400482991E+02  0.00000000000E+00 0.  1.
          2    1    1    2  502    0 -0.22651350987E+00 -0.21167879858E+02  0.15955768775E+03  0.16095585161E+03  0.00000000000E+00 0. -1.
         -2    1    1    2    0  502  0.22651350987E+00  0.21167879858E+02 -0.38809086657E+01  0.21521893460E+02  0.00000000000E+00 0.  1.
</event>
<event>
 4    1  0.6116490E+003  0.2027053E+02  0.7546771E-02  0.1529940E+00
          2   -1    0    0  501    0  0.00000000000E+00  0.00000000000E+00  0.14309074360E+03  0.14309074360E+03  0.00000000000E+00 0. -1.
         -2   -1    0    0    0  501 -0.00000000000E+00 -0.00000000000E+00 -0.31228845518E+02  0.31228845518E+02  0.00000000000E+00 0. -1.
          2    1    1    2  502    0 -0.11183166990E+02  0.16906540732E+02  0.13898685588E+03  0.14045725489E+03  0.00000000000E+00 0. -1.
         -2    1    1    2    0  502  0.11183166990E+02 -0.16906540732E+02 -0.27124957802E+02  0.33862334226E+02  0.00000000000E+00 0. -1.
</event>
<event>
 4    1  0.6116490E+003  0.2444878E+02  0.7546771E-02  0.1475065E+00
          2   -1    0    0  501    0  0.00000000000E+00  0.00000000000E+00  0.14155882639E+04  0.14155882639E+04  0.00000000000E+00 0.  1.
         -2   -1    0    0    0  501 -0.00000000000E+00 -0.00000000000E+00 -0.15728924417E+01  0.15728924417E+01  0.00000000000E+00 0.  1.
          2    1    1    2  502    0  0.24210210679E+02  0.34071092369E+01  0.13130577752E+04  0.13132853703E+04  0.00000000000E+00 0.  1.
         -2    1    1    2    0  502 -0.24210210679E+02 -0.34071092369E+01  0.10095759629E+03  0.10387578612E+03  0.00000000000E+00 0.  1.
</event>
<event>
 4    1  0.6116490E+003  0.2463071E+02  0.7546771E-02  0.1472977E+00
          2   -1    0    0  501    0  0.00000000000E+00  0.00000000000E+00  0.36917001268E+02  0.36917001268E+02  0.00000000000E+00 0. -1.
         -2   -1    0    0    0  501 -0.00000000000E+00 -0.00000000000E+00 -0.22551552002E+02  0.22551552002E+02  0.00000000000E+00 0. -1.
          2    1    1    2  502    0  0.18344699856E+02 -0.16436051230E+02  0.22670154217E+02  0.33475478862E+02  0.00000000000E+00 0. -1.
         -2    1    1    2    0  502 -0.18344699856E+02  0.16436051230E+02 -0.83047049508E+01  0.25993074407E+02  0.00000000000E+00 0. -1.
</event>
<event>
 4    1  0.6116490E+003  0.2166945E+02  0.7546771E-02  0.1509918E+00
          2   -1    0    0  501    0  0.00000000000E+00  0.00000000000E+00  0.17484531242E+02  0.17484531242E+02  0.00000000000E+00 0.  1.
         -2   -1    0    0    0  501 -0.00000000000E+00 -0.00000000000E+00 -0.44008997858E+02  0.44008997858E+02  0.00000000000E+00 0. -1.
          2    1    1    2  502    0 -0.18499558991E+02 -0.11284114638E+02  0.59332230773E+01  0.22467043911E+02  0.00000000000E+00 0.  1.
         -2    1    1    2    0  502  0.18499558991E+02  0.11284114638E+02 -0.32457689694E+02  0.39026485190E+02  0.00000000000E+00 0. -1.
</event>
<event>
 4    1  0.6116490E+003  0.4191042E+02  0.7546771E-02  0.1337640E+00
          2   -1    0    0  501    0  0.00000000000E+00  0.00000000000E+00  0.21234965035E+04  0.21234965035E+04  0.00000000000E+00 0. -1.
         -2   -1    0    0    0  501 -0.00000000000E+00 -0.00000000000E+00 -0.11969723445E+01  0.11969723445E+01  0.00000000000E+00 0. -1.
          2    1    1    2  502    0  0.23107028774E+02 -0.34964966638E+02  0.16516383832E+04  0.16521700374E+04  0.00000000000E+00 0. -1.
         -2    1    1    2    0  502 -0.23107028774E+02  0.34964966638E+02  0.47066114793E+03  0.47252343841E+03  0.00000000000E+00 0. -1.
</event>
<event>
 4    1  0.6116490E+003  0.2262725E+02  0.7546771E-02  0.1497233E+00
          2   -1    0    0  501    0  0.00000000000E+00  0.00000000000E+00  0.57943990044E+01  0.57943990044E+01  0.00000000000E+00 0.  1.
         -2   -1    0    0    0  501 -0.00000000000E+00 -0.00000000000E+00 -0.19549453036E+03  0.19549453036E+03  0.00000000000E+00 0. -1.
          2    1    1    2  502    0  0.19969880577E+02  0.10639368629E+02 -0.20344690842E+02  0.30428584268E+02  0.00000000000E+00 0.  1.
         -2    1    1    2    0  502 -0.19969880577E+02 -0.10639368629E+02 -0.16935544051E+03  0.17086034509E+03  0.00000000000E+00 0. -1.
</event>
<event>
 4    1  0.6116490E+003  0.2754654E+02  0.7546771E-02  0.1442194E+00
          2   -1    0    0  501    0  0.00000000000E+00  0.00000000000E+00  0.64349253489E+03  0.64349253489E+03  0.00000000000E+00 0. -1.
         -2   -1    0    0    0  501 -0.00000000000E+00 -0.00000000000E+00 -0.26288179314E+02  0.26288179314E+02  0.00000000000E+00 0.  1.
          2    1    1    2  502    0 -0.26503944238E+02  0.75068564804E+01  0.63589527288E+03  0.63649164176E+03  0.00000000000E+00 0. -1.
         -2    1    1    2    0  502  0.26503944238E+02 -0.75068564804E+01 -0.18690917308E+02  0.33289072445E+02  0.00000000000E+00 0.  1.
</event>
<event>
 4    1  0.6116490E+003  0.3806084E+02  0.7546771E-02  0.1360240E+00
          2   -1    0    0  501    0  0.00000000000E+00  0.00000000000E+00  0.73139459918E+03  0.73139459918E+03  0.00000000000E+00 0.  1.
         -2   -1    0    0    0  501 -0.00000000000E+00 -0.00000000000E+00 -0.31152802090E+01  0.31152802090E+01  0.00000000000E+00 0.  1.
          2    1    1    2  502    0  0.30429682155E+02 -0.22861806462E+02  0.58577989556E+03  0.58701508822E+03  0.00000000000E+00 0.  1.
         -2    1    1    2    0  502 -0.30429682155E+02  0.22861806462E+02  0.14249942341E+03  0.14749479117E+03  0.00000000000E+00 0.  1.
</event>
<event>
 4    1  0.6116490E+003  0.2314727E+02  0.7546771E-02  0.1490657E+00
          2   -1    0    0  501    0  0.00000000000E+00  0.00000000000E+00  0.32514955018E+01  0.32514955018E+01  0.00000000000E+00 0.  1.
         -2   -1    0    0    0  501 -0.00000000000E+00 -0.00000000000E+00 -0.17425147222E+03  0.17425147222E+03  0.00000000000E+00 0.  1.
          2    1    1    2  502    0  0.23115297864E+02  0.12162250453E+01 -0.64813252396E+02  0.68822626257E+02  0.00000000000E+00 0.  1.
         -2    1    1    2    0  502 -0.23115297864E+02 -0.12162250453E+01 -0.10618672432E+03  0.10868034147E+03  0.00000000000E+00 0.  1.
</event>
<event>
 4    1  0.6116490E+003  0.2380092E+02  0.7546771E-02  0.1482679E+00
          2   -1    0    0  501    0  0.00000000000E+00  0.00000000000E+00  0.76784451517E+01  0.76784451517E+01  0.00000000000E+00 0. -1.
         -2   -1    0    0    0  501 -0.00000000000E+00 -0.00000000000E+00 -0.29239098832E+03  0.29239098832E+03  0.00000000000E+00 0. -1.
          2    1    1    2  502    0  0.11963816542E+02 -0.20575486839E+02 -0.12623433269E+02  0.26941318312E+02  0.00000000000E+00 0. -1.
         -2    1    1    2    0  502 -0.11963816542E+02  0.20575486839E+02 -0.27208910990E+03  0.27312811516E+03  0.00000000000E+00 0. -1.
</event>
<event>
 4    1  0.6116490E+003  0.2414328E+02  0.7546771E-02  0.1478620E+00
          2   -1    0    0  501    0  0.00000000000E+00  0.00000000000E+00  0.52558911334E+03  0.52558911334E+03  0.00000000000E+00 0.  1.
         -2   -1    0    0    0  501 -0.00000000000E+00 -0.00000000000E+00 -0.32739474834E+01  0.32739474834E+01  0.00000000000E+00 0.  1.
          2    1    1    2  502    0 -0.84490811891E+01 -0.22616613437E+02  0.47618670364E+03  0.47679835875E+03  0.00000000000E+00 0.  1.
         -2    1    1    2    0  502  0.84490811891E+01  0.22616613437E+02  0.46128462218E+02  0.52064702082E+02  0.00000000000E+00 0.  1.
</event>
<event>
 4    1  0.6116490E+003  0.2266140E+02  0.7546771E-02  0.1496794E+00
          2   -1    0    0  501    0  0.00000000000E+00  0.00000000000E+00  0.69867765151E+03  0.69867765151E+03  0.00000000000E+00 0. -1.
         -2   -1    0    0    0  501 -0.00000000000E+00 -0.00000000000E+00 -0.80860883031E+00  0.80860883031E+00  0.00000000000E+00 0. -1.
          2    1    1    2  502    0 -0.54351595691E+01  0.21999943194E+02  0.24342271623E+03  0.24447526917E+03  0.00000000000E+00 0. -1.
         -2    1    1    2    0  502  0.54351595691E+01 -0.21999943194E+02  0.45444632644E+03  0.45501099116E+03  0.00000000000E+00 0. -1.
</event>
<event>
 4    1  0.6116490E+003  0.2521873E+02  0.7546771E-02  0.1466371E+00
          2   -1    0    0  501    0  0.00000000000E+00  0.00000000000E+00  0.22990939747E+03  0.22990939747E+03  0.00000000000E+00 0.  1.
         -2   -1    0    0    0  501 -0.00000000000E+00 -0.00000000000E+00 -0.13809722286E+02  0.13809722286E+02  0.00000000000E+00 0.  1.
          2    1    1    2  502    0 -0.14128299078E+02  0.20889598031E+02  0.21702315927E+03  0.21848349091E+03  0.00000000000E+00 0.  1.
         -2    1    1    2    0  502  0.14128299078E+02 -0.20889598031E+02 -0.92348407934E+00  0.25235628853E+02  0.00000000000E+00 0.  1.
</event>
<event>
 4    1  0.6116490E+003  0.2437835E+02  0.7546771E-02  0.1475879E+00
          2   -1    0    0  501    0  0.00000000000E+00  0.00000000000E+00  0.75024435376E+03  0.75024435376E+03  0.00000000000E+00 0. -1.
         -2   -1    0    0    0  501 -0.00000000000E+00 -0.00000000000E+00 -0.23918020199E+01  0.23918020199E+01  0.00000000000E+00 0. -1.
          2    1    1    2  502    0  0.19487701342E+02  0.14646959537E+02  0.68168162756E+03  0.68211739846E+03  0.00000000000E+00 0. -1.
         -2    1    1    2    0  502 -0.19487701342E+02 -0.14646959537E+02  0.66170924179E+02  0.70518757320E+02  0.00000000000E+00 0. -1.
</event>
<event>
 4    1  0.6116490E+003  0.2159370E+02  0.7546771E-02  0.1510955E+00
          2   -1    0    0  501    0  0.00000000000E+00  0.00000000000E+00  0.14743936902E+02  0.14743936902E+02  0.00000000000E+00 0. -1.
         -2   -1    0    0    0  501 -0.00000000000E+00 -0.00000000000E+00 -0.12891741831E+03  0.12891741831E+03  0.00000000000E+00 0. -1.
          2    1    1    2  502    0 -0.85607415902E+01  0.19824267848E+02  0.53143261069E+01  0.22238029459E+02  0.00000000000E+00 0. -1.
         -2    1    1    2    0  502  0.85607415902E+01 -0.19824267848E+02 -0.11948780752E+03  0.12142332576E+03  0.00000000000E+00 0. -1.
</event>
<event>
 4    1  0.6116490E+003  0.2360495E+02  0.7546771E-02  0.1485038E+00
          2   -1    0    0  501    0  0.00000000000E+00  0.00000000000E+00  0.67181734091E+02  0.67181734091E+02  0.00000000000E+00 0.  1.
         -2   -1    0    0    0  501 -0.00000000000E+00 -0.00000000000E+00 -0.83419339149E+02  0.83419339149E+02  0.00000000000E+00 0.  1.
          2    1    1    2  502    0 -0.22286715454E+02 -0.77779217443E+01  0.63340441652E+02  0.67595897072E+02  0.00000000000E+00 0.  1.
         -2    1    1    2    0  502  0.22286715454E+02  0.77779217443E+01 -0.79578046710E+02  0.83005176167E+02  0.00000000000E+00 0.  1.
</event>
<event>
 4    1  0.6116490E+003  0.2267874E+02  0.7546771E-02  0.1496572E+00
          2   -1    0    0  501    0  0.00000000000E+00  0.00000000000E+00  0.65490513881E+02  0.65490513881E+02  0.00000000000E+00 0. -1.
         -2   -1    0    0    0  501 -0.00000000000E+00 -0.00000000000E+00 -0.81536191178E+01  0.81536191178E+01  0.00000000000E+00 0. -1.
          2    1    1    2  502    0 -0.27307270595E+01  0.22513741205E+02  0.35733699977E+02  0.42322839311E+02  0.00000000000E+00 0. -1.
         -2    1    1    2    0  502  0.27307270595E+01 -0.22513741205E+02  0.21603194786E+02  0.31321293687E+02  0.00000000000E+00 0. -1.
</event>
<event>
 4    1  0.6116490E+003  0.3374687E+02  0.7546771E-02  0.1389594E+00
          2   -1    0    0  501    0  0.00000000000E+00  0.00000000000E+00  0.48165702795E+03  0.48165702795E+03  0.00000000000E+00 0. -1.
         -2   -1    0    0    0  501 -0.00000000000E+00 -0.00000000000E+00 -0.35153890870E+03  0.35153890870E+03  0.00000000000E+00 0.  1.
          2    1    1    2  502    0 -0.26366897475E+02  0.21062722620E+02  0.48025364858E+03  0.48143786571E+03  0.00000000000E+00 0. -1.
         -2    1    1    2    0  502  0.26366897475E+02 -0.21062722620E+02 -0.35013552934E+03  0.35175807094E+03  0.00000000000E+00 0.  1.
</event>
<event>
 4    1  0.6116490E+003  0.3464940E+02  0.7546771E-02  0.1383045E+00
          2   -1    0    0  501    0  0.00000000000E+00  0.00000000000E+00  0.19013444753E+03  0.19013444753E+03  0.00000000000E+00 0. -1.
         -2   -1    0    0    0  501 -0.00000000000E+00 -0.00000000000E+00 -0.24503937529E+02  0.24503937529E+02  0.00000000000E+00 0. -1.
          2    1    1    2  502    0  0.20565888973E+02  0.27885925697E+02  0.17527880373E+03  0.17867075776E+03  0.00000000000E+00 0. -1.
         -2    1    1    2    0  502 -0.20565888973E+02 -0.27885925697E+02 -0.96482937342E+01  0.35967627295E+02  0.00000000000E+00 0. -1.
</event>
<event>
 4    1  0.6116490E+003  0.2838103E+02  0.7546771E-02  0.1434208E+00
          2   -1    0    0  501    0  0.00000000000E+00  0.00000000000E+00  0.16216093421E+04  0.16216093421E+04  0.00000000000E+00 0.  1.
         -2   -1    0    0    0  501 -0.00000000000E+00 -0.00000000000E+00 -0.13526754040E+03  0.13526754040E+03  0.00000000000E+00 0. -1.
          2    1    1    2  502    0 -0.63287091822E+01  0.27666407931E+02  0.16199949949E+04  0.16202435823E+04  0.00000000000E+00 0.  1.
         -2    1    1    2    0  502  0.63287091822E+01 -0.27666407931E+02 -0.13365319314E+03  0.13663330020E+03  0.00000000000E+00 0. -1.
</event>
<event>
 4    1  0.6116490E+003  0.5010564E+02  0.7546771E-02  0.1297715E+00
          2   -1    0    0  501    0  0.00000000000E+00  0.00000000000E+00  0.71314825960E+03  0.71314825960E+03  0.00000000000E+00 0.  1.
         -2   -1    0    0    0  501 -0.00000000000E+00 -0.00000000000E+00 -0.10361554728E+02  0.10361554728E+02  0.00000000000E+00 0. -1.
          2    1    1    2  502    0  0.42712899949E+02 -0.26195097686E+02  0.64533852103E+03  0.64728075955E+03  0.00000000000E+00 0.  1.
         -2    1    1    2    0  502 -0.42712899949E+02  0.26195097686E+02  0.57448183845E+02  0.76229054775E+02  0.00000000000E+00 0. -1.
</event>
<event>
 4    1  0.6116490E+003  0.4293836E+02  0.7546771E-02  0.1332077E+00
          2   -1    0    0  501    0  0.00000000000E+00  0.00000000000E+00  0.39232208053E+02  0.39232208053E+02  0.00000000000E+00 0. -1.
         -2   -1    0    0    0  501 -0.00000000000E+00 -0.00000000000E+00 -0.74059090773E+02  0.74059090773E+02  0.00000000000E+00 0. -1.
          2    1    1    2  502    0  0.41317630121E+02 -0.11685727402E+02  0.16829978166E+02  0.46118878442E+02  0.00000000000E+00 0. -1.
         -2    1    1    2    0  502 -0.41317630121E+02  0.11685727402E+02 -0.51656860886E+02  0.67172420384E+02  0.00000000000E+00 0. -1.
</event>
<event>
 4    1  0.6116490E+003  0.2052220E+02  0.7546771E-02  0.1526197E+00
          2   -1    0    0  501    0  0.00000000000E+00  0.00000000000E+00  0.73897379946E+03  0.73897379946E+03  0.00000000000E+00 0. -1.
         -2   -1    0    0    0  501 -0.00000000000E+00 -0.00000000000E+00 -0.20802474779E+01  0.20802474779E+01  0.00000000000E+00 0. -1.
          2    1    1    2  502    0 -0.10448571111E+02  0.17663183542E+02  0.68416309059E+03  0.68447081400E+03  0.00000000000E+00 0. -1.
         -2    1    1    2    0  502  0.10448571111E+02 -0.17663183542E+02  0.52730461383E+02  0.56583232930E+02  0.00000000000E+00 0. -1.
</event>
<event>
 4    1  0.6116490E+003  0.3189802E+02  0.7546771E-02  0.1403789E+00
          2   -1    0    0  501    0  0.00000000000E+00  0.00000000000E+00  0.17623767678E+03  0.17623767678E+03  0.00000000000E+00 0. -1.
         -2   -1    0    0    0  501 -0.00000000000E+00 -0.00000000000E+00 -0.25487097623E+03  0.25487097623E+03  0.00000000000E+00 0.  1.
          2    1    1    2  502    0 -0.30437898748E+02 -0.95403419659E+01  0.17378231387E+03  0.17668552974E+03  0.00000000000E+00 0. -1.
         -2    1    1    2    0  502  0.30437898748E+02  0.95403419659E+01 -0.25241561332E+03  0.25442312327E+03  0.00000000000E+00 0.  1.
</event>
<event>
 4    1  0.6116490E+003  0.3320275E+02  0.7546771E-02  0.1393659E+00
          2   -1    0    0  501    0  0.00000000000E+00  0.00000000000E+00  0.18637547864E+03  0.18637547864E+03  0.00000000000E+00 0. -1.
         -2   -1    0    0    0  501 -0.00000000000E+00 -0.00000000000E+00 -0.52326265655E+02  0.52326265655E+02  0.00000000000E+00 0. -1.
          2    1    1    2  502    0  0.32969401092E+02  0.39295264886E+01  0.17942740915E+03  0.18247360834E+03  0.00000000000E+00 0. -1.
         -2    1    1    2    0  502 -0.32969401092E+02 -0.39295264886E+01 -0.45378196160E+02  0.56228135960E+02  0.00000000000E+00 0. -1.
</event>
<event>
 4    1  0.6116490E+003  0.2764032E+02  0.7546771E-02  0.1441280E+00
          2   -1    0    0  501    0  0.00000000000E+00  0.00000000000E+00  0.13258060985E+04  0.13258060985E+04  0.00000000000E+00 0.  1.
         -2   -1    0    0    0  501 -0.00000000000E+00 -0.00000000000E+00 -0.40234272182E+01  0.40234272182E+01  0.00000000000E+00 0.  1.
          2    1    1    2  502    0 -0.27520061477E+02 -0.25755154603E+01  0.12763517426E+04  0.12766509930E+04  0.00000000000E+00 0.  1.
         -2    1    1    2    0  502  0.27520061477E+02  0.25755154603E+01  0.45430928766E+02  0.53178532813E+02  0.00000000000E+00 0.  1.
</event>
<event>
 4    1  0.6116490E+003  0.5544867E+02  0.7546771E-02  0.1276133E+00
          2   -1    0    0  501    0  0.00000000000E+00  0.00000000000E+00  0.63347933058E+03  0.63347933058E+03  0.00000000000E+00 0.  1.
         -2   -1    0    0    0  501 -0.00000000000E+00 -0.00000000000E+00 -0.51631936064E+02  0.51631936064E+02  0.00000000000E+00 0. -1.
          2    1    1    2  502    0  0.27825544318E+02 -0.47961378637E+02  0.61698182477E+03  0.61946842281E+03  0.00000000000E+00 0.  1.
         -2    1    1    2    0  502 -0.27825544318E+02  0.47961378637E+02 -0.35134430256E+02  0.65642843835E+02  0.00000000000E+00 0. -1.
</event>
<event>
 4    1  0.6116490E+003  0.3056485E+02  0.7546771E-02  0.1414750E+00
          2   -1    0    0  501    0  0.00000000000E+00  0.00000000000E+00  0.46057456304E+03  0.46057456304E+03  0.00000000000E+00 0. -1.
         -2   -1    0    0    0  501 -0.00000000000E+00 -0.00000000000E+00 -0.22468013874E+01  0.22468013874E+01  0.00000000000E+00 0. -1.
          2    1    1    2  502    0  0.79079069745E+01  0.29524148161E+02  0.30131948079E+03  0.30286571252E+03  0.00000000000E+00 0. -1.
         -2    1    1    2    0  502 -0.79079069745E+01 -0.29524148161E+02  0.15700828086E+03  0.15995565191E+03  0.00000000000E+00 0. -1.
</event>
<event>
 4    1  0.6116490E+003  0.2217343E+02  0.7546771E-02  0.1503147E+00
          2   -1    0    0  501    0  0.00000000000E+00  0.00000000000E+00  0.87571752975E+03  0.87571752975E+03  0.00000000000E+00 0. -1.
         -2   -1    0    0    0  501 -0.00000000000E+00 -0.00000000000E+00 -0.35829358359E+02  0.35829358359E+02  0.00000000000E+00 0. -1.
          2    1    1    2  502    0 -0.61497802933E+01 -0.21303549121E+02  0.87213249707E+03  0.87241432441E+03  0.00000000000E+00 0. -1.
         -2    1    1    2    0  502  0.61497802933E+01  0.21303549121E+02 -0.32244325678E+02  0.39132563693E+02  0.00000000000E+00 0. -1.
</event>
<event>
 4    1  0.6116490E+003  0.2646368E+02  0.7546771E-02  0.1453071E+00
          2   -1    0    0  501    0  0.00000000000E+00  0.00000000000E+00  0.16819102927E+04  0.16819102927E+04  0.00000000000E+00 0.  1.
         -2   -1    0    0    0  501 -0.00000000000E+00 -0.00000000000E+00 -0.12351671031E+02  0.12351671031E+02  0.00000000000E+00 0. -1.
          2    1    1    2  502    0  0.24686545654E+02  0.95342024768E+01  0.16675090522E+04  0.16677190308E+04  0.00000000000E+00 0.  1.
         -2    1    1    2    0  502 -0.24686545654E+02 -0.95342024768E+01  0.20495694709E+01  0.26542932924E+02  0.00000000000E+00 0. -1.
</event>
<event>
 4    1  0.6116490E+003  0.3334062E+02  0.7546771E-02  0.1392620E+00
          2   -1    0    0  501    0  0.00000000000E+00  0.00000000000E+00  0.46201860210E+02  0.46201860210E+02  0.00000000000E+00 0.  1.
         -2   -1    0    0    0  501 -0.00000000000E+00 -0.00000000000E+00 -0.40961891167E+02  0.40961891167E+02  0.00000000000E+00 0. -1.
          2    1    1    2  502    0  0.30127757760E+02  0.14279882930E+02  0.30615541058E+02  0.45264867154E+02  0.00000000000E+00 0.  1.
         -2    1    1    2    0  502 -0.30127757760E+02 -0.14279882930E+02 -0.25375572015E+02  0.41898884224E+02  0.00000000000E+00 0. -1.
</event>
<event>
 4    1  0.6116490E+003  0.2044761E+02  0.7546771E-02  0.1527300E+00
          2   -1    0    0  501    0  0.00000000000E+00  0.00000000000E+00  0.68288704451E+03  0.68288704451E+03  0.00000000000E+00 0. -1.
         -2   -1    0    0    0  501 -0.00000000000E+00 -0.00000000000E+00 -0.36634162637E+03  0.36634162637E+03  0.00000000000E+00 0.  1.
          2    1    1    2  502    0  0.62532090529E+01  0.19467974954E+02  0.68244847180E+03  0.68275473000E+03  0.00000000000E+00 0. -1.
         -2    1    1    2    0  502 -0.62532090529E+01 -0.19467974954E+02 -0.36590305366E+03  0.36647394089E+03  0.00000000000E+00 0.  1.
</event>
<event>
 4    1  0.6116490E+003  0.2093622E+02  0.7546771E-02  0.1520177E+00
          2   -1    0    0  501    0  0.00000000000E+00  0.00000000000E+00  0.34932617817E+01  0.34932617817E+01  0.00000000000E+00 0.  1.
         -2   -1    0    0    0  501 -0.00000000000E+00 -0.00000000000E+00 -0.53567787222E+03  0.53567787222E+03  0.00000000000E+00 0. -1.
          2    1    1    2  502    0 -0.93910994528E+01  0.18711831968E+02 -0.30184200184E+02  0.36734334692E+02  0.00000000000E+00 0.  1.
         -2    1    1    2    0  502  0.93910994528E+01 -0.18711831968E+02 -0.50200041026E+03  0.50243679931E+03  0.00000000000E+00 0. -1.
</event>
<event>
 4    1  0.6116490E+003  0.2299827E+02  0.7546771E-02  0.1492520E+00
          2   -1    0    0  501    0  0.00000000000E+00  0.00000000000E+00  0.48524863050E+03  0.48524863050E+03  0.00000000000E+00 0.  1.
         -2   -1    0    0    0  501 -0.00000000000E+00 -0.00000000000E+00 -0.10991354888E+01  0.10991354888E+01  0.00000000000E+00 0.  1.
          2    1    1    2  502    0  0.37332352850E+01 -0.22693232287E+02  0.21990225541E+03  0.22110160960E+03  0.00000000000E+00 0.  1.
         -2    1    1    2    0  502 -0.37332352850E+01  0.22693232287E+02  0.26424723960E+03  0.26524615638E+03  0.00000000000E+00 0.  1.
</event>
<event>
 4    1  0.6116490E+003  0.3334268E+02  0.7546771E-02  0.1392604E+00
          2   -1    0    0  501    0  0.00000000000E+00  0.00000000000E+00  0.45388280778E+02  0.45388280778E+02  0.00000000000E+00 0.  1.
         -2   -1    0    0    0  501 -0.00000000000E+00 -0.00000000000E+00 -0.46995100513E+02  0.46995100513E+02  0.00000000000E+00 0.  1.
          2    1    1    2  502    0 -0.33342606123E+02  0.70386815791E-01  0.31159092059E+02  0.45635768377E+02  0.00000000000E+00 0.  1.
         -2    1    1    2    0  502  0.33342606123E+02 -0.70386815791E-01 -0.32765911795E+02  0.46747612914E+02  0.00000000000E+00 0.  1.
</event>
<event>
 4    1  0.6116490E+003  0.2144943E+02  0.7546771E-02  0.1512944E+00
          2   -1    0    0  501    0  0.00000000000E+00  0.00000000000E+00  0.22195012350E+04  0.22195012350E+04  0.00000000000E+00 0.  1.
         -2   -1    0    0    0  501 -0.00000000000E+00 -0.00000000000E+00 -0.21908244944E+00  0.21908244944E+00  0.00000000000E+00 0. -1.
          2    1    1    2  502    0  0.11918357700E+02 -0.17833422329E+02  0.13671455647E+04  0.13673138167E+04  0.00000000000E+00 0.  1.
         -2    1    1    2    0  502 -0.11918357700E+02  0.17833422329E+02  0.85213658790E+03  0.85240650082E+03  0.00000000000E+00 0. -1.
</event>
<event>
 4    1  0.6116490E+003  0.2647594E+02  0.7546771E-02  0.1452945E+00
          2   -1    0    0  501    0  0.00000000000E+00  0.00000000000E+00  0.13767057555E+03  0.13767057555E+03  0.00000000000E+00 0.  1.
         -2   -1    0    0    0  501 -0.00000000000E+00 -0.00000000000E+00 -0.44388119242E+02  0.44388119242E+02  0.00000000000E+00 0. -1.
          2    1    1    2  502    0  0.20064468850E+02  0.17274033829E+02  0.13229068858E+03  0.13491405205E+03  0.00000000000E+00 0.  1.
         -2    1    1    2    0  502 -0.20064468850E+02 -0.17274033829E+02 -0.39008232269E+02  0.47144642747E+02  0.00000000000E+00 0. -1.
</event>
<event>
 4    1  0.6116490E+003  0.4329939E+02  0.7546771E-02  0.1330165E+00
          2   -1    0    0  501    0  0.00000000000E+00  0.00000000000E+00  0.59483723545E+01  0.59483723545E+01  0.00000000000E+00 0.  1.
         -2   -1    0    0    0  501 -0.00000000000E+00 -0.00000000000E+00 -0.32188661991E+03  0.32188661991E+03  0.00000000000E+00 0.  1.
          2    1    1    2  502    0 -0.43266856725E+02 -0.16781424182E+01 -0.13431714438E+03  0.14112381914E+03  0.00000000000E+00 0.  1.
         -2    1    1    2    0  502  0.43266856725E+02  0.16781424182E+01 -0.18162110317E+03  0.18671117313E+03  0.00000000000E+00 0.  1.
</event>
<event>
 4    1  0.6116490E+003  0.2017122E+02  0.7546771E-02  0.1531434E+00
          2   -1    0    0  501    0  0.00000000000E+00  0.00000000000E+00  0.21453301755E+03  0.21453301755E+03  0.00000000000E+00 0.  1.
         -2   -1    0    0    0  501 -0.00000000000E+00 -0.00000000000E+00 -0.27299260946E+03  0.27299260946E+03  0.00000000000E+00 0. -1.
          2    1    1    2  502    0  0.19177999273E+02  0.62516083027E+01  0.21368478842E+03  0.21463472940E+03  0.00000000000E+00 0.  1.
         -2    1    1    2    0  502 -0.19177999273E+02 -0.62516083027E+01 -0.27214438032E+03  0.27289089762E+03  0.00000000000E+00 0. -1.
</event>
<event>
 4    1  0.6116490E+003  0.2061569E+02  0.7546771E-02  0.1524823E+00
          2   -1    0    0  501    0  0.00000000000E+00  0.00000000000E+00  0.14179695828E+03  0.14179695828E+03  0.00000000000E+00 0. -1.
         -2   -1    0    0    0  501 -0.00000000000E+00 -0.00000000000E+00 -0.75049706296E+01  0.75049706296E+01  0.00000000000E+00 0.  1.
          2    1    1    2  502    0 -0.18317415258E+02 -0.94593410065E+01  0.12500052998E+03  0.12668914448E+03  0.00000000000E+00 0. -1.
         -2    1    1    2    0  502  0.18317415258E+02  0.94593410065E+01  0.92914576721E+01  0.22612784430E+02  0.00000000000E+00 0.  1.
</event>
<event>
 4    1  0.6116490E+003  0.2072659E+02  0.7546771E-02  0.1523205E+00
          2   -1    0    0  501    0  0.00000000000E+00  0.00000000000E+00  0.15816029129E+04  0.15816029129E+04  0.00000000000E+00 0. -1.
         -2   -1    0    0    0  501 -0.00000000000E+00 -0.00000000000E+00 -0.16187907033E+01  0.16187907033E+01  0.00000000000E+00 0. -1.
          2    1    1    2  502    0 -0.20425380730E+02 -0.35206875795E+01  0.15121431433E+04  0.15122851839E+04  0.00000000000E+00 0. -1.
         -2    1    1    2    0  502  0.20425380730E+02  0.35206875795E+01  0.67840978875E+02  0.70936519746E+02  0.00000000000E+00 0. -1.
</event>
<event>
 4    1  0.6116490E+003  0.2734427E+02  0.7546771E-02  0.1444180E+00
          2   -1    0    0  501    0  0.00000000000E+00  0.00000000000E+00  0.42907224920E+01  0.42907224920E+01  0.00000000000E+00 0. -1.
         -2   -1    0    0    0  501 -0.00000000000E+00 -0.00000000000E+00 -0.74181984177E+03  0.74181984177E+03  0.00000000000E+00 0.  1.
          2    1    1    2  502    0  0.27017244198E+02 -0.42163545181E+01 -0.42455522051E+02  0.50499311699E+02  0.00000000000E+00 0. -1.
         -2    1    1    2    0  502 -0.27017244198E+02  0.42163545181E+01 -0.69507359722E+03  0.69561125256E+03  0.00000000000E+00 0.  1.
</event>
<event>
 4    1  0.6116490E+003  0.2201144E+02  0.7546771E-02  0.1505299E+00
          2   -1    0    0  501    0  0.00000000000E+00  0.00000000000E+00  0.11552333665E+04  0.11552333665E+04  0.00000000000E+00 0.  1.
         -2   -1    0    0    0  501 -0.00000000000E+00 -0.00000000000E+00 -0.24552540694E+01  0.24552540694E+01  0.00000000000E+00 0.  1.
          2    1    1    2  502    0  0.23412487686E+01  0.21886567307E+02  0.11034817774E+04  0.11037012895E+04  0.00000000000E+00 0.  1.
         -2    1    1    2    0  502 -0.23412487686E+01 -0.21886567307E+02  0.49296335036E+02  0.53987331127E+02  0.00000000000E+00 0.  1.
</event>
<event>
 4    1  0.6116490E+003  0.6407774E+02  0.7546771E-02  0.1246574E+00
          2   -1    0    0  501    0  0.00000000000E+00  0.00000000000E+00  0.22607377053E+03  0.22607377053E+03  0.00000000000E+00 0.  1.
         -2   -1    0    0    0  501 -0.00000000000E+00 -0.00000000000E+00 -0.19245735824E+02  0.19245735824E+02  0.00000000000E+00 0. -1.
          2    1    1    2  502    0  0.50420787746E+02 -0.39543651328E+02  0.13252069672E+03  0.14719949476E+03  0.00000000000E+00 0.  1.
         -2    1    1    2    0  502 -0.50420787746E+02  0.39543651328E+02  0.74307337982E+02  0.98120011594E+02  0.00000000000E+00 0. -1.
</event>
<event>
 4    1  0.6116490E+003  0.3078301E+02  0.7546771E-02  0.1412912E+00
          2   -1    0    0  501    0  0.00000000000E+00  0.00000000000E+00  0.22025761590E+03  0.22025761590E+03  0.00000000000E+00 0.  1.
         -2   -1    0    0    0  501 -0.00000000000E+00 -0.00000000000E+00 -0.10449803614E+02  0.10449803614E+02  0.00000000000E+00 0.  1.
          2    1    1    2  502    0  0.23693264700E+02 -0.19652553867E+02  0.19338087050E+03  0.19581561414E+03  0.00000000000E+00 0.  1.
         -2    1    1    2    0  502 -0.23693264700E+02  0.19652553867E+02  0.16426941781E+02  0.34891805369E+02  0.00000000000E+00 0.  1.
</event>
<event>
 4    1  0.6116490E+003  0.2115715E+02  0.7546771E-02  0.1517033E+00
          2   -1    0    0  501    0  0.00000000000E+00  0.00000000000E+00  0.71761569429E+01  0.71761569429E+01  0.00000000000E+00 0. -1.
         -2   -1    0    0    0  501 -0.00000000000E+00 -0.00000000000E+00 -0.21863980683E+03  0.21863980683E+03  0.00000000000E+00 0.  1.
          2    1    1    2  502    0  0.15570401142E+02 -0.14324376464E+02 -0.10279123724E+02  0.23522022390E+02  0.00000000000E+00 0. -1.
         -2    1    1    2    0  502 -0.15570401142E+02  0.14324376464E+02 -0.20118452616E+03  0.20229394138E+03  0.00000000000E+00 0.  1.
</event>
<event>
 4    1  0.6116490E+003  0.2014489E+02  0.7546771E-02  0.1531832E+00
          2   -1    0    0  501    0  0.00000000000E+00  0.00000000000E+00  0.21287395394E+02  0.21287395394E+02  0.00000000000E+00 0.  1.
         -2   -1    0    0    0  501 -0.00000000000E+00 -0.00000000000E+00 -0.17863926247E+03  0.17863926247E+03  0.00000000000E+00 0.  1.
          2    1    1    2  502    0 -0.22005026719E+00 -0.20143691135E+02  0.15803097664E+02  0.25603800703E+02  0.00000000000E+00 0.  1.
         -2    1    1    2    0  502  0.22005026719E+00  0.20143691135E+02 -0.17315496474E+03  0.17432285717E+03  0.00000000000E+00 0.  1.
</event>
<event>
 4    1  0.6116490E+003  0.2072534E+02  0.7546771E-02  0.1523223E+00
          2   -1    0    0  501    0  0.00000000000E+00  0.00000000000E+00  0.40005846546E+02  0.40005846546E+02  0.00000000000E+00 0. -1.
         -2   -1    0    0    0  501 -0.00000000000E+00 -0.00000000000E+00 -0.13128587938E+03  0.13128587938E+03  0.00000000000E+00 0. -1.
          2    1    1    2  502    0 -0.96817508969E+01 -0.18324939545E+02  0.36428977162E+02  0.41911932511E+02  0.00000000000E+00 0. -1.
         -2    1    1    2    0  502  0.96817508969E+01  0.18324939545E+02 -0.12770901000E+03  0.12937979342E+03  0.00000000000E+00 0. -1.
</event>
<event>
 4    1  0.6116490E+003  0.2668748E+02  0.7546771E-02  0.1450773E+00
          2   -1    0    0  501    0  0.00000000000E+00  0.00000000000E+00  0.26760496836E+04  0.26760496836E+04  0.00000000000E+00 0.  1.
         -2   -1    0    0    0  501 -0.00000000000E+00 -0.00000000000E+00 -0.31380908423E+00  0.31380908423E+00  0.00000000000E+00 0.  1.
          2    1    1    2  502    0  0.91267549335E+01  0.25078359258E+02  0.18593871168E+04  0.18595786275E+04  0.00000000000E+00 0.  1.
         -2    1    1    2    0  502 -0.91267549335E+01 -0.25078359258E+02  0.81634875774E+03  0.81678486521E+03  0.00000000000E+00 0.  1.
</event>
<event>
 4    1  0.6116490E+003  0.3612587E+02  0.7546771E-02  0.1372816E+00
          2   -1    0    0  501    0  0.00000000000E+00  0.00000000000E+00  0.11641133002E+04  0.11641133002E+04  0.00000000000E+00 0.  1.
         -2   -1    0    0    0  501 -0.00000000000E+00 -0.00000000000E+00 -0.30221995986E+01  0.30221995986E+01  0.00000000000E+00 0.  1.
          2    1    1    2  502    0  0.35385689132E+02 -0.72753960559E+01  0.10433878399E+04  0.10440130568E+04  0.00000000000E+00 0.  1.
         -2    1    1    2    0  502 -0.35385689132E+02  0.72753960559E+01  0.11770326076E+03  0.12312244302E+03  0.00000000000E+00 0.  1.
</event>
<event>
 4    1  0.6116490E+003  0.4031587E+02  0.7546771E-02  0.1346645E+00
          2   -1    0    0  501    0  0.00000000000E+00  0.00000000000E+00  0.20113151024E+04  0.20113151024E+04  0.00000000000E+00 0.  1.
         -2   -1    0    0    0  501 -0.00000000000E+00 -0.00000000000E+00 -0.15113776726E+01  0.15113776726E+01  0.00000000000E+00 0. -1.
          2    1    1    2  502    0 -0.39233781010E+02  0.92779098942E+01  0.16914157837E+04  0.16918961914E+04  0.00000000000E+00 0.  1.
         -2    1    1    2    0  502  0.39233781010E+02 -0.92779098942E+01  0.31838794101E+03  0.32093028864E+03  0.00000000000E+00 0. -1.
</event>
<event>
 4    1  0.6116490E+003  0.2174028E+02  0.7546771E-02  0.1508953E+00
          2   -1    0    0  501    0  0.00000000000E+00  0.00000000000E+00  0.31644603114E+01  0.31644603114E+01  0.00000000000E+00 0.  1.
         -2   -1    0    0    0  501 -0.00000000000E+00 -0.00000000000E+00 -0.19925696684E+03  0.19925696684E+03  0.00000000000E+00 0.  1.
          2    1    1    2  502    0 -0.21737911227E+02  0.32046783325E+00 -0.14869430298E+03  0.15027519830E+03  0.00000000000E+00 0.  1.
         -2    1    1    2    0  502  0.21737911227E+02 -0.32046783325E+00 -0.47398203539E+02  0.52146228846E+02  0.00000000000E+00 0.  1.
</event>
<event>
 4    1  0.6116490E+003  0.2090392E+02  0.7546771E-02  0.1520641E+00
          2   -1    0    0  501    0  0.00000000000E+00  0.00000000000E+00  0.28395816087E+02  0.28395816087E+02  0.00000000000E+00 0.  1.
         -2   -1    0    0    0  501 -0.00000000000E+00 -0.00000000000E+00 -0.20031996086E+02  0.20031996086E+02  0.00000000000E+00 0.  1.
          2    1    1    2  502    0 -0.16398907017E+02 -0.12963391552E+02  0.15839737218E+02  0.26227293933E+02  0.00000000000E+00 0.  1.
         -2    1    1    2    0  502  0.16398907017E+02  0.12963391552E+02 -0.74759172175E+01  0.22200518240E+02  0.00000000000E+00 0.  1.
</event>
<event>
 4    1  0.6116490E+003  0.2703796E+02  0.7546771E-02  0.1447227E+00
          2   -1    0    0  501    0  0.00000000000E+00  0.00000000000E+00  0.17447481965E+04  0.17447481965E+04  0.00000000000E+00 0. -1.
         -2   -1    0    0    0  501 -0.00000000000E+00 -0.00000000000E+00 -0.31628868284E+01  0.31628868284E+01  0.00000000000E+00 0.  1.
          2    1    1    2  502    0  0.24684944556E+02 -0.11031988906E+02  0.16848041376E+04  0.16850210780E+04  0.00000000000E+00 0. -1.
         -2    1    1    2    0  502 -0.24684944556E+02  0.11031988906E+02  0.56781172068E+02  0.62890005313E+02  0.00000000000E+00 0.  1.
</event>
<event>
 4    1  0.6116490E+003  0.2264573E+02  0.7546771E-02  0.1496995E+00
          2   -1    0    0  501    0  0.00000000000E+00  0.00000000000E+00  0.14821868270E+04  0.14821868270E+04  0.00000000000E+00 0.  1.
         -2   -1    0    0    0  501 -0.00000000000E+00 -0.00000000000E+00 -0.15226298484E+01  0.15226298484E+01  0.00000000000E+00 0.  1.
          2    1    1    2  502    0 -0.19672851288E+02 -0.11216416834E+02  0.13924746995E+04  0.13926588303E+04  0.00000000000E+00 0.  1.
         -2    1    1    2    0  502  0.19672851288E+02  0.11216416834E+02  0.88189497638E+02  0.91050626456E+02  0.00000000000E+00 0.  1.
</event>
<event>
 4    1  0.6116490E+003  0.3578115E+02  0.7546771E-02  0.1375153E+00
          2   -1    0    0  501    0  0.00000000000E+00  0.00000000000E+00  0.45928481678E+01  0.45928481678E+01  0.00000000000E+00 0.  1.
         -2   -1    0    0    0  501 -0.00000000000E+00 -0.00000000000E+00 -0.39215078212E+03  0.39215078212E+03  0.00000000000E+00 0. -1.
          2    1    1    2  502    0 -0.31521158493E+02  0.16932426505E+02 -0.87107751682E+02  0.94170329208E+02  0.00000000000E+00 0.  1.
         -2    1    1    2    0  502  0.31521158493E+02 -0.16932426505E+02 -0.30045018227E+03  0.30257330108E+03  0.00000000000E+00 0. -1.
</event>
<event>
 4    1  0.6116490E+003  0.3241428E+02  0.7546771E-02  0.1399714E+00
          2   -1    0    0  501    0  0.00000000000E+00  0.00000000000E+00  0.29517908615E+03  0.29517908615E+03  0.00000000000E+00 0. -1.
         -2   -1    0    0    0  501 -0.00000000000E+00 -0.00000000000E+00 -0.21295664556E+02  0.21295664556E+02  0.00000000000E+00 0. -1.
          2    1    1    2  502    0 -0.57218497187E+01  0.31905268478E+02  0.28135045875E+03  0.28321152229E+03  0.00000000000E+00 0. -1.
         -2    1    1    2    0  502  0.57218497187E+01 -0.31905268478E+02 -0.74670371516E+01  0.33263228416E+02  0.00000000000E+00 0. -1.
</event>
<event>
 4    1  0.6116490E+003  0.3102011E+02  0.7546771E-02  0.1410934E+00
          2   -1    0    0  501    0  0.00000000000E+00  0.00000000000E+00  0.21047513189E+03  0.21047513189E+03  0.00000000000E+00 0. -1.
         -2   -1    0    0    0  501 -0.00000000000E+00 -0.00000000000E+00 -0.87664874567E+01  0.87664874567E+01  0.00000000000E+00 0.  1.
          2    1    1    2  502    0 -0.23005099040E+02  0.20808951230E+02  0.17668252838E+03  0.17938495719E+03  0.00000000000E+00 0. -1.
         -2    1    1    2    0  502  0.23005099040E+02 -0.20808951230E+02  0.25026116052E+02  0.39856662150E+02  0.00000000000E+00 0.  1.
</event>
<event>
 4    1  0.6116490E+003  0.2041417E+02  0.7546771E-02  0.1527796E+00
          2   -1    0    0  501    0  0.00000000000E+00  0.00000000000E+00  0.14114395403E+04  0.14114395403E+04  0.00000000000E+00 0. -1.
         -2   -1    0    0    0  501 -0.00000000000E+00 -0.00000000000E+00 -0.85396674844E+00  0.85396674844E+00  0.00000000000E+00 0.  1.
          2    1    1    2  502    0  0.18862757957E+01  0.20326839477E+02  0.12764653348E+04  0.12766285636E+04  0.00000000000E+00 0. -1.
         -2    1    1    2    0  502 -0.18862757957E+01 -0.20326839477E+02  0.13412023873E+03  0.13566494343E+03  0.00000000000E+00 0.  1.
</event>
<event>
 4    1  0.6116490E+003  0.3569680E+02  0.7546771E-02  0.1375730E+00
          2   -1    0    0  501    0  0.00000000000E+00  0.00000000000E+00  0.16505270084E+04  0.16505270084E+04  0.00000000000E+00 0.  1.
         -2   -1    0    0    0  501 -0.00000000000E+00 -0.00000000000E+00 -0.22086198538E+02  0.22086198538E+02  0.00000000000E+00 0.  1.
          2    1    1    2  502    0  0.32060189364E+01  0.35552541084E+02  0.16357802507E+04  0.16361697010E+04  0.00000000000E+00 0.  1.
         -2    1    1    2    0  502 -0.32060189364E+01 -0.35552541084E+02 -0.73394408583E+01  0.36443505965E+02  0.00000000000E+00 0.  1.
</event>
<event>
 4    1  0.6116490E+003  0.5718639E+02  0.7546771E-02  0.1269704E+00
          2   -1    0    0  501    0  0.00000000000E+00  0.00000000000E+00  0.31945128990E+03  0.31945128990E+03  0.00000000000E+00 0.  1.
         -2   -1    0    0    0  501 -0.00000000000E+00 -0.00000000000E+00 -0.14147285652E+03  0.14147285652E+03  0.00000000000E+00 0. -1.
          2    1    1    2  502    0  0.54792366571E+02 -0.16373147563E+02  0.31095643760E+03  0.31617113954E+03  0.00000000000E+00 0.  1.
         -2    1    1    2    0  502 -0.54792366571E+02  0.16373147563E+02 -0.13297800422E+03  0.14475300688E+03  0.00000000000E+00 0. -1.
</event>
<event>
 4    1  0.6116490E+003  0.2267860E+02  0.7546771E-02  0.1496574E+00
          2   -1    0    0  501    0  0.00000000000E+00  0.00000000000E+00  0.23857030527E+02  0.23857030527E+02  0.00000000000E+00 0. -1.
         -2   -1    0    0    0  501 -0.00000000000E+00 -0.00000000000E+00 -0.79882790534E+02  0.79882790534E+02  0.00000000000E+00 0. -1.
          2    1    1    2  502    0 -0.41390957450E+01 -0.22297681967E+02  0.16308583723E+02  0.27933647054E+02  0.00000000000E+00 0. -1.
         -2    1    1    2    0  502  0.41390957450E+01  0.22297681967E+02 -0.72334343730E+02  0.75806174007E+02  0.00000000000E+00 0. -1.
</event>
<event>
 4    1  0.6116490E+003  0.2004625E+02  0.7546771E-02  0.1533330E+00
          2   -1    0    0  501    0  0.00000000000E+00  0.00000000000E+00  0.18152567436E+03  0.18152567436E+03  0.00000000000E+00 0. -1.
         -2   -1    0    0    0  501 -0.00000000000E+00 -0.00000000000E+00 -0.54907277590E+02  0.54907277590E+02  0.00000000000E+00 0.  1.
          2    1    1    2  502    0  0.19875731730E+02 -0.26090825574E+01  0.17911803534E+03  0.18023629659E+03  0.00000000000E+00 0. -1.
         -2    1    1    2    0  502 -0.19875731730E+02  0.26090825574E+01 -0.52499638572E+02  0.56196655361E+02  0.00000000000E+00 0.  1.
</event>
<event>
 4    1  0.6116490E+003  0.2464987E+02  0.7546771E-02  0.1472759E+00
          2   -1    0    0  501    0  0.00000000000E+00  0.00000000000E+00  0.11551684726E+03  0.11551684726E+03  0.00000000000E+00 0. -1.
         -2   -1    0    0    0  501 -0.00000000000E+00 -0.00000000000E+00 -0.65503157728E+01  0.65503157728E+01  0.00000000000E+00 0. -1.
          2    1    1    2  502    0 -0.98843790910E+01 -0.22581303863E+02  0.81572031088E+02  0.85215095434E+02  0.00000000000E+00 0. -1.
         -2    1    1    2    0  502  0.98843790910E+01  0.22581303863E+02  0.27394500402E+02  0.36852067600E+02  0.00000000000E+00 0. -1.
</event>
<event>
 4    1  0.6116490E+003  0.2022099E+02  0.7546771E-02  0.1530684E+00
          2   -1    0    0  501    0  0.00000000000E+00  0.00000000000E+00  0.86424009993E+03  0.86424009993E+03  0.00000000000E+00 0. -1.
         -2   -1    0    0    0  501 -0.00000000000E+00 -0.00000000000E+00 -0.83350278830E+00  0.83350278830E+00  0.00000000000E+00 0. -1.
          2    1    1    2  502    0  0.20207595477E+02  0.73596815792E+00  0.71611800743E+03  0.71640344020E+03  0.00000000000E+00 0. -1.
         -2    1    1    2    0  502 -0.20207595477E+02 -0.73596815792E+00  0.14728858971E+03  0.14867016252E+03  0.00000000000E+00 0. -1.
</event>
<event>
 4    1  0.6116490E+003  0.2741109E+02  0.7546771E-02  0.1443522E+00
          2   -1    0    0  501    0  0.00000000000E+00  0.00000000000E+00  0.13873236432E+04  0.13873236432E+04  0.00000000000E+00 0.  1.
         -2   -1    0    0    0  501 -0.00000000000E+00 -0.00000000000E+00 -0.91107011440E+01  0.91107011440E+01  0.00000000000E+00 0.  1.
          2    1    1    2  502    0 -0.17450176938E+02  0.21139049858E+02  0.13662525631E+04  0.13665275095E+04  0.00000000000E+00 0.  1.
         -2    1    1    2    0  502  0.17450176938E+02 -0.21139049858E+02  0.11960378949E+02  0.29906834815E+02  0.00000000000E+00 0.  1.
</event>
<event>
 4    1  0.6116490E+003  0.2534043E+02  0.7546771E-02  0.1465031E+00
          2   -1    0    0  501    0  0.00000000000E+00  0.00000000000E+00  0.12897281284E+03  0.12897281284E+03  0.00000000000E+00 0.  1.
         -2   -1    0    0    0  501 -0.00000000000E+00 -0.00000000000E+00 -0.16493153591E+03  0.16493153591E+03  0.00000000000E+00 0. -1.
          2    1    1    2  502    0  0.20753590876E+02  0.14540490316E+02  0.12673776202E+03  0.12924626771E+03  0.00000000000E+00 0.  1.
         -2    1    1    2    0  502 -0.20753590876E+02 -0.14540490316E+02 -0.16269648509E+03  0.16465808105E+03  0.00000000000E+00 0. -1.
</event>
<event>
 4    1  0.6116490E+003  0.2130445E+02  0.7546771E-02  0.1514962E+00
          2   -1    0    0  501    0  0.00000000000E+00  0.00000000000E+00  0.85886260258E+03  0.85886260258E+03  0.00000000000E+00 0.  1.
         -2   -1    0    0    0  501 -0.00000000000E+00 -0.00000000000E+00 -0.66168877287E+00  0.66168877287E+00  0.00000000000E+00 0. -1.
          2    1    1    2  502    0  0.19755265508E+02 -0.79755373967E+01  0.62193749744E+03  0.62230228220E+03  0.00000000000E+00 0.  1.
         -2    1    1    2    0  502 -0.19755265508E+02  0.79755373967E+01  0.23626341637E+03  0.23722200915E+03  0.00000000000E+00 0. -1.
</event>
<event>
 4    1  0.6116490E+003  0.3982149E+02  0.7546771E-02  0.1349535E+00
          2   -1    0    0  501    0  0.00000000000E+00  0.00000000000E+00  0.21556526237E+04  0.21556526237E+04  0.00000000000E+00 0. -1.
         -2   -1    0    0    0  501 -0.00000000000E+00 -0.00000000000E+00 -0.27661230117E+01  0.27661230117E+01  0.00000000000E+00 0. -1.
          2    1    1    2  502    0  0.33263780194E+02 -0.21892285064E+02  0.20010802865E+04  0.20014764711E+04  0.00000000000E+00 0. -1.
         -2    1    1    2    0  502 -0.33263780194E+02  0.21892285064E+02  0.15180621418E+03  0.15694227564E+03  0.00000000000E+00 0. -1.
</event>
<event>
 4    1  0.6116490E+003  0.2486207E+02  0.7546771E-02  0.1470352E+00
          2   -1    0    0  501    0  0.00000000000E+00  0.00000000000E+00  0.96341779853E+03  0.96341779853E+03  0.00000000000E+00 0. -1.
         -2   -1    0    0    0  501 -0.00000000000E+00 -0.00000000000E+00 -0.90684447208E+01  0.90684447208E+01  0.00000000000E+00 0.  1.
          2    1    1    2  502    0 -0.13917563631E+02 -0.20601549117E+02  0.94590142156E+03  0.94622810236E+03  0.00000000000E+00 0. -1.
         -2    1    1    2    0  502  0.13917563631E+02  0.20601549117E+02  0.84479322536E+01  0.26258140886E+02  0.00000000000E+00 0.  1.
</event>
<event>
 4    1  0.6116490E+003  0.2046906E+02  0.7546771E-02  0.1526982E+00
          2   -1    0    0  501    0  0.00000000000E+00  0.00000000000E+00  0.90038711641E+03  0.90038711641E+03  0.00000000000E+00 0.  1.
         -2   -1    0    0    0  501 -0.00000000000E+00 -0.00000000000E+00 -0.64409287959E+01  0.64409287959E+01  0.00000000000E+00 0. -1.
          2    1    1    2  502    0 -0.18597970556E+02  0.85497309305E+01  0.88370125900E+03  0.88393828833E+03  0.00000000000E+00 0.  1.
         -2    1    1    2    0  502  0.18597970556E+02 -0.85497309305E+01  0.10244928614E+02  0.22889756881E+02  0.00000000000E+00 0. -1.
</event>
<event>
 4    1  0.6116490E+003  0.2635216E+02  0.7546771E-02  0.1454227E+00
          2   -1    0    0  501    0  0.00000000000E+00  0.00000000000E+00  0.40852558555E+03  0.40852558555E+03  0.00000000000E+00 0.  1.
         -2   -1    0    0    0  501 -0.00000000000E+00 -0.00000000000E+00 -0.22223870526E+02  0.22223870526E+02  0.00000000000E+00 0. -1.
          2    1    1    2  502    0  0.22892987299E+02  0.13051716263E+02  0.40012496135E+03  0.40099179650E+03  0.00000000000E+00 0.  1.
         -2    1    1    2    0  502 -0.22892987299E+02 -0.13051716263E+02 -0.13823246321E+02  0.29757659581E+02  0.00000000000E+00 0. -1.
</event>
<event>
 4    1  0.6116490E+003  0.3093788E+02  0.7546771E-02  0.1411617E+00
          2   -1    0    0  501    0  0.00000000000E+00  0.00000000000E+00  0.15234416223E+04  0.15234416223E+04  0.00000000000E+00 0.  1.
         -2   -1    0    0    0  501 -0.00000000000E+00 -0.00000000000E+00 -0.39702325106E+02  0.39702325106E+02  0.00000000000E+00 0. -1.
          2    1    1    2  502    0  0.30232597362E+02 -0.65682975851E+01  0.15172328347E+04  0.15175482290E+04  0.00000000000E+00 0.  1.
         -2    1    1    2    0  502 -0.30232597362E+02  0.65682975851E+01 -0.33493537576E+02  0.45595718393E+02  0.00000000000E+00 0. -1.
</event>
<event>
 4    1  0.6116490E+003  0.2420684E+02  0.7546771E-02  0.1477875E+00
          2   -1    0    0  501    0  0.00000000000E+00  0.00000000000E+00  0.18757637521E+03  0.18757637521E+03  0.00000000000E+00 0. -1.
         -2   -1    0    0    0  501 -0.00000000000E+00 -0.00000000000E+00 -0.21407114731E+02  0.21407114731E+02  0.00000000000E+00 0.  1.
          2    1    1    2  502    0 -0.10574867823E+02  0.21774831677E+02  0.17965171305E+03  0.18127523032E+03  0.00000000000E+00 0. -1.
         -2    1    1    2    0  502  0.10574867823E+02 -0.21774831677E+02 -0.13482452573E+02  0.27708259624E+02  0.00000000000E+00 0.  1.
</event>
<event>
 4    1  0.6116490E+003  0.2141846E+02  0.7546771E-02  0.1513373E+00
          2   -1    0    0  501    0  0.00000000000E+00  0.00000000000E+00  0.49358233687E+03  0.49358233687E+03  0.00000000000E+00 0.  1.
         -2   -1    0    0    0  501 -0.00000000000E+00 -0.00000000000E+00 -0.10986396152E+01  0.10986396152E+01  0.00000000000E+00 0.  1.
          2    1    1    2  502    0  0.21401553333E+02 -0.85089941859E+00  0.34331058319E+03  0.34397806187E+03  0.00000000000E+00 0.  1.
         -2    1    1    2    0  502 -0.21401553333E+02  0.85089941859E+00  0.14917311407E+03  0.15070291462E+03  0.00000000000E+00 0.  1.
</event>
<event>
 4    1  0.6116490E+003  0.2080630E+02  0.7546771E-02  0.1522048E+00
          2   -1    0    0  501    0  0.00000000000E+00  0.00000000000E+00  0.30528489625E+01  0.30528489625E+01  0.00000000000E+00 0. -1.
         -2   -1    0    0    0  501 -0.00000000000E+00 -0.00000000000E+00 -0.43609590671E+03  0.43609590671E+03  0.00000000000E+00 0.  1.
          2    1    1    2  502    0 -0.20533934836E+02  0.33555558324E+01 -0.36144689796E+02  0.41705405348E+02  0.00000000000E+00 0. -1.
         -2    1    1    2    0  502  0.20533934836E+02 -0.33555558324E+01 -0.39689836795E+03  0.39744335032E+03  0.00000000000E+00 0.  1.
</event>
<event>
 4    1  0.6116490E+003  0.2836046E+02  0.7546771E-02  0.1434401E+00
          2   -1    0    0  501    0  0.00000000000E+00  0.00000000000E+00  0.15567148784E+04  0.15567148784E+04  0.00000000000E+00 0.  1.
         -2   -1    0    0    0  501 -0.00000000000E+00 -0.00000000000E+00 -0.15992727265E+01  0.15992727265E+01  0.00000000000E+00 0.  1.
          2    1    1    2  502    0 -0.27884434421E+02 -0.51743473827E+01  0.14186158001E+04  0.14188992578E+04  0.00000000000E+00 0.  1.
         -2    1    1    2    0  502  0.27884434421E+02  0.51743473827E+01  0.13649980561E+03  0.13941489334E+03  0.00000000000E+00 0.  1.
</event>
<event>
 4    1  0.6116490E+003  0.2472759E+02  0.7546771E-02  0.1471874E+00
          2   -1    0    0  501    0  0.00000000000E+00  0.00000000000E+00  0.62116607229E+02  0.62116607229E+02  0.00000000000E+00 0.  1.
         -2   -1    0    0    0  501 -0.00000000000E+00 -0.00000000000E+00 -0.16916850852E+03  0.16916850852E+03  0.00000000000E+00 0.  1.
          2    1    1    2  502    0  0.24183117049E+02 -0.51604697073E+01  0.58701658679E+02  0.63697239575E+02  0.00000000000E+00 0.  1.
         -2    1    1    2    0  502 -0.24183117049E+02  0.51604697073E+01 -0.16575355997E+03  0.16758787618E+03  0.00000000000E+00 0.  1.
</event>
<event>
 4    1  0.6116490E+003  0.2055833E+02  0.7546771E-02  0.1525665E+00
          2   -1    0    0  501    0  0.00000000000E+00  0.00000000000E+00  0.78555360322E+01  0.78555360322E+01  0.00000000000E+00 0.  1.
         -2   -1    0    0    0  501 -0.00000000000E+00 -0.00000000000E+00 -0.89950756969E+02  0.89950756969E+02  0.00000000000E+00 0.  1.
          2    1    1    2  502    0 -0.14326799314E+02  0.14744079630E+02 -0.10046309535E+02  0.22881726290E+02  0.00000000000E+00 0.  1.
         -2    1    1    2    0  502  0.14326799314E+02 -0.14744079630E+02 -0.72048911402E+02  0.74924566711E+02  0.00000000000E+00 0.  1.
</event>
<event>
 4    1  0.6116490E+003  0.2442669E+02  0.7546771E-02  0.1475320E+00
          2   -1    0    0  501    0  0.00000000000E+00  0.00000000000E+00  0.14612155739E+03  0.14612155739E+03  0.00000000000E+00 0.  1.
         -2   -1    0    0    0  501 -0.00000000000E+00 -0.00000000000E+00 -0.21357073905E+02  0.21357073905E+02  0.00000000000E+00 0.  1.
          2    1    1    2  502    0 -0.10903496129E+02  0.21858114766E+02  0.13769207664E+03  0.13984195143E+03  0.00000000000E+00 0.  1.
         -2    1    1    2    0  502  0.10903496129E+02 -0.21858114766E+02 -0.12927593161E+02  0.27636679864E+02  0.00000000000E+00 0.  1.
</event>
<event>
 4    1  0.6116490E+003  0.2744444E+02  0.7546771E-02  0.1443194E+00
          2   -1    0    0  501    0  0.00000000000E+00  0.00000000000E+00  0.82433182219E+03  0.82433182219E+03  0.00000000000E+00 0.  1.
         -2   -1    0    0    0  501 -0.00000000000E+00 -0.00000000000E+00 -0.94282243838E+00  0.94282243838E+00  0.00000000000E+00 0. -1.
          2    1    1    2  502    0 -0.26628116808E+02 -0.66438344074E+01  0.48420832095E+03  0.48498545877E+03  0.00000000000E+00 0.  1.
         -2    1    1    2    0  502  0.26628116808E+02  0.66438344074E+01  0.33918067879E+03  0.34028918585E+03  0.00000000000E+00 0. -1.
</event>
<event>
 4    1  0.6116490E+003  0.3748063E+02  0.7546771E-02  0.1363917E+00
          2   -1    0    0  501    0  0.00000000000E+00  0.00000000000E+00  0.19029206727E+02  0.19029206727E+02  0.00000000000E+00 0. -1.
         -2   -1    0    0    0  501 -0.00000000000E+00 -0.00000000000E+00 -0.10213873749E+03  0.10213873749E+03  0.00000000000E+00 0. -1.
          2    1    1    2  502    0  0.37322581913E+02 -0.34383620715E+01 -0.96559396138E+01  0.38704452253E+02  0.00000000000E+00 0. -1.
         -2    1    1    2    0  502 -0.37322581913E+02  0.34383620715E+01 -0.73453591153E+02  0.82463491968E+02  0.00000000000E+00 0. -1.
</event>
<event>
 4    1  0.6116490E+003  0.2319582E+02  0.7546771E-02  0.1490054E+00
          2   -1    0    0  501    0  0.00000000000E+00  0.00000000000E+00  0.82708051371E+02  0.82708051371E+02  0.00000000000E+00 0. -1.
         -2   -1    0    0    0  501 -0.00000000000E+00 -0.00000000000E+00 -0.57901954143E+02  0.57901954143E+02  0.00000000000E+00 0. -1.
          2    1    1    2  502    0 -0.23116782692E+02 -0.19132447990E+01  0.78640980475E+02  0.81990547978E+02  0.00000000000E+00 0. -1.
         -2    1    1    2    0  502  0.23116782692E+02  0.19132447990E+01 -0.53834883246E+02  0.58619457536E+02  0.00000000000E+00 0. -1.
</event>
<event>
 4    1  0.6116490E+003  0.2678592E+02  0.7546771E-02  0.1449771E+00
          2   -1    0    0  501    0  0.00000000000E+00  0.00000000000E+00  0.69760669697E+03  0.69760669697E+03  0.00000000000E+00 0.  1.
         -2   -1    0    0    0  501 -0.00000000000E+00 -0.00000000000E+00 -0.41774088697E+01  0.41774088697E+01  0.00000000000E+00 0.  1.
          2    1    1    2  502    0  0.12606293806E+02  0.23634013796E+02  0.65136409943E+03  0.65191462270E+03  0.00000000000E+00 0.  1.
         -2    1    1    2    0  502 -0.12606293806E+02 -0.23634013796E+02  0.42065188666E+02  0.49869483145E+02  0.00000000000E+00 0.  1.
</event>
<event>
 4    1  0.6116490E+003  0.2217692E+02  0.7546771E-02  0.1503100E+00
          2   -1    0    0  501    0  0.00000000000E+00  0.00000000000E+00  0.39921988148E+03  0.39921988148E+03  0.00000000000E+00 0. -1.
         -2   -1    0    0    0  501 -0.00000000000E+00 -0.00000000000E+00 -0.13076072816E+01  0.13076072816E+01  0.00000000000E+00 0.  1.
          2    1    1    2  502    0 -0.21366642063E+02 -0.59398693129E+01  0.15078197823E+03  0.15240413512E+03  0.00000000000E+00 0.  1.
         -2    1    1    2    0  502  0.21366642063E+02  0.59398693129E+01  0.24713029596E+03  0.24812335364E+03  0.00000000000E+00 0. -1.
</event>
<event>
 4    1  0.6116490E+003  0.4265532E+02  0.7546771E-02  0.1333591E+00
          2   -1    0    0  501    0  0.00000000000E+00  0.00000000000E+00  0.24286221414E+04  0.24286221414E+04  0.00000000000E+00 0.  1.
         -2   -1    0    0    0  501 -0.00000000000E+00 -0.00000000000E+00 -0.43752852033E+01  0.43752852033E+01  0.00000000000E+00 0.  1.
          2    1    1    2  502    0 -0.29459786084E+02  0.30847969659E+02  0.23195849430E+04  0.23199771085E+04  0.00000000000E+00 0.  1.
         -2    1    1    2    0  502  0.29459786084E+02 -0.30847969659E+02  0.10466191324E+03  0.11302031814E+03  0.00000000000E+00 0.  1.
</event>
<event>
 4    1  0.6116490E+003  0.2320852E+02  0.7546771E-02  0.1489896E+00
          2   -1    0    0  501    0  0.00000000000E+00  0.00000000000E+00  0.29574552662E+02  0.29574552662E+02  0.00000000000E+00 0.  1.
         -2   -1    0    0    0  501 -0.00000000000E+00 -0.00000000000E+00 -0.51840626278E+02  0.51840626278E+02  0.00000000000E+00 0. -1.
          2    1    1    2  502    0 -0.21025006428E+02 -0.98277433151E+01  0.21653055648E+02  0.31740986955E+02  0.00000000000E+00 0.  1.
         -2    1    1    2    0  502  0.21025006428E+02  0.98277433151E+01 -0.43919129265E+02  0.49674191985E+02  0.00000000000E+00 0. -1.
</event>
<event>
 4    1  0.6116490E+003  0.5647833E+02  0.7546771E-02  0.1272291E+00
          2   -1    0    0  501    0  0.00000000000E+00  0.00000000000E+00  0.10361759577E+04  0.10361759577E+04  0.00000000000E+00 0.  1.
         -2   -1    0    0    0  501 -0.00000000000E+00 -0.00000000000E+00 -0.30588404076E+02  0.30588404076E+02  0.00000000000E+00 0.  1.
          2    1    1    2  502    0 -0.20148939273E+02 -0.52761934392E+02  0.10086244206E+04  0.10102044463E+04  0.00000000000E+00 0.  1.
         -2    1    1    2    0  502  0.20148939273E+02  0.52761934392E+02 -0.30368670106E+01  0.56559915452E+02  0.00000000000E+00 0.  1.
</event>
<event>
 4    1  0.6116490E+003  0.3313953E+02  0.7546771E-02  0.1394137E+00
          2   -1    0    0  501    0  0.00000000000E+00  0.00000000000E+00  0.24182586615E+01  0.24182586615E+01  0.00000000000E+00 0. -1.
         -2   -1    0    0    0  501 -0.00000000000E+00 -0.00000000000E+00 -0.64552532333E+03  0.64552532333E+03  0.00000000000E+00 0. -1.
          2    1    1    2  502    0 -0.16117177662E+02 -0.28956256735E+02 -0.14515102191E+03  0.14888602144E+03  0.00000000000E+00 0. -1.
         -2    1    1    2    0  502  0.16117177662E+02  0.28956256735E+02 -0.49795604276E+03  0.49905756055E+03  0.00000000000E+00 0. -1.
</event>
<event>
 4    1  0.6116490E+003  0.2956091E+02  0.7546771E-02  0.1423451E+00
          2   -1    0    0  501    0  0.00000000000E+00  0.00000000000E+00  0.95531758846E+03  0.95531758846E+03  0.00000000000E+00 0. -1.
         -2   -1    0    0    0  501 -0.00000000000E+00 -0.00000000000E+00 -0.28411225109E+02  0.28411225109E+02  0.00000000000E+00 0. -1.
          2    1    1    2  502    0 -0.17751404197E+01  0.29507559363E+02  0.94733485306E+03  0.94779595431E+03  0.00000000000E+00 0. -1.
         -2    1    1    2    0  502  0.17751404197E+01 -0.29507559363E+02 -0.20428489706E+02  0.35932859262E+02  0.00000000000E+00 0. -1.
</event>
<event>
 4    1  0.6116490E+003  0.4598365E+02  0.7546771E-02  0.1316593E+00
          2   -1    0    0  501    0  0.00000000000E+00  0.00000000000E+00  0.14404967035E+04  0.14404967035E+04  0.00000000000E+00 0.  1.
         -2   -1    0    0    0  501 -0.00000000000E+00 -0.00000000000E+00 -0.58720770357E+01  0.58720770357E+01  0.00000000000E+00 0. -1.
          2    1    1    2  502    0 -0.44521261482E+02 -0.11504496742E+02  0.13436172880E+04  0.13444039247E+04  0.00000000000E+00 0.  1.
         -2    1    1    2    0  502  0.44521261482E+02  0.11504496742E+02  0.91007338486E+02  0.10196485584E+03  0.00000000000E+00 0. -1.
</event>
<event>
 4    1  0.6116490E+003  0.2213234E+02  0.7546771E-02  0.1503691E+00
          2   -1    0    0  501    0  0.00000000000E+00  0.00000000000E+00  0.17047935930E+03  0.17047935930E+03  0.00000000000E+00 0.  1.
         -2   -1    0    0    0  501 -0.00000000000E+00 -0.00000000000E+00 -0.58629079433E+02  0.58629079433E+02  0.00000000000E+00 0. -1.
          2    1    1    2  502    0  0.76951855473E+01 -0.20751491909E+02  0.16763704386E+03  0.16909174661E+03  0.00000000000E+00 0.  1.
         -2    1    1    2    0  502 -0.76951855473E+01  0.20751491909E+02 -0.55786763991E+02  0.60016692125E+02  0.00000000000E+00 0. -1.
</event>
<event>
 4    1  0.6116490E+003  0.2373162E+02  0.7546771E-02  0.1483510E+00
          2   -1    0    0  501    0  0.00000000000E+00  0.00000000000E+00  0.17263936425E+03  0.17263936425E+03  0.00000000000E+00 0. -1.
         -2   -1    0    0    0  501 -0.00000000000E+00 -0.00000000000E+00 -0.10286765884E+03  0.10286765884E+03  0.00000000000E+00 0.  1.
          2    1    1    2  502    0  0.23588007530E+02  0.26068761097E+01  0.17043748383E+03  0.17208174161E+03  0.00000000000E+00 0. -1.
         -2    1    1    2    0  502 -0.23588007530E+02 -0.26068761097E+01 -0.10066577842E+03  0.10342528147E+03  0.00000000000E+00 0.  1.
</event>
<event>
 4    1  0.6116490E+003  0.2210797E+02  0.7546771E-02  0.1504014E+00
          2   -1    0    0  501    0  0.00000000000E+00  0.00000000000E+00  0.10250354463E+04  0.10250354463E+04  0.00000000000E+00 0.  1.
         -2   -1    0    0    0  501 -0.00000000000E+00 -0.00000000000E+00 -0.37738571152E+01  0.37738571152E+01  0.00000000000E+00 0.  1.
          2    1    1    2  502    0 -0.88682134183E+01  0.20251352037E+02  0.99144108414E+03  0.99168754443E+03  0.00000000000E+00 0.  1.
         -2    1    1    2    0  502  0.88682134183E+01 -0.20251352037E+02  0.29820505042E+02  0.37121758977E+02  0.00000000000E+00 0.  1.
</event>
<event>
 4    1  0.6116490E+003  0.3770308E+02  0.7546771E-02  0.1362498E+00
          2   -1    0    0  501    0  0.00000000000E+00  0.00000000000E+00  0.14654557054E+04  0.14654557054E+04  0.00000000000E+00 0. -1.
         -2   -1    0    0    0  501 -0.00000000000E+00 -0.00000000000E+00 -0.12590979655E+04  0.12590979655E+04  0.00000000000E+00 0. -1.
          2    1    1    2  502    0 -0.24378688826E+02  0.28761118047E+02  0.14649308490E+04  0.14654159528E+04  0.00000000000E+00 0. -1.
         -2    1    1    2    0  502  0.24378688826E+02 -0.28761118047E+02 -0.12585731091E+04  0.12591377181E+04  0.00000000000E+00 0. -1.
</event>
<event>
 4    1  0.6116490E+003  0.2255782E+02  0.7546771E-02  0.1498127E+00
          2   -1    0    0  501    0  0.00000000000E+00  0.00000000000E+00  0.23608445124E+03  0.23608445124E+03  0.00000000000E+00 0.  1.
         -2   -1    0    0    0  501 -0.00000000000E+00 -0.00000000000E+00 -0.57222725011E+02  0.57222725011E+02  0.00000000000E+00 0.  1.
          2    1    1    2  502    0 -0.10448429713E+02 -0.19992132600E+02  0.23329595871E+03  0.23438399988E+03  0.00000000000E+00 0.  1.
         -2    1    1    2    0  502  0.10448429713E+02  0.19992132600E+02 -0.54434232475E+02  0.58923176378E+02  0.00000000000E+00 0.  1.
</event>
<event>
 4    1  0.6116490E+003  0.2122803E+02  0.7546771E-02  0.1516034E+00
          2   -1    0    0  501    0  0.00000000000E+00  0.00000000000E+00  0.16678716536E+04  0.16678716536E+04  0.00000000000E+00 0.  1.
         -2   -1    0    0    0  501 -0.00000000000E+00 -0.00000000000E+00 -0.97239392568E+00  0.97239392568E+00  0.00000000000E+00 0. -1.
          2    1    1    2  502    0  0.15654511496E+02 -0.14337559431E+02  0.15425352175E+04  0.15426812783E+04  0.00000000000E+00 0.  1.
         -2    1    1    2    0  502 -0.15654511496E+02  0.14337559431E+02  0.12436404223E+03  0.12616276923E+03  0.00000000000E+00 0. -1.
</event>
<event>
 4    1  0.6116490E+003  0.2707071E+02  0.7546771E-02  0.1446899E+00
          2   -1    0    0  501    0  0.00000000000E+00  0.00000000000E+00  0.96749631300E+03  0.96749631300E+03  0.00000000000E+00 0.  1.
         -2   -1    0    0    0  501 -0.00000000000E+00 -0.00000000000E+00 -0.25422446377E+01  0.25422446377E+01  0.00000000000E+00 0.  1.
          2    1    1    2  502    0 -0.25751115530E+02 -0.83488590013E+01  0.88886917295E+03  0.88928129971E+03  0.00000000000E+00 0.  1.
         -2    1    1    2    0  502  0.25751115530E+02  0.83488590013E+01  0.76084895409E+02  0.80757257922E+02  0.00000000000E+00 0.  1.
</event>
<event>
 4    1  0.6116490E+003  0.3291557E+02  0.7546771E-02  0.1395841E+00
          2   -1    0    0  501    0  0.00000000000E+00  0.00000000000E+00  0.13982569466E+04  0.13982569466E+04  0.00000000000E+00 0.  1.
         -2   -1    0    0    0  501 -0.00000000000E+00 -0.00000000000E+00 -0.42813170436E+01  0.42813170436E+01  0.00000000000E+00 0. -1.
          2    1    1    2  502    0 -0.31831125088E+01 -0.32761298473E+02  0.13316331736E+04  0.13320399183E+04  0.00000000000E+00 0.  1.
         -2    1    1    2    0  502  0.31831125088E+01  0.32761298473E+02  0.62342455944E+02  0.70498345342E+02  0.00000000000E+00 0. -1.
</event>
<event>
 4    1  0.6443417E+003  0.2262092E+02  0.7546771E-02  0.1497314E+00
          2   -1    0    0  501    0  0.00000000000E+00  0.00000000000E+00  0.89401012283E+03  0.89401012283E+03  0.00000000000E+00 0.  1.
         -2   -1    0    0    0  501 -0.00000000000E+00 -0.00000000000E+00 -0.18203615824E+03  0.18203615824E+03  0.00000000000E+00 0.  1.
          2    1    1    2  502    0 -0.17922749534E+02  0.13801492803E+02  0.89316361050E+03  0.89345002170E+03  0.00000000000E+00 0.  1.
         -2    1    1    2    0  502  0.17922749534E+02 -0.13801492803E+02 -0.18118964591E+03  0.18259625938E+03  0.00000000000E+00 0.  1.
</event>
<event>
 4    1  0.6116490E+003  0.2015625E+02  0.7546771E-02  0.1531661E+00
          2   -1    0    0  501    0  0.00000000000E+00  0.00000000000E+00  0.14173373843E+04  0.14173373843E+04  0.00000000000E+00 0. -1.
         -2   -1    0    0    0  501 -0.00000000000E+00 -0.00000000000E+00 -0.45316057979E+01  0.45316057979E+01  0.00000000000E+00 0.  1.
          2    1    1    2  502    0 -0.18964733238E+02  0.68273798424E+01  0.13944850702E+04  0.13946307344E+04  0.00000000000E+00 0. -1.
         -2    1    1    2    0  502  0.18964733238E+02 -0.68273798424E+01  0.18320708279E+02  0.27238255711E+02  0.00000000000E+00 0.  1.
</event>
<event>
 4    1  0.6116490E+003  0.3210432E+02  0.7546771E-02  0.1402150E+00
          2   -1    0    0  501    0  0.00000000000E+00  0.00000000000E+00  0.23766096074E+03  0.23766096074E+03  0.00000000000E+00 0.  1.
         -2   -1    0    0    0  501 -0.00000000000E+00 -0.00000000000E+00 -0.20969555390E+02  0.20969555390E+02  0.00000000000E+00 0. -1.
          2    1    1    2  502    0  0.95379802910E+01 -0.30654761654E+02  0.22351515232E+03  0.22580901399E+03  0.00000000000E+00 0.  1.
         -2    1    1    2    0  502 -0.95379802910E+01  0.30654761654E+02 -0.68237469738E+01  0.32821502142E+02  0.00000000000E+00 0. -1.
</event>
<event>
 4    1  0.6116490E+003  0.2648653E+02  0.7546771E-02  0.1452835E+00
          2   -1    0    0  501    0  0.00000000000E+00  0.00000000000E+00  0.49508654338E+02  0.49508654338E+02  0.00000000000E+00 0. -1.
         -2   -1    0    0    0  501 -0.00000000000E+00 -0.00000000000E+00 -0.18868182862E+02  0.18868182862E+02  0.00000000000E+00 0.  1.
          2    1    1    2  502    0 -0.25311564622E+02  0.78012881223E+01 -0.17398424158E+01  0.26543595303E+02  0.00000000000E+00 0.  1.
         -2    1    1    2    0  502  0.25311564622E+02 -0.78012881223E+01  0.32380313892E+02  0.41833241898E+02  0.00000000000E+00 0. -1.
</event>
<event>
 4    1  0.6116490E+003  0.2035747E+02  0.7546771E-02  0.1528639E+00
          2   -1    0    0  501    0  0.00000000000E+00  0.00000000000E+00  0.84069122806E+03  0.84069122806E+03  0.00000000000E+00 0. -1.
         -2   -1    0    0    0  501 -0.00000000000E+00 -0.00000000000E+00 -0.24334270962E+01  0.24334270962E+01  0.00000000000E+00 0.  1.
          2    1    1    2  502    0 -0.35216332091E+01  0.20050557699E+02  0.79557761322E+03  0.79583802713E+03  0.00000000000E+00 0. -1.
         -2    1    1    2    0  502  0.35216332091E+01 -0.20050557699E+02  0.42680187739E+02  0.47286628025E+02  0.00000000000E+00 0.  1.
</event>
<event>
 4    1  0.6116490E+003  0.3016749E+02  0.7546771E-02  0.1418146E+00
          2   -1    0    0  501    0  0.00000000000E+00  0.00000000000E+00  0.27565647717E+02  0.27565647717E+02  0.00000000000E+00 0.  1.
         -2   -1    0    0    0  501 -0.00000000000E+00 -0.00000000000E+00 -0.81629181447E+02  0.81629181447E+02  0.00000000000E+00 0. -1.
          2    1    1    2  502    0 -0.28953887159E+02  0.84705236761E+01  0.15102093505E+02  0.33736487387E+02  0.00000000000E+00 0.  1.
         -2    1    1    2    0  502  0.28953887159E+02 -0.84705236761E+01 -0.69165627234E+02  0.75458341777E+02  0.00000000000E+00 0. -1.
</event>
<event>
 4    1  0.6116490E+003  0.2840421E+02  0.7546771E-02  0.1433991E+00
          2   -1    0    0  501    0  0.00000000000E+00  0.00000000000E+00  0.42918500040E+03  0.42918500040E+03  0.00000000000E+00 0.  1.
         -2   -1    0    0    0  501 -0.00000000000E+00 -0.00000000000E+00 -0.29018487959E+01  0.29018487959E+01  0.00000000000E+00 0.  1.
          2    1    1    2  502    0  0.22946148614E+02 -0.16741373831E+02  0.34135422668E+03  0.34253395073E+03  0.00000000000E+00 0.  1.
         -2    1    1    2    0  502 -0.22946148614E+02  0.16741373831E+02  0.84928924929E+02  0.89552898465E+02  0.00000000000E+00 0.  1.
</event>
<event>
 4    1  0.6116490E+003  0.2147911E+02  0.7546771E-02  0.1512533E+00
          2   -1    0    0  501    0  0.00000000000E+00  0.00000000000E+00  0.12322818760E+04  0.12322818760E+04  0.00000000000E+00 0.  1.
         -2   -1    0    0    0  501 -0.00000000000E+00 -0.00000000000E+00 -0.22837564025E+02  0.22837564025E+02  0.00000000000E+00 0. -1.
          2    1    1    2  502    0  0.69701662835E+01  0.20316716157E+02  0.12271166569E+04  0.12273046247E+04  0.00000000000E+00 0.  1.
         -2    1    1    2    0  502 -0.69701662835E+01 -0.20316716157E+02 -0.17672344957E+02  0.27814815291E+02  0.00000000000E+00 0. -1.
</event>
<event>
 4    1  0.6116490E+003  0.2812335E+02  0.7546771E-02  0.1436639E+00
          2   -1    0    0  501    0  0.00000000000E+00  0.00000000000E+00  0.36384285635E+03  0.36384285635E+03  0.00000000000E+00 0. -1.
         -2   -1    0    0    0  501 -0.00000000000E+00 -0.00000000000E+00 -0.32115297881E+01  0.32115297881E+01  0.00000000000E+00 0. -1.
          2    1    1    2  502    0 -0.66598499532E+01 -0.27323418920E+02  0.28464006051E+03  0.28602602481E+03  0.00000000000E+00 0. -1.
         -2    1    1    2    0  502  0.66598499532E+01  0.27323418920E+02  0.75991266047E+02  0.81028361320E+02  0.00000000000E+00 0. -1.
</event>
<event>
 4    1  0.6116490E+003  0.2724264E+02  0.7546771E-02  0.1445186E+00
          2   -1    0    0  501    0  0.00000000000E+00  0.00000000000E+00  0.19098909841E+04  0.19098909841E+04  0.00000000000E+00 0.  1.
         -2   -1    0    0    0  501 -0.00000000000E+00 -0.00000000000E+00 -0.94277052944E+00  0.94277052944E+00  0.00000000000E+00 0.  1.
          2    1    1    2  502    0 -0.74865095832E+01  0.26193766891E+02  0.16869885897E+04  0.16872085417E+04  0.00000000000E+00 0.  1.
         -2    1    1    2    0  502  0.74865095832E+01 -0.26193766891E+02  0.22195962381E+03  0.22362521292E+03  0.00000000000E+00 0.  1.
</event>
<event>
 4    1  0.6116490E+003  0.5564536E+02  0.7546771E-02  0.1275392E+00
          2   -1    0    0  501    0  0.00000000000E+00  0.00000000000E+00  0.17894721963E+04  0.17894721963E+04  0.00000000000E+00 0. -1.
         -2   -1    0    0    0  501 -0.00000000000E+00 -0.00000000000E+00 -0.12800197994E+02  0.12800197994E+02  0.00000000000E+00 0. -1.
          2    1    1    2  502    0  0.40081733087E+02  0.38598712977E+02  0.17263533282E+04  0.17272499008E+04  0.00000000000E+00 0. -1.
         -2    1    1    2    0  502 -0.40081733087E+02 -0.38598712977E+02  0.50318670096E+02  0.75022493500E+02  0.00000000000E+00 0. -1.
</event>
<event>
 4    1  0.6116490E+003  0.2988708E+02  0.7546771E-02  0.1420580E+00
          2   -1    0    0  501    0  0.00000000000E+00  0.00000000000E+00  0.81351784543E+02  0.81351784543E+02  0.00000000000E+00 0.  1.
         -2   -1    0    0    0  501 -0.00000000000E+00 -0.00000000000E+00 -0.14194287085E+02  0.14194287085E+02  0.00000000000E+00 0.  1.
          2    1    1    2  502    0 -0.29863834764E+02  0.11785522682E+01  0.56312573937E+02  0.63752204634E+02  0.00000000000E+00 0.  1.
         -2    1    1    2    0  502  0.29863834764E+02 -0.11785522682E+01  0.10844923521E+02  0.31793866994E+02  0.00000000000E+00 0.  1.
</event>
<event>
 4    1  0.6116490E+003  0.2537258E+02  0.7546771E-02  0.1464678E+00
          2   -1    0    0  501    0  0.00000000000E+00  0.00000000000E+00  0.17909295281E+04  0.17909295281E+04  0.00000000000E+00 0. -1.
         -2   -1    0    0    0  501 -0.00000000000E+00 -0.00000000000E+00 -0.45790749908E+00  0.45790749908E+00  0.00000000000E+00 0. -1.
          2    1    1    2  502    0 -0.22428848934E+02  0.11862305813E+02  0.13105463478E+04  0.13107919352E+04  0.00000000000E+00 0. -1.
         -2    1    1    2    0  502  0.22428848934E+02 -0.11862305813E+02  0.47992527281E+03  0.48059550044E+03  0.00000000000E+00 0. -1.
</event>
<event>
 4    1  0.6116490E+003  0.2083553E+02  0.7546771E-02  0.1521626E+00
          2   -1    0    0  501    0  0.00000000000E+00  0.00000000000E+00  0.11003810031E+04  0.11003810031E+04  0.00000000000E+00 0. -1.
         -2   -1    0    0    0  501 -0.00000000000E+00 -0.00000000000E+00 -0.40732960530E+00  0.40732960530E+00  0.00000000000E+00 0. -1.
          2    1    1    2  502    0  0.12322189731E+01 -0.20799062798E+02  0.64760124826E+03  0.64793633648E+03  0.00000000000E+00 0. -1.
         -2    1    1    2    0  502 -0.12322189731E+01  0.20799062798E+02  0.45237242519E+03  0.45285199618E+03  0.00000000000E+00 0. -1.
</event>
<event>
 4    1  0.6116490E+003  0.2240461E+02  0.7546771E-02  0.1500113E+00
          2   -1    0    0  501    0  0.00000000000E+00  0.00000000000E+00  0.50510076891E+02  0.50510076891E+02  0.00000000000E+00 0.  1.
         -2   -1    0    0    0  501 -0.00000000000E+00 -0.00000000000E+00 -0.10007273631E+02  0.10007273631E+02  0.00000000000E+00 0.  1.
          2    1    1    2  502    0 -0.11939584747E+02  0.18958186929E+02  0.22769877679E+02  0.31944230545E+02  0.00000000000E+00 0.  1.
         -2    1    1    2    0  502  0.11939584747E+02 -0.18958186929E+02  0.17732925580E+02  0.28573119977E+02  0.00000000000E+00 0.  1.
</event>
<event>
 4    1  0.6116490E+003  0.6634349E+02  0.7546771E-02  0.1239680E+00
          2   -1    0    0  501    0  0.00000000000E+00  0.00000000000E+00  0.24974685579E+04  0.24974685579E+04  0.00000000000E+00 0.  1.
         -2   -1    0    0    0  501 -0.00000000000E+00 -0.00000000000E+00 -0.15486275677E+03  0.15486275677E+03  0.00000000000E+00 0.  1.
          2    1    1    2  502    0 -0.26043806753E+02 -0.61017861494E+02  0.24899009547E+04  0.24907846602E+04  0.00000000000E+00 0.  1.
         -2    1    1    2    0  502  0.26043806753E+02  0.61017861494E+02 -0.14729515359E+03  0.16154665444E+03  0.00000000000E+00 0.  1.
</event>
<event>
 4    1  0.6116490E+003  0.3305854E+02  0.7546771E-02  0.1394751E+00
          2   -1    0    0  501    0  0.00000000000E+00  0.00000000000E+00  0.29561749120E+03  0.29561749120E+03  0.00000000000E+00 0. -1.
         -2   -1    0    0    0  501 -0.00000000000E+00 -0.00000000000E+00 -0.37377569959E+01  0.37377569959E+01  0.00000000000E+00 0. -1.
          2    1    1    2  502    0  0.76429007591E+01  0.32162899743E+02  0.13028948170E+03  0.13441806089E+03  0.00000000000E+00 0. -1.
         -2    1    1    2    0  502 -0.76429007591E+01 -0.32162899743E+02  0.16159025250E+03  0.16493718730E+03  0.00000000000E+00 0. -1.
</event>
<event>
 4    1  0.6116490E+003  0.2788728E+02  0.7546771E-02  0.1438893E+00
          2   -1    0    0  501    0  0.00000000000E+00  0.00000000000E+00  0.90246110939E+02  0.90246110939E+02  0.00000000000E+00 0.  1.
         -2   -1    0    0    0  501 -0.00000000000E+00 -0.00000000000E+00 -0.48821792454E+02  0.48821792454E+02  0.00000000000E+00 0.  1.
          2    1    1    2  502    0  0.58371279622E+01 -0.27269545694E+02  0.83811671810E+02  0.88329477055E+02  0.00000000000E+00 0.  1.
         -2    1    1    2    0  502 -0.58371279622E+01  0.27269545694E+02 -0.42387353326E+02  0.50738426337E+02  0.00000000000E+00 0.  1.
</event>
<event>
 4    1  0.6116490E+003  0.2293699E+02  0.7546771E-02  0.1493291E+00
          2   -1    0    0  501    0  0.00000000000E+00  0.00000000000E+00  0.17582849011E+04  0.17582849011E+04  0.00000000000E+00 0. -1.
         -2   -1    0    0    0  501 -0.00000000000E+00 -0.00000000000E+00 -0.75938511720E+00  0.75938511720E+00  0.00000000000E+00 0. -1.
          2    1    1    2  502    0 -0.16430637103E+02 -0.16004359827E+02  0.15634226743E+04  0.15635909196E+04  0.00000000000E+00 0. -1.
         -2    1    1    2    0  502  0.16430637103E+02  0.16004359827E+02  0.19410284169E+03  0.19545336661E+03  0.00000000000E+00 0. -1.
</event>
<event>
 4    1  0.6116490E+003  0.3620145E+02  0.7546771E-02  0.1372308E+00
          2   -1    0    0  501    0  0.00000000000E+00  0.00000000000E+00  0.17604360253E+02  0.17604360253E+02  0.00000000000E+00 0. -1.
         -2   -1    0    0    0  501 -0.00000000000E+00 -0.00000000000E+00 -0.75190898627E+02  0.75190898627E+02  0.00000000000E+00 0.  1.
          2    1    1    2  502    0  0.36164317126E+02  0.16389214692E+01 -0.33416685631E+02  0.49266812108E+02  0.00000000000E+00 0. -1.
         -2    1    1    2    0  502 -0.36164317126E+02 -0.16389214692E+01 -0.24169852742E+02  0.43528446772E+02  0.00000000000E+00 0.  1.
</event>
<event>
 4    1  0.6116490E+003  0.2212612E+02  0.7546771E-02  0.1503773E+00
          2   -1    0    0  501    0  0.00000000000E+00  0.00000000000E+00  0.15845329833E+04  0.15845329833E+04  0.00000000000E+00 0. -1.
         -2   -1    0    0    0  501 -0.00000000000E+00 -0.00000000000E+00 -0.30900291814E+00  0.30900291814E+00  0.00000000000E+00 0. -1.
          2    1    1    2  502    0 -0.13091502494E+02  0.17837542843E+02  0.80087987805E+03  0.80118546195E+03  0.00000000000E+00 0. -1.
         -2    1    1    2    0  502  0.13091502494E+02 -0.17837542843E+02  0.78334410233E+03  0.78365652427E+03  0.00000000000E+00 0. -1.
</event>
<event>
 4    1  0.6116490E+003  0.3090662E+02  0.7546771E-02  0.1411878E+00
          2   -1    0    0  501    0  0.00000000000E+00  0.00000000000E+00  0.12141317738E+03  0.12141317738E+03  0.00000000000E+00 0.  1.
         -2   -1    0    0    0  501 -0.00000000000E+00 -0.00000000000E+00 -0.55582439230E+02  0.55582439230E+02  0.00000000000E+00 0.  1.
          2    1    1    2  502    0 -0.30521221861E+02 -0.48656204346E+01  0.11491102827E+03  0.11899480520E+03  0.00000000000E+00 0.  1.
         -2    1    1    2    0  502  0.30521221861E+02  0.48656204346E+01 -0.49080290121E+02  0.58000811412E+02  0.00000000000E+00 0.  1.
</event>
<event>
 4    1  0.6116490E+003  0.2201875E+02  0.7546771E-02  0.1505201E+00
          2   -1    0    0  501    0  0.00000000000E+00  0.00000000000E+00  0.56384548574E+02  0.56384548574E+02  0.00000000000E+00 0.  1.
         -2   -1    0    0    0  501 -0.00000000000E+00 -0.00000000000E+00 -0.34909027010E+02  0.34909027010E+02  0.00000000000E+00 0. -1.
          2    1    1    2  502    0  0.19357354545E+01  0.21933498644E+02  0.50366084240E+02  0.54968790019E+02  0.00000000000E+00 0.  1.
         -2    1    1    2    0  502 -0.19357354545E+01 -0.21933498644E+02 -0.28890562676E+02  0.36324785564E+02  0.00000000000E+00 0. -1.
</event>
<event>
 4    1  0.6116490E+003  0.2564967E+02  0.7546771E-02  0.1461665E+00
          2   -1    0    0  501    0  0.00000000000E+00  0.00000000000E+00  0.57181388593E+03  0.57181388593E+03  0.00000000000E+00 0. -1.
         -2   -1    0    0    0  501 -0.00000000000E+00 -0.00000000000E+00 -0.22937662736E+01  0.22937662736E+01  0.00000000000E+00 0.  1.
          2    1    1    2  502    0 -0.25190972573E+02  0.48291287267E+01  0.48741222946E+03  0.48808665932E+03  0.00000000000E+00 0. -1.
         -2    1    1    2    0  502  0.25190972573E+02 -0.48291287267E+01  0.82107890197E+02  0.86020992880E+02  0.00000000000E+00 0.  1.
</event>
<event>
 4    1  0.6116490E+003  0.2718478E+02  0.7546771E-02  0.1445761E+00
          2   -1    0    0  501    0  0.00000000000E+00  0.00000000000E+00  0.12015904706E+03  0.12015904706E+03  0.00000000000E+00 0.  1.
         -2   -1    0    0    0  501 -0.00000000000E+00 -0.00000000000E+00 -0.14227820414E+02  0.14227820414E+02  0.00000000000E+00 0.  1.
          2    1    1    2  502    0 -0.26244761029E+02 -0.70869471530E+01  0.10359435128E+03  0.10710182967E+03  0.00000000000E+00 0.  1.
         -2    1    1    2    0  502  0.26244761029E+02  0.70869471530E+01  0.23368753627E+01  0.27285037802E+02  0.00000000000E+00 0.  1.
</event>
<event>
 4    1  0.6116490E+003  0.2204556E+02  0.7546771E-02  0.1504844E+00
          2   -1    0    0  501    0  0.00000000000E+00  0.00000000000E+00  0.57553830490E+02  0.57553830490E+02  0.00000000000E+00 0. -1.
         -2   -1    0    0    0  501 -0.00000000000E+00 -0.00000000000E+00 -0.85510440309E+02  0.85510440309E+02  0.00000000000E+00 0. -1.
          2    1    1    2  502    0 -0.41868632843E+01 -0.21644329785E+02  0.53930044876E+02  0.58261965092E+02  0.00000000000E+00 0. -1.
         -2    1    1    2    0  502  0.41868632843E+01  0.21644329785E+02 -0.81886654695E+02  0.84802305707E+02  0.00000000000E+00 0. -1.
</event>
<event>
 4    1  0.6116490E+003  0.3110992E+02  0.7546771E-02  0.1410190E+00
          2   -1    0    0  501    0  0.00000000000E+00  0.00000000000E+00  0.22268973817E+02  0.22268973817E+02  0.00000000000E+00 0.  1.
         -2   -1    0    0    0  501 -0.00000000000E+00 -0.00000000000E+00 -0.15628989776E+03  0.15628989776E+03  0.00000000000E+00 0. -1.
          2    1    1    2  502    0  0.31012025134E+02 -0.24660696274E+01  0.88466946238E+01  0.32343333287E+02  0.00000000000E+00 0.  1.
         -2    1    1    2    0  502 -0.31012025134E+02  0.24660696274E+01 -0.14286761856E+03  0.14621553829E+03  0.00000000000E+00 0. -1.
</event>
<event>
 4    1  0.6116490E+003  0.2050536E+02  0.7546771E-02  0.1526446E+00
          2   -1    0    0  501    0  0.00000000000E+00  0.00000000000E+00  0.71138787074E+03  0.71138787074E+03  0.00000000000E+00 0.  1.
         -2   -1    0    0    0  501 -0.00000000000E+00 -0.00000000000E+00 -0.47480504703E+01  0.47480504703E+01  0.00000000000E+00 0.  1.
          2    1    1    2  502    0  0.89393558490E+01 -0.18454208446E+02  0.68836058574E+03  0.68866593200E+03  0.00000000000E+00 0.  1.
         -2    1    1    2    0  502 -0.89393558490E+01  0.18454208446E+02  0.18279234528E+02  0.27469989212E+02  0.00000000000E+00 0.  1.
</event>
<event>
 4    1  0.6116490E+003  0.2082303E+02  0.7546771E-02  0.1521807E+00
          2   -1    0    0  501    0  0.00000000000E+00  0.00000000000E+00  0.37089827515E+03  0.37089827515E+03  0.00000000000E+00 0. -1.
         -2   -1    0    0    0  501 -0.00000000000E+00 -0.00000000000E+00 -0.63127127614E+02  0.63127127614E+02  0.00000000000E+00 0.  1.
          2    1    1    2  502    0  0.19898822585E+02 -0.61347732799E+01  0.36887945816E+03  0.36946671466E+03  0.00000000000E+00 0. -1.
         -2    1    1    2    0  502 -0.19898822585E+02  0.61347732799E+01 -0.61108310624E+02  0.64558688113E+02  0.00000000000E+00 0.  1.
</event>
<event>
 4    1  0.6116490E+003  0.2272934E+02  0.7546771E-02  0.1495925E+00
          2   -1    0    0  501    0  0.00000000000E+00  0.00000000000E+00  0.16327447826E+04  0.16327447826E+04  0.00000000000E+00 0. -1.
         -2   -1    0    0    0  501 -0.00000000000E+00 -0.00000000000E+00 -0.14682060986E+02  0.14682060986E+02  0.00000000000E+00 0. -1.
          2    1    1    2  502    0 -0.11090086241E+02  0.19840184437E+02  0.16238204959E+04  0.16239795645E+04  0.00000000000E+00 0. -1.
         -2    1    1    2    0  502  0.11090086241E+02 -0.19840184437E+02 -0.57577743131E+01  0.23447279083E+02  0.00000000000E+00 0. -1.
</event>
<event>
 4    1  0.6116490E+003  0.4408115E+02  0.7546771E-02  0.1326098E+00
          2   -1    0    0  501    0  0.00000000000E+00  0.00000000000E+00  0.10324258965E+03  0.10324258965E+03  0.00000000000E+00 0.  1.
         -2   -1    0    0    0  501 -0.00000000000E+00 -0.00000000000E+00 -0.21277440090E+02  0.21277440090E+02  0.00000000000E+00 0.  1.
          2    1    1    2  502    0  0.32068823473E+02 -0.30244636124E+02  0.62136288905E+02  0.76184420009E+02  0.00000000000E+00 0.  1.
         -2    1    1    2    0  502 -0.32068823473E+02  0.30244636124E+02  0.19828860655E+02  0.48335609732E+02  0.00000000000E+00 0.  1.
</event>
<event>
 4    1  0.6116490E+003  0.2533707E+02  0.7546771E-02  0.1465068E+00
          2   -1    0    0  501    0  0.00000000000E+00  0.00000000000E+00  0.73002596449E+02  0.73002596449E+02  0.00000000000E+00 0.  1.
         -2   -1    0    0    0  501 -0.00000000000E+00 -0.00000000000E+00 -0.74521895931E+02  0.74521895931E+02  0.00000000000E+00 0.  1.
          2    1    1    2  502    0 -0.20690707595E+02  0.14624010401E+02  0.68513965775E+02  0.73048823175E+02  0.00000000000E+00 0.  1.
         -2    1    1    2    0  502  0.20690707595E+02 -0.14624010401E+02 -0.70033265257E+02  0.74475669205E+02  0.00000000000E+00 0.  1.
</event>
<event>
 4    1  0.6116490E+003  0.2828101E+02  0.7546771E-02  0.1435148E+00
          2   -1    0    0  501    0  0.00000000000E+00  0.00000000000E+00  0.54661857818E+03  0.54661857818E+03  0.00000000000E+00 0.  1.
         -2   -1    0    0    0  501 -0.00000000000E+00 -0.00000000000E+00 -0.13146368866E+02  0.13146368866E+02  0.00000000000E+00 0.  1.
          2    1    1    2  502    0 -0.24973403875E+01 -0.28170535095E+02  0.53058361839E+03  0.53133679702E+03  0.00000000000E+00 0.  1.
         -2    1    1    2    0  502  0.24973403875E+01  0.28170535095E+02  0.28885909205E+01  0.28428150029E+02  0.00000000000E+00 0.  1.
</event>
<event>
 4    1  0.6116490E+003  0.2076356E+02  0.7546771E-02  0.1522668E+00
          2   -1    0    0  501    0  0.00000000000E+00  0.00000000000E+00  0.13022353432E+03  0.13022353432E+03  0.00000000000E+00 0.  1.
         -2   -1    0    0    0  501 -0.00000000000E+00 -0.00000000000E+00 -0.42430780763E+01  0.42430780763E+01  0.00000000000E+00 0.  1.
          2    1    1    2  502    0  0.15485133988E+02  0.13832420129E+02  0.94507630501E+02  0.96761652756E+02  0.00000000000E+00 0.  1.
         -2    1    1    2    0  502 -0.15485133988E+02 -0.13832420129E+02  0.31472825746E+02  0.37704959643E+02  0.00000000000E+00 0.  1.
</event>
<event>
 4    1  0.6116490E+003  0.4346308E+02  0.7546771E-02  0.1329306E+00
          2   -1    0    0  501    0  0.00000000000E+00  0.00000000000E+00  0.13246544523E+04  0.13246544523E+04  0.00000000000E+00 0.  1.
         -2   -1    0    0    0  501 -0.00000000000E+00 -0.00000000000E+00 -0.16056574990E+01  0.16056574990E+01  0.00000000000E+00 0.  1.
          2    1    1    2  502    0 -0.39966528917E+02 -0.17079633786E+02  0.43974466537E+03  0.44188732506E+03  0.00000000000E+00 0.  1.
         -2    1    1    2    0  502  0.39966528917E+02  0.17079633786E+02  0.88330412946E+03  0.88437278477E+03  0.00000000000E+00 0.  1.
</event>
<event>
 4    1  0.6116490E+003  0.2491629E+02  0.7546771E-02  0.1469742E+00
          2   -1    0    0  501    0  0.00000000000E+00  0.00000000000E+00  0.20217126867E+04  0.20217126867E+04  0.00000000000E+00 0. -1.
         -2   -1    0    0    0  501 -0.00000000000E+00 -0.00000000000E+00 -0.30744312557E+00  0.30744312557E+00  0.00000000000E+00 0. -1.
          2    1    1    2  502    0  0.16387542957E+02 -0.18768841641E+02  0.97580220336E+03  0.97612025953E+03  0.00000000000E+00 0. -1.
         -2    1    1    2    0  502 -0.16387542957E+02  0.18768841641E+02  0.10456030402E+04  0.10458998703E+04  0.00000000000E+00 0. -1.
</event>
<event>
 4    1  0.6116490E+003  0.5857037E+02  0.7546771E-02  0.1264769E+00
          2   -1    0    0  501    0  0.00000000000E+00  0.00000000000E+00  0.20076886965E+03  0.20076886965E+03  0.00000000000E+00 0.  1.
         -2   -1    0    0    0  501 -0.00000000000E+00 -0.00000000000E+00 -0.21890287194E+03  0.21890287194E+03  0.00000000000E+00 0. -1.
          2    1    1    2  502    0 -0.10286587334E+02 -0.57659987115E+02  0.19241299197E+03  0.20112992685E+03  0.00000000000E+00 0.  1.
         -2    1    1    2    0  502  0.10286587334E+02  0.57659987115E+02 -0.21054699427E+03  0.21854181474E+03  0.00000000000E+00 0. -1.
</event>
<event>
 4    1  0.6116490E+003  0.2012137E+02  0.7546771E-02  0.1532188E+00
          2   -1    0    0  501    0  0.00000000000E+00  0.00000000000E+00  0.55464210257E+03  0.55464210257E+03  0.00000000000E+00 0. -1.
         -2   -1    0    0    0  501 -0.00000000000E+00 -0.00000000000E+00 -0.73103226061E+00  0.73103226061E+00  0.00000000000E+00 0. -1.
          2    1    1    2  502    0  0.14530028003E+02 -0.13919324420E+02  0.26634523114E+03  0.26710419588E+03  0.00000000000E+00 0. -1.
         -2    1    1    2    0  502 -0.14530028003E+02  0.13919324420E+02  0.28756583917E+03  0.28826893895E+03  0.00000000000E+00 0. -1.
</event>
<event>
 4    1  0.6116490E+003  0.2292055E+02  0.7546771E-02  0.1493498E+00
          2   -1    0    0  501    0  0.00000000000E+00  0.00000000000E+00  0.25905373751E+03  0.25905373751E+03  0.00000000000E+00 0.  1.
         -2   -1    0    0    0  501 -0.00000000000E+00 -0.00000000000E+00 -0.29826344213E+01  0.29826344213E+01  0.00000000000E+00 0. -1.
          2    1    1    2  502    0  0.20679826675E+02 -0.98841583593E+01  0.20215943401E+03  0.20345463518E+03  0.00000000000E+00 0.  1.
         -2    1    1    2    0  502 -0.20679826675E+02  0.98841583593E+01  0.53911669085E+02  0.58581736756E+02  0.00000000000E+00 0. -1.
</event>
<event>
 4    1  0.6116490E+003  0.2977425E+02  0.7546771E-02  0.1421569E+00
          2   -1    0    0  501    0  0.00000000000E+00  0.00000000000E+00  0.13551622527E+03  0.13551622527E+03  0.00000000000E+00 0.  1.
         -2   -1    0    0    0  501 -0.00000000000E+00 -0.00000000000E+00 -0.14724718619E+02  0.14724718619E+02  0.00000000000E+00 0. -1.
          2    1    1    2  502    0  0.56958598847E+01 -0.29224362252E+02  0.11639621897E+03  0.12014402174E+03  0.00000000000E+00 0.  1.
         -2    1    1    2    0  502 -0.56958598847E+01  0.29224362252E+02  0.43952876733E+01  0.30096922144E+02  0.00000000000E+00 0. -1.
</event>
<event>
 4    1  0.6116490E+003  0.2419727E+02  0.7546771E-02  0.1477987E+00
          2   -1    0    0  501    0  0.00000000000E+00  0.00000000000E+00  0.53950013508E+01  0.53950013508E+01  0.00000000000E+00 0.  1.
         -2   -1    0    0    0  501 -0.00000000000E+00 -0.00000000000E+00 -0.13823494974E+03  0.13823494974E+03  0.00000000000E+00 0.  1.
          2    1    1    2  502    0 -0.79234486986E+01  0.22863218190E+02 -0.33128243991E+02  0.41024240824E+02  0.00000000000E+00 0.  1.
         -2    1    1    2    0  502  0.79234486986E+01 -0.22863218190E+02 -0.99711704398E+02  0.10260571027E+03  0.00000000000E+00 0.  1.
</event>
<event>
 4    1  0.6116490E+003  0.2537410E+02  0.7546771E-02  0.1464662E+00
          2   -1    0    0  501    0  0.00000000000E+00  0.00000000000E+00  0.35956678958E+03  0.35956678958E+03  0.00000000000E+00 0.  1.
         -2   -1    0    0    0  501 -0.00000000000E+00 -0.00000000000E+00 -0.18359430155E+01  0.18359430155E+01  0.00000000000E+00 0.  1.
          2    1    1    2  502    0  0.25762494332E+01  0.25242965783E+02  0.15047103175E+03  0.15259546448E+03  0.00000000000E+00 0.  1.
         -2    1    1    2    0  502 -0.25762494332E+01 -0.25242965783E+02  0.20725981481E+03  0.20880726811E+03  0.00000000000E+00 0.  1.
</event>
<event>
 4    1  0.6116490E+003  0.2423411E+02  0.7546771E-02  0.1477557E+00
          2   -1    0    0  501    0  0.00000000000E+00  0.00000000000E+00  0.11881538764E+02  0.11881538764E+02  0.00000000000E+00 0.  1.
         -2   -1    0    0    0  501 -0.00000000000E+00 -0.00000000000E+00 -0.14202757684E+03  0.14202757684E+03  0.00000000000E+00 0.  1.
          2    1    1    2  502    0  0.20724517059E+02 -0.12561306441E+02 -0.29360202141E+01  0.24411313802E+02  0.00000000000E+00 0.  1.
         -2    1    1    2    0  502 -0.20724517059E+02  0.12561306441E+02 -0.12721001786E+03  0.12949780180E+03  0.00000000000E+00 0.  1.
</event>
<event>
 4    1  0.6116490E+003  0.2146779E+02  0.7546771E-02  0.1512690E+00
          2   -1    0    0  501    0  0.00000000000E+00  0.00000000000E+00  0.24442920490E+03  0.24442920490E+03  0.00000000000E+00 0.  1.
         -2   -1    0    0    0  501 -0.00000000000E+00 -0.00000000000E+00 -0.14490968113E+03  0.14490968113E+03  0.00000000000E+00 0. -1.
          2    1    1    2  502    0  0.19091336855E+02 -0.98176750730E+01  0.24315859716E+03  0.24410442286E+03  0.00000000000E+00 0.  1.
         -2    1    1    2    0  502 -0.19091336855E+02  0.98176750730E+01 -0.14363907339E+03  0.14523446317E+03  0.00000000000E+00 0. -1.
</event>
<event>
 4    1  0.6116490E+003  0.4857162E+02  0.7546771E-02  0.1304487E+00
          2   -1    0    0  501    0  0.00000000000E+00  0.00000000000E+00  0.83407866244E+03  0.83407866244E+03  0.00000000000E+00 0.  1.
         -2   -1    0    0    0  501 -0.00000000000E+00 -0.00000000000E+00 -0.29214963164E+01  0.29214963164E+01  0.00000000000E+00 0.  1.
          2    1    1    2  502    0  0.48386146655E+02  0.42406212229E+01  0.49023999217E+03  0.49264028660E+03  0.00000000000E+00 0.  1.
         -2    1    1    2    0  502 -0.48386146655E+02 -0.42406212229E+01  0.34091717396E+03  0.34435987216E+03  0.00000000000E+00 0.  1.
</event>
<event>
 4    1  0.6116490E+003  0.2121563E+02  0.7546771E-02  0.1516208E+00
          2   -1    0    0  501    0  0.00000000000E+00  0.00000000000E+00  0.97305877683E+03  0.97305877683E+03  0.00000000000E+00 0.  1.
         -2   -1    0    0    0  501 -0.00000000000E+00 -0.00000000000E+00 -0.86303956925E+00  0.86303956925E+00  0.00000000000E+00 0. -1.
          2    1    1    2  502    0 -0.19087654648E+02 -0.92609155990E+01  0.81781363455E+03  0.81808877511E+03  0.00000000000E+00 0.  1.
         -2    1    1    2    0  502  0.19087654648E+02  0.92609155990E+01  0.15438210272E+03  0.15583304129E+03  0.00000000000E+00 0. -1.
</event>
<event>
 4    1  0.6116490E+003  0.2190634E+02  0.7546771E-02  0.1506708E+00
          2   -1    0    0  501    0  0.00000000000E+00  0.00000000000E+00  0.14042994748E+04  0.14042994748E+04  0.00000000000E+00 0. -1.
         -2   -1    0    0    0  501 -0.00000000000E+00 -0.00000000000E+00 -0.49503149100E+02  0.49503149100E+02  0.00000000000E+00 0.  1.
          2    1    1    2  502    0  0.12874076545E+02  0.17724161283E+02  0.14017861767E+04  0.14019573364E+04  0.00000000000E+00 0. -1.
         -2    1    1    2    0  502 -0.12874076545E+02 -0.17724161283E+02 -0.46989851024E+02  0.51845287533E+02  0.00000000000E+00 0.  1.
</event>
<event>
 4    1  0.6116490E+003  0.3065289E+02  0.7546771E-02  0.1414006E+00
          2   -1    0    0  501    0  0.00000000000E+00  0.00000000000E+00  0.75926718310E+02  0.75926718310E+02  0.00000000000E+00 0. -1.
         -2   -1    0    0    0  501 -0.00000000000E+00 -0.00000000000E+00 -0.41159795076E+02  0.41159795076E+02  0.00000000000E+00 0.  1.
          2    1    1    2  502    0  0.71293207360E+01  0.29812289862E+02  0.66341181288E+02  0.73080450024E+02  0.00000000000E+00 0. -1.
         -2    1    1    2    0  502 -0.71293207360E+01 -0.29812289862E+02 -0.31574258054E+02  0.44006063362E+02  0.00000000000E+00 0.  1.
</event>
<event>
 4    1  0.6116490E+003  0.3481090E+02  0.7546771E-02  0.1381898E+00
          2   -1    0    0  501    0  0.00000000000E+00  0.00000000000E+00  0.37037456786E+01  0.37037456786E+01  0.00000000000E+00 0. -1.
         -2   -1    0    0    0  501 -0.00000000000E+00 -0.00000000000E+00 -0.92908154037E+03  0.92908154037E+03  0.00000000000E+00 0. -1.
          2    1    1    2  502    0  0.33755743709E+02 -0.85057861504E+01 -0.87295344748E+02  0.93980188583E+02  0.00000000000E+00 0. -1.
         -2    1    1    2    0  502 -0.33755743709E+02  0.85057861504E+01 -0.83808244994E+03  0.83880509746E+03  0.00000000000E+00 0. -1.
</event>
<event>
 4    1  0.6116490E+003  0.3301807E+02  0.7546771E-02  0.1395059E+00
          2   -1    0    0  501    0  0.00000000000E+00  0.00000000000E+00  0.15649035482E+04  0.15649035482E+04  0.00000000000E+00 0.  1.
         -2   -1    0    0    0  501 -0.00000000000E+00 -0.00000000000E+00 -0.13441213961E+03  0.13441213961E+03  0.00000000000E+00 0. -1.
          2    1    1    2  502    0  0.32881932339E+02 -0.29952556840E+01  0.15626988191E+04  0.15630475975E+04  0.00000000000E+00 0.  1.
         -2    1    1    2    0  502 -0.32881932339E+02  0.29952556840E+01 -0.13220741050E+03  0.13626809026E+03  0.00000000000E+00 0. -1.
</event>
<event>
 4    1  0.6116490E+003  0.3486726E+02  0.7546771E-02  0.1381499E+00
          2   -1    0    0  501    0  0.00000000000E+00  0.00000000000E+00  0.25019736380E+01  0.25019736380E+01  0.00000000000E+00 0.  1.
         -2   -1    0    0    0  501 -0.00000000000E+00 -0.00000000000E+00 -0.49292694788E+03  0.49292694788E+03  0.00000000000E+00 0. -1.
          2    1    1    2  502    0  0.15080265363E+02 -0.31437397400E+02 -0.27477583076E+03  0.27697920776E+03  0.00000000000E+00 0. -1.
         -2    1    1    2    0  502 -0.15080265363E+02  0.31437397400E+02 -0.21564914348E+03  0.21844971376E+03  0.00000000000E+00 0.  1.
</event>
<event>
 4    1  0.6116490E+003  0.4408693E+02  0.7546771E-02  0.1326069E+00
          2   -1    0    0  501    0  0.00000000000E+00  0.00000000000E+00  0.29487700810E+03  0.29487700810E+03  0.00000000000E+00 0. -1.
         -2   -1    0    0    0  501 -0.00000000000E+00 -0.00000000000E+00 -0.66107760753E+01  0.66107760753E+01  0.00000000000E+00 0. -1.
          2    1    1    2  502    0 -0.23763369126E+02 -0.37134345944E+02  0.15229056575E+03  0.15854360213E+03  0.00000000000E+00 0. -1.
         -2    1    1    2    0  502  0.23763369126E+02  0.37134345944E+02  0.13597566628E+03  0.14294418205E+03  0.00000000000E+00 0. -1.
</event>
<event>
 4    1  0.6116490E+003  0.5833063E+02  0.7546771E-02  0.1265613E+00
          2   -1    0    0  501    0  0.00000000000E+00  0.00000000000E+00  0.10264503587E+03  0.10264503587E+03  0.00000000000E+00 0.  1.
         -2   -1    0    0    0  501 -0.00000000000E+00 -0.00000000000E+00 -0.33400310693E+02  0.33400310693E+02  0.00000000000E+00 0. -1.
          2    1    1    2  502    0 -0.53905850739E+02 -0.22284997724E+02  0.40536324898E+02  0.71032777671E+02  0.00000000000E+00 0.  1.
         -2    1    1    2    0  502  0.53905850739E+02  0.22284997724E+02  0.28708400279E+02  0.65012568893E+02  0.00000000000E+00 0. -1.
</event>
<event>
 4    1  0.6116490E+003  0.2895713E+02  0.7546771E-02  0.1428881E+00
          2   -1    0    0  501    0  0.00000000000E+00  0.00000000000E+00  0.26662364680E+03  0.26662364680E+03  0.00000000000E+00 0. -1.
         -2   -1    0    0    0  501 -0.00000000000E+00 -0.00000000000E+00 -0.33511009900E+03  0.33511009900E+03  0.00000000000E+00 0.  1.
          2    1    1    2  502    0 -0.27593550603E+02 -0.87812982261E+01  0.26520853191E+03  0.26678470839E+03  0.00000000000E+00 0. -1.
         -2    1    1    2    0  502  0.27593550603E+02  0.87812982261E+01 -0.33369498412E+03  0.33494903741E+03  0.00000000000E+00 0.  1.
</event>
<event>
 4    1  0.6116490E+003  0.2137723E+02  0.7546771E-02  0.1513947E+00
          2   -1    0    0  501    0  0.00000000000E+00  0.00000000000E+00  0.13707313922E+01  0.13707313922E+01  0.00000000000E+00 0. -1.
         -2   -1    0    0    0  501 -0.00000000000E+00 -0.00000000000E+00 -0.34098945791E+03  0.34098945791E+03  0.00000000000E+00 0. -1.
          2    1    1    2  502    0  0.20499494056E+02  0.60627045309E+01 -0.19536731929E+03  0.19653339433E+03  0.00000000000E+00 0. -1.
         -2    1    1    2    0  502 -0.20499494056E+02 -0.60627045309E+01 -0.14425140723E+03  0.14582679497E+03  0.00000000000E+00 0. -1.
</event>
<event>
 4    1  0.6116490E+003  0.5014005E+02  0.7546771E-02  0.1297566E+00
          2   -1    0    0  501    0  0.00000000000E+00  0.00000000000E+00  0.20764594097E+03  0.20764594097E+03  0.00000000000E+00 0. -1.
         -2   -1    0    0    0  501 -0.00000000000E+00 -0.00000000000E+00 -0.30072394676E+03  0.30072394676E+03  0.00000000000E+00 0. -1.
          2    1    1    2  502    0  0.49144038333E+02 -0.99442740340E+01  0.20247658183E+03  0.20859240466E+03  0.00000000000E+00 0. -1.
         -2    1    1    2    0  502 -0.49144038333E+02  0.99442740340E+01 -0.29555458763E+03  0.29977748307E+03  0.00000000000E+00 0. -1.
</event>
<event>
 4    1  0.6116490E+003  0.2670915E+02  0.7546771E-02  0.1450552E+00
          2   -1    0    0  501    0  0.00000000000E+00  0.00000000000E+00  0.49711239495E+03  0.49711239495E+03  0.00000000000E+00 0. -1.
         -2   -1    0    0    0  501 -0.00000000000E+00 -0.00000000000E+00 -0.14739372214E+01  0.14739372214E+01  0.00000000000E+00 0.  1.
          2    1    1    2  502    0 -0.43157423353E+01  0.26358164624E+02  0.28831449948E+03  0.28954900982E+03  0.00000000000E+00 0. -1.
         -2    1    1    2    0  502  0.43157423353E+01 -0.26358164624E+02  0.20732395825E+03  0.20903732236E+03  0.00000000000E+00 0.  1.
</event>
<event>
 4    1  0.6116490E+003  0.2743663E+02  0.7546771E-02  0.1443271E+00
          2   -1    0    0  501    0  0.00000000000E+00  0.00000000000E+00  0.27877858609E+02  0.27877858609E+02  0.00000000000E+00 0.  1.
         -2   -1    0    0    0  501 -0.00000000000E+00 -0.00000000000E+00 -0.28283414898E+02  0.28283414898E+02  0.00000000000E+00 0.  1.
          2    1    1    2  502    0  0.11892681971E+02  0.24725141746E+02  0.57733732143E+01  0.28037481291E+02  0.00000000000E+00 0.  1.
         -2    1    1    2    0  502 -0.11892681971E+02 -0.24725141746E+02 -0.61789295028E+01  0.28123792217E+02  0.00000000000E+00 0.  1.
</event>
<event>
 4    1  0.6116490E+003  0.2485305E+02  0.7546771E-02  0.1470454E+00
          2   -1    0    0  501    0  0.00000000000E+00  0.00000000000E+00  0.61015687801E+01  0.61015687801E+01  0.00000000000E+00 0.  1.
         -2   -1    0    0    0  501 -0.00000000000E+00 -0.00000000000E+00 -0.10034382223E+04  0.10034382223E+04  0.00000000000E+00 0. -1.
          2    1    1    2  502    0 -0.22828644257E+02  0.98248255802E+01 -0.20037102100E+02  0.31924280052E+02  0.00000000000E+00 0.  1.
         -2    1    1    2    0  502  0.22828644257E+02 -0.98248255802E+01 -0.97729955147E+03  0.97761551108E+03  0.00000000000E+00 0. -1.
</event>
<event>
 4    1  0.6116490E+003  0.2287627E+02  0.7546771E-02  0.1494058E+00
          2   -1    0    0  501    0  0.00000000000E+00  0.00000000000E+00  0.56528532068E+03  0.56528532068E+03  0.00000000000E+00 0. -1.
         -2   -1    0    0    0  501 -0.00000000000E+00 -0.00000000000E+00 -0.11262756638E+03  0.11262756638E+03  0.00000000000E+00 0.  1.
          2    1    1    2  502    0 -0.15141461284E+02  0.17148175254E+02  0.56388937938E+03  0.56435321913E+03  0.00000000000E+00 0. -1.
         -2    1    1    2    0  502  0.15141461284E+02 -0.17148175254E+02 -0.11123162508E+03  0.11355966793E+03  0.00000000000E+00 0.  1.
</event>
<event>
 4    1  0.6116490E+003  0.5022932E+02  0.7546771E-02  0.1297181E+00
          2   -1    0    0  501    0  0.00000000000E+00  0.00000000000E+00  0.16184848118E+03  0.16184848118E+03  0.00000000000E+00 0. -1.
         -2   -1    0    0    0  501 -0.00000000000E+00 -0.00000000000E+00 -0.82305094908E+02  0.82305094908E+02  0.00000000000E+00 0.  1.
          2    1    1    2  502    0 -0.91925112375E+01 -0.49380994635E+02  0.14968150699E+03  0.15788457312E+03  0.00000000000E+00 0. -1.
         -2    1    1    2    0  502  0.91925112375E+01  0.49380994635E+02 -0.70138120723E+02  0.86269002965E+02  0.00000000000E+00 0.  1.
</event>
<event>
 4    1  0.6116490E+003  0.2302301E+02  0.7546771E-02  0.1492209E+00
          2   -1    0    0  501    0  0.00000000000E+00  0.00000000000E+00  0.16379309462E+03  0.16379309462E+03  0.00000000000E+00 0.  1.
         -2   -1    0    0    0  501 -0.00000000000E+00 -0.00000000000E+00 -0.11668964740E+02  0.11668964740E+02  0.00000000000E+00 0. -1.
          2    1    1    2  502    0 -0.22578613106E+02 -0.45016983549E+01  0.15064222947E+03  0.15239140513E+03  0.00000000000E+00 0.  1.
         -2    1    1    2    0  502  0.22578613106E+02  0.45016983549E+01  0.14819004128E+01  0.23070654232E+02  0.00000000000E+00 0. -1.
</event>
<event>
 4    1  0.6116490E+003  0.3350032E+02  0.7546771E-02  0.1391424E+00
          2   -1    0    0  501    0  0.00000000000E+00  0.00000000000E+00  0.92095964370E+02  0.92095964370E+02  0.00000000000E+00 0.  1.
         -2   -1    0    0    0  501 -0.00000000000E+00 -0.00000000000E+00 -0.57412080494E+02  0.57412080494E+02  0.00000000000E+00 0. -1.
          2    1    1    2  502    0  0.14506887219E+02  0.30196384604E+02  0.83689954944E+02  0.90145881650E+02  0.00000000000E+00 0.  1.
         -2    1    1    2    0  502 -0.14506887219E+02 -0.30196384604E+02 -0.49006071067E+02  0.59362163214E+02  0.00000000000E+00 0. -1.
</event>
<event>
 4    1  0.6116490E+003  0.2156248E+02  0.7546771E-02  0.1511384E+00
          2   -1    0    0  501    0  0.00000000000E+00  0.00000000000E+00  0.11105981928E+04  0.11105981928E+04  0.00000000000E+00 0. -1.
         -2   -1    0    0    0  501 -0.00000000000E+00 -0.00000000000E+00 -0.44035568903E+00  0.44035568903E+00  0.00000000000E+00 0. -1.
          2    1    1    2  502    0  0.70286782605E+01  0.20384741785E+02  0.43171406677E+03  0.43225221279E+03  0.00000000000E+00 0. -1.
         -2    1    1    2    0  502 -0.70286782605E+01 -0.20384741785E+02  0.67844377036E+03  0.67878633572E+03  0.00000000000E+00 0. -1.
</event>
<event>
 4    1  0.6116490E+003  0.2192759E+02  0.7546771E-02  0.1506422E+00
          2   -1    0    0  501    0  0.00000000000E+00  0.00000000000E+00  0.16766507423E+03  0.16766507423E+03  0.00000000000E+00 0. -1.
         -2   -1    0    0    0  501 -0.00000000000E+00 -0.00000000000E+00 -0.71215491047E+01  0.71215491047E+01  0.00000000000E+00 0.  1.
          2    1    1    2  502    0  0.21881651397E+02  0.14185957778E+01  0.14781473811E+03  0.14943231205E+03  0.00000000000E+00 0. -1.
         -2    1    1    2    0  502 -0.21881651397E+02 -0.14185957778E+01  0.12728787014E+02  0.25354311284E+02  0.00000000000E+00 0.  1.
</event>
<event>
 4    1  0.6116490E+003  0.2559860E+02  0.7546771E-02  0.1462217E+00
          2   -1    0    0  501    0  0.00000000000E+00  0.00000000000E+00  0.15675406970E+02  0.15675406970E+02  0.00000000000E+00 0.  1.
         -2   -1    0    0    0  501 -0.00000000000E+00 -0.00000000000E+00 -0.13106090720E+03  0.13106090720E+03  0.00000000000E+00 0. -1.
          2    1    1    2  502    0  0.24190855575E+02  0.83720347342E+01  0.28542894289E+01  0.25757240287E+02  0.00000000000E+00 0.  1.
         -2    1    1    2    0  502 -0.24190855575E+02 -0.83720347342E+01 -0.11823978966E+03  0.12097907388E+03  0.00000000000E+00 0. -1.
</event>
<event>
 4    1  0.6116490E+003  0.3288899E+02  0.7546771E-02  0.1396044E+00
          2   -1    0    0  501    0  0.00000000000E+00  0.00000000000E+00  0.66028803699E+02  0.66028803699E+02  0.00000000000E+00 0.  1.
         -2   -1    0    0    0  501 -0.00000000000E+00 -0.00000000000E+00 -0.23870071995E+02  0.23870071995E+02  0.00000000000E+00 0. -1.
          2    1    1    2  502    0 -0.27117136811E+02  0.18610391348E+02  0.46255066492E+02  0.56755765796E+02  0.00000000000E+00 0.  1.
         -2    1    1    2    0  502  0.27117136811E+02 -0.18610391348E+02 -0.40963347874E+01  0.33143109897E+02  0.00000000000E+00 0. -1.
</event>
<event>
 4    1  0.6116490E+003  0.2702192E+02  0.7546771E-02  0.1447388E+00
          2   -1    0    0  501    0  0.00000000000E+00  0.00000000000E+00  0.20408276854E+04  0.20408276854E+04  0.00000000000E+00 0. -1.
         -2   -1    0    0    0  501 -0.00000000000E+00 -0.00000000000E+00 -0.18062009387E+01  0.18062009387E+01  0.00000000000E+00 0.  1.
          2    1    1    2  502    0 -0.25912321534E+02 -0.76639187794E+01  0.19340948975E+04  0.19342836547E+04  0.00000000000E+00 0. -1.
         -2    1    1    2    0  502  0.25912321534E+02  0.76639187794E+01  0.10492658693E+03  0.10835023167E+03  0.00000000000E+00 0.  1.
</event>
<event>
 4    1  0.6116490E+003  0.2972978E+02  0.7546771E-02  0.1421959E+00
          2   -1    0    0  501    0  0.00000000000E+00  0.00000000000E+00  0.20851270923E+04  0.20851270923E+04  0.00000000000E+00 0. -1.
         -2   -1    0    0    0  501 -0.00000000000E+00 -0.00000000000E+00 -0.75983668591E+00  0.75983668591E+00  0.00000000000E+00 0.  1.
          2    1    1    2  502    0  0.26271107394E+02 -0.13917213602E+02  0.17356689061E+04  0.17359235039E+04  0.00000000000E+00 0. -1.
         -2    1    1    2    0  502 -0.26271107394E+02  0.13917213602E+02  0.34869834950E+03  0.34996342504E+03  0.00000000000E+00 0.  1.
</event>
<event>
 4    1  0.6116490E+003  0.3537251E+02  0.7546771E-02  0.1377963E+00
          2   -1    0    0  501    0  0.00000000000E+00  0.00000000000E+00  0.18843783730E+04  0.18843783730E+04  0.00000000000E+00 0. -1.
         -2   -1    0    0    0  501 -0.00000000000E+00 -0.00000000000E+00 -0.33298018886E+01  0.33298018886E+01  0.00000000000E+00 0.  1.
          2    1    1    2  502    0 -0.24958357060E+02 -0.25065808148E+02  0.17850447097E+04  0.17853951467E+04  0.00000000000E+00 0. -1.
         -2    1    1    2    0  502  0.24958357060E+02  0.25065808148E+02  0.96003861365E+02  0.10231302812E+03  0.00000000000E+00 0.  1.
</event>
<event>
 4    1  0.6116490E+003  0.2421786E+02  0.7546771E-02  0.1477747E+00
          2   -1    0    0  501    0  0.00000000000E+00  0.00000000000E+00  0.14246720290E+04  0.14246720290E+04  0.00000000000E+00 0.  1.
         -2   -1    0    0    0  501 -0.00000000000E+00 -0.00000000000E+00 -0.84371936264E+01  0.84371936264E+01  0.00000000000E+00 0. -1.
          2    1    1    2  502    0  0.23925924290E+02 -0.37489901470E+01  0.14069719487E+04  0.14071803613E+04  0.00000000000E+00 0.  1.
         -2    1    1    2    0  502 -0.23925924290E+02  0.37489901470E+01  0.92628866664E+01  0.25928861326E+02  0.00000000000E+00 0. -1.
</event>
<event>
 4    1  0.6116490E+003  0.2389109E+02  0.7546771E-02  0.1481602E+00
          2   -1    0    0  501    0  0.00000000000E+00  0.00000000000E+00  0.13284262385E+01  0.13284262385E+01  0.00000000000E+00 0.  1.
         -2   -1    0    0    0  501 -0.00000000000E+00 -0.00000000000E+00 -0.57614952706E+03  0.57614952706E+03  0.00000000000E+00 0.  1.
          2    1    1    2  502    0 -0.20326964337E+02  0.12553825207E+02 -0.14182198325E+03  0.14382023133E+03  0.00000000000E+00 0.  1.
         -2    1    1    2    0  502  0.20326964337E+02 -0.12553825207E+02 -0.43299911757E+03  0.43365772196E+03  0.00000000000E+00 0.  1.
</event>
<event>
 4    1  0.6116490E+003  0.3732614E+02  0.7546771E-02  0.1364909E+00
          2   -1    0    0  501    0  0.00000000000E+00  0.00000000000E+00  0.15887605299E+04  0.15887605299E+04  0.00000000000E+00 0.  1.
         -2   -1    0    0    0  501 -0.00000000000E+00 -0.00000000000E+00 -0.71511470340E+01  0.71511470340E+01  0.00000000000E+00 0. -1.
          2    1    1    2  502    0 -0.10217917994E+02 -0.35900345048E+02  0.15382347834E+04  0.15386875867E+04  0.00000000000E+00 0.  1.
         -2    1    1    2    0  502  0.10217917994E+02  0.35900345048E+02  0.43374599436E+02  0.57224090198E+02  0.00000000000E+00 0. -1.
</event>
<event>
 4    1  0.6116490E+003  0.7280643E+02  0.7546771E-02  0.1221611E+00
          2   -1    0    0  501    0  0.00000000000E+00  0.00000000000E+00  0.57061393535E+03  0.57061393535E+03  0.00000000000E+00 0.  1.
         -2   -1    0    0    0  501 -0.00000000000E+00 -0.00000000000E+00 -0.12952945385E+02  0.12952945385E+02  0.00000000000E+00 0. -1.
          2    1    1    2  502    0  0.30090953934E+02 -0.66297135022E+02  0.43400317624E+03  0.44006764549E+03  0.00000000000E+00 0.  1.
         -2    1    1    2    0  502 -0.30090953934E+02  0.66297135022E+02  0.12365781373E+03  0.14349923525E+03  0.00000000000E+00 0. -1.
</event>
<event>
 4    1  0.6116490E+003  0.2845429E+02  0.7546771E-02  0.1433522E+00
          2   -1    0    0  501    0  0.00000000000E+00  0.00000000000E+00  0.11328236101E+04  0.11328236101E+04  0.00000000000E+00 0.  1.
         -2   -1    0    0    0  501 -0.00000000000E+00 -0.00000000000E+00 -0.51175809698E+01  0.51175809698E+01  0.00000000000E+00 0. -1.
          2    1    1    2  502    0  0.27614890008E+02 -0.68603605988E+01  0.10915992749E+04  0.10919700654E+04  0.00000000000E+00 0.  1.
         -2    1    1    2    0  502 -0.27614890008E+02  0.68603605988E+01  0.36106754253E+02  0.45971125724E+02  0.00000000000E+00 0. -1.
</event>
<event>
 4    1  0.6116490E+003  0.2493303E+02  0.7546771E-02  0.1469554E+00
          2   -1    0    0  501    0  0.00000000000E+00  0.00000000000E+00  0.19444937955E+03  0.19444937955E+03  0.00000000000E+00 0. -1.
         -2   -1    0    0    0  501 -0.00000000000E+00 -0.00000000000E+00 -0.35628215121E+01  0.35628215121E+01  0.00000000000E+00 0. -1.
          2    1    1    2  502    0 -0.15873594334E+02 -0.19227195433E+02  0.12716781992E+03  0.12958900595E+03  0.00000000000E+00 0. -1.
         -2    1    1    2    0  502  0.15873594334E+02  0.19227195433E+02  0.63718738121E+02  0.68423195110E+02  0.00000000000E+00 0. -1.
</event>
<event>
 4    1  0.6116490E+003  0.5105831E+02  0.7546771E-02  0.1293648E+00
          2   -1    0    0  501    0  0.00000000000E+00  0.00000000000E+00  0.13934998448E+02  0.13934998448E+02  0.00000000000E+00 0.  1.
         -2   -1    0    0    0  501 -0.00000000000E+00 -0.00000000000E+00 -0.55809952920E+03  0.55809952920E+03  0.00000000000E+00 0.  1.
          2    1    1    2  502    0 -0.38181587376E+02  0.33898633831E+02 -0.38878712633E+02  0.64175581697E+02  0.00000000000E+00 0.  1.
         -2    1    1    2    0  502  0.38181587376E+02 -0.33898633831E+02 -0.50528581812E+03  0.50785894595E+03  0.00000000000E+00 0.  1.
</event>
<event>
 4    1  0.6116490E+003  0.3038061E+02  0.7546771E-02  0.1416317E+00
          2   -1    0    0  501    0  0.00000000000E+00  0.00000000000E+00  0.10841818120E+04  0.10841818120E+04  0.00000000000E+00 0.  1.
         -2   -1    0    0    0  501 -0.00000000000E+00 -0.00000000000E+00 -0.18212920724E+01  0.18212920724E+01  0.00000000000E+00 0.  1.
          2    1    1    2  502    0  0.30380364546E+02 -0.12154824249E+00  0.93745079632E+03  0.93794294968E+03  0.00000000000E+00 0.  1.
         -2    1    1    2    0  502 -0.30380364546E+02  0.12154824249E+00  0.14490972357E+03  0.14806015436E+03  0.00000000000E+00 0.  1.
</event>
<event>
 4    1  0.6116490E+003  0.2336169E+02  0.7546771E-02  0.1488006E+00
          2   -1    0    0  501    0  0.00000000000E+00  0.00000000000E+00  0.31768532417E+03  0.31768532417E+03  0.00000000000E+00 0.  1.
         -2   -1    0    0    0  501 -0.00000000000E+00 -0.00000000000E+00 -0.42542673209E+01  0.42542673209E+01  0.00000000000E+00 0.  1.
          2    1    1    2  502    0  0.91724397749E+01 -0.21485693889E+02  0.28100475285E+03  0.28197418290E+03  0.00000000000E+00 0.  1.
         -2    1    1    2    0  502 -0.91724397749E+01  0.21485693889E+02  0.32426303991E+02  0.39965408591E+02  0.00000000000E+00 0.  1.
</event>
<event>
 4    1  0.6116490E+003  0.2110236E+02  0.7546771E-02  0.1517808E+00
          2   -1    0    0  501    0  0.00000000000E+00  0.00000000000E+00  0.78571899633E+03  0.78571899633E+03  0.00000000000E+00 0.  1.
         -2   -1    0    0    0  501 -0.00000000000E+00 -0.00000000000E+00 -0.25382357738E+01  0.25382357738E+01  0.00000000000E+00 0.  1.
          2    1    1    2  502    0  0.11580108428E+02  0.17641166377E+02  0.73894120324E+03  0.73924245786E+03  0.00000000000E+00 0.  1.
         -2    1    1    2    0  502 -0.11580108428E+02 -0.17641166377E+02  0.44239557323E+02  0.49014774247E+02  0.00000000000E+00 0.  1.
</event>
<event>
 4    1  0.6116490E+003  0.2121195E+02  0.7546771E-02  0.1516260E+00
          2   -1    0    0  501    0  0.00000000000E+00  0.00000000000E+00  0.14852679806E+04  0.14852679806E+04  0.00000000000E+00 0. -1.
         -2   -1    0    0    0  501 -0.00000000000E+00 -0.00000000000E+00 -0.58542961165E+01  0.58542961165E+01  0.00000000000E+00 0.  1.
          2    1    1    2  502    0  0.21132783494E+02  0.18309035731E+01  0.14657216402E+04  0.14658751220E+04  0.00000000000E+00 0. -1.
         -2    1    1    2    0  502 -0.21132783494E+02 -0.18309035731E+01  0.13692044346E+02  0.25247154780E+02  0.00000000000E+00 0.  1.
</event>
<event>
 4    1  0.6116490E+003  0.5365684E+02  0.7546771E-02  0.1283051E+00
          2   -1    0    0  501    0  0.00000000000E+00  0.00000000000E+00  0.22922137799E+04  0.22922137799E+04  0.00000000000E+00 0. -1.
         -2   -1    0    0    0  501 -0.00000000000E+00 -0.00000000000E+00 -0.11093447823E+02  0.11093447823E+02  0.00000000000E+00 0.  1.
          2    1    1    2  502    0 -0.44421472933E+02  0.30096336672E+02  0.22250599611E+04  0.22257068287E+04  0.00000000000E+00 0. -1.
         -2    1    1    2    0  502  0.44421472933E+02 -0.30096336672E+02  0.56060370999E+02  0.77600399066E+02  0.00000000000E+00 0.  1.
</event>
<event>
 4    1  0.6116490E+003  0.2440441E+02  0.7546771E-02  0.1475578E+00
          2   -1    0    0  501    0  0.00000000000E+00  0.00000000000E+00  0.14378849144E+04  0.14378849144E+04  0.00000000000E+00 0.  1.
         -2   -1    0    0    0  501 -0.00000000000E+00 -0.00000000000E+00 -0.15624227635E+01  0.15624227635E+01  0.00000000000E+00 0.  1.
          2    1    1    2  502    0  0.22960075425E+02 -0.82710469032E+01  0.13351526903E+04  0.13353757080E+04  0.00000000000E+00 0.  1.
         -2    1    1    2    0  502 -0.22960075425E+02  0.82710469032E+01  0.10116980136E+03  0.10407162912E+03  0.00000000000E+00 0.  1.
</event>
<event>
 4    1  0.6116490E+003  0.2178836E+02  0.7546771E-02  0.1508300E+00
          2   -1    0    0  501    0  0.00000000000E+00  0.00000000000E+00  0.11670115215E+04  0.11670115215E+04  0.00000000000E+00 0.  1.
         -2   -1    0    0    0  501 -0.00000000000E+00 -0.00000000000E+00 -0.80158248393E+00  0.80158248393E+00  0.00000000000E+00 0.  1.
          2    1    1    2  502    0 -0.49483031581E+01 -0.21219013068E+02  0.17332381741E+03  0.17468794435E+03  0.00000000000E+00 0.  1.
         -2    1    1    2    0  502  0.49483031581E+01  0.21219013068E+02  0.99288612162E+03  0.99312515964E+03  0.00000000000E+00 0.  1.
</event>
<event>
 4    1  0.6116490E+003  0.2412902E+02  0.7546771E-02  0.1478788E+00
          2   -1    0    0  501    0  0.00000000000E+00  0.00000000000E+00  0.61834272592E+03  0.61834272592E+03  0.00000000000E+00 0.  1.
         -2   -1    0    0    0  501 -0.00000000000E+00 -0.00000000000E+00 -0.14545006655E+01  0.14545006655E+01  0.00000000000E+00 0. -1.
          2    1    1    2  502    0 -0.73533240159E+01 -0.22981253359E+02  0.49247658223E+03  0.49306733153E+03  0.00000000000E+00 0.  1.
         -2    1    1    2    0  502  0.73533240159E+01  0.22981253359E+02  0.12441164303E+03  0.12672989506E+03  0.00000000000E+00 0. -1.
</event>
<event>
 4    1  0.6116490E+003  0.2867431E+02  0.7546771E-02  0.1431477E+00
          2   -1    0    0  501    0  0.00000000000E+00  0.00000000000E+00  0.30056766280E+02  0.30056766280E+02  0.00000000000E+00 0. -1.
         -2   -1    0    0    0  501 -0.00000000000E+00 -0.00000000000E+00 -0.66914366482E+02  0.66914366482E+02  0.00000000000E+00 0.  1.
          2    1    1    2  502    0 -0.20346016624E+02  0.20205337023E+02  0.18851125940E+02  0.34315899899E+02  0.00000000000E+00 0. -1.
         -2    1    1    2    0  502  0.20346016624E+02 -0.20205337023E+02 -0.55708726143E+02  0.62655232863E+02  0.00000000000E+00 0.  1.
</event>
<event>
 4    1  0.6116490E+003  0.2104917E+02  0.7546771E-02  0.1518564E+00
          2   -1    0    0  501    0  0.00000000000E+00  0.00000000000E+00  0.84769847516E+02  0.84769847516E+02  0.00000000000E+00 0. -1.
         -2   -1    0    0    0  501 -0.00000000000E+00 -0.00000000000E+00 -0.67163423185E+01  0.67163423185E+01  0.00000000000E+00 0. -1.
          2    1    1    2  502    0 -0.21042208692E+02 -0.54122127179E+00  0.60569375426E+02  0.64122669210E+02  0.00000000000E+00 0. -1.
         -2    1    1    2    0  502  0.21042208692E+02  0.54122127179E+00  0.17484129771E+02  0.27363520624E+02  0.00000000000E+00 0. -1.
</event>
<event>
 4    1  0.6116490E+003  0.2347422E+02  0.7546771E-02  0.1486628E+00
          2   -1    0    0  501    0  0.00000000000E+00  0.00000000000E+00  0.41309061276E+02  0.41309061276E+02  0.00000000000E+00 0.  1.
         -2   -1    0    0    0  501 -0.00000000000E+00 -0.00000000000E+00 -0.23819561952E+03  0.23819561952E+03  0.00000000000E+00 0. -1.
          2    1    1    2  502    0  0.59033047901E+01 -0.22719815131E+02  0.37339481880E+02  0.44105282157E+02  0.00000000000E+00 0.  1.
         -2    1    1    2    0  502 -0.59033047901E+01  0.22719815131E+02 -0.23422604012E+03  0.23539939864E+03  0.00000000000E+00 0. -1.
</event>
<event>
 4    1  0.6116490E+003  0.2906415E+02  0.7546771E-02  0.1427907E+00
          2   -1    0    0  501    0  0.00000000000E+00  0.00000000000E+00  0.37764659554E+03  0.37764659554E+03  0.00000000000E+00 0.  1.
         -2   -1    0    0    0  501 -0.00000000000E+00 -0.00000000000E+00 -0.24814882624E+01  0.24814882624E+01  0.00000000000E+00 0. -1.
          2    1    1    2  502    0 -0.10757604486E+02 -0.26999974501E+02  0.24726398100E+03  0.24896626474E+03  0.00000000000E+00 0.  1.
         -2    1    1    2    0  502  0.10757604486E+02  0.26999974501E+02  0.12790112627E+03  0.13116181906E+03  0.00000000000E+00 0. -1.
</event>
<event>
 4    1  0.6116490E+003  0.2081308E+02  0.7546771E-02  0.1521950E+00
          2   -1    0    0  501    0  0.00000000000E+00  0.00000000000E+00  0.83224565211E+03  0.83224565211E+03  0.00000000000E+00 0.  1.
         -2   -1    0    0    0  501 -0.00000000000E+00 -0.00000000000E+00 -0.19116697594E+02  0.19116697594E+02  0.00000000000E+00 0. -1.
          2    1    1    2  502    0 -0.14636254808E+02 -0.14797444798E+02  0.82641053442E+03  0.82667258073E+03  0.00000000000E+00 0.  1.
         -2    1    1    2    0  502  0.14636254808E+02  0.14797444798E+02 -0.13281579904E+02  0.24689768976E+02  0.00000000000E+00 0. -1.
</event>
<event>
 4    1  0.6116490E+003  0.2181275E+02  0.7546771E-02  0.1507970E+00
          2   -1    0    0  501    0  0.00000000000E+00  0.00000000000E+00  0.10686521700E+02  0.10686521700E+02  0.00000000000E+00 0. -1.
         -2   -1    0    0    0  501 -0.00000000000E+00 -0.00000000000E+00 -0.15496045590E+03  0.15496045590E+03  0.00000000000E+00 0. -1.
          2    1    1    2  502    0 -0.11259551686E+02  0.18682033296E+02 -0.22169865173E+01  0.21925120330E+02  0.00000000000E+00 0. -1.
         -2    1    1    2    0  502  0.11259551686E+02 -0.18682033296E+02 -0.14205694768E+03  0.14372185727E+03  0.00000000000E+00 0. -1.
</event>
<event>
 4    1  0.6116490E+003  0.2012137E+02  0.7546771E-02  0.1532188E+00
          2   -1    0    0  501    0  0.00000000000E+00  0.00000000000E+00  0.12250956913E+02  0.12250956913E+02  0.00000000000E+00 0.  1.
         -2   -1    0    0    0  501 -0.00000000000E+00 -0.00000000000E+00 -0.55126497426E+02  0.55126497426E+02  0.00000000000E+00 0. -1.
          2    1    1    2  502    0 -0.19594461982E+02  0.45745438488E+01 -0.11766491029E+00  0.20121710584E+02  0.00000000000E+00 0.  1.
         -2    1    1    2    0  502  0.19594461982E+02 -0.45745438488E+01 -0.42757875603E+02  0.47255743755E+02  0.00000000000E+00 0. -1.
</event>
<event>
 4    1  0.6116490E+003  0.2569771E+02  0.7546771E-02  0.1461147E+00
          2   -1    0    0  501    0  0.00000000000E+00  0.00000000000E+00  0.16125713191E+04  0.16125713191E+04  0.00000000000E+00 0.  1.
         -2   -1    0    0    0  501 -0.00000000000E+00 -0.00000000000E+00 -0.27568547807E+02  0.27568547807E+02  0.00000000000E+00 0.  1.
          2    1    1    2  502    0  0.25239339217E+02 -0.48320071351E+01  0.16064576921E+04  0.16066632158E+04  0.00000000000E+00 0.  1.
         -2    1    1    2    0  502 -0.25239339217E+02  0.48320071351E+01 -0.21454920850E+02  0.33476651053E+02  0.00000000000E+00 0.  1.
</event>
<event>
 4    1  0.6116490E+003  0.2379705E+02  0.7546771E-02  0.1482725E+00
          2   -1    0    0  501    0  0.00000000000E+00  0.00000000000E+00  0.21714802703E+03  0.21714802703E+03  0.00000000000E+00 0.  1.
         -2   -1    0    0    0  501 -0.00000000000E+00 -0.00000000000E+00 -0.31930353127E+03  0.31930353127E+03  0.00000000000E+00 0. -1.
          2    1    1    2  502    0  0.56588695065E+01 -0.23114431709E+02  0.21605042024E+03  0.21735704231E+03  0.00000000000E+00 0.  1.
         -2    1    1    2    0  502 -0.56588695065E+01  0.23114431709E+02 -0.31820592448E+03  0.31909451598E+03  0.00000000000E+00 0. -1.
</event>
<event>
 4    1  0.6116490E+003  0.4271244E+02  0.7546771E-02  0.1333284E+00
          2   -1    0    0  501    0  0.00000000000E+00  0.00000000000E+00  0.16183328197E+03  0.16183328197E+03  0.00000000000E+00 0.  1.
         -2   -1    0    0    0  501 -0.00000000000E+00 -0.00000000000E+00 -0.13177941408E+02  0.13177941408E+02  0.00000000000E+00 0.  1.
          2    1    1    2  502    0 -0.29867840792E+02  0.30533012589E+02  0.10759734649E+03  0.11576502815E+03  0.00000000000E+00 0.  1.
         -2    1    1    2    0  502  0.29867840792E+02 -0.30533012589E+02  0.41057994071E+02  0.59246195224E+02  0.00000000000E+00 0.  1.
</event>
<event>
 4    1  0.6116490E+003  0.4584192E+02  0.7546771E-02  0.1317282E+00
          2   -1    0    0  501    0  0.00000000000E+00  0.00000000000E+00  0.17066724052E+04  0.17066724052E+04  0.00000000000E+00 0.  1.
         -2   -1    0    0    0  501 -0.00000000000E+00 -0.00000000000E+00 -0.24151902341E+01  0.24151902341E+01  0.00000000000E+00 0. -1.
          2    1    1    2  502    0 -0.40314971611E+02 -0.21821658402E+02  0.14504139420E+04  0.14511382032E+04  0.00000000000E+00 0.  1.
         -2    1    1    2    0  502  0.40314971611E+02  0.21821658402E+02  0.25384327303E+03  0.25794939227E+03  0.00000000000E+00 0. -1.
</event>
<event>
 4    1  0.6116490E+003  0.2489243E+02  0.7546771E-02  0.1470010E+00
          2   -1    0    0  501    0  0.00000000000E+00  0.00000000000E+00  0.13898748462E+04  0.13898748462E+04  0.00000000000E+00 0.  1.
         -2   -1    0    0    0  501 -0.00000000000E+00 -0.00000000000E+00 -0.84372220044E+01  0.84372220044E+01  0.00000000000E+00 0.  1.
          2    1    1    2  502    0 -0.22809202086E+02 -0.99686166952E+01  0.13711526146E+04  0.13713785493E+04  0.00000000000E+00 0.  1.
         -2    1    1    2    0  502  0.22809202086E+02  0.99686166952E+01  0.10285009646E+02  0.26933518932E+02  0.00000000000E+00 0.  1.
</event>
<event>
 4    1  0.6116490E+003  0.2616177E+02  0.7546771E-02  0.1456215E+00
          2   -1    0    0  501    0  0.00000000000E+00  0.00000000000E+00  0.53508468527E+03  0.53508468527E+03  0.00000000000E+00 0. -1.
         -2   -1    0    0    0  501 -0.00000000000E+00 -0.00000000000E+00 -0.15433867370E+01  0.15433867370E+01  0.00000000000E+00 0.  1.
          2    1    1    2  502    0  0.25089319084E+02  0.74137460453E+01  0.15574400849E+03  0.15792603883E+03  0.00000000000E+00 0.  1.
         -2    1    1    2    0  502 -0.25089319084E+02 -0.74137460453E+01  0.37779729005E+03  0.37870203318E+03  0.00000000000E+00 0. -1.
</event>
<event>
 4    1  0.6116490E+003  0.2126369E+02  0.7546771E-02  0.1515533E+00
          2   -1    0    0  501    0  0.00000000000E+00  0.00000000000E+00  0.70307050954E+02  0.70307050954E+02  0.00000000000E+00 0.  1.
         -2   -1    0    0    0  501 -0.00000000000E+00 -0.00000000000E+00 -0.17258328415E+02  0.17258328415E+02  0.00000000000E+00 0. -1.
          2    1    1    2  502    0 -0.20419950827E+02 -0.59304452513E+01  0.61203136345E+02  0.64791731503E+02  0.00000000000E+00 0.  1.
         -2    1    1    2    0  502  0.20419950827E+02  0.59304452513E+01 -0.81544138061E+01  0.22773647867E+02  0.00000000000E+00 0. -1.
</event>
<event>
 4    1  0.6116490E+003  0.3214236E+02  0.7546771E-02  0.1401849E+00
          2   -1    0    0  501    0  0.00000000000E+00  0.00000000000E+00  0.54348430093E+03  0.54348430093E+03  0.00000000000E+00 0. -1.
         -2   -1    0    0    0  501 -0.00000000000E+00 -0.00000000000E+00 -0.58125844644E+01  0.58125844644E+01  0.00000000000E+00 0.  1.
          2    1    1    2  502    0 -0.31762871697E+02  0.49245665937E+01  0.49414154631E+03  0.49518582286E+03  0.00000000000E+00 0. -1.
         -2    1    1    2    0  502  0.31762871697E+02 -0.49245665937E+01  0.43530170156E+02  0.54111062532E+02  0.00000000000E+00 0.  1.
</event>
<event>
 4    1  0.6116490E+003  0.2202872E+02  0.7546771E-02  0.1505068E+00
          2   -1    0    0  501    0  0.00000000000E+00  0.00000000000E+00  0.29306001789E+01  0.29306001789E+01  0.00000000000E+00 0.  1.
         -2   -1    0    0    0  501 -0.00000000000E+00 -0.00000000000E+00 -0.18832748521E+03  0.18832748521E+03  0.00000000000E+00 0.  1.
          2    1    1    2  502    0 -0.22007165919E+02 -0.97415897581E+00 -0.59467017843E+02  0.63416011769E+02  0.00000000000E+00 0.  1.
         -2    1    1    2    0  502  0.22007165919E+02  0.97415897581E+00 -0.12592986719E+03  0.12784207362E+03  0.00000000000E+00 0.  1.
</event>
<event>
 4    1  0.6116490E+003  0.2469087E+02  0.7546771E-02  0.1472291E+00
          2   -1    0    0  501    0  0.00000000000E+00  0.00000000000E+00  0.17641523771E+04  0.17641523771E+04  0.00000000000E+00 0. -1.
         -2   -1    0    0    0  501 -0.00000000000E+00 -0.00000000000E+00 -0.44581159596E+00  0.44581159596E+00  0.00000000000E+00 0. -1.
          2    1    1    2  502    0  0.15123845907E+02  0.19516873661E+02  0.13002256482E+04  0.13004600629E+04  0.00000000000E+00 0. -1.
         -2    1    1    2    0  502 -0.15123845907E+02 -0.19516873661E+02  0.46348091729E+03  0.46413812574E+03  0.00000000000E+00 0. -1.
</event>
<event>
 4    1  0.6116490E+003  0.3369885E+02  0.7546771E-02  0.1389949E+00
          2   -1    0    0  501    0  0.00000000000E+00  0.00000000000E+00  0.78848982777E+03  0.78848982777E+03  0.00000000000E+00 0.  1.
         -2   -1    0    0    0  501 -0.00000000000E+00 -0.00000000000E+00 -0.19800840818E+02  0.19800840818E+02  0.00000000000E+00 0. -1.
          2    1    1    2  502    0  0.55106512627E+01  0.33245227563E+02  0.77351438189E+03  0.77424809423E+03  0.00000000000E+00 0.  1.
         -2    1    1    2    0  502 -0.55106512627E+01 -0.33245227563E+02 -0.48253949299E+01  0.34042574363E+02  0.00000000000E+00 0. -1.
</event>
<event>
 4    1  0.6116490E+003  0.2206189E+02  0.7546771E-02  0.1504626E+00
          2   -1    0    0  501    0  0.00000000000E+00  0.00000000000E+00  0.46784570444E+02  0.46784570444E+02  0.00000000000E+00 0.  1.
         -2   -1    0    0    0  501 -0.00000000000E+00 -0.00000000000E+00 -0.57417231478E+02  0.57417231478E+02  0.00000000000E+00 0.  1.
          2    1    1    2  502    0 -0.15690897972E+02  0.15508787920E+02  0.41828722105E+02  0.47290260888E+02  0.00000000000E+00 0.  1.
         -2    1    1    2    0  502  0.15690897972E+02 -0.15508787920E+02 -0.52461383139E+02  0.56911541033E+02  0.00000000000E+00 0.  1.
</event>
<event>
 4    1  0.6116490E+003  0.2902521E+02  0.7546771E-02  0.1428261E+00
          2   -1    0    0  501    0  0.00000000000E+00  0.00000000000E+00  0.20602990419E+02  0.20602990419E+02  0.00000000000E+00 0.  1.
         -2   -1    0    0    0  501 -0.00000000000E+00 -0.00000000000E+00 -0.81455761253E+02  0.81455761253E+02  0.00000000000E+00 0. -1.
          2    1    1    2  502    0 -0.57550746852E+01 -0.28448932135E+02  0.55848084206E+01  0.29557616774E+02  0.00000000000E+00 0.  1.
         -2    1    1    2    0  502  0.57550746852E+01  0.28448932135E+02 -0.66437579255E+02  0.72501134898E+02  0.00000000000E+00 0. -1.
</event>
<event>
 4    1  0.6116490E+003  0.8078025E+02  0.7546771E-02  0.1202048E+00
          2   -1    0    0  501    0  0.00000000000E+00  0.00000000000E+00  0.46958111301E+02  0.46958111301E+02  0.00000000000E+00 0. -1.
         -2   -1    0    0    0  501 -0.00000000000E+00 -0.00000000000E+00 -0.76010109170E+03  0.76010109170E+03  0.00000000000E+00 0. -1.
          2    1    1    2  502    0 -0.73013168833E+02  0.34561918039E+02  0.82107912871E+01  0.81196466027E+02  0.00000000000E+00 0. -1.
         -2    1    1    2    0  502  0.73013168833E+02 -0.34561918039E+02 -0.72135377169E+03  0.72586273698E+03  0.00000000000E+00 0. -1.
</event>
<event>
 4    1  0.6116490E+003  0.3429635E+02  0.7546771E-02  0.1385579E+00
          2   -1    0    0  501    0  0.00000000000E+00  0.00000000000E+00  0.30967729524E+04  0.30967729524E+04  0.00000000000E+00 0.  1.
         -2   -1    0    0    0  501 -0.00000000000E+00 -0.00000000000E+00 -0.42874969591E+00  0.42874969591E+00  0.00000000000E+00 0.  1.
          2    1    1    2  502    0  0.14520863072E+02 -0.31070627775E+02  0.20712793920E+04  0.20715633128E+04  0.00000000000E+00 0.  1.
         -2    1    1    2    0  502 -0.14520863072E+02  0.31070627775E+02  0.10250648108E+04  0.10256383893E+04  0.00000000000E+00 0.  1.
</event>
<event>
 4    1  0.6116490E+003  0.3527857E+02  0.7546771E-02  0.1378615E+00
          2   -1    0    0  501    0  0.00000000000E+00  0.00000000000E+00  0.65241605927E+02  0.65241605927E+02  0.00000000000E+00 0. -1.
         -2   -1    0    0    0  501 -0.00000000000E+00 -0.00000000000E+00 -0.36170290775E+02  0.36170290775E+02  0.00000000000E+00 0. -1.
          2    1    1    2  502    0  0.35011338331E+02 -0.43340420784E+01  0.49393687176E+02  0.60698550768E+02  0.00000000000E+00 0. -1.
         -2    1    1    2    0  502 -0.35011338331E+02  0.43340420784E+01 -0.20322372024E+02  0.40713345934E+02  0.00000000000E+00 0. -1.
</event>
<event>
 4    1  0.6116490E+003  0.2379264E+02  0.7546771E-02  0.1482778E+00
          2   -1    0    0  501    0  0.00000000000E+00  0.00000000000E+00  0.35888169475E+03  0.35888169475E+03  0.00000000000E+00 0.  1.
         -2   -1    0    0    0  501 -0.00000000000E+00 -0.00000000000E+00 -0.36353902851E+01  0.36353902851E+01  0.00000000000E+00 0. -1.
          2    1    1    2  502    0 -0.12854058296E+02 -0.20021559847E+02  0.31400220017E+03  0.31490232039E+03  0.00000000000E+00 0.  1.
         -2    1    1    2    0  502  0.12854058296E+02  0.20021559847E+02  0.41244104291E+02  0.47614764644E+02  0.00000000000E+00 0. -1.
</event>
<event>
 4    1  0.6116490E+003  0.4397094E+02  0.7546771E-02  0.1326666E+00
          2   -1    0    0  501    0  0.00000000000E+00  0.00000000000E+00  0.14438044554E+04  0.14438044554E+04  0.00000000000E+00 0.  1.
         -2   -1    0    0    0  501 -0.00000000000E+00 -0.00000000000E+00 -0.16576921395E+01  0.16576921395E+01  0.00000000000E+00 0. -1.
          2    1    1    2  502    0 -0.40081153779E+02 -0.18081617341E+02  0.10378994914E+04  0.10388304953E+04  0.00000000000E+00 0.  1.
         -2    1    1    2    0  502  0.40081153779E+02  0.18081617341E+02  0.40424727184E+03  0.40663165220E+03  0.00000000000E+00 0. -1.
</event>
<event>
 4    1  0.6116490E+003  0.3255832E+02  0.7546771E-02  0.1398593E+00
          2   -1    0    0  501    0  0.00000000000E+00  0.00000000000E+00  0.80926460083E+02  0.80926460083E+02  0.00000000000E+00 0.  1.
         -2   -1    0    0    0  501 -0.00000000000E+00 -0.00000000000E+00 -0.19065560215E+02  0.19065560215E+02  0.00000000000E+00 0.  1.
          2    1    1    2  502    0  0.32470624305E+02 -0.23880405665E+01  0.58899502603E+02  0.67299298566E+02  0.00000000000E+00 0.  1.
         -2    1    1    2    0  502 -0.32470624305E+02  0.23880405665E+01  0.29613972639E+01  0.32692721732E+02  0.00000000000E+00 0.  1.
</event>
<event>
 4    1  0.6116490E+003  0.2429514E+02  0.7546771E-02  0.1476845E+00
          2   -1    0    0  501    0  0.00000000000E+00  0.00000000000E+00  0.76465657479E+03  0.76465657479E+03  0.00000000000E+00 0.  1.
         -2   -1    0    0    0  501 -0.00000000000E+00 -0.00000000000E+00 -0.10807424064E+02  0.10807424064E+02  0.00000000000E+00 0.  1.
          2    1    1    2  502    0  0.19205501964E+02 -0.14879601104E+02  0.75055319910E+03  0.75094630868E+03  0.00000000000E+00 0.  1.
         -2    1    1    2    0  502 -0.19205501964E+02  0.14879601104E+02  0.32959516298E+01  0.24517690182E+02  0.00000000000E+00 0.  1.
</event>
<event>
 4    1  0.6116490E+003  0.6427199E+02  0.7546771E-02  0.1245970E+00
          2   -1    0    0  501    0  0.00000000000E+00  0.00000000000E+00  0.97384495284E+03  0.97384495284E+03  0.00000000000E+00 0. -1.
         -2   -1    0    0    0  501 -0.00000000000E+00 -0.00000000000E+00 -0.54936502024E+02  0.54936502024E+02  0.00000000000E+00 0. -1.
          2    1    1    2  502    0 -0.81925904657E+00  0.64266772729E+02  0.95358712302E+03  0.95575064240E+03  0.00000000000E+00 0. -1.
         -2    1    1    2    0  502  0.81925904657E+00 -0.64266772729E+02 -0.34678672208E+02  0.73030812459E+02  0.00000000000E+00 0. -1.
</event>
<event>
 4    1  0.6116490E+003  0.2064022E+02  0.7546771E-02  0.1524464E+00
          2   -1    0    0  501    0  0.00000000000E+00  0.00000000000E+00  0.11361373489E+04  0.11361373489E+04  0.00000000000E+00 0.  1.
         -2   -1    0    0    0  501 -0.00000000000E+00 -0.00000000000E+00 -0.12488053169E+01  0.12488053169E+01  0.00000000000E+00 0. -1.
          2    1    1    2  502    0  0.20258667883E+02 -0.39503216388E+01  0.10431573559E+04  0.10433615326E+04  0.00000000000E+00 0.  1.
         -2    1    1    2    0  502 -0.20258667883E+02  0.39503216388E+01  0.91731187722E+02  0.94024621596E+02  0.00000000000E+00 0. -1.
</event>
<event>
 4    1  0.6116490E+003  0.3680762E+02  0.7546771E-02  0.1368282E+00
          2   -1    0    0  501    0  0.00000000000E+00  0.00000000000E+00  0.12620026555E+04  0.12620026555E+04  0.00000000000E+00 0.  1.
         -2   -1    0    0    0  501 -0.00000000000E+00 -0.00000000000E+00 -0.11308765218E+02  0.11308765218E+02  0.00000000000E+00 0. -1.
          2    1    1    2  502    0 -0.29976864367E+02 -0.21358565791E+02  0.12310306755E+04  0.12315808235E+04  0.00000000000E+00 0.  1.
         -2    1    1    2    0  502  0.29976864367E+02  0.21358565791E+02  0.19663214763E+02  0.41730597224E+02  0.00000000000E+00 0. -1.
</event>
<event>
 4    1  0.6116490E+003  0.3917735E+02  0.7546771E-02  0.1353375E+00
          2   -1    0    0  501    0  0.00000000000E+00  0.00000000000E+00  0.31166907680E+03  0.31166907680E+03  0.00000000000E+00 0. -1.
         -2   -1    0    0    0  501 -0.00000000000E+00 -0.00000000000E+00 -0.52881190362E+01  0.52881190362E+01  0.00000000000E+00 0. -1.
          2    1    1    2  502    0 -0.23322672611E+02  0.31478847278E+02  0.19473813250E+03  0.19863988807E+03  0.00000000000E+00 0. -1.
         -2    1    1    2    0  502  0.23322672611E+02 -0.31478847278E+02  0.11164282527E+03  0.11831730777E+03  0.00000000000E+00 0. -1.
</event>
<event>
 4    1  0.6116490E+003  0.2639926E+02  0.7546771E-02  0.1453738E+00
          2   -1    0    0  501    0  0.00000000000E+00  0.00000000000E+00  0.46118505716E+01  0.46118505716E+01  0.00000000000E+00 0.  1.
         -2   -1    0    0    0  501 -0.00000000000E+00 -0.00000000000E+00 -0.55790509201E+03  0.55790509201E+03  0.00000000000E+00 0.  1.
          2    1    1    2  502    0  0.24769169648E+02  0.91328713796E+01 -0.36481197752E+02  0.45031088085E+02  0.00000000000E+00 0.  1.
         -2    1    1    2    0  502 -0.24769169648E+02 -0.91328713796E+01 -0.51681204369E+03  0.51748585450E+03  0.00000000000E+00 0.  1.
</event>
<event>
 4    1  0.6116490E+003  0.2737027E+02  0.7546771E-02  0.1443924E+00
          2   -1    0    0  501    0  0.00000000000E+00  0.00000000000E+00  0.87621442269E+03  0.87621442269E+03  0.00000000000E+00 0.  1.
         -2   -1    0    0    0  501 -0.00000000000E+00 -0.00000000000E+00 -0.58488426221E+01  0.58488426221E+01  0.00000000000E+00 0.  1.
          2    1    1    2  502    0 -0.17907135075E+01  0.27311629123E+02  0.84270732992E+03  0.84315169195E+03  0.00000000000E+00 0.  1.
         -2    1    1    2    0  502  0.17907135075E+01 -0.27311629123E+02  0.27658250150E+02  0.38911573363E+02  0.00000000000E+00 0.  1.
</event>
<event>
 4    1  0.6116490E+003  0.3957105E+02  0.7546771E-02  0.1351018E+00
          2   -1    0    0  501    0  0.00000000000E+00  0.00000000000E+00  0.28645179544E+02  0.28645179544E+02  0.00000000000E+00 0.  1.
         -2   -1    0    0    0  501 -0.00000000000E+00 -0.00000000000E+00 -0.55331571790E+02  0.55331571790E+02  0.00000000000E+00 0.  1.
          2    1    1    2  502    0  0.54070989994E+00  0.39567334545E+02 -0.17954468105E+02  0.43453759965E+02  0.00000000000E+00 0.  1.
         -2    1    1    2    0  502 -0.54070989994E+00 -0.39567334545E+02 -0.87319241417E+01  0.40522991368E+02  0.00000000000E+00 0.  1.
</event>
<event>
 4    1  0.6116490E+003  0.2468970E+02  0.7546771E-02  0.1472305E+00
          2   -1    0    0  501    0  0.00000000000E+00  0.00000000000E+00  0.46456447684E+03  0.46456447684E+03  0.00000000000E+00 0.  1.
         -2   -1    0    0    0  501 -0.00000000000E+00 -0.00000000000E+00 -0.22404896762E+02  0.22404896762E+02  0.00000000000E+00 0. -1.
          2    1    1    2  502    0 -0.16996491119E+02 -0.17908114194E+02  0.45732699681E+03  0.45799297295E+03  0.00000000000E+00 0.  1.
         -2    1    1    2    0  502  0.16996491119E+02  0.17908114194E+02 -0.15167416731E+02  0.28976400650E+02  0.00000000000E+00 0. -1.
</event>
<event>
 4    1  0.6116490E+003  0.3058677E+02  0.7546771E-02  0.1414565E+00
          2   -1    0    0  501    0  0.00000000000E+00  0.00000000000E+00  0.51794219097E+03  0.51794219097E+03  0.00000000000E+00 0. -1.
         -2   -1    0    0    0  501 -0.00000000000E+00 -0.00000000000E+00 -0.34949324534E+01  0.34949324534E+01  0.00000000000E+00 0.  1.
          2    1    1    2  502    0 -0.16182131868E+02  0.25955516170E+02  0.43845037879E+03  0.43951596658E+03  0.00000000000E+00 0. -1.
         -2    1    1    2    0  502  0.16182131868E+02 -0.25955516170E+02  0.75996879719E+02  0.81921156843E+02  0.00000000000E+00 0.  1.
</event>
<event>
 4    1  0.6116490E+003  0.2573695E+02  0.7546771E-02  0.1460725E+00
          2   -1    0    0  501    0  0.00000000000E+00  0.00000000000E+00  0.18619551449E+04  0.18619551449E+04  0.00000000000E+00 0. -1.
         -2   -1    0    0    0  501 -0.00000000000E+00 -0.00000000000E+00 -0.53143116226E+01  0.53143116226E+01  0.00000000000E+00 0.  1.
          2    1    1    2  502    0  0.19692791325E+01  0.25661499565E+02  0.18301642598E+04  0.18303452157E+04  0.00000000000E+00 0. -1.
         -2    1    1    2    0  502 -0.19692791325E+01 -0.25661499565E+02  0.26476573461E+02  0.36924240851E+02  0.00000000000E+00 0.  1.
</event>
<event>
 4    1  0.6116490E+003  0.2456282E+02  0.7546771E-02  0.1473754E+00
          2   -1    0    0  501    0  0.00000000000E+00  0.00000000000E+00  0.86456158708E+03  0.86456158708E+03  0.00000000000E+00 0.  1.
         -2   -1    0    0    0  501 -0.00000000000E+00 -0.00000000000E+00 -0.29024586190E+02  0.29024586190E+02  0.00000000000E+00 0. -1.
          2    1    1    2  502    0  0.21757491319E+02  0.11399288408E+02  0.85915771187E+03  0.85950875858E+03  0.00000000000E+00 0.  1.
         -2    1    1    2    0  502 -0.21757491319E+02 -0.11399288408E+02 -0.23620710983E+02  0.34077414691E+02  0.00000000000E+00 0. -1.
</event>
<event>
 4    1  0.6116490E+003  0.2451912E+02  0.7546771E-02  0.1474255E+00
          2   -1    0    0  501    0  0.00000000000E+00  0.00000000000E+00  0.32138491340E+02  0.32138491340E+02  0.00000000000E+00 0. -1.
         -2   -1    0    0    0  501 -0.00000000000E+00 -0.00000000000E+00 -0.17422555014E+03  0.17422555014E+03  0.00000000000E+00 0. -1.
          2    1    1    2  502    0  0.22333222576E+02 -0.10120008649E+02  0.26442053848E+02  0.36060638062E+02  0.00000000000E+00 0. -1.
         -2    1    1    2    0  502 -0.22333222576E+02  0.10120008649E+02 -0.16852911265E+03  0.17030340342E+03  0.00000000000E+00 0. -1.
</event>
<event>
 4    1  0.6116490E+003  0.2370819E+02  0.7546771E-02  0.1483792E+00
          2   -1    0    0  501    0  0.00000000000E+00  0.00000000000E+00  0.33515551886E+03  0.33515551886E+03  0.00000000000E+00 0. -1.
         -2   -1    0    0    0  501 -0.00000000000E+00 -0.00000000000E+00 -0.16831908850E+01  0.16831908850E+01  0.00000000000E+00 0. -1.
          2    1    1    2  502    0 -0.22903112019E+02 -0.61258058429E+01  0.17689543240E+03  0.17847709108E+03  0.00000000000E+00 0. -1.
         -2    1    1    2    0  502  0.22903112019E+02  0.61258058429E+01  0.15657689558E+03  0.15836161866E+03  0.00000000000E+00 0. -1.
</event>
<event>
 4    1  0.6116490E+003  0.3061487E+02  0.7546771E-02  0.1414327E+00
          2   -1    0    0  501    0  0.00000000000E+00  0.00000000000E+00  0.93257226936E+03  0.93257226936E+03  0.00000000000E+00 0.  1.
         -2   -1    0    0    0  501 -0.00000000000E+00 -0.00000000000E+00 -0.77651922153E+03  0.77651922153E+03  0.00000000000E+00 0.  1.
          2    1    1    2  502    0 -0.30440567455E+02  0.32621938038E+01  0.93201907729E+03  0.93252175872E+03  0.00000000000E+00 0.  1.
         -2    1    1    2    0  502  0.30440567455E+02 -0.32621938038E+01 -0.77596602945E+03  0.77656973217E+03  0.00000000000E+00 0.  1.
</event>
<event>
 4    1  0.6116490E+003  0.2122449E+02  0.7546771E-02  0.1516084E+00
          2   -1    0    0  501    0  0.00000000000E+00  0.00000000000E+00  0.79492616321E+03  0.79492616321E+03  0.00000000000E+00 0. -1.
         -2   -1    0    0    0  501 -0.00000000000E+00 -0.00000000000E+00 -0.33266428323E+03  0.33266428323E+03  0.00000000000E+00 0. -1.
          2    1    1    2  502    0  0.21223541795E+02 -0.20075097412E+00  0.79444574653E+03  0.79472921376E+03  0.00000000000E+00 0. -1.
         -2    1    1    2    0  502 -0.21223541795E+02  0.20075097412E+00 -0.33218386654E+03  0.33286123268E+03  0.00000000000E+00 0. -1.
</event>
<event>
 4    1  0.6116490E+003  0.3145003E+02  0.7546771E-02  0.1407401E+00
          2   -1    0    0  501    0  0.00000000000E+00  0.00000000000E+00  0.11263344492E+02  0.11263344492E+02  0.00000000000E+00 0.  1.
         -2   -1    0    0    0  501 -0.00000000000E+00 -0.00000000000E+00 -0.13169153978E+03  0.13169153978E+03  0.00000000000E+00 0. -1.
          2    1    1    2  502    0  0.87460858398E+01  0.30209446019E+02 -0.18956866650E+02  0.36721484712E+02  0.00000000000E+00 0.  1.
         -2    1    1    2    0  502 -0.87460858398E+01 -0.30209446019E+02 -0.10147132864E+03  0.10623339956E+03  0.00000000000E+00 0. -1.
</event>
<event>
 4    1  0.6116490E+003  0.2133898E+02  0.7546771E-02  0.1514480E+00
          2   -1    0    0  501    0  0.00000000000E+00  0.00000000000E+00  0.16819784714E+01  0.16819784714E+01  0.00000000000E+00 0. -1.
         -2   -1    0    0    0  501 -0.00000000000E+00 -0.00000000000E+00 -0.52062177241E+03  0.52062177241E+03  0.00000000000E+00 0. -1.
          2    1    1    2  502    0 -0.21026866970E+02 -0.36363448552E+01 -0.78538858621E+02  0.81386144103E+02  0.00000000000E+00 0. -1.
         -2    1    1    2    0  502  0.21026866970E+02  0.36363448552E+01 -0.44040093532E+03  0.44091760678E+03  0.00000000000E+00 0. -1.
</event>
<event>
 4    1  0.6116490E+003  0.4155428E+02  0.7546771E-02  0.1339611E+00
          2   -1    0    0  501    0  0.00000000000E+00  0.00000000000E+00  0.31182230238E+03  0.31182230238E+03  0.00000000000E+00 0.  1.
         -2   -1    0    0    0  501 -0.00000000000E+00 -0.00000000000E+00 -0.82835313445E+01  0.82835313445E+01  0.00000000000E+00 0.  1.
          2    1    1    2  502    0 -0.36019663043E+02  0.20720576404E+02  0.24391991235E+03  0.24743419742E+03  0.00000000000E+00 0.  1.
         -2    1    1    2    0  502  0.36019663043E+02 -0.20720576404E+02  0.59618858689E+02  0.72671636307E+02  0.00000000000E+00 0.  1.
</event>
<event>
 4    1  0.6116490E+003  0.2147078E+02  0.7546771E-02  0.1512648E+00
          2   -1    0    0  501    0  0.00000000000E+00  0.00000000000E+00  0.20884731121E+03  0.20884731121E+03  0.00000000000E+00 0.  1.
         -2   -1    0    0    0  501 -0.00000000000E+00 -0.00000000000E+00 -0.12842335910E+03  0.12842335910E+03  0.00000000000E+00 0. -1.
          2    1    1    2  502    0 -0.14126829571E+02  0.16168712122E+02  0.20739178586E+03  0.20850023360E+03  0.00000000000E+00 0.  1.
         -2    1    1    2    0  502  0.14126829571E+02 -0.16168712122E+02 -0.12696783375E+03  0.12877043672E+03  0.00000000000E+00 0. -1.
</event>
<event>
 4    1  0.6116490E+003  0.2353642E+02  0.7546771E-02  0.1485870E+00
          2   -1    0    0  501    0  0.00000000000E+00  0.00000000000E+00  0.10024404189E+03  0.10024404189E+03  0.00000000000E+00 0. -1.
         -2   -1    0    0    0  501 -0.00000000000E+00 -0.00000000000E+00 -0.20410732241E+03  0.20410732241E+03  0.00000000000E+00 0.  1.
          2    1    1    2  502    0  0.75587603160E+01  0.22289647119E+02  0.98169849941E+02  0.10095188291E+03  0.00000000000E+00 0. -1.
         -2    1    1    2    0  502 -0.75587603160E+01 -0.22289647119E+02 -0.20203313046E+03  0.20339948139E+03  0.00000000000E+00 0.  1.
</event>
<event>
 4    1  0.6116490E+003  0.2067870E+02  0.7546771E-02  0.1523902E+00
          2   -1    0    0  501    0  0.00000000000E+00  0.00000000000E+00  0.48470681977E+02  0.48470681977E+02  0.00000000000E+00 0.  1.
         -2   -1    0    0    0  501 -0.00000000000E+00 -0.00000000000E+00 -0.31284303074E+03  0.31284303074E+03  0.00000000000E+00 0. -1.
          2    1    1    2  502    0 -0.11759281676E+02 -0.17009644836E+02  0.45905252936E+02  0.50347800052E+02  0.00000000000E+00 0.  1.
         -2    1    1    2    0  502  0.11759281676E+02  0.17009644836E+02 -0.31027760170E+03  0.31096591266E+03  0.00000000000E+00 0. -1.
</event>
<event>
 4    1  0.6116490E+003  0.2268532E+02  0.7546771E-02  0.1496488E+00
          2   -1    0    0  501    0  0.00000000000E+00  0.00000000000E+00  0.26405103370E+02  0.26405103370E+02  0.00000000000E+00 0. -1.
         -2   -1    0    0    0  501 -0.00000000000E+00 -0.00000000000E+00 -0.44002878515E+02  0.44002878515E+02  0.00000000000E+00 0.  1.
          2    1    1    2  502    0  0.19187997945E+02  0.12101432488E+02  0.17476696694E+02  0.28636669861E+02  0.00000000000E+00 0. -1.
         -2    1    1    2    0  502 -0.19187997945E+02 -0.12101432488E+02 -0.35074471839E+02  0.41771312024E+02  0.00000000000E+00 0.  1.
</event>
<event>
 4    1  0.6116490E+003  0.4136647E+02  0.7546771E-02  0.1340659E+00
          2   -1    0    0  501    0  0.00000000000E+00  0.00000000000E+00  0.25653348590E+03  0.25653348590E+03  0.00000000000E+00 0.  1.
         -2   -1    0    0    0  501 -0.00000000000E+00 -0.00000000000E+00 -0.65941995192E+02  0.65941995192E+02  0.00000000000E+00 0.  1.
          2    1    1    2  502    0  0.16848143877E+02 -0.37779951871E+02  0.24816104652E+03  0.25158515403E+03  0.00000000000E+00 0.  1.
         -2    1    1    2    0  502 -0.16848143877E+02  0.37779951871E+02 -0.57569555812E+02  0.70890327068E+02  0.00000000000E+00 0.  1.
</event>
<event>
 4    1  0.6116490E+003  0.3142016E+02  0.7546771E-02  0.1407644E+00
          2   -1    0    0  501    0  0.00000000000E+00  0.00000000000E+00  0.85757990476E+03  0.85757990476E+03  0.00000000000E+00 0. -1.
         -2   -1    0    0    0  501 -0.00000000000E+00 -0.00000000000E+00 -0.11705609933E+01  0.11705609933E+01  0.00000000000E+00 0.  1.
          2    1    1    2  502    0  0.24516808187E+02  0.19650763890E+02  0.48345816285E+03  0.48447809201E+03  0.00000000000E+00 0. -1.
         -2    1    1    2    0  502 -0.24516808187E+02 -0.19650763890E+02  0.37295118091E+03  0.37427237374E+03  0.00000000000E+00 0.  1.
</event>
<event>
 4    1  0.6116490E+003  0.2531769E+02  0.7546771E-02  0.1465281E+00
          2   -1    0    0  501    0  0.00000000000E+00  0.00000000000E+00  0.26552541293E+02  0.26552541293E+02  0.00000000000E+00 0. -1.
         -2   -1    0    0    0  501 -0.00000000000E+00 -0.00000000000E+00 -0.18671763954E+03  0.18671763954E+03  0.00000000000E+00 0. -1.
          2    1    1    2  502    0  0.19077923214E+01  0.25245707149E+02  0.19420758918E+02  0.31908482852E+02  0.00000000000E+00 0. -1.
         -2    1    1    2    0  502 -0.19077923214E+01 -0.25245707149E+02 -0.17958585716E+03  0.18136169798E+03  0.00000000000E+00 0. -1.
</event>
<event>
 4    1  0.6116490E+003  0.3927707E+02  0.7546771E-02  0.1352775E+00
          2   -1    0    0  501    0  0.00000000000E+00  0.00000000000E+00  0.90592208914E+02  0.90592208914E+02  0.00000000000E+00 0. -1.
         -2   -1    0    0    0  501 -0.00000000000E+00 -0.00000000000E+00 -0.29541332058E+02  0.29541332058E+02  0.00000000000E+00 0.  1.
          2    1    1    2  502    0  0.21176519499E+02 -0.33079348196E+02  0.69617593746E+02  0.79933082101E+02  0.00000000000E+00 0. -1.
         -2    1    1    2    0  502 -0.21176519499E+02  0.33079348196E+02 -0.85667168909E+01  0.40200458871E+02  0.00000000000E+00 0.  1.
</event>
<event>
 4    1  0.6116490E+003  0.2372462E+02  0.7546771E-02  0.1483594E+00
          2   -1    0    0  501    0  0.00000000000E+00  0.00000000000E+00  0.58244079652E+03  0.58244079652E+03  0.00000000000E+00 0.  1.
         -2   -1    0    0    0  501 -0.00000000000E+00 -0.00000000000E+00 -0.31736714437E+01  0.31736714437E+01  0.00000000000E+00 0.  1.
          2    1    1    2  502    0  0.15137316801E+02 -0.18267981745E+02  0.53382528230E+03  0.53435221487E+03  0.00000000000E+00 0.  1.
         -2    1    1    2    0  502 -0.15137316801E+02  0.18267981745E+02  0.45441842772E+02  0.51262253087E+02  0.00000000000E+00 0.  1.
</event>
<event>
 4    1  0.6116490E+003  0.3454044E+02  0.7546771E-02  0.1383823E+00
          2   -1    0    0  501    0  0.00000000000E+00  0.00000000000E+00  0.46238004680E+03  0.46238004680E+03  0.00000000000E+00 0.  1.
         -2   -1    0    0    0  501 -0.00000000000E+00 -0.00000000000E+00 -0.28806788903E+01  0.28806788903E+01  0.00000000000E+00 0. -1.
          2    1    1    2  502    0 -0.89510596012E+01  0.33360444978E+02  0.15461960815E+03  0.15843062829E+03  0.00000000000E+00 0. -1.
         -2    1    1    2    0  502  0.89510596012E+01 -0.33360444978E+02  0.30487975976E+03  0.30683009740E+03  0.00000000000E+00 0.  1.
</event>
<event>
 4    1  0.6116490E+003  0.2280584E+02  0.7546771E-02  0.1494951E+00
          2   -1    0    0  501    0  0.00000000000E+00  0.00000000000E+00  0.12207126425E+02  0.12207126425E+02  0.00000000000E+00 0. -1.
         -2   -1    0    0    0  501 -0.00000000000E+00 -0.00000000000E+00 -0.11040772907E+03  0.11040772907E+03  0.00000000000E+00 0.  1.
          2    1    1    2  502    0 -0.17759242386E+02  0.14307880684E+02 -0.10571708500E+01  0.22830325227E+02  0.00000000000E+00 0. -1.
         -2    1    1    2    0  502  0.17759242386E+02 -0.14307880684E+02 -0.97143431792E+02  0.99784530264E+02  0.00000000000E+00 0.  1.
</event>
<event>
 4    1  0.6116490E+003  0.3559241E+02  0.7546771E-02  0.1376446E+00
          2   -1    0    0  501    0  0.00000000000E+00  0.00000000000E+00  0.18703587762E+04  0.18703587762E+04  0.00000000000E+00 0. -1.
         -2   -1    0    0    0  501 -0.00000000000E+00 -0.00000000000E+00 -0.42330194684E+01  0.42330194684E+01  0.00000000000E+00 0. -1.
          2    1    1    2  502    0 -0.35244522464E+02 -0.49642022506E+01  0.17921050610E+04  0.17924584707E+04  0.00000000000E+00 0. -1.
         -2    1    1    2    0  502  0.35244522464E+02  0.49642022506E+01  0.74020695770E+02  0.82133324966E+02  0.00000000000E+00 0. -1.
</event>
<event>
 4    1  0.6116490E+003  0.2173247E+02  0.7546771E-02  0.1509059E+00
          2   -1    0    0  501    0  0.00000000000E+00  0.00000000000E+00  0.63569666095E+02  0.63569666095E+02  0.00000000000E+00 0.  1.
         -2   -1    0    0    0  501 -0.00000000000E+00 -0.00000000000E+00 -0.14921556502E+03  0.14921556502E+03  0.00000000000E+00 0.  1.
          2    1    1    2  502    0  0.10875832250E+01  0.21705236059E+02  0.60887131487E+02  0.64649384300E+02  0.00000000000E+00 0.  1.
         -2    1    1    2    0  502 -0.10875832250E+01 -0.21705236059E+02 -0.14653303041E+03  0.14813584682E+03  0.00000000000E+00 0.  1.
</event>
<event>
 4    1  0.6116490E+003  0.2543685E+02  0.7546771E-02  0.1463975E+00
          2   -1    0    0  501    0  0.00000000000E+00  0.00000000000E+00  0.17038551577E+04  0.17038551577E+04  0.00000000000E+00 0.  1.
         -2   -1    0    0    0  501 -0.00000000000E+00 -0.00000000000E+00 -0.15634213846E+01  0.15634213846E+01  0.00000000000E+00 0.  1.
          2    1    1    2  502    0 -0.16517783137E+02  0.19344156538E+02  0.15931035416E+04  0.15933066020E+04  0.00000000000E+00 0.  1.
         -2    1    1    2    0  502  0.16517783137E+02 -0.19344156538E+02  0.10918819465E+03  0.11211197707E+03  0.00000000000E+00 0.  1.
</event>
<event>
 4    1  0.6116490E+003  0.3284407E+02  0.7546771E-02  0.1396388E+00
          2   -1    0    0  501    0  0.00000000000E+00  0.00000000000E+00  0.65202048502E+02  0.65202048502E+02  0.00000000000E+00 0. -1.
         -2   -1    0    0    0  501 -0.00000000000E+00 -0.00000000000E+00 -0.52889521782E+02  0.52889521782E+02  0.00000000000E+00 0. -1.
          2    1    1    2  502    0 -0.29876026865E+02 -0.13643903551E+02  0.55103339090E+02  0.64149131438E+02  0.00000000000E+00 0. -1.
         -2    1    1    2    0  502  0.29876026865E+02  0.13643903551E+02 -0.42790812370E+02  0.53942438846E+02  0.00000000000E+00 0. -1.
</event>
<event>
 4    1  0.6116490E+003  0.3240784E+02  0.7546771E-02  0.1399764E+00
          2   -1    0    0  501    0  0.00000000000E+00  0.00000000000E+00  0.11522262536E+04  0.11522262536E+04  0.00000000000E+00 0. -1.
         -2   -1    0    0    0  501 -0.00000000000E+00 -0.00000000000E+00 -0.40535502293E+01  0.40535502293E+01  0.00000000000E+00 0. -1.
          2    1    1    2  502    0  0.23847483147E+02 -0.21944600964E+02  0.10830900092E+04  0.10835747486E+04  0.00000000000E+00 0. -1.
         -2    1    1    2    0  502 -0.23847483147E+02  0.21944600964E+02  0.65082694254E+02  0.72705055225E+02  0.00000000000E+00 0. -1.
</event>
<event>
 4    1  0.6116490E+003  0.2031982E+02  0.7546771E-02  0.1529201E+00
          2   -1    0    0  501    0  0.00000000000E+00  0.00000000000E+00  0.89309458418E+03  0.89309458418E+03  0.00000000000E+00 0.  1.
         -2   -1    0    0    0  501 -0.00000000000E+00 -0.00000000000E+00 -0.30541678083E+01  0.30541678083E+01  0.00000000000E+00 0.  1.
          2    1    1    2  502    0  0.15416097686E+02 -0.13237792104E+02  0.85779050298E+03  0.85803114292E+03  0.00000000000E+00 0.  1.
         -2    1    1    2    0  502 -0.15416097686E+02  0.13237792104E+02  0.32249913384E+02  0.38117609066E+02  0.00000000000E+00 0.  1.
</event>
<event>
 4    1  0.6116490E+003  0.2014490E+02  0.7546771E-02  0.1531832E+00
          2   -1    0    0  501    0  0.00000000000E+00  0.00000000000E+00  0.28090296115E+03  0.28090296115E+03  0.00000000000E+00 0.  1.
         -2   -1    0    0    0  501 -0.00000000000E+00 -0.00000000000E+00 -0.13925687191E+02  0.13925687191E+02  0.00000000000E+00 0. -1.
          2    1    1    2  502    0 -0.18913939596E+02 -0.69339669628E+01  0.27304706002E+03  0.27378917801E+03  0.00000000000E+00 0.  1.
         -2    1    1    2    0  502  0.18913939596E+02  0.69339669628E+01 -0.60697860640E+01  0.21039470330E+02  0.00000000000E+00 0. -1.
</event>
<event>
 4    1  0.6116490E+003  0.2169631E+02  0.7546771E-02  0.1509551E+00
          2   -1    0    0  501    0  0.00000000000E+00  0.00000000000E+00  0.71536518881E+03  0.71536518881E+03  0.00000000000E+00 0.  1.
         -2   -1    0    0    0  501 -0.00000000000E+00 -0.00000000000E+00 -0.66046747318E+00  0.66046747318E+00  0.00000000000E+00 0.  1.
          2    1    1    2  502    0 -0.16753823890E+02  0.13785453372E+02  0.33558812570E+03  0.33628874416E+03  0.00000000000E+00 0.  1.
         -2    1    1    2    0  502  0.16753823890E+02 -0.13785453372E+02  0.37911659563E+03  0.37973691212E+03  0.00000000000E+00 0.  1.
</event>
<event>
 4    1  0.6116490E+003  0.3618480E+02  0.7546771E-02  0.1372420E+00
          2   -1    0    0  501    0  0.00000000000E+00  0.00000000000E+00  0.20731250898E+02  0.20731250898E+02  0.00000000000E+00 0.  1.
         -2   -1    0    0    0  501 -0.00000000000E+00 -0.00000000000E+00 -0.11306075581E+04  0.11306075581E+04  0.00000000000E+00 0.  1.
          2    1    1    2  502    0 -0.34983169897E+02 -0.92475571087E+01  0.44212385251E+01  0.36453900184E+02  0.00000000000E+00 0.  1.
         -2    1    1    2    0  502  0.34983169897E+02  0.92475571087E+01 -0.11142975457E+04  0.11148849088E+04  0.00000000000E+00 0.  1.
</event>
<event>
 4    1  0.6116490E+003  0.2245720E+02  0.7546771E-02  0.1499429E+00
          2   -1    0    0  501    0  0.00000000000E+00  0.00000000000E+00  0.65966908509E+01  0.65966908509E+01  0.00000000000E+00 0.  1.
         -2   -1    0    0    0  501 -0.00000000000E+00 -0.00000000000E+00 -0.27383607450E+03  0.27383607450E+03  0.00000000000E+00 0. -1.
          2    1    1    2  502    0 -0.93528873760E+01 -0.20416887335E+02 -0.14574949220E+02  0.26772279236E+02  0.00000000000E+00 0.  1.
         -2    1    1    2    0  502  0.93528873760E+01  0.20416887335E+02 -0.25266443443E+03  0.25366048611E+03  0.00000000000E+00 0. -1.
</event>
<event>
 4    1  0.6116490E+003  0.3534224E+02  0.7546771E-02  0.1378173E+00
          2   -1    0    0  501    0  0.00000000000E+00  0.00000000000E+00  0.14618641252E+04  0.14618641252E+04  0.00000000000E+00 0. -1.
         -2   -1    0    0    0  501 -0.00000000000E+00 -0.00000000000E+00 -0.12580836272E+02  0.12580836272E+02  0.00000000000E+00 0.  1.
          2    1    1    2  502    0 -0.33498508021E+02  0.11266034796E+02  0.14363894197E+04  0.14368241502E+04  0.00000000000E+00 0. -1.
         -2    1    1    2    0  502  0.33498508021E+02 -0.11266034796E+02  0.12893869283E+02  0.37620811325E+02  0.00000000000E+00 0.  1.
</event>
<event>
 4    1  0.6116490E+003  0.4397004E+02  0.7546771E-02  0.1326670E+00
          2   -1    0    0  501    0  0.00000000000E+00  0.00000000000E+00  0.94470087847E+03  0.94470087847E+03  0.00000000000E+00 0. -1.
         -2   -1    0    0    0  501 -0.00000000000E+00 -0.00000000000E+00 -0.21731814262E+01  0.21731814262E+01  0.00000000000E+00 0.  1.
          2    1    1    2  502    0 -0.25825700234E+02 -0.35586453331E+02  0.35697274097E+03  0.35967054404E+03  0.00000000000E+00 0. -1.
         -2    1    1    2    0  502  0.25825700234E+02  0.35586453331E+02  0.58555495607E+03  0.58720351586E+03  0.00000000000E+00 0.  1.
</event>
<event>
 4    1  0.6116490E+003  0.2656578E+02  0.7546771E-02  0.1452019E+00
          2   -1    0    0  501    0  0.00000000000E+00  0.00000000000E+00  0.69096562938E+03  0.69096562938E+03  0.00000000000E+00 0.  1.
         -2   -1    0    0    0  501 -0.00000000000E+00 -0.00000000000E+00 -0.14240891869E+01  0.14240891869E+01  0.00000000000E+00 0.  1.
          2    1    1    2  502    0  0.19482003883E+02  0.18060792372E+02  0.52886749181E+03  0.52953429028E+03  0.00000000000E+00 0.  1.
         -2    1    1    2    0  502 -0.19482003883E+02 -0.18060792372E+02  0.16067404839E+03  0.16285542828E+03  0.00000000000E+00 0.  1.
</event>
<event>
 4    1  0.6116490E+003  0.3390355E+02  0.7546771E-02  0.1388440E+00
          2   -1    0    0  501    0  0.00000000000E+00  0.00000000000E+00  0.95601638034E+01  0.95601638034E+01  0.00000000000E+00 0. -1.
         -2   -1    0    0    0  501 -0.00000000000E+00 -0.00000000000E+00 -0.19727425081E+03  0.19727425081E+03  0.00000000000E+00 0. -1.
          2    1    1    2  502    0 -0.27142881633E+02  0.20315386804E+02 -0.29229425437E+02  0.44763939457E+02  0.00000000000E+00 0. -1.
         -2    1    1    2    0  502  0.27142881633E+02 -0.20315386804E+02 -0.15848466156E+03  0.16207047515E+03  0.00000000000E+00 0. -1.
</event>
<event>
 4    1  0.6116490E+003  0.3207175E+02  0.7546771E-02  0.1402408E+00
          2   -1    0    0  501    0  0.00000000000E+00  0.00000000000E+00  0.82088232926E+02  0.82088232926E+02  0.00000000000E+00 0. -1.
         -2   -1    0    0    0  501 -0.00000000000E+00 -0.00000000000E+00 -0.24242168312E+02  0.24242168312E+02  0.00000000000E+00 0.  1.
          2    1    1    2  502    0 -0.12522428639E+02  0.29526023920E+02  0.65876330579E+02  0.73268603359E+02  0.00000000000E+00 0. -1.
         -2    1    1    2    0  502  0.12522428639E+02 -0.29526023920E+02 -0.80302659648E+01  0.33061797879E+02  0.00000000000E+00 0.  1.
</event>
<event>
 4    1  0.6116490E+003  0.2031981E+02  0.7546771E-02  0.1529202E+00
          2   -1    0    0  501    0  0.00000000000E+00  0.00000000000E+00  0.32619367169E+02  0.32619367169E+02  0.00000000000E+00 0. -1.
         -2   -1    0    0    0  501 -0.00000000000E+00 -0.00000000000E+00 -0.15616556102E+02  0.15616556102E+02  0.00000000000E+00 0. -1.
          2    1    1    2  502    0  0.12652642657E+02 -0.15899848839E+02  0.18999029211E+02  0.27818297401E+02  0.00000000000E+00 0. -1.
         -2    1    1    2    0  502 -0.12652642657E+02  0.15899848839E+02 -0.19962181444E+01  0.20417625870E+02  0.00000000000E+00 0. -1.
</event>
<event>
 4    1  0.6116490E+003  0.2192188E+02  0.7546771E-02  0.1506499E+00
          2   -1    0    0  501    0  0.00000000000E+00  0.00000000000E+00  0.26493259813E+03  0.26493259813E+03  0.00000000000E+00 0. -1.
         -2   -1    0    0    0  501 -0.00000000000E+00 -0.00000000000E+00 -0.27581351488E+01  0.27581351488E+01  0.00000000000E+00 0. -1.
          2    1    1    2  502    0 -0.27405686502E+01  0.21749897618E+02  0.20939937678E+03  0.21054374310E+03  0.00000000000E+00 0. -1.
         -2    1    1    2    0  502  0.27405686502E+01 -0.21749897618E+02  0.52775086204E+02  0.57146990181E+02  0.00000000000E+00 0. -1.
</event>
<event>
 4    1  0.6116490E+003  0.2125158E+02  0.7546771E-02  0.1515703E+00
          2   -1    0    0  501    0  0.00000000000E+00  0.00000000000E+00  0.31038743428E+03  0.31038743428E+03  0.00000000000E+00 0.  1.
         -2   -1    0    0    0  501 -0.00000000000E+00 -0.00000000000E+00 -0.21767172080E+02  0.21767172080E+02  0.00000000000E+00 0. -1.
          2    1    1    2  502    0 -0.19618390166E+02  0.81699820830E+01  0.30474061999E+03  0.30548072822E+03  0.00000000000E+00 0.  1.
         -2    1    1    2    0  502  0.19618390166E+02 -0.81699820830E+01 -0.16120357790E+02  0.26673878144E+02  0.00000000000E+00 0. -1.
</event>
<event>
 4    1  0.6116490E+003  0.2006445E+02  0.7546771E-02  0.1533053E+00
          2   -1    0    0  501    0  0.00000000000E+00  0.00000000000E+00  0.96775643413E+03  0.96775643413E+03  0.00000000000E+00 0. -1.
         -2   -1    0    0    0  501 -0.00000000000E+00 -0.00000000000E+00 -0.17717051799E+01  0.17717051799E+01  0.00000000000E+00 0. -1.
          2    1    1    2  502    0  0.20002970516E+02  0.15695277937E+01  0.90704332978E+03  0.90726522271E+03  0.00000000000E+00 0. -1.
         -2    1    1    2    0  502 -0.20002970516E+02 -0.15695277937E+01  0.58941399167E+02  0.62262916593E+02  0.00000000000E+00 0. -1.
</event>
<event>
 4    1  0.6116490E+003  0.2741992E+02  0.7546771E-02  0.1443435E+00
          2   -1    0    0  501    0  0.00000000000E+00  0.00000000000E+00  0.38931919570E+02  0.38931919570E+02  0.00000000000E+00 0. -1.
         -2   -1    0    0    0  501 -0.00000000000E+00 -0.00000000000E+00 -0.82032649054E+02  0.82032649054E+02  0.00000000000E+00 0.  1.
          2    1    1    2  502    0  0.25246772011E+02 -0.10698260582E+02  0.31335568692E+02  0.41638565558E+02  0.00000000000E+00 0. -1.
         -2    1    1    2    0  502 -0.25246772011E+02  0.10698260582E+02 -0.74436298176E+02  0.79326003067E+02  0.00000000000E+00 0.  1.
</event>
<event>
 4    1  0.6116490E+003  0.2455398E+02  0.7546771E-02  0.1473855E+00
          2   -1    0    0  501    0  0.00000000000E+00  0.00000000000E+00  0.14737383705E+02  0.14737383705E+02  0.00000000000E+00 0.  1.
         -2   -1    0    0    0  501 -0.00000000000E+00 -0.00000000000E+00 -0.53810764843E+03  0.53810764843E+03  0.00000000000E+00 0. -1.
          2    1    1    2  502    0  0.18859895288E+02  0.15722665746E+02  0.40222482381E+01  0.24881244931E+02  0.00000000000E+00 0.  1.
         -2    1    1    2    0  502 -0.18859895288E+02 -0.15722665746E+02 -0.52739251297E+03  0.52796378721E+03  0.00000000000E+00 0. -1.
</event>
<event>
 4    1  0.6116490E+003  0.2462069E+02  0.7546771E-02  0.1473092E+00
          2   -1    0    0  501    0  0.00000000000E+00  0.00000000000E+00  0.80722453453E+02  0.80722453453E+02  0.00000000000E+00 0. -1.
         -2   -1    0    0    0  501 -0.00000000000E+00 -0.00000000000E+00 -0.21862761153E+02  0.21862761153E+02  0.00000000000E+00 0. -1.
          2    1    1    2  502    0 -0.85881154041E+01  0.23074289547E+02  0.70990160103E+02  0.75138414914E+02  0.00000000000E+00 0. -1.
         -2    1    1    2    0  502  0.85881154041E+01 -0.23074289547E+02 -0.12130467803E+02  0.27446799693E+02  0.00000000000E+00 0. -1.
</event>
<event>
 4    1  0.6116490E+003  0.3321123E+02  0.7546771E-02  0.1393594E+00
          2   -1    0    0  501    0  0.00000000000E+00  0.00000000000E+00  0.19322171323E+03  0.19322171323E+03  0.00000000000E+00 0.  1.
         -2   -1    0    0    0  501 -0.00000000000E+00 -0.00000000000E+00 -0.40005871061E+03  0.40005871061E+03  0.00000000000E+00 0.  1.
          2    1    1    2  502    0 -0.23807970253E+02 -0.23155269058E+02  0.19109774546E+03  0.19396219800E+03  0.00000000000E+00 0.  1.
         -2    1    1    2    0  502  0.23807970253E+02  0.23155269058E+02 -0.39793474284E+03  0.39931822584E+03  0.00000000000E+00 0.  1.
</event>
<event>
 4    1  0.6116490E+003  0.3852158E+02  0.7546771E-02  0.1357374E+00
          2   -1    0    0  501    0  0.00000000000E+00  0.00000000000E+00  0.43325808402E+02  0.43325808402E+02  0.00000000000E+00 0. -1.
         -2   -1    0    0    0  501 -0.00000000000E+00 -0.00000000000E+00 -0.26985202031E+03  0.26985202031E+03  0.00000000000E+00 0.  1.
          2    1    1    2  502    0 -0.19751629461E+01 -0.38470912825E+02  0.33051474930E+02  0.50757387613E+02  0.00000000000E+00 0. -1.
         -2    1    1    2    0  502  0.19751629461E+01  0.38470912825E+02 -0.25957768684E+03  0.26242044110E+03  0.00000000000E+00 0.  1.
</event>
<event>
 4    1  0.6116490E+003  0.2284418E+02  0.7546771E-02  0.1494464E+00
          2   -1    0    0  501    0  0.00000000000E+00  0.00000000000E+00  0.18520230421E+03  0.18520230421E+03  0.00000000000E+00 0.  1.
         -2   -1    0    0    0  501 -0.00000000000E+00 -0.00000000000E+00 -0.28189129657E+01  0.28189129657E+01  0.00000000000E+00 0.  1.
          2    1    1    2  502    0 -0.20504647977E+02 -0.10070527120E+02  0.89292474622E+02  0.92168335828E+02  0.00000000000E+00 0.  1.
         -2    1    1    2    0  502  0.20504647977E+02  0.10070527120E+02  0.93090916620E+02  0.95852881346E+02  0.00000000000E+00 0.  1.
</event>
<event>
 4    1  0.6116490E+003  0.2021660E+02  0.7546771E-02  0.1530750E+00
          2   -1    0    0  501    0  0.00000000000E+00  0.00000000000E+00  0.27248285801E+03  0.27248285801E+03  0.00000000000E+00 0.  1.
         -2   -1    0    0    0  501 -0.00000000000E+00 -0.00000000000E+00 -0.39324962567E+02  0.39324962567E+02  0.00000000000E+00 0. -1.
          2    1    1    2  502    0 -0.10207460369E+02 -0.17450460601E+02  0.26948067314E+03  0.27023793963E+03  0.00000000000E+00 0.  1.
         -2    1    1    2    0  502  0.10207460369E+02  0.17450460601E+02 -0.36322777694E+02  0.41569880945E+02  0.00000000000E+00 0. -1.
</event>
<event>
 4    1  0.6116490E+003  0.2005560E+02  0.7546771E-02  0.1533187E+00
          2   -1    0    0  501    0  0.00000000000E+00  0.00000000000E+00  0.74895860882E+03  0.74895860882E+03  0.00000000000E+00 0. -1.
         -2   -1    0    0    0  501 -0.00000000000E+00 -0.00000000000E+00 -0.53722935289E+00  0.53722935289E+00  0.00000000000E+00 0.  1.
          2    1    1    2  502    0  0.72369623053E+01  0.18704360695E+02  0.36732564970E+03  0.36787274927E+03  0.00000000000E+00 0.  1.
         -2    1    1    2    0  502 -0.72369623053E+01 -0.18704360695E+02  0.38109572977E+03  0.38162308890E+03  0.00000000000E+00 0. -1.
</event>
<event>
 4    1  0.6116490E+003  0.3820173E+02  0.7546771E-02  0.1359358E+00
          2   -1    0    0  501    0  0.00000000000E+00  0.00000000000E+00  0.55682415431E+02  0.55682415431E+02  0.00000000000E+00 0.  1.
         -2   -1    0    0    0  501 -0.00000000000E+00 -0.00000000000E+00 -0.13666193963E+03  0.13666193963E+03  0.00000000000E+00 0. -1.
          2    1    1    2  502    0  0.15665274571E+01 -0.38169597225E+02  0.45970110354E+02  0.59771424666E+02  0.00000000000E+00 0.  1.
         -2    1    1    2    0  502 -0.15665274571E+01  0.38169597225E+02 -0.12694963455E+03  0.13257293039E+03  0.00000000000E+00 0. -1.
</event>
<event>
 4    1  0.6116490E+003  0.4289809E+02  0.7546771E-02  0.1332292E+00
          2   -1    0    0  501    0  0.00000000000E+00  0.00000000000E+00  0.39772938063E+03  0.39772938063E+03  0.00000000000E+00 0.  1.
         -2   -1    0    0    0  501 -0.00000000000E+00 -0.00000000000E+00 -0.43728253578E+02  0.43728253578E+02  0.00000000000E+00 0.  1.
          2    1    1    2  502    0  0.41974341112E+02  0.88544438296E+01  0.38572532395E+03  0.38810342954E+03  0.00000000000E+00 0.  1.
         -2    1    1    2    0  502 -0.41974341112E+02 -0.88544438296E+01 -0.31724196893E+02  0.53354204669E+02  0.00000000000E+00 0.  1.
</event>
<event>
 4    1  0.6116490E+003  0.2649987E+02  0.7546771E-02  0.1452698E+00
          2   -1    0    0  501    0  0.00000000000E+00  0.00000000000E+00  0.16525289735E+02  0.16525289735E+02  0.00000000000E+00 0.  1.
         -2   -1    0    0    0  501 -0.00000000000E+00 -0.00000000000E+00 -0.11121185139E+04  0.11121185139E+04  0.00000000000E+00 0. -1.
          2    1    1    2  502    0  0.12885821920E+00 -0.26499552954E+02  0.56386573628E+01  0.27093124000E+02  0.00000000000E+00 0.  1.
         -2    1    1    2    0  502 -0.12885821920E+00  0.26499552954E+02 -0.11012318816E+04  0.11015506797E+04  0.00000000000E+00 0. -1.
</event>
<event>
 4    1  0.6116490E+003  0.2119495E+02  0.7546771E-02  0.1516500E+00
          2   -1    0    0  501    0  0.00000000000E+00  0.00000000000E+00  0.12076006954E+04  0.12076006954E+04  0.00000000000E+00 0.  1.
         -2   -1    0    0    0  501 -0.00000000000E+00 -0.00000000000E+00 -0.28768431783E+03  0.28768431783E+03  0.00000000000E+00 0.  1.
          2    1    1    2  502    0 -0.21173044630E+02 -0.96345033315E+00  0.12071171583E+04  0.12073032178E+04  0.00000000000E+00 0.  1.
         -2    1    1    2    0  502  0.21173044630E+02  0.96345033315E+00 -0.28720078068E+03  0.28798179539E+03  0.00000000000E+00 0.  1.
</event>
<event>
 4    1  0.6116490E+003  0.2076399E+02  0.7546771E-02  0.1522661E+00
          2   -1    0    0  501    0  0.00000000000E+00  0.00000000000E+00  0.25233470341E+02  0.25233470341E+02  0.00000000000E+00 0.  1.
         -2   -1    0    0    0  501 -0.00000000000E+00 -0.00000000000E+00 -0.43820141551E+02  0.43820141551E+02  0.00000000000E+00 0. -1.
          2    1    1    2  502    0 -0.38695170597E+01 -0.20400246765E+02  0.17674823367E+02  0.27267977766E+02  0.00000000000E+00 0.  1.
         -2    1    1    2    0  502  0.38695170597E+01  0.20400246765E+02 -0.36261494578E+02  0.41785634127E+02  0.00000000000E+00 0. -1.
</event>
<event>
 4    1  0.6116490E+003  0.2542262E+02  0.7546771E-02  0.1464131E+00
          2   -1    0    0  501    0  0.00000000000E+00  0.00000000000E+00  0.42778924510E+02  0.42778924510E+02  0.00000000000E+00 0. -1.
         -2   -1    0    0    0  501 -0.00000000000E+00 -0.00000000000E+00 -0.15307939365E+02  0.15307939365E+02  0.00000000000E+00 0. -1.
          2    1    1    2  502    0  0.24886206296E+02  0.51948341483E+01  0.17053651319E+02  0.30612686732E+02  0.00000000000E+00 0. -1.
         -2    1    1    2    0  502 -0.24886206296E+02 -0.51948341483E+01  0.10417333826E+02  0.27474177143E+02  0.00000000000E+00 0. -1.
</event>
<event>
 4    1  0.6116490E+003  0.2334972E+02  0.7546771E-02  0.1488153E+00
          2   -1    0    0  501    0  0.00000000000E+00  0.00000000000E+00  0.24223677573E+03  0.24223677573E+03  0.00000000000E+00 0.  1.
         -2   -1    0    0    0  501 -0.00000000000E+00 -0.00000000000E+00 -0.30321587089E+02  0.30321587089E+02  0.00000000000E+00 0. -1.
          2    1    1    2  502    0 -0.97648221918E+01  0.21209852700E+02  0.23708135224E+03  0.23822841388E+03  0.00000000000E+00 0.  1.
         -2    1    1    2    0  502  0.97648221918E+01 -0.21209852700E+02 -0.25166163593E+02  0.34329948937E+02  0.00000000000E+00 0. -1.
</event>
<event>
 4    1  0.6116490E+003  0.2073591E+02  0.7546771E-02  0.1523069E+00
          2   -1    0    0  501    0  0.00000000000E+00  0.00000000000E+00  0.89231493469E+03  0.89231493469E+03  0.00000000000E+00 0.  1.
         -2   -1    0    0    0  501 -0.00000000000E+00 -0.00000000000E+00 -0.17949537939E+03  0.17949537939E+03  0.00000000000E+00 0. -1.
          2    1    1    2  502    0  0.20259714064E+02 -0.44183673890E+01  0.89159511373E+03  0.89183620963E+03  0.00000000000E+00 0.  1.
         -2    1    1    2    0  502 -0.20259714064E+02  0.44183673890E+01 -0.17877555843E+03  0.17997410446E+03  0.00000000000E+00 0. -1.
</event>
<event>
 4    1  0.6116490E+003  0.2514566E+02  0.7546771E-02  0.1467180E+00
          2   -1    0    0  501    0  0.00000000000E+00  0.00000000000E+00  0.21308453525E+03  0.21308453525E+03  0.00000000000E+00 0.  1.
         -2   -1    0    0    0  501 -0.00000000000E+00 -0.00000000000E+00 -0.16715060252E+03  0.16715060252E+03  0.00000000000E+00 0. -1.
          2    1    1    2  502    0 -0.17177610482E+02  0.18363930547E+02  0.21138942122E+03  0.21287975867E+03  0.00000000000E+00 0.  1.
         -2    1    1    2    0  502  0.17177610482E+02 -0.18363930547E+02 -0.16545548849E+03  0.16735537911E+03  0.00000000000E+00 0. -1.
</event>
<event>
 4    1  0.6116490E+003  0.2274550E+02  0.7546771E-02  0.1495719E+00
          2   -1    0    0  501    0  0.00000000000E+00  0.00000000000E+00  0.10162058587E+04  0.10162058587E+04  0.00000000000E+00 0. -1.
         -2   -1    0    0    0  501 -0.00000000000E+00 -0.00000000000E+00 -0.77114953995E+00  0.77114953995E+00  0.00000000000E+00 0. -1.
          2    1    1    2  502    0  0.14339750642E+02  0.17655853494E+02  0.80413063629E+03  0.80445225951E+03  0.00000000000E+00 0. -1.
         -2    1    1    2    0  502 -0.14339750642E+02 -0.17655853494E+02  0.21130407286E+03  0.21252474872E+03  0.00000000000E+00 0. -1.
</event>
<event>
 4    1  0.6116490E+003  0.2708199E+02  0.7546771E-02  0.1446786E+00
          2   -1    0    0  501    0  0.00000000000E+00  0.00000000000E+00  0.55694713757E+03  0.55694713757E+03  0.00000000000E+00 0.  1.
         -2   -1    0    0    0  501 -0.00000000000E+00 -0.00000000000E+00 -0.15845336330E+02  0.15845336330E+02  0.00000000000E+00 0.  1.
          2    1    1    2  502    0  0.26583640486E+02 -0.51714971428E+01  0.54478803672E+03  0.54546075870E+03  0.00000000000E+00 0.  1.
         -2    1    1    2    0  502 -0.26583640486E+02  0.51714971428E+01 -0.36862354766E+01  0.27331715207E+02  0.00000000000E+00 0.  1.
</event>
<event>
 4    1 -0.6116490E+003  0.6674296E+02  0.7546771E-02  0.1238497E+00
          2   -1    0    0  501    0  0.00000000000E+00  0.00000000000E+00  0.26809091732E+03  0.26809091732E+03  0.00000000000E+00 0. -1.
         -2   -1    0    0    0  501 -0.00000000000E+00 -0.00000000000E+00 -0.35087276614E+04  0.35087276614E+04  0.00000000000E+00 0.  1.
          2    1    1    2  502    0  0.59746857256E+02  0.29747866342E+02  0.26361419291E+03  0.27193209669E+03  0.00000000000E+00 0. -1.
         -2    1    1    2    0  502 -0.59746857256E+02 -0.29747866342E+02 -0.35042509370E+04  0.35048864821E+04  0.00000000000E+00 0.  1.
</event>
<event>
 4    1  0.6116490E+003  0.3127802E+02  0.7546771E-02  0.1408806E+00
          2   -1    0    0  501    0  0.00000000000E+00  0.00000000000E+00  0.10229946049E+04  0.10229946049E+04  0.00000000000E+00 0. -1.
         -2   -1    0    0    0  501 -0.00000000000E+00 -0.00000000000E+00 -0.34012732986E+02  0.34012732986E+02  0.00000000000E+00 0. -1.
          2    1    1    2  502    0 -0.16820428302E+02 -0.26370208994E+02  0.10155117529E+04  0.10159933243E+04  0.00000000000E+00 0. -1.
         -2    1    1    2    0  502  0.16820428302E+02  0.26370208994E+02 -0.26529880950E+02  0.41014013628E+02  0.00000000000E+00 0. -1.
</event>
<event>
 4    1  0.6116490E+003  0.2121879E+02  0.7546771E-02  0.1516164E+00
          2   -1    0    0  501    0  0.00000000000E+00  0.00000000000E+00  0.62212391362E+03  0.62212391362E+03  0.00000000000E+00 0. -1.
         -2   -1    0    0    0  501 -0.00000000000E+00 -0.00000000000E+00 -0.11718650552E+01  0.11718650552E+01  0.00000000000E+00 0.  1.
          2    1    1    2  502    0 -0.10247756554E+02 -0.18580106307E+02  0.50320183218E+03  0.50364900553E+03  0.00000000000E+00 0. -1.
         -2    1    1    2    0  502  0.10247756554E+02  0.18580106307E+02  0.11775021638E+03  0.11964677314E+03  0.00000000000E+00 0.  1.
</event>
<event>
 4    1  0.6116490E+003  0.2126939E+02  0.7546771E-02  0.1515453E+00
          2   -1    0    0  501    0  0.00000000000E+00  0.00000000000E+00  0.41350226535E+03  0.41350226535E+03  0.00000000000E+00 0. -1.
         -2   -1    0    0    0  501 -0.00000000000E+00 -0.00000000000E+00 -0.15412583362E+01  0.15412583362E+01  0.00000000000E+00 0.  1.
          2    1    1    2  502    0 -0.18536134532E+02  0.10430657234E+02  0.31776640873E+03  0.31847743627E+03  0.00000000000E+00 0. -1.
         -2    1    1    2    0  502  0.18536134532E+02 -0.10430657234E+02  0.94194598283E+02  0.96566087419E+02  0.00000000000E+00 0.  1.
</event>
<event>
 4    1  0.6116490E+003  0.3699741E+02  0.7546771E-02  0.1367040E+00
          2   -1    0    0  501    0  0.00000000000E+00  0.00000000000E+00  0.10796140023E+02  0.10796140023E+02  0.00000000000E+00 0. -1.
         -2   -1    0    0    0  501 -0.00000000000E+00 -0.00000000000E+00 -0.22319864309E+03  0.22319864309E+03  0.00000000000E+00 0.  1.
          2    1    1    2  502    0 -0.35439920603E+02  0.10621710382E+02 -0.29306719244E+02  0.47198437438E+02  0.00000000000E+00 0. -1.
         -2    1    1    2    0  502  0.35439920603E+02 -0.10621710382E+02 -0.18309578382E+03  0.18679634567E+03  0.00000000000E+00 0.  1.
</event>
<event>
 4    1  0.6116490E+003  0.2987865E+02  0.7546771E-02  0.1420654E+00
          2   -1    0    0  501    0  0.00000000000E+00  0.00000000000E+00  0.34618261355E+03  0.34618261355E+03  0.00000000000E+00 0. -1.
         -2   -1    0    0    0  501 -0.00000000000E+00 -0.00000000000E+00 -0.50781855900E+02  0.50781855900E+02  0.00000000000E+00 0. -1.
          2    1    1    2  502    0 -0.17808883124E+02 -0.23991192367E+02  0.34107731266E+03  0.34238350842E+03  0.00000000000E+00 0. -1.
         -2    1    1    2    0  502  0.17808883124E+02  0.23991192367E+02 -0.45676555008E+02  0.54580961028E+02  0.00000000000E+00 0. -1.
</event>
<event>
 4    1  0.6116490E+003  0.2658949E+02  0.7546771E-02  0.1451776E+00
          2   -1    0    0  501    0  0.00000000000E+00  0.00000000000E+00  0.58725835945E+01  0.58725835945E+01  0.00000000000E+00 0. -1.
         -2   -1    0    0    0  501 -0.00000000000E+00 -0.00000000000E+00 -0.50971246248E+03  0.50971246248E+03  0.00000000000E+00 0. -1.
          2    1    1    2  502    0 -0.26588054446E+02 -0.27670527422E+00 -0.26619344029E+02  0.37624336294E+02  0.00000000000E+00 0. -1.
         -2    1    1    2    0  502  0.26588054446E+02  0.27670527422E+00 -0.47722053486E+03  0.47796070978E+03  0.00000000000E+00 0. -1.
</event>
<event>
 4    1  0.6116490E+003  0.3698260E+02  0.7546771E-02  0.1367136E+00
          2   -1    0    0  501    0  0.00000000000E+00  0.00000000000E+00  0.68042226341E+03  0.68042226341E+03  0.00000000000E+00 0. -1.
         -2   -1    0    0    0  501 -0.00000000000E+00 -0.00000000000E+00 -0.23372575667E+01  0.23372575667E+01  0.00000000000E+00 0. -1.
          2    1    1    2  502    0 -0.16445374952E+02  0.33124929942E+02  0.21131974615E+03  0.21453145796E+03  0.00000000000E+00 0. -1.
         -2    1    1    2    0  502  0.16445374952E+02 -0.33124929942E+02  0.46676525969E+03  0.46822806302E+03  0.00000000000E+00 0. -1.
</event>
<event>
 4    1  0.6116490E+003  0.2435145E+02  0.7546771E-02  0.1476191E+00
          2   -1    0    0  501    0  0.00000000000E+00  0.00000000000E+00  0.30296199066E+03  0.30296199066E+03  0.00000000000E+00 0. -1.
         -2   -1    0    0    0  501 -0.00000000000E+00 -0.00000000000E+00 -0.23285736234E+01  0.23285736234E+01  0.00000000000E+00 0. -1.
          2    1    1    2  502    0  0.23815193413E+02 -0.50822927165E+01  0.21126682977E+03  0.21266562134E+03  0.00000000000E+00 0. -1.
         -2    1    1    2    0  502 -0.23815193413E+02  0.50822927165E+01  0.89366587259E+02  0.92624942941E+02  0.00000000000E+00 0. -1.
</event>
<event>
 4    1  0.6116490E+003  0.3195958E+02  0.7546771E-02  0.1403299E+00
          2   -1    0    0  501    0  0.00000000000E+00  0.00000000000E+00  0.41801120252E+02  0.41801120252E+02  0.00000000000E+00 0. -1.
         -2   -1    0    0    0  501 -0.00000000000E+00 -0.00000000000E+00 -0.82793150323E+02  0.82793150323E+02  0.00000000000E+00 0. -1.
          2    1    1    2  502    0 -0.78133690804E+01  0.30989775302E+02  0.31806337972E+02  0.45089444939E+02  0.00000000000E+00 0. -1.
         -2    1    1    2    0  502  0.78133690804E+01 -0.30989775302E+02 -0.72798368043E+02  0.79504825636E+02  0.00000000000E+00 0. -1.
</event>
<event>
 4    1  0.6116490E+003  0.3133893E+02  0.7546771E-02  0.1408307E+00
          2   -1    0    0  501    0  0.00000000000E+00  0.00000000000E+00  0.14242164277E+04  0.14242164277E+04  0.00000000000E+00 0. -1.
         -2   -1    0    0    0  501 -0.00000000000E+00 -0.00000000000E+00 -0.80141512920E+01  0.80141512920E+01  0.00000000000E+00 0.  1.
          2    1    1    2  502    0  0.14591109702E+02  0.27734959639E+02  0.13927137934E+04  0.13930663440E+04  0.00000000000E+00 0. -1.
         -2    1    1    2    0  502 -0.14591109702E+02 -0.27734959639E+02  0.23488483018E+02  0.39164234999E+02  0.00000000000E+00 0.  1.
</event>
<event>
 4    1  0.6116490E+003  0.2099655E+02  0.7546771E-02  0.1519314E+00
          2   -1    0    0  501    0  0.00000000000E+00  0.00000000000E+00  0.12339173311E+04  0.12339173311E+04  0.00000000000E+00 0. -1.
         -2   -1    0    0    0  501 -0.00000000000E+00 -0.00000000000E+00 -0.15324430460E+02  0.15324430460E+02  0.00000000000E+00 0. -1.
          2    1    1    2  502    0 -0.11866795727E+02  0.17321501396E+02  0.12265930353E+04  0.12267727294E+04  0.00000000000E+00 0. -1.
         -2    1    1    2    0  502  0.11866795727E+02 -0.17321501396E+02 -0.80001346931E+01  0.22469032168E+02  0.00000000000E+00 0. -1.
</event>
<event>
 4    1  0.6116490E+003  0.5174068E+02  0.7546771E-02  0.1290797E+00
          2   -1    0    0  501    0  0.00000000000E+00  0.00000000000E+00  0.13806940486E+04  0.13806940486E+04  0.00000000000E+00 0.  1.
         -2   -1    0    0    0  501 -0.00000000000E+00 -0.00000000000E+00 -0.23733136578E+01  0.23733136578E+01  0.00000000000E+00 0. -1.
          2    1    1    2  502    0  0.39370477404E+02  0.33571766524E+02  0.98500387851E+03  0.98636187005E+03  0.00000000000E+00 0.  1.
         -2    1    1    2    0  502 -0.39370477404E+02 -0.33571766524E+02  0.39331685647E+03  0.39670549225E+03  0.00000000000E+00 0. -1.
</event>
<event>
 4    1  0.6116490E+003  0.2899889E+02  0.7546771E-02  0.1428500E+00
          2   -1    0    0  501    0  0.00000000000E+00  0.00000000000E+00  0.15705264483E+02  0.15705264483E+02  0.00000000000E+00 0. -1.
         -2   -1    0    0    0  501 -0.00000000000E+00 -0.00000000000E+00 -0.37159916348E+03  0.37159916348E+03  0.00000000000E+00 0.  1.
          2    1    1    2  502    0  0.28870957150E+02  0.27209791999E+01  0.12108640210E+01  0.29024163834E+02  0.00000000000E+00 0. -1.
         -2    1    1    2    0  502 -0.28870957150E+02 -0.27209791999E+01 -0.35710476302E+03  0.35828026413E+03  0.00000000000E+00 0.  1.
</event>
<event>
 4    1  0.6116490E+003  0.2921644E+02  0.7546771E-02  0.1426530E+00
          2   -1    0    0  501    0  0.00000000000E+00  0.00000000000E+00  0.89937325716E+03  0.89937325716E+03  0.00000000000E+00 0. -1.
         -2   -1    0    0    0  501 -0.00000000000E+00 -0.00000000000E+00 -0.11404832847E+01  0.11404832847E+01  0.00000000000E+00 0.  1.
          2    1    1    2  502    0 -0.25531248929E+01  0.29104672771E+02  0.63355899099E+03  0.63423228827E+03  0.00000000000E+00 0. -1.
         -2    1    1    2    0  502  0.25531248929E+01 -0.29104672771E+02  0.26467378289E+03  0.26628145217E+03  0.00000000000E+00 0.  1.
</event>
<event>
 4    1  0.6116490E+003  0.2035122E+02  0.7546771E-02  0.1528733E+00
          2   -1    0    0  501    0  0.00000000000E+00  0.00000000000E+00  0.12515832590E+03  0.12515832590E+03  0.00000000000E+00 0.  1.
         -2   -1    0    0    0  501 -0.00000000000E+00 -0.00000000000E+00 -0.85413522999E+02  0.85413522999E+02  0.00000000000E+00 0.  1.
          2    1    1    2  502    0  0.12336521067E+01  0.20313799628E+02  0.12309862580E+03  0.12476956371E+03  0.00000000000E+00 0.  1.
         -2    1    1    2    0  502 -0.12336521067E+01 -0.20313799628E+02 -0.83353822900E+02  0.85802285196E+02  0.00000000000E+00 0.  1.
</event>
<event>
 4    1  0.6116490E+003  0.3016276E+02  0.7546771E-02  0.1418187E+00
          2   -1    0    0  501    0  0.00000000000E+00  0.00000000000E+00  0.25954852194E+03  0.25954852194E+03  0.00000000000E+00 0. -1.
         -2   -1    0    0    0  501 -0.00000000000E+00 -0.00000000000E+00 -0.38410526856E+01  0.38410526856E+01  0.00000000000E+00 0.  1.
          2    1    1    2  502    0  0.15827116339E+02  0.25676730333E+02  0.16679064860E+03  0.16949605468E+03  0.00000000000E+00 0. -1.
         -2    1    1    2    0  502 -0.15827116339E+02 -0.25676730333E+02  0.88916820654E+02  0.93893519944E+02  0.00000000000E+00 0.  1.
</event>
<event>
 4    1  0.6116490E+003  0.2175177E+02  0.7546771E-02  0.1508797E+00
          2   -1    0    0  501    0  0.00000000000E+00  0.00000000000E+00  0.20027259267E+04  0.20027259267E+04  0.00000000000E+00 0. -1.
         -2   -1    0    0    0  501 -0.00000000000E+00 -0.00000000000E+00 -0.23913968314E+00  0.23913968314E+00  0.00000000000E+00 0.  1.
          2    1    1    2  502    0 -0.13468352768E+02  0.17080468242E+02  0.89110641997E+03  0.89137185879E+03  0.00000000000E+00 0. -1.
         -2    1    1    2    0  502  0.13468352768E+02 -0.17080468242E+02  0.11113803671E+04  0.11115932076E+04  0.00000000000E+00 0.  1.
</event>
<event>
 4    1  0.6116490E+003  0.2431842E+02  0.7546771E-02  0.1476575E+00
          2   -1    0    0  501    0  0.00000000000E+00  0.00000000000E+00  0.75657802657E+03  0.75657802657E+03  0.00000000000E+00 0. -1.
         -2   -1    0    0    0  501 -0.00000000000E+00 -0.00000000000E+00 -0.47624677129E+02  0.47624677129E+02  0.00000000000E+00 0. -1.
          2    1    1    2  502    0  0.83968823797E+01 -0.22822750873E+02  0.75326455245E+03  0.75365699862E+03  0.00000000000E+00 0. -1.
         -2    1    1    2    0  502 -0.83968823797E+01  0.22822750873E+02 -0.44311203003E+02  0.50545705086E+02  0.00000000000E+00 0. -1.
</event>
<event>
 4    1  0.6116490E+003  0.3298459E+02  0.7546771E-02  0.1395314E+00
          2   -1    0    0  501    0  0.00000000000E+00  0.00000000000E+00  0.16150013433E+04  0.16150013433E+04  0.00000000000E+00 0.  1.
         -2   -1    0    0    0  501 -0.00000000000E+00 -0.00000000000E+00 -0.70627804903E+01  0.70627804903E+01  0.00000000000E+00 0.  1.
          2    1    1    2  502    0  0.95186111023E+01 -0.31581309467E+02  0.15753526315E+04  0.15756979078E+04  0.00000000000E+00 0.  1.
         -2    1    1    2    0  502 -0.95186111023E+01  0.31581309467E+02  0.32585931269E+02  0.46366215951E+02  0.00000000000E+00 0.  1.
</event>
<event>
 4    1  0.6116490E+003  0.3059494E+02  0.7546771E-02  0.1414496E+00
          2   -1    0    0  501    0  0.00000000000E+00  0.00000000000E+00  0.15177679988E+01  0.15177679988E+01  0.00000000000E+00 0. -1.
         -2   -1    0    0    0  501 -0.00000000000E+00 -0.00000000000E+00 -0.61820926124E+03  0.61820926124E+03  0.00000000000E+00 0.  1.
          2    1    1    2  502    0  0.30286225599E+02  0.43353102483E+01 -0.29317928182E+03  0.29477133793E+03  0.00000000000E+00 0. -1.
         -2    1    1    2    0  502 -0.30286225599E+02 -0.43353102483E+01 -0.32351221142E+03  0.32495569131E+03  0.00000000000E+00 0.  1.
</event>
<event>
 4    1  0.6116490E+003  0.2549364E+02  0.7546771E-02  0.1463356E+00
          2   -1    0    0  501    0  0.00000000000E+00  0.00000000000E+00  0.30755658901E+03  0.30755658901E+03  0.00000000000E+00 0. -1.
         -2   -1    0    0    0  501 -0.00000000000E+00 -0.00000000000E+00 -0.97179404387E+02  0.97179404387E+02  0.00000000000E+00 0. -1.
          2    1    1    2  502    0 -0.47071906654E+01 -0.25055304583E+02  0.30534422348E+03  0.30640662647E+03  0.00000000000E+00 0. -1.
         -2    1    1    2    0  502  0.47071906654E+01  0.25055304583E+02 -0.94967038855E+02  0.98329366929E+02  0.00000000000E+00 0. -1.
</event>
<event>
 4    1  0.6116490E+003  0.2328999E+02  0.7546771E-02  0.1488888E+00
          2   -1    0    0  501    0  0.00000000000E+00  0.00000000000E+00  0.41172891781E+02  0.41172891781E+02  0.00000000000E+00 0. -1.
         -2   -1    0    0    0  501 -0.00000000000E+00 -0.00000000000E+00 -0.11983191849E+03  0.11983191849E+03  0.00000000000E+00 0.  1.
          2    1    1    2  502    0  0.22149006627E+02 -0.72003629558E+01  0.36618873860E+02  0.43397760819E+02  0.00000000000E+00 0. -1.
         -2    1    1    2    0  502 -0.22149006627E+02  0.72003629558E+01 -0.11527790057E+03  0.11760704945E+03  0.00000000000E+00 0.  1.
</event>
<event>
 4    1  0.6116490E+003  0.3950398E+02  0.7546771E-02  0.1351417E+00
          2   -1    0    0  501    0  0.00000000000E+00  0.00000000000E+00  0.56403037823E+03  0.56403037823E+03  0.00000000000E+00 0. -1.
         -2   -1    0    0    0  501 -0.00000000000E+00 -0.00000000000E+00 -0.88696066881E+01  0.88696066881E+01  0.00000000000E+00 0.  1.
          2    1    1    2  502    0 -0.35405272550E+02 -0.17522296727E+02  0.51518842377E+03  0.51670076078E+03  0.00000000000E+00 0. -1.
         -2    1    1    2    0  502  0.35405272550E+02  0.17522296727E+02  0.39972347770E+02  0.56199224134E+02  0.00000000000E+00 0.  1.
</event>
<event>
 4    1  0.6116490E+003  0.4612176E+02  0.7546771E-02  0.1315924E+00
          2   -1    0    0  501    0  0.00000000000E+00  0.00000000000E+00  0.15206846260E+04  0.15206846260E+04  0.00000000000E+00 0. -1.
         -2   -1    0    0    0  501 -0.00000000000E+00 -0.00000000000E+00 -0.28427712902E+01  0.28427712902E+01  0.00000000000E+00 0.  1.
          2    1    1    2  502    0  0.11235420271E+02 -0.44732333601E+02  0.13018216439E+04  0.13026384029E+04  0.00000000000E+00 0. -1.
         -2    1    1    2    0  502 -0.11235420271E+02  0.44732333601E+02  0.21602021080E+03  0.22088899432E+03  0.00000000000E+00 0.  1.
</event>
<event>
 4    1  0.6116490E+003  0.3621942E+02  0.7546771E-02  0.1372187E+00
          2   -1    0    0  501    0  0.00000000000E+00  0.00000000000E+00  0.10625907853E+02  0.10625907853E+02  0.00000000000E+00 0. -1.
         -2   -1    0    0    0  501 -0.00000000000E+00 -0.00000000000E+00 -0.47258750595E+03  0.47258750595E+03  0.00000000000E+00 0. -1.
          2    1    1    2  502    0 -0.54325246886E+01  0.35809689373E+02 -0.23316632332E+02  0.43075648815E+02  0.00000000000E+00 0. -1.
         -2    1    1    2    0  502  0.54325246886E+01 -0.35809689373E+02 -0.43864496577E+03  0.44013776499E+03  0.00000000000E+00 0. -1.
</event>
<event>
 4    1  0.6116490E+003  0.2439977E+02  0.7546771E-02  0.1475631E+00
          2   -1    0    0  501    0  0.00000000000E+00  0.00000000000E+00  0.16552852912E+02  0.16552852912E+02  0.00000000000E+00 0.  1.
         -2   -1    0    0    0  501 -0.00000000000E+00 -0.00000000000E+00 -0.21892025621E+03  0.21892025621E+03  0.00000000000E+00 0. -1.
          2    1    1    2  502    0 -0.22885410235E+02 -0.84620793726E+01  0.64476936699E+01  0.25237304582E+02  0.00000000000E+00 0.  1.
         -2    1    1    2    0  502  0.22885410235E+02  0.84620793726E+01 -0.20881509697E+03  0.21023580454E+03  0.00000000000E+00 0. -1.
</event>
<event>
 4    1  0.6116490E+003  0.2934837E+02  0.7546771E-02  0.1425345E+00
          2   -1    0    0  501    0  0.00000000000E+00  0.00000000000E+00  0.27615028263E+03  0.27615028263E+03  0.00000000000E+00 0.  1.
         -2   -1    0    0    0  501 -0.00000000000E+00 -0.00000000000E+00 -0.40664831968E+02  0.40664831968E+02  0.00000000000E+00 0. -1.
          2    1    1    2  502    0 -0.24192274265E+02  0.16615081820E+02  0.26995405213E+03  0.27154468756E+03  0.00000000000E+00 0.  1.
         -2    1    1    2    0  502  0.24192274265E+02 -0.16615081820E+02 -0.34468601465E+02  0.45270427046E+02  0.00000000000E+00 0. -1.
</event>
<event>
 4    1  0.6116490E+003  0.2667082E+02  0.7546771E-02  0.1450943E+00
          2   -1    0    0  501    0  0.00000000000E+00  0.00000000000E+00  0.77429564586E+03  0.77429564586E+03  0.00000000000E+00 0. -1.
         -2   -1    0    0    0  501 -0.00000000000E+00 -0.00000000000E+00 -0.13622204432E+03  0.13622204432E+03  0.00000000000E+00 0.  1.
          2    1    1    2  502    0  0.24563715174E+02 -0.10390213554E+02  0.77275791261E+03  0.77321803144E+03  0.00000000000E+00 0. -1.
         -2    1    1    2    0  502 -0.24563715174E+02  0.10390213554E+02 -0.13468431107E+03  0.13729965874E+03  0.00000000000E+00 0.  1.
</event>
<event>
 4    1  0.6116490E+003  0.2024726E+02  0.7546771E-02  0.1530289E+00
          2   -1    0    0  501    0  0.00000000000E+00  0.00000000000E+00  0.64999511544E+03  0.64999511544E+03  0.00000000000E+00 0. -1.
         -2   -1    0    0    0  501 -0.00000000000E+00 -0.00000000000E+00 -0.85335006220E+01  0.85335006220E+01  0.00000000000E+00 0.  1.
          2    1    1    2  502    0  0.85334635153E+01 -0.18361145335E+02  0.63759383506E+03  0.63791523745E+03  0.00000000000E+00 0. -1.
         -2    1    1    2    0  502 -0.85334635153E+01  0.18361145335E+02  0.38677797531E+01  0.20613378612E+02  0.00000000000E+00 0.  1.
</event>
<event>
 4    1  0.6116490E+003  0.3591275E+02  0.7546771E-02  0.1374257E+00
          2   -1    0    0  501    0  0.00000000000E+00  0.00000000000E+00  0.25004278709E+04  0.25004278709E+04  0.00000000000E+00 0. -1.
         -2   -1    0    0    0  501 -0.00000000000E+00 -0.00000000000E+00 -0.73989713468E+00  0.73989713468E+00  0.00000000000E+00 0.  1.
          2    1    1    2  502    0 -0.65299100599E+01 -0.35314104264E+02  0.19380894753E+04  0.19384221779E+04  0.00000000000E+00 0. -1.
         -2    1    1    2    0  502  0.65299100599E+01  0.35314104264E+02  0.56159849842E+03  0.56274559005E+03  0.00000000000E+00 0.  1.
</event>
<event>
 4    1  0.6116490E+003  0.2101602E+02  0.7546771E-02  0.1519036E+00
          2   -1    0    0  501    0  0.00000000000E+00  0.00000000000E+00  0.60485992357E+02  0.60485992357E+02  0.00000000000E+00 0.  1.
         -2   -1    0    0    0  501 -0.00000000000E+00 -0.00000000000E+00 -0.90165760183E+01  0.90165760183E+01  0.00000000000E+00 0.  1.
          2    1    1    2  502    0 -0.19414721649E+02 -0.80461921868E+01  0.10580954590E+02  0.23529326923E+02  0.00000000000E+00 0.  1.
         -2    1    1    2    0  502  0.19414721649E+02  0.80461921868E+01  0.40888461749E+02  0.45973241452E+02  0.00000000000E+00 0.  1.
</event>
<event>
 4    1  0.6116490E+003  0.3187048E+02  0.7546771E-02  0.1404009E+00
          2   -1    0    0  501    0  0.00000000000E+00  0.00000000000E+00  0.16337737594E+03  0.16337737594E+03  0.00000000000E+00 0. -1.
         -2   -1    0    0    0  501 -0.00000000000E+00 -0.00000000000E+00 -0.10253624295E+02  0.10253624295E+02  0.00000000000E+00 0.  1.
          2    1    1    2  502    0  0.21554876676E+02 -0.23475834568E+02  0.13103274702E+03  0.13485291361E+03  0.00000000000E+00 0. -1.
         -2    1    1    2    0  502 -0.21554876676E+02  0.23475834568E+02  0.22091004629E+02  0.38778086630E+02  0.00000000000E+00 0.  1.
</event>
<event>
 4    1  0.6116490E+003  0.3714627E+02  0.7546771E-02  0.1366072E+00
          2   -1    0    0  501    0  0.00000000000E+00  0.00000000000E+00  0.90363208617E+02  0.90363208617E+02  0.00000000000E+00 0. -1.
         -2   -1    0    0    0  501 -0.00000000000E+00 -0.00000000000E+00 -0.54925675477E+02  0.54925675477E+02  0.00000000000E+00 0. -1.
          2    1    1    2  502    0  0.37045161204E+02  0.27388754916E+01  0.79444664003E+02  0.87700057275E+02  0.00000000000E+00 0. -1.
         -2    1    1    2    0  502 -0.37045161204E+02 -0.27388754916E+01 -0.44007130863E+02  0.57588826819E+02  0.00000000000E+00 0. -1.
</event>
<event>
 4    1  0.6116490E+003  0.2803283E+02  0.7546771E-02  0.1437500E+00
          2   -1    0    0  501    0  0.00000000000E+00  0.00000000000E+00  0.87920394706E+03  0.87920394706E+03  0.00000000000E+00 0.  1.
         -2   -1    0    0    0  501 -0.00000000000E+00 -0.00000000000E+00 -0.20860596786E+01  0.20860596786E+01  0.00000000000E+00 0.  1.
          2    1    1    2  502    0  0.24112829584E+02  0.14297230535E+02  0.77168568155E+03  0.77219468430E+03  0.00000000000E+00 0.  1.
         -2    1    1    2    0  502 -0.24112829584E+02 -0.14297230535E+02  0.10543220582E+03  0.10909532243E+03  0.00000000000E+00 0.  1.
</event>
<event>
 4    1  0.6116490E+003  0.2051701E+02  0.7546771E-02  0.1526274E+00
          2   -1    0    0  501    0  0.00000000000E+00  0.00000000000E+00  0.84025910310E+01  0.84025910310E+01  0.00000000000E+00 0. -1.
         -2   -1    0    0    0  501 -0.00000000000E+00 -0.00000000000E+00 -0.12000224651E+03  0.12000224651E+03  0.00000000000E+00 0.  1.
          2    1    1    2  502    0 -0.23778720816E+01 -0.20378753625E+02 -0.67982145214E+01  0.21613967605E+02  0.00000000000E+00 0. -1.
         -2    1    1    2    0  502  0.23778720816E+01  0.20378753625E+02 -0.10480144096E+03  0.10679086994E+03  0.00000000000E+00 0.  1.
</event>
<event>
 4    1  0.6116490E+003  0.2862185E+02  0.7546771E-02  0.1431963E+00
          2   -1    0    0  501    0  0.00000000000E+00  0.00000000000E+00  0.41110039271E+01  0.41110039271E+01  0.00000000000E+00 0. -1.
         -2   -1    0    0    0  501 -0.00000000000E+00 -0.00000000000E+00 -0.33730651704E+03  0.33730651704E+03  0.00000000000E+00 0.  1.
          2    1    1    2  502    0  0.24781780587E+02 -0.14320385929E+02 -0.57394276460E+02  0.64135115752E+02  0.00000000000E+00 0. -1.
         -2    1    1    2    0  502 -0.24781780587E+02  0.14320385929E+02 -0.27580123665E+03  0.27728240521E+03  0.00000000000E+00 0.  1.
</event>
<event>
 4    1  0.6116490E+003  0.2201690E+02  0.7546771E-02  0.1505226E+00
          2   -1    0    0  501    0  0.00000000000E+00  0.00000000000E+00  0.10727394795E+02  0.10727394795E+02  0.00000000000E+00 0.  1.
         -2   -1    0    0    0  501 -0.00000000000E+00 -0.00000000000E+00 -0.64078465912E+02  0.64078465912E+02  0.00000000000E+00 0.  1.
          2    1    1    2  502    0  0.14934164848E+02  0.16177592258E+02 -0.63670720726E+01  0.22919061450E+02  0.00000000000E+00 0.  1.
         -2    1    1    2    0  502 -0.14934164848E+02 -0.16177592258E+02 -0.46983999044E+02  0.51886799257E+02  0.00000000000E+00 0.  1.
</event>
<event>
 4    1  0.6116490E+003  0.3564104E+02  0.7546771E-02  0.1376112E+00
          2   -1    0    0  501    0  0.00000000000E+00  0.00000000000E+00  0.88357072382E+03  0.88357072382E+03  0.00000000000E+00 0.  1.
         -2   -1    0    0    0  501 -0.00000000000E+00 -0.00000000000E+00 -0.73349766404E+02  0.73349766404E+02  0.00000000000E+00 0. -1.
          2    1    1    2  502    0  0.19991117182E+02  0.29506590334E+02  0.87885855985E+03  0.87958095242E+03  0.00000000000E+00 0.  1.
         -2    1    1    2    0  502 -0.19991117182E+02 -0.29506590334E+02 -0.68637602435E+02  0.77339537802E+02  0.00000000000E+00 0. -1.
</event>
<event>
 4    1  0.6116490E+003  0.2002212E+02  0.7546771E-02  0.1533698E+00
          2   -1    0    0  501    0  0.00000000000E+00  0.00000000000E+00  0.15941663710E+04  0.15941663710E+04  0.00000000000E+00 0. -1.
         -2   -1    0    0    0  501 -0.00000000000E+00 -0.00000000000E+00 -0.94219575528E+00  0.94219575528E+00  0.00000000000E+00 0. -1.
          2    1    1    2  502    0  0.20019642664E+02  0.31484095927E+00  0.14794890565E+04  0.14796245313E+04  0.00000000000E+00 0. -1.
         -2    1    1    2    0  502 -0.20019642664E+02 -0.31484095927E+00  0.11373511873E+03  0.11548403547E+03  0.00000000000E+00 0. -1.
</event>
<event>
 4    1  0.6116490E+003  0.2041153E+02  0.7546771E-02  0.1527835E+00
          2   -1    0    0  501    0  0.00000000000E+00  0.00000000000E+00  0.52053545557E+03  0.52053545557E+03  0.00000000000E+00 0.  1.
         -2   -1    0    0    0  501 -0.00000000000E+00 -0.00000000000E+00 -0.27014951305E+01  0.27014951305E+01  0.00000000000E+00 0. -1.
          2    1    1    2  502    0  0.16820321133E+02  0.11563188723E+02  0.47838415169E+03  0.47881940972E+03  0.00000000000E+00 0.  1.
         -2    1    1    2    0  502 -0.16820321133E+02 -0.11563188723E+02  0.39449808755E+02  0.44417540986E+02  0.00000000000E+00 0. -1.
</event>
<event>
 4    1  0.6116490E+003  0.2582984E+02  0.7546771E-02  0.1459730E+00
          2   -1    0    0  501    0  0.00000000000E+00  0.00000000000E+00  0.69472786651E+02  0.69472786651E+02  0.00000000000E+00 0. -1.
         -2   -1    0    0    0  501 -0.00000000000E+00 -0.00000000000E+00 -0.84800493376E+02  0.84800493376E+02  0.00000000000E+00 0. -1.
          2    1    1    2  502    0  0.17344617825E+02 -0.19140140103E+02  0.64973801629E+02  0.69919779954E+02  0.00000000000E+00 0. -1.
         -2    1    1    2    0  502 -0.17344617825E+02  0.19140140103E+02 -0.80301508354E+02  0.84353500073E+02  0.00000000000E+00 0. -1.
</event>
<event>
 4    1  0.6116490E+003  0.6486829E+02  0.7546771E-02  0.1244132E+00
          2   -1    0    0  501    0  0.00000000000E+00  0.00000000000E+00  0.16918659495E+04  0.16918659495E+04  0.00000000000E+00 0. -1.
         -2   -1    0    0    0  501 -0.00000000000E+00 -0.00000000000E+00 -0.65729444642E+03  0.65729444642E+03  0.00000000000E+00 0. -1.
          2    1    1    2  502    0  0.38515792906E+02  0.52196064718E+02  0.16896415995E+04  0.16908863445E+04  0.00000000000E+00 0. -1.
         -2    1    1    2    0  502 -0.38515792906E+02 -0.52196064718E+02 -0.65507009642E+03  0.65827405136E+03  0.00000000000E+00 0. -1.
</event>
<event>
 4    1  0.6116490E+003  0.3549044E+02  0.7546771E-02  0.1377148E+00
          2   -1    0    0  501    0  0.00000000000E+00  0.00000000000E+00  0.78502377601E+03  0.78502377601E+03  0.00000000000E+00 0. -1.
         -2   -1    0    0    0  501 -0.00000000000E+00 -0.00000000000E+00 -0.66899630538E+01  0.66899630538E+01  0.00000000000E+00 0.  1.
          2    1    1    2  502    0  0.34074892319E+02 -0.99233624981E+01  0.73430391980E+03  0.73516108306E+03  0.00000000000E+00 0. -1.
         -2    1    1    2    0  502 -0.34074892319E+02  0.99233624981E+01  0.44029893152E+02  0.56552656002E+02  0.00000000000E+00 0.  1.
</event>
<event>
 4    1  0.6116490E+003  0.2428978E+02  0.7546771E-02  0.1476908E+00
          2   -1    0    0  501    0  0.00000000000E+00  0.00000000000E+00  0.22422820668E+02  0.22422820668E+02  0.00000000000E+00 0.  1.
         -2   -1    0    0    0  501 -0.00000000000E+00 -0.00000000000E+00 -0.51226806809E+02  0.51226806809E+02  0.00000000000E+00 0. -1.
          2    1    1    2  502    0 -0.84226175015E+01 -0.22782735687E+02  0.11279425962E+02  0.26780944363E+02  0.00000000000E+00 0.  1.
         -2    1    1    2    0  502  0.84226175015E+01  0.22782735687E+02 -0.40083412104E+02  0.46868683114E+02  0.00000000000E+00 0. -1.
</event>
<event>
 4    1  0.6116490E+003  0.2254155E+02  0.7546771E-02  0.1498337E+00
          2   -1    0    0  501    0  0.00000000000E+00  0.00000000000E+00  0.13550777248E+03  0.13550777248E+03  0.00000000000E+00 0. -1.
         -2   -1    0    0    0  501 -0.00000000000E+00 -0.00000000000E+00 -0.11006822631E+02  0.11006822631E+02  0.00000000000E+00 0. -1.
          2    1    1    2  502    0 -0.65959964896E+00 -0.22531900775E+02  0.12173449963E+03  0.12380391764E+03  0.00000000000E+00 0. -1.
         -2    1    1    2    0  502  0.65959964896E+00  0.22531900775E+02  0.27664502214E+01  0.22710677468E+02  0.00000000000E+00 0. -1.
</event>
<event>
 4    1  0.6116490E+003  0.2933372E+02  0.7546771E-02  0.1425476E+00
          2   -1    0    0  501    0  0.00000000000E+00  0.00000000000E+00  0.11428894154E+04  0.11428894154E+04  0.00000000000E+00 0. -1.
         -2   -1    0    0    0  501 -0.00000000000E+00 -0.00000000000E+00 -0.33286628248E+02  0.33286628248E+02  0.00000000000E+00 0. -1.
          2    1    1    2  502    0 -0.25281029695E+02 -0.14877397535E+02  0.11362005940E+04  0.11365791909E+04  0.00000000000E+00 0. -1.
         -2    1    1    2    0  502  0.25281029695E+02  0.14877397535E+02 -0.26597806827E+02  0.39596852752E+02  0.00000000000E+00 0. -1.
</event>
<event>
 4    1  0.6116490E+003  0.2142457E+02  0.7546771E-02  0.1513289E+00
          2   -1    0    0  501    0  0.00000000000E+00  0.00000000000E+00  0.37506875926E+03  0.37506875926E+03  0.00000000000E+00 0. -1.
         -2   -1    0    0    0  501 -0.00000000000E+00 -0.00000000000E+00 -0.35141296085E+01  0.35141296085E+01  0.00000000000E+00 0.  1.
          2    1    1    2  502    0  0.15165064944E+02  0.15133831623E+02  0.33859385281E+03  0.33927099672E+03  0.00000000000E+00 0. -1.
         -2    1    1    2    0  502 -0.15165064944E+02 -0.15133831623E+02  0.32960776843E+02  0.39311892151E+02  0.00000000000E+00 0.  1.
</event>
<event>
 4    1  0.6116490E+003  0.2082530E+02  0.7546771E-02  0.1521774E+00
          2   -1    0    0  501    0  0.00000000000E+00  0.00000000000E+00  0.33081054523E+02  0.33081054523E+02  0.00000000000E+00 0. -1.
         -2   -1    0    0    0  501 -0.00000000000E+00 -0.00000000000E+00 -0.17088776345E+02  0.17088776345E+02  0.00000000000E+00 0.  1.
          2    1    1    2  502    0  0.11526372426E+02  0.17344615240E+02  0.20100208442E+02  0.28943243055E+02  0.00000000000E+00 0. -1.
         -2    1    1    2    0  502 -0.11526372426E+02 -0.17344615240E+02 -0.41079302638E+01  0.21226587813E+02  0.00000000000E+00 0.  1.
</event>
<event>
 4    1  0.6116490E+003  0.2152383E+02  0.7546771E-02  0.1511916E+00
          2   -1    0    0  501    0  0.00000000000E+00  0.00000000000E+00  0.11270222192E+04  0.11270222192E+04  0.00000000000E+00 0.  1.
         -2   -1    0    0    0  501 -0.00000000000E+00 -0.00000000000E+00 -0.10043243918E+01  0.10043243918E+01  0.00000000000E+00 0.  1.
          2    1    1    2  502    0 -0.14252537860E+02 -0.16128862562E+02  0.99649591030E+03  0.99672833525E+03  0.00000000000E+00 0.  1.
         -2    1    1    2    0  502  0.14252537860E+02  0.16128862562E+02  0.12952198446E+03  0.13129820830E+03  0.00000000000E+00 0.  1.
</event>
<event>
 4    1  0.6116490E+003  0.4146042E+02  0.7546771E-02  0.1340134E+00
          2   -1    0    0  501    0  0.00000000000E+00  0.00000000000E+00  0.33141998595E+03  0.33141998595E+03  0.00000000000E+00 0.  1.
         -2   -1    0    0    0  501 -0.00000000000E+00 -0.00000000000E+00 -0.57623225766E+01  0.57623225766E+01  0.00000000000E+00 0.  1.
          2    1    1    2  502    0  0.34906096234E+02 -0.22372551095E+02  0.21611514330E+03  0.22005617865E+03  0.00000000000E+00 0.  1.
         -2    1    1    2    0  502 -0.34906096234E+02  0.22372551095E+02  0.10954252008E+03  0.11712612988E+03  0.00000000000E+00 0.  1.
</event>
<event>
 4    1  0.6116490E+003  0.5017173E+02  0.7546771E-02  0.1297430E+00
          2   -1    0    0  501    0  0.00000000000E+00  0.00000000000E+00  0.10583747912E+04  0.10583747912E+04  0.00000000000E+00 0. -1.
         -2   -1    0    0    0  501 -0.00000000000E+00 -0.00000000000E+00 -0.36234363602E+01  0.36234363602E+01  0.00000000000E+00 0. -1.
          2    1    1    2  502    0 -0.50098651247E+02  0.27070108003E+01  0.83864075702E+03  0.84014018003E+03  0.00000000000E+00 0. -1.
         -2    1    1    2    0  502  0.50098651247E+02 -0.27070108003E+01  0.21611059782E+03  0.22185804753E+03  0.00000000000E+00 0. -1.
</event>
<event>
 4    1  0.6116490E+003  0.2109796E+02  0.7546771E-02  0.1517871E+00
          2   -1    0    0  501    0  0.00000000000E+00  0.00000000000E+00  0.39704490546E+03  0.39704490546E+03  0.00000000000E+00 0.  1.
         -2   -1    0    0    0  501 -0.00000000000E+00 -0.00000000000E+00 -0.21317623190E+01  0.21317623190E+01  0.00000000000E+00 0. -1.
          2    1    1    2  502    0  0.15976156306E+02  0.13779921796E+02  0.33488309063E+03  0.33554702830E+03  0.00000000000E+00 0.  1.
         -2    1    1    2    0  502 -0.15976156306E+02 -0.13779921796E+02  0.60030052515E+02  0.63629639477E+02  0.00000000000E+00 0. -1.
</event>
<event>
 4    1  0.6116490E+003  0.3381429E+02  0.7546771E-02  0.1389096E+00
          2   -1    0    0  501    0  0.00000000000E+00  0.00000000000E+00  0.35634405069E+03  0.35634405069E+03  0.00000000000E+00 0. -1.
         -2   -1    0    0    0  501 -0.00000000000E+00 -0.00000000000E+00 -0.33126598571E+01  0.33126598571E+01  0.00000000000E+00 0.  1.
          2    1    1    2  502    0  0.29347198707E+02  0.16797257827E+02  0.20837046918E+03  0.21109632486E+03  0.00000000000E+00 0. -1.
         -2    1    1    2    0  502 -0.29347198707E+02 -0.16797257827E+02  0.14466092165E+03  0.14856038569E+03  0.00000000000E+00 0.  1.
</event>
<event>
 4    1  0.6116490E+003  0.3525535E+02  0.7546771E-02  0.1378777E+00
          2   -1    0    0  501    0  0.00000000000E+00  0.00000000000E+00  0.12872933994E+03  0.12872933994E+03  0.00000000000E+00 0.  1.
         -2   -1    0    0    0  501 -0.00000000000E+00 -0.00000000000E+00 -0.21593165082E+02  0.21593165082E+02  0.00000000000E+00 0. -1.
          2    1    1    2  502    0 -0.64261788321E+01 -0.34664735063E+02  0.10945324392E+03  0.11499109633E+03  0.00000000000E+00 0.  1.
         -2    1    1    2    0  502  0.64261788321E+01  0.34664735063E+02 -0.23170690559E+01  0.35331408695E+02  0.00000000000E+00 0. -1.
</event>
<event>
 4    1  0.6116490E+003  0.2222907E+02  0.7546771E-02  0.1502412E+00
          2   -1    0    0  501    0  0.00000000000E+00  0.00000000000E+00  0.82746446471E+03  0.82746446471E+03  0.00000000000E+00 0.  1.
         -2   -1    0    0    0  501 -0.00000000000E+00 -0.00000000000E+00 -0.95187075346E+01  0.95187075346E+01  0.00000000000E+00 0. -1.
          2    1    1    2  502    0  0.84712956364E+01 -0.20551609536E+02  0.81412466022E+03  0.81442807778E+03  0.00000000000E+00 0.  1.
         -2    1    1    2    0  502 -0.84712956364E+01  0.20551609536E+02  0.38210969581E+01  0.22555094463E+02  0.00000000000E+00 0. -1.
</event>
<event>
 4    1  0.6116490E+003  0.2697144E+02  0.7546771E-02  0.1447895E+00
          2   -1    0    0  501    0  0.00000000000E+00  0.00000000000E+00  0.56721979161E+01  0.56721979161E+01  0.00000000000E+00 0.  1.
         -2   -1    0    0    0  501 -0.00000000000E+00 -0.00000000000E+00 -0.13089587748E+03  0.13089587748E+03  0.00000000000E+00 0. -1.
          2    1    1    2  502    0  0.24643511572E+02 -0.10961574645E+02 -0.52903392510E+02  0.59382048806E+02  0.00000000000E+00 0.  1.
         -2    1    1    2    0  502 -0.24643511572E+02  0.10961574645E+02 -0.72320287053E+02  0.77186026590E+02  0.00000000000E+00 0. -1.
</event>
<event>
 4    1  0.6116490E+003  0.5870439E+02  0.7546771E-02  0.1264299E+00
          2   -1    0    0  501    0  0.00000000000E+00  0.00000000000E+00  0.13100650647E+03  0.13100650647E+03  0.00000000000E+00 0.  1.
         -2   -1    0    0    0  501 -0.00000000000E+00 -0.00000000000E+00 -0.12086532291E+03  0.12086532291E+03  0.00000000000E+00 0.  1.
          2    1    1    2  502    0  0.56798664797E+02 -0.14836344896E+02  0.11646203370E+03  0.13042089843E+03  0.00000000000E+00 0.  1.
         -2    1    1    2    0  502 -0.56798664797E+02  0.14836344896E+02 -0.10632085014E+03  0.12145093095E+03  0.00000000000E+00 0.  1.
</event>
<event>
 4    1  0.6116490E+003  0.2402889E+02  0.7546771E-02  0.1479967E+00
          2   -1    0    0  501    0  0.00000000000E+00  0.00000000000E+00  0.13821622750E+03  0.13821622750E+03  0.00000000000E+00 0.  1.
         -2   -1    0    0    0  501 -0.00000000000E+00 -0.00000000000E+00 -0.13028362069E+03  0.13028362069E+03  0.00000000000E+00 0. -1.
          2    1    1    2  502    0 -0.20801611091E+02  0.12028322035E+02  0.13604639330E+03  0.13815212154E+03  0.00000000000E+00 0.  1.
         -2    1    1    2    0  502  0.20801611091E+02 -0.12028322035E+02 -0.12811378649E+03  0.13034772666E+03  0.00000000000E+00 0. -1.
</event>
<event>
 4    1  0.6116490E+003  0.3788466E+02  0.7546771E-02  0.1361348E+00
          2   -1    0    0  501    0  0.00000000000E+00  0.00000000000E+00  0.15069370752E+03  0.15069370752E+03  0.00000000000E+00 0. -1.
         -2   -1    0    0    0  501 -0.00000000000E+00 -0.00000000000E+00 -0.98456347952E+01  0.98456347952E+01  0.00000000000E+00 0. -1.
          2    1    1    2  502    0  0.25932505218E+02 -0.27617981537E+02  0.84926039505E+02  0.92992902509E+02  0.00000000000E+00 0. -1.
         -2    1    1    2    0  502 -0.25932505218E+02  0.27617981537E+02  0.55922033220E+02  0.67546439806E+02  0.00000000000E+00 0. -1.
</event>
<event>
 4    1  0.6116490E+003  0.2053976E+02  0.7546771E-02  0.1525938E+00
          2   -1    0    0  501    0  0.00000000000E+00  0.00000000000E+00  0.71385417072E+03  0.71385417072E+03  0.00000000000E+00 0.  1.
         -2   -1    0    0    0  501 -0.00000000000E+00 -0.00000000000E+00 -0.70458885164E+01  0.70458885164E+01  0.00000000000E+00 0. -1.
          2    1    1    2  502    0 -0.10337543941E+02 -0.17748718508E+02  0.69840631943E+03  0.69870828594E+03  0.00000000000E+00 0.  1.
         -2    1    1    2    0  502  0.10337543941E+02  0.17748718508E+02  0.84019627697E+01  0.22191773291E+02  0.00000000000E+00 0. -1.
</event>
<event>
 4    1  0.6116490E+003  0.2634623E+02  0.7546771E-02  0.1454288E+00
          2   -1    0    0  501    0  0.00000000000E+00  0.00000000000E+00  0.11199802522E+04  0.11199802522E+04  0.00000000000E+00 0. -1.
         -2   -1    0    0    0  501 -0.00000000000E+00 -0.00000000000E+00 -0.15349375459E+01  0.15349375459E+01  0.00000000000E+00 0. -1.
          2    1    1    2  502    0 -0.19861700878E+02  0.17310021104E+02  0.99221620208E+03  0.99256592510E+03  0.00000000000E+00 0. -1.
         -2    1    1    2    0  502  0.19861700878E+02 -0.17310021104E+02  0.12622911257E+03  0.12894926465E+03  0.00000000000E+00 0. -1.
</event>
<event>
 4    1  0.6116490E+003  0.6779621E+02  0.7546771E-02  0.1235421E+00
          2   -1    0    0  501    0  0.00000000000E+00  0.00000000000E+00  0.80482037534E+03  0.80482037534E+03  0.00000000000E+00 0. -1.
         -2   -1    0    0    0  501 -0.00000000000E+00 -0.00000000000E+00 -0.13733297096E+03  0.13733297096E+03  0.00000000000E+00 0.  1.
          2    1    1    2  502    0 -0.60859116472E+02 -0.29874632489E+02  0.79492150257E+03  0.79780732070E+03  0.00000000000E+00 0. -1.
         -2    1    1    2    0  502  0.60859116472E+02  0.29874632489E+02 -0.12743409819E+03  0.14434602560E+03  0.00000000000E+00 0.  1.
</event>
<event>
 4    1  0.6116490E+003  0.2242581E+02  0.7546771E-02  0.1499837E+00
          2   -1    0    0  501    0  0.00000000000E+00  0.00000000000E+00  0.19391297307E+02  0.19391297307E+02  0.00000000000E+00 0. -1.
         -2   -1    0    0    0  501 -0.00000000000E+00 -0.00000000000E+00 -0.60584621171E+02  0.60584621171E+02  0.00000000000E+00 0. -1.
          2    1    1    2  502    0  0.19838275963E+02  0.10457519940E+02  0.96443359398E+01  0.24411680241E+02  0.00000000000E+00 0. -1.
         -2    1    1    2    0  502 -0.19838275963E+02 -0.10457519940E+02 -0.50837659803E+02  0.55564238236E+02  0.00000000000E+00 0. -1.
</event>
<event>
 4    1  0.6116490E+003  0.2005459E+02  0.7546771E-02  0.1533203E+00
          2   -1    0    0  501    0  0.00000000000E+00  0.00000000000E+00  0.67594128129E+03  0.67594128129E+03  0.00000000000E+00 0. -1.
         -2   -1    0    0    0  501 -0.00000000000E+00 -0.00000000000E+00 -0.99777435678E+00  0.99777435678E+00  0.00000000000E+00 0. -1.
          2    1    1    2  502    0 -0.48773477115E+01  0.19452455924E+02  0.55251861892E+03  0.55288245660E+03  0.00000000000E+00 0. -1.
         -2    1    1    2    0  502  0.48773477115E+01 -0.19452455924E+02  0.12242488802E+03  0.12405659905E+03  0.00000000000E+00 0. -1.
</event>
<event>
 4    1  0.6116490E+003  0.2323483E+02  0.7546771E-02  0.1489570E+00
          2   -1    0    0  501    0  0.00000000000E+00  0.00000000000E+00  0.25073766874E+03  0.25073766874E+03  0.00000000000E+00 0.  1.
         -2   -1    0    0    0  501 -0.00000000000E+00 -0.00000000000E+00 -0.83853390865E+02  0.83853390865E+02  0.00000000000E+00 0. -1.
          2    1    1    2  502    0  0.19253224981E+02  0.13006556163E+02  0.24857590590E+03  0.24965944438E+03  0.00000000000E+00 0.  1.
         -2    1    1    2    0  502 -0.19253224981E+02 -0.13006556163E+02 -0.81691628023E+02  0.84931615224E+02  0.00000000000E+00 0. -1.
</event>
<event>
 4    1  0.6116490E+003  0.2313469E+02  0.7546771E-02  0.1490814E+00
          2   -1    0    0  501    0  0.00000000000E+00  0.00000000000E+00  0.36079031655E+03  0.36079031655E+03  0.00000000000E+00 0.  1.
         -2   -1    0    0    0  501 -0.00000000000E+00 -0.00000000000E+00 -0.41158818661E+01  0.41158818661E+01  0.00000000000E+00 0.  1.
          2    1    1    2  502    0  0.21257802747E+02  0.91279683097E+01  0.32425171964E+03  0.32507597831E+03  0.00000000000E+00 0.  1.
         -2    1    1    2    0  502 -0.21257802747E+02 -0.91279683097E+01  0.32422715046E+02  0.39830220110E+02  0.00000000000E+00 0.  1.
</event>
<event>
 4    1  0.6116490E+003  0.4215316E+02  0.7546771E-02  0.1336310E+00
          2   -1    0    0  501    0  0.00000000000E+00  0.00000000000E+00  0.21895801450E+04  0.21895801450E+04  0.00000000000E+00 0.  1.
         -2   -1    0    0    0  501 -0.00000000000E+00 -0.00000000000E+00 -0.41898016718E+01  0.41898016718E+01  0.00000000000E+00 0. -1.
          2    1    1    2  502    0  0.41931738132E+02  0.43148375808E+01  0.20776408312E+04  0.20780684089E+04  0.00000000000E+00 0.  1.
         -2    1    1    2    0  502 -0.41931738132E+02 -0.43148375808E+01  0.10774951219E+03  0.11570153786E+03  0.00000000000E+00 0. -1.
</event>
<event>
 4    1  0.6116490E+003  0.2075535E+02  0.7546771E-02  0.1522787E+00
          2   -1    0    0  501    0  0.00000000000E+00  0.00000000000E+00  0.43368445478E+01  0.43368445478E+01  0.00000000000E+00 0. -1.
         -2   -1    0    0    0  501 -0.00000000000E+00 -0.00000000000E+00 -0.10861607659E+03  0.10861607659E+03  0.00000000000E+00 0. -1.
          2    1    1    2  502    0  0.16032189774E+02  0.13181563323E+02 -0.35627434558E+02  0.41232254532E+02  0.00000000000E+00 0. -1.
         -2    1    1    2    0  502 -0.16032189774E+02 -0.13181563323E+02 -0.68651797487E+02  0.71720666609E+02  0.00000000000E+00 0. -1.
</event>
<event>
 4    1  0.6116490E+003  0.4901170E+02  0.7546771E-02  0.1302515E+00
          2   -1    0    0  501    0  0.00000000000E+00  0.00000000000E+00  0.29866330744E+02  0.29866330744E+02  0.00000000000E+00 0.  1.
         -2   -1    0    0    0  501 -0.00000000000E+00 -0.00000000000E+00 -0.34036855631E+03  0.34036855631E+03  0.00000000000E+00 0. -1.
          2    1    1    2  502    0 -0.20294279747E+02  0.44612655857E+02  0.65226319221E+01  0.49443822468E+02  0.00000000000E+00 0.  1.
         -2    1    1    2    0  502  0.20294279747E+02 -0.44612655857E+02 -0.31702485749E+03  0.32079106459E+03  0.00000000000E+00 0. -1.
</event>
<event>
 4    1  0.6116490E+003  0.2350127E+02  0.7546771E-02  0.1486298E+00
          2   -1    0    0  501    0  0.00000000000E+00  0.00000000000E+00  0.59985720469E+02  0.59985720469E+02  0.00000000000E+00 0.  1.
         -2   -1    0    0    0  501 -0.00000000000E+00 -0.00000000000E+00 -0.14856938677E+02  0.14856938677E+02  0.00000000000E+00 0. -1.
          2    1    1    2  502    0 -0.78542146005E+00  0.23488140579E+02  0.45640516383E+02  0.51335819565E+02  0.00000000000E+00 0.  1.
         -2    1    1    2    0  502  0.78542146005E+00 -0.23488140579E+02 -0.51173459073E+00  0.23506839580E+02  0.00000000000E+00 0. -1.
</event>
<event>
 4    1  0.6116490E+003  0.2120948E+02  0.7546771E-02  0.1516295E+00
          2   -1    0    0  501    0  0.00000000000E+00  0.00000000000E+00  0.11080024496E+04  0.11080024496E+04  0.00000000000E+00 0. -1.
         -2   -1    0    0    0  501 -0.00000000000E+00 -0.00000000000E+00 -0.11187131782E+02  0.11187131782E+02  0.00000000000E+00 0.  1.
          2    1    1    2  502    0 -0.58939705275E+01  0.20374084668E+02  0.10977544430E+04  0.10979593159E+04  0.00000000000E+00 0. -1.
         -2    1    1    2    0  502  0.58939705275E+01 -0.20374084668E+02 -0.93912523328E+00  0.21230265444E+02  0.00000000000E+00 0.  1.
</event>
<event>
 4    1  0.6116490E+003  0.2217722E+02  0.7546771E-02  0.1503097E+00
          2   -1    0    0  501    0  0.00000000000E+00  0.00000000000E+00  0.16072193590E+04  0.16072193590E+04  0.00000000000E+00 0.  1.
         -2   -1    0    0    0  501 -0.00000000000E+00 -0.00000000000E+00 -0.13623401713E+01  0.13623401713E+01  0.00000000000E+00 0. -1.
          2    1    1    2  502    0  0.12639464560E+02  0.18222876230E+02  0.15111509211E+04  0.15113136457E+04  0.00000000000E+00 0.  1.
         -2    1    1    2    0  502 -0.12639464560E+02 -0.18222876230E+02  0.94706097692E+02  0.97268053453E+02  0.00000000000E+00 0. -1.
</event>
<event>
 4    1  0.6116490E+003  0.2245634E+02  0.7546771E-02  0.1499440E+00
          2   -1    0    0  501    0  0.00000000000E+00  0.00000000000E+00  0.78510819191E+02  0.78510819191E+02  0.00000000000E+00 0.  1.
         -2   -1    0    0    0  501 -0.00000000000E+00 -0.00000000000E+00 -0.65486801557E+01  0.65486801557E+01  0.00000000000E+00 0.  1.
          2    1    1    2  502    0 -0.60788052418E+01  0.21617930475E+02  0.30092775796E+02  0.37548128399E+02  0.00000000000E+00 0.  1.
         -2    1    1    2    0  502  0.60788052418E+01 -0.21617930475E+02  0.41869363240E+02  0.47511370947E+02  0.00000000000E+00 0.  1.
</event>
<event>
 4    1  0.6116490E+003  0.2555131E+02  0.7546771E-02  0.1462729E+00
          2   -1    0    0  501    0  0.00000000000E+00  0.00000000000E+00  0.36872671083E+03  0.36872671083E+03  0.00000000000E+00 0.  1.
         -2   -1    0    0    0  501 -0.00000000000E+00 -0.00000000000E+00 -0.79027800048E+01  0.79027800048E+01  0.00000000000E+00 0. -1.
          2    1    1    2  502    0  0.74069803054E+01  0.24454159179E+02  0.34629488144E+03  0.34723625123E+03  0.00000000000E+00 0.  1.
         -2    1    1    2    0  502 -0.74069803054E+01 -0.24454159179E+02  0.14529049388E+02  0.29393239605E+02  0.00000000000E+00 0. -1.
</event>
<event>
 4    1  0.6116490E+003  0.2362717E+02  0.7546771E-02  0.1484769E+00
          2   -1    0    0  501    0  0.00000000000E+00  0.00000000000E+00  0.24323905661E+02  0.24323905661E+02  0.00000000000E+00 0. -1.
         -2   -1    0    0    0  501 -0.00000000000E+00 -0.00000000000E+00 -0.39595046577E+02  0.39595046577E+02  0.00000000000E+00 0. -1.
          2    1    1    2  502    0  0.22033248744E+02 -0.85310608191E+01  0.13085714392E+02  0.27008868360E+02  0.00000000000E+00 0. -1.
         -2    1    1    2    0  502 -0.22033248744E+02  0.85310608191E+01 -0.28356855308E+02  0.36910083878E+02  0.00000000000E+00 0. -1.
</event>
<event>
 4    1  0.6116490E+003  0.6311335E+02  0.7546771E-02  0.1249606E+00
          2   -1    0    0  501    0  0.00000000000E+00  0.00000000000E+00  0.13221712777E+02  0.13221712777E+02  0.00000000000E+00 0.  1.
         -2   -1    0    0    0  501 -0.00000000000E+00 -0.00000000000E+00 -0.34909437848E+03  0.34909437848E+03  0.00000000000E+00 0.  1.
          2    1    1    2  502    0  0.57015733190E+02  0.27064755732E+02 -0.10088390650E+03  0.11899940094E+03  0.00000000000E+00 0.  1.
         -2    1    1    2    0  502 -0.57015733190E+02 -0.27064755732E+02 -0.23498875920E+03  0.24331669031E+03  0.00000000000E+00 0.  1.
</event>
<event>
 4    1  0.6116490E+003  0.3043566E+02  0.7546771E-02  0.1415848E+00
          2   -1    0    0  501    0  0.00000000000E+00  0.00000000000E+00  0.56514815736E+03  0.56514815736E+03  0.00000000000E+00 0.  1.
         -2   -1    0    0    0  501 -0.00000000000E+00 -0.00000000000E+00 -0.23102755175E+01  0.23102755175E+01  0.00000000000E+00 0.  1.
          2    1    1    2  502    0  0.26506772912E+02  0.14957290107E+02  0.43434904212E+03  0.43541407870E+03  0.00000000000E+00 0.  1.
         -2    1    1    2    0  502 -0.26506772912E+02 -0.14957290107E+02  0.12848883972E+03  0.13204435418E+03  0.00000000000E+00 0.  1.
</event>
<event>
 4    1  0.6116490E+003  0.2124146E+02  0.7546771E-02  0.1515845E+00
          2   -1    0    0  501    0  0.00000000000E+00  0.00000000000E+00  0.13321716900E+04  0.13321716900E+04  0.00000000000E+00 0.  1.
         -2   -1    0    0    0  501 -0.00000000000E+00 -0.00000000000E+00 -0.17677208049E+03  0.17677208049E+03  0.00000000000E+00 0.  1.
          2    1    1    2  502    0  0.21230111929E+02 -0.69411809681E+00  0.13314485608E+04  0.13316179893E+04  0.00000000000E+00 0.  1.
         -2    1    1    2    0  502 -0.21230111929E+02  0.69411809681E+00 -0.17604895123E+03  0.17732578121E+03  0.00000000000E+00 0.  1.
</event>
<event>
 4    1  0.6116490E+003  0.2503159E+02  0.7546771E-02  0.1468450E+00
          2   -1    0    0  501    0  0.00000000000E+00  0.00000000000E+00  0.58055539970E+03  0.58055539970E+03  0.00000000000E+00 0.  1.
         -2   -1    0    0    0  501 -0.00000000000E+00 -0.00000000000E+00 -0.24665187943E+01  0.24665187943E+01  0.00000000000E+00 0.  1.
          2    1    1    2  502    0  0.24868418700E+02 -0.28534692257E+01  0.50766380836E+03  0.50828055526E+03  0.00000000000E+00 0.  1.
         -2    1    1    2    0  502 -0.24868418700E+02  0.28534692257E+01  0.70425072543E+02  0.74741363233E+02  0.00000000000E+00 0.  1.
</event>
<event>
 4    1  0.6116490E+003  0.2282204E+02  0.7546771E-02  0.1494745E+00
          2   -1    0    0  501    0  0.00000000000E+00  0.00000000000E+00  0.44917419373E+03  0.44917419373E+03  0.00000000000E+00 0. -1.
         -2   -1    0    0    0  501 -0.00000000000E+00 -0.00000000000E+00 -0.14564947288E+01  0.14564947288E+01  0.00000000000E+00 0.  1.
          2    1    1    2  502    0 -0.21955752530E+02 -0.62282041647E+01  0.32559256487E+03  0.32639142742E+03  0.00000000000E+00 0. -1.
         -2    1    1    2    0  502  0.21955752530E+02  0.62282041647E+01  0.12212513413E+03  0.12423926104E+03  0.00000000000E+00 0.  1.
</event>
<event>
 4    1  0.6116490E+003  0.4047776E+02  0.7546771E-02  0.1345709E+00
          2   -1    0    0  501    0  0.00000000000E+00  0.00000000000E+00  0.31773359998E+02  0.31773359998E+02  0.00000000000E+00 0.  1.
         -2   -1    0    0    0  501 -0.00000000000E+00 -0.00000000000E+00 -0.59683463026E+02  0.59683463026E+02  0.00000000000E+00 0.  1.
          2    1    1    2  502    0  0.30376955147E+02  0.26752376139E+02  0.29085022522E+01  0.40582119442E+02  0.00000000000E+00 0.  1.
         -2    1    1    2    0  502 -0.30376955147E+02 -0.26752376139E+02 -0.30818605281E+02  0.50874703582E+02  0.00000000000E+00 0.  1.
</event>
<event>
 4    1  0.6116490E+003  0.2135479E+02  0.7546771E-02  0.1514259E+00
          2   -1    0    0  501    0  0.00000000000E+00  0.00000000000E+00  0.50610911579E+02  0.50610911579E+02  0.00000000000E+00 0. -1.
         -2   -1    0    0    0  501 -0.00000000000E+00 -0.00000000000E+00 -0.96192876012E+01  0.96192876012E+01  0.00000000000E+00 0. -1.
          2    1    1    2  502    0 -0.21119922563E+02 -0.31584692650E+01  0.28072227784E+02  0.35271476152E+02  0.00000000000E+00 0. -1.
         -2    1    1    2    0  502  0.21119922563E+02  0.31584692650E+01  0.12919396194E+02  0.24958723028E+02  0.00000000000E+00 0. -1.
</event>
<event>
 4    1  0.6116490E+003  0.3728752E+02  0.7546771E-02  0.1365158E+00
          2   -1    0    0  501    0  0.00000000000E+00  0.00000000000E+00  0.55021978054E+02  0.55021978054E+02  0.00000000000E+00 0. -1.
         -2   -1    0    0    0  501 -0.00000000000E+00 -0.00000000000E+00 -0.24890075094E+03  0.24890075094E+03  0.00000000000E+00 0. -1.
          2    1    1    2  502    0  0.46071235455E+01 -0.37001799919E+02  0.47101791583E+02  0.60074433456E+02  0.00000000000E+00 0. -1.
         -2    1    1    2    0  502 -0.46071235455E+01  0.37001799919E+02 -0.24098056447E+03  0.24384829554E+03  0.00000000000E+00 0. -1.
</event>
<event>
 4    1  0.6116490E+003  0.2168981E+02  0.7546771E-02  0.1509640E+00
          2   -1    0    0  501    0  0.00000000000E+00  0.00000000000E+00  0.12182586593E+04  0.12182586593E+04  0.00000000000E+00 0.  1.
         -2   -1    0    0    0  501 -0.00000000000E+00 -0.00000000000E+00 -0.67194804088E+01  0.67194804088E+01  0.00000000000E+00 0.  1.
          2    1    1    2  502    0  0.21488226740E+02  0.29502589165E+01  0.12003985840E+04  0.12005945229E+04  0.00000000000E+00 0.  1.
         -2    1    1    2    0  502 -0.21488226740E+02 -0.29502589165E+01  0.11140594940E+02  0.24383616871E+02  0.00000000000E+00 0.  1.
</event>
<event>
 4    1  0.6116490E+003  0.3288829E+02  0.7546771E-02  0.1396050E+00
          2   -1    0    0  501    0  0.00000000000E+00  0.00000000000E+00  0.93806188276E+03  0.93806188276E+03  0.00000000000E+00 0.  1.
         -2   -1    0    0    0  501 -0.00000000000E+00 -0.00000000000E+00 -0.80839917661E+02  0.80839917661E+02  0.00000000000E+00 0.  1.
          2    1    1    2  502    0 -0.17189624861E+02 -0.28038480280E+02  0.93441556475E+03  0.93499416427E+03  0.00000000000E+00 0.  1.
         -2    1    1    2    0  502  0.17189624861E+02  0.28038480280E+02 -0.77193599643E+02  0.83907636155E+02  0.00000000000E+00 0.  1.
</event>
<event>
 4    1  0.6116490E+003  0.3474305E+02  0.7546771E-02  0.1382379E+00
          2   -1    0    0  501    0  0.00000000000E+00  0.00000000000E+00  0.16271837864E+04  0.16271837864E+04  0.00000000000E+00 0.  1.
         -2   -1    0    0    0  501 -0.00000000000E+00 -0.00000000000E+00 -0.22612684894E+01  0.22612684894E+01  0.00000000000E+00 0. -1.
          2    1    1    2  502    0  0.17406665725E+02  0.30068042339E+02  0.14803075225E+04  0.14807151787E+04  0.00000000000E+00 0.  1.
         -2    1    1    2    0  502 -0.17406665725E+02 -0.30068042339E+02  0.14461499541E+03  0.14872987622E+03  0.00000000000E+00 0. -1.
</event>
<event>
 4    1  0.6116490E+003  0.6242703E+02  0.7546771E-02  0.1251802E+00
          2   -1    0    0  501    0  0.00000000000E+00  0.00000000000E+00  0.55853540712E+03  0.55853540712E+03  0.00000000000E+00 0.  1.
         -2   -1    0    0    0  501 -0.00000000000E+00 -0.00000000000E+00 -0.91181174914E+01  0.91181174914E+01  0.00000000000E+00 0.  1.
          2    1    1    2  502    0 -0.47555188797E+02 -0.40442969738E+02  0.13718431026E+03  0.15072048555E+03  0.00000000000E+00 0.  1.
         -2    1    1    2    0  502  0.47555188797E+02  0.40442969738E+02  0.41223297936E+03  0.41693303906E+03  0.00000000000E+00 0.  1.
</event>
<event>
 4    1  0.6116490E+003  0.2831890E+02  0.7546771E-02  0.1434791E+00
          2   -1    0    0  501    0  0.00000000000E+00  0.00000000000E+00  0.94796287607E+03  0.94796287607E+03  0.00000000000E+00 0. -1.
         -2   -1    0    0    0  501 -0.00000000000E+00 -0.00000000000E+00 -0.12442523827E+01  0.12442523827E+01  0.00000000000E+00 0. -1.
          2    1    1    2  502    0 -0.15981245309E+02  0.23378617580E+02  0.74187243266E+03  0.74241273312E+03  0.00000000000E+00 0. -1.
         -2    1    1    2    0  502  0.15981245309E+02 -0.23378617580E+02  0.20484619103E+03  0.20679439533E+03  0.00000000000E+00 0. -1.
</event>
<event>
 4    1  0.6116490E+003  0.2094146E+02  0.7546771E-02  0.1520102E+00
          2   -1    0    0  501    0  0.00000000000E+00  0.00000000000E+00  0.65267057464E+03  0.65267057464E+03  0.00000000000E+00 0. -1.
         -2   -1    0    0    0  501 -0.00000000000E+00 -0.00000000000E+00 -0.23992423436E+01  0.23992423436E+01  0.00000000000E+00 0.  1.
          2    1    1    2  502    0  0.17982086653E+02  0.10732632570E+02  0.60304732229E+03  0.60341082005E+03  0.00000000000E+00 0. -1.
         -2    1    1    2    0  502 -0.17982086653E+02 -0.10732632570E+02  0.47224010008E+02  0.51658996927E+02  0.00000000000E+00 0.  1.
</event>
<event>
 4    1  0.6116490E+003  0.2041511E+02  0.7546771E-02  0.1527782E+00
          2   -1    0    0  501    0  0.00000000000E+00  0.00000000000E+00  0.46620856889E+03  0.46620856889E+03  0.00000000000E+00 0.  1.
         -2   -1    0    0    0  501 -0.00000000000E+00 -0.00000000000E+00 -0.33726295513E+01  0.33726295513E+01  0.00000000000E+00 0.  1.
          2    1    1    2  502    0 -0.20314812412E+02  0.20211490542E+01  0.43269990109E+03  0.43318123350E+03  0.00000000000E+00 0.  1.
         -2    1    1    2    0  502  0.20314812412E+02 -0.20211490542E+01  0.30136038241E+02  0.36399964941E+02  0.00000000000E+00 0.  1.
</event>
<event>
 4    1  0.6116490E+003  0.4716460E+02  0.7546771E-02  0.1310957E+00
          2   -1    0    0  501    0  0.00000000000E+00  0.00000000000E+00  0.44410365079E+03  0.44410365079E+03  0.00000000000E+00 0. -1.
         -2   -1    0    0    0  501 -0.00000000000E+00 -0.00000000000E+00 -0.11244230865E+02  0.11244230865E+02  0.00000000000E+00 0.  1.
          2    1    1    2  502    0 -0.28844495554E+02 -0.37316118199E+02  0.46888180745E+02  0.66505632053E+02  0.00000000000E+00 0. -1.
         -2    1    1    2    0  502  0.28844495554E+02  0.37316118199E+02  0.38597123918E+03  0.38884224961E+03  0.00000000000E+00 0.  1.
</event>
<event>
 4    1  0.6116490E+003  0.2794798E+02  0.7546771E-02  0.1438311E+00
          2   -1    0    0  501    0  0.00000000000E+00  0.00000000000E+00  0.19662653472E+04  0.19662653472E+04  0.00000000000E+00 0.  1.
         -2   -1    0    0    0  501 -0.00000000000E+00 -0.00000000000E+00 -0.10456430579E+01  0.10456430579E+01  0.00000000000E+00 0.  1.
          2    1    1    2  502    0 -0.21286149654E+02 -0.18110475105E+02  0.17572001949E+04  0.17574224348E+04  0.00000000000E+00 0.  1.
         -2    1    1    2    0  502  0.21286149654E+02  0.18110475105E+02  0.20801950923E+03  0.20988855542E+03  0.00000000000E+00 0.  1.
</event>
<event>
 4    1  0.6116490E+003  0.2585852E+02  0.7546771E-02  0.1459424E+00
          2   -1    0    0  501    0  0.00000000000E+00  0.00000000000E+00  0.82932108463E+03  0.82932108463E+03  0.00000000000E+00 0. -1.
         -2   -1    0    0    0  501 -0.00000000000E+00 -0.00000000000E+00 -0.13986022887E+02  0.13986022887E+02  0.00000000000E+00 0. -1.
          2    1    1    2  502    0 -0.23186798176E+02 -0.11447064596E+02  0.81698677037E+03  0.81739589298E+03  0.00000000000E+00 0. -1.
         -2    1    1    2    0  502  0.23186798176E+02  0.11447064596E+02 -0.16517086265E+01  0.25911214539E+02  0.00000000000E+00 0. -1.
</event>
<event>
 4    1  0.6116490E+003  0.2018628E+02  0.7546771E-02  0.1531207E+00
          2   -1    0    0  501    0  0.00000000000E+00  0.00000000000E+00  0.14157264951E+02  0.14157264951E+02  0.00000000000E+00 0. -1.
         -2   -1    0    0    0  501 -0.00000000000E+00 -0.00000000000E+00 -0.12223588330E+03  0.12223588330E+03  0.00000000000E+00 0.  1.
          2    1    1    2  502    0  0.20022442443E+02  0.25666482053E+01  0.55900293883E+01  0.20945985605E+02  0.00000000000E+00 0. -1.
         -2    1    1    2    0  502 -0.20022442443E+02 -0.25666482053E+01 -0.11366864774E+03  0.11544716265E+03  0.00000000000E+00 0.  1.
</event>
<event>
 4    1  0.6116490E+003  0.2611842E+02  0.7546771E-02  0.1456671E+00
          2   -1    0    0  501    0  0.00000000000E+00  0.00000000000E+00  0.20499377737E+01  0.20499377737E+01  0.00000000000E+00 0.  1.
         -2   -1    0    0    0  501 -0.00000000000E+00 -0.00000000000E+00 -0.67200270955E+03  0.67200270955E+03  0.00000000000E+00 0.  1.
          2    1    1    2  502    0  0.17660637502E+02  0.19242493914E+02 -0.95521979985E+02  0.99028381534E+02  0.00000000000E+00 0.  1.
         -2    1    1    2    0  502 -0.17660637502E+02 -0.19242493914E+02 -0.57443079179E+03  0.57502426579E+03  0.00000000000E+00 0.  1.
</event>
<event>
 4    1  0.6116490E+003  0.2322422E+02  0.7546771E-02  0.1489702E+00
          2   -1    0    0  501    0  0.00000000000E+00  0.00000000000E+00  0.11725058725E+03  0.11725058725E+03  0.00000000000E+00 0.  1.
         -2   -1    0    0    0  501 -0.00000000000E+00 -0.00000000000E+00 -0.17583882984E+03  0.17583882984E+03  0.00000000000E+00 0. -1.
          2    1    1    2  502    0  0.12089447806E+02  0.19829512367E+02  0.11532101432E+03  0.11763630669E+03  0.00000000000E+00 0.  1.
         -2    1    1    2    0  502 -0.12089447806E+02 -0.19829512367E+02 -0.17390925691E+03  0.17545311040E+03  0.00000000000E+00 0. -1.
</event>
<event>
 4    1  0.6116490E+003  0.2725865E+02  0.7546771E-02  0.1445027E+00
          2   -1    0    0  501    0  0.00000000000E+00  0.00000000000E+00  0.35712902171E+03  0.35712902171E+03  0.00000000000E+00 0. -1.
         -2   -1    0    0    0  501 -0.00000000000E+00 -0.00000000000E+00 -0.66689924203E+01  0.66689924203E+01  0.00000000000E+00 0. -1.
          2    1    1    2  502    0  0.23376549698E+02 -0.14020365602E+02  0.32611001440E+03  0.32724726923E+03  0.00000000000E+00 0. -1.
         -2    1    1    2    0  502 -0.23376549698E+02  0.14020365602E+02  0.24350014884E+02  0.36550744893E+02  0.00000000000E+00 0. -1.
</event>
<event>
 4    1  0.6116490E+003  0.2463097E+02  0.7546771E-02  0.1472974E+00
          2   -1    0    0  501    0  0.00000000000E+00  0.00000000000E+00  0.67576789995E+03  0.67576789995E+03  0.00000000000E+00 0.  1.
         -2   -1    0    0    0  501 -0.00000000000E+00 -0.00000000000E+00 -0.17079308747E+02  0.17079308747E+02  0.00000000000E+00 0.  1.
          2    1    1    2  502    0  0.18309226319E+02 -0.16475950188E+02  0.66654015183E+03  0.66699509646E+03  0.00000000000E+00 0.  1.
         -2    1    1    2    0  502 -0.18309226319E+02  0.16475950188E+02 -0.78515606222E+01  0.25852112239E+02  0.00000000000E+00 0.  1.
</event>
<event>
 4    1  0.6116490E+003  0.2354785E+02  0.7546771E-02  0.1485731E+00
          2   -1    0    0  501    0  0.00000000000E+00  0.00000000000E+00  0.63707533786E+01  0.63707533786E+01  0.00000000000E+00 0.  1.
         -2   -1    0    0    0  501 -0.00000000000E+00 -0.00000000000E+00 -0.94009102893E+02  0.94009102893E+02  0.00000000000E+00 0. -1.
          2    1    1    2  502    0 -0.20470058227E+02 -0.11639499126E+02 -0.30152438715E+02  0.38257950601E+02  0.00000000000E+00 0.  1.
         -2    1    1    2    0  502  0.20470058227E+02  0.11639499126E+02 -0.57485910799E+02  0.62121905671E+02  0.00000000000E+00 0. -1.
</event>
<event>
 4    1  0.6116490E+003  0.3352754E+02  0.7546771E-02  0.1391221E+00
          2   -1    0    0  501    0  0.00000000000E+00  0.00000000000E+00  0.16359530349E+04  0.16359530349E+04  0.00000000000E+00 0.  1.
         -2   -1    0    0    0  501 -0.00000000000E+00 -0.00000000000E+00 -0.32071974361E+01  0.32071974361E+01  0.00000000000E+00 0. -1.
          2    1    1    2  502    0 -0.32170042947E+02 -0.94437464505E+01  0.15428727376E+04  0.15432369813E+04  0.00000000000E+00 0.  1.
         -2    1    1    2    0  502  0.32170042947E+02  0.94437464505E+01  0.89873099805E+02  0.95923250981E+02  0.00000000000E+00 0. -1.
</event>
<event>
 4    1  0.6116490E+003  0.2719831E+02  0.7546771E-02  0.1445626E+00
          2   -1    0    0  501    0  0.00000000000E+00  0.00000000000E+00  0.17124769278E+03  0.17124769278E+03  0.00000000000E+00 0.  1.
         -2   -1    0    0    0  501 -0.00000000000E+00 -0.00000000000E+00 -0.69579526129E+01  0.69579526129E+01  0.00000000000E+00 0.  1.
          2    1    1    2  502    0  0.26182169349E+02  0.73649306112E+01  0.13701100081E+03  0.13968451073E+03  0.00000000000E+00 0.  1.
         -2    1    1    2    0  502 -0.26182169349E+02 -0.73649306112E+01  0.27278739352E+02  0.38521134658E+02  0.00000000000E+00 0.  1.
</event>
<event>
 4    1  0.6116490E+003  0.2135559E+02  0.7546771E-02  0.1514248E+00
          2   -1    0    0  501    0  0.00000000000E+00  0.00000000000E+00  0.52300530033E+02  0.52300530033E+02  0.00000000000E+00 0. -1.
         -2   -1    0    0    0  501 -0.00000000000E+00 -0.00000000000E+00 -0.11996648454E+02  0.11996648454E+02  0.00000000000E+00 0. -1.
          2    1    1    2  502    0  0.19628980078E+02  0.84121583567E+01  0.36953363580E+02  0.42680350830E+02  0.00000000000E+00 0. -1.
         -2    1    1    2    0  502 -0.19628980078E+02 -0.84121583567E+01  0.33505179984E+01  0.21616827657E+02  0.00000000000E+00 0. -1.
</event>
<event>
 4    1  0.6116490E+003  0.3360322E+02  0.7546771E-02  0.1390658E+00
          2   -1    0    0  501    0  0.00000000000E+00  0.00000000000E+00  0.93449371915E+03  0.93449371915E+03  0.00000000000E+00 0.  1.
         -2   -1    0    0    0  501 -0.00000000000E+00 -0.00000000000E+00 -0.11707821035E+02  0.11707821035E+02  0.00000000000E+00 0. -1.
          2    1    1    2  502    0 -0.10218854738E+01  0.33587677783E+02  0.90941537238E+03  0.91003598603E+03  0.00000000000E+00 0.  1.
         -2    1    1    2    0  502  0.10218854738E+01 -0.33587677783E+02  0.13370525734E+02  0.36165554153E+02  0.00000000000E+00 0. -1.
</event>
<event>
 4    1  0.6116490E+003  0.2267557E+02  0.7546771E-02  0.1496613E+00
          2   -1    0    0  501    0  0.00000000000E+00  0.00000000000E+00  0.37392340002E+03  0.37392340002E+03  0.00000000000E+00 0. -1.
         -2   -1    0    0    0  501 -0.00000000000E+00 -0.00000000000E+00 -0.35711896350E+03  0.35711896350E+03  0.00000000000E+00 0.  1.
          2    1    1    2  502    0 -0.18988788977E+02  0.12393835035E+02  0.37321899587E+03  0.37390720791E+03  0.00000000000E+00 0. -1.
         -2    1    1    2    0  502  0.18988788977E+02 -0.12393835035E+02 -0.35641455935E+03  0.35713515560E+03  0.00000000000E+00 0.  1.
</event>
<event>
 4    1  0.6116490E+003  0.2732973E+02  0.7546771E-02  0.1444324E+00
          2   -1    0    0  501    0  0.00000000000E+00  0.00000000000E+00  0.18731832355E+01  0.18731832355E+01  0.00000000000E+00 0. -1.
         -2   -1    0    0    0  501 -0.00000000000E+00 -0.00000000000E+00 -0.11008831081E+04  0.11008831081E+04  0.00000000000E+00 0.  1.
          2    1    1    2  502    0 -0.21355315587E+02  0.17054753058E+02 -0.10916145799E+03  0.11253060924E+03  0.00000000000E+00 0. -1.
         -2    1    1    2    0  502  0.21355315587E+02 -0.17054753058E+02 -0.98984846684E+03  0.99022568206E+03  0.00000000000E+00 0.  1.
</event>
<event>
 4    1  0.6116490E+003  0.2413507E+02  0.7546771E-02  0.1478717E+00
          2   -1    0    0  501    0  0.00000000000E+00  0.00000000000E+00  0.59816890578E+03  0.59816890578E+03  0.00000000000E+00 0. -1.
         -2   -1    0    0    0  501 -0.00000000000E+00 -0.00000000000E+00 -0.28708541214E+02  0.28708541214E+02  0.00000000000E+00 0.  1.
          2    1    1    2  502    0 -0.24120161696E+02  0.84804446535E+00  0.59280704821E+03  0.59329815252E+03  0.00000000000E+00 0. -1.
         -2    1    1    2    0  502  0.24120161696E+02 -0.84804446535E+00 -0.23346683646E+02  0.33579294468E+02  0.00000000000E+00 0.  1.
</event>
<event>
 4    1  0.6116490E+003  0.2159656E+02  0.7546771E-02  0.1510915E+00
          2   -1    0    0  501    0  0.00000000000E+00  0.00000000000E+00  0.66870486481E+03  0.66870486481E+03  0.00000000000E+00 0. -1.
         -2   -1    0    0    0  501 -0.00000000000E+00 -0.00000000000E+00 -0.18830576744E+03  0.18830576744E+03  0.00000000000E+00 0.  1.
          2    1    1    2  502    0  0.43651790786E+01  0.21150806227E+02  0.66791053661E+03  0.66825960248E+03  0.00000000000E+00 0. -1.
         -2    1    1    2    0  502 -0.43651790786E+01 -0.21150806227E+02 -0.18751143924E+03  0.18875102977E+03  0.00000000000E+00 0.  1.
</event>
<event>
 4    1  0.6116490E+003  0.2297419E+02  0.7546771E-02  0.1492823E+00
          2   -1    0    0  501    0  0.00000000000E+00  0.00000000000E+00  0.89569474755E+03  0.89569474755E+03  0.00000000000E+00 0. -1.
         -2   -1    0    0    0  501 -0.00000000000E+00 -0.00000000000E+00 -0.92254717232E+00  0.92254717232E+00  0.00000000000E+00 0. -1.
          2    1    1    2  502    0  0.22925227325E+02 -0.14990552325E+01  0.71683746813E+03  0.71720552768E+03  0.00000000000E+00 0. -1.
         -2    1    1    2    0  502 -0.22925227325E+02  0.14990552325E+01  0.17793473224E+03  0.17941176704E+03  0.00000000000E+00 0. -1.
</event>
<event>
 4    1  0.6116490E+003  0.2427547E+02  0.7546771E-02  0.1477074E+00
          2   -1    0    0  501    0  0.00000000000E+00  0.00000000000E+00  0.11773920110E+02  0.11773920110E+02  0.00000000000E+00 0. -1.
         -2   -1    0    0    0  501 -0.00000000000E+00 -0.00000000000E+00 -0.13326918984E+03  0.13326918984E+03  0.00000000000E+00 0.  1.
          2    1    1    2  502    0 -0.24127210694E+02 -0.26788130908E+01 -0.34402027211E+01  0.24518020520E+02  0.00000000000E+00 0. -1.
         -2    1    1    2    0  502  0.24127210694E+02  0.26788130908E+01 -0.11805506701E+03  0.12052508943E+03  0.00000000000E+00 0.  1.
</event>
<event>
 4    1  0.6116490E+003  0.3258969E+02  0.7546771E-02  0.1398349E+00
          2   -1    0    0  501    0  0.00000000000E+00  0.00000000000E+00  0.65652328057E+02  0.65652328057E+02  0.00000000000E+00 0.  1.
         -2   -1    0    0    0  501 -0.00000000000E+00 -0.00000000000E+00 -0.10182071222E+03  0.10182071222E+03  0.00000000000E+00 0. -1.
          2    1    1    2  502    0 -0.32487184252E+02 -0.25828253408E+01  0.58712658597E+02  0.67151056633E+02  0.00000000000E+00 0.  1.
         -2    1    1    2    0  502  0.32487184252E+02  0.25828253408E+01 -0.94881042762E+02  0.10032198365E+03  0.00000000000E+00 0. -1.
</event>
<event>
 4    1  0.6116490E+003  0.2702222E+02  0.7546771E-02  0.1447385E+00
          2   -1    0    0  501    0  0.00000000000E+00  0.00000000000E+00  0.72430097241E+02  0.72430097241E+02  0.00000000000E+00 0.  1.
         -2   -1    0    0    0  501 -0.00000000000E+00 -0.00000000000E+00 -0.34573149654E+02  0.34573149654E+02  0.00000000000E+00 0.  1.
          2    1    1    2  502    0 -0.14833163989E+02 -0.22587109931E+02  0.63958993981E+02  0.69433084333E+02  0.00000000000E+00 0.  1.
         -2    1    1    2    0  502  0.14833163989E+02  0.22587109931E+02 -0.26102046394E+02  0.37570162561E+02  0.00000000000E+00 0.  1.
</event>
<event>
 4    1  0.6116490E+003  0.4847734E+02  0.7546771E-02  0.1304913E+00
          2   -1    0    0  501    0  0.00000000000E+00  0.00000000000E+00  0.11915501874E+04  0.11915501874E+04  0.00000000000E+00 0.  1.
         -2   -1    0    0    0  501 -0.00000000000E+00 -0.00000000000E+00 -0.39751141269E+01  0.39751141269E+01  0.00000000000E+00 0.  1.
          2    1    1    2  502    0 -0.20715328164E+02  0.43828394089E+02  0.10180924618E+04  0.10192459535E+04  0.00000000000E+00 0.  1.
         -2    1    1    2    0  502  0.20715328164E+02 -0.43828394089E+02  0.16948261146E+03  0.17627934802E+03  0.00000000000E+00 0.  1.
</event>
<event>
 4    1  0.6116490E+003  0.3785476E+02  0.7546771E-02  0.1361537E+00
          2   -1    0    0  501    0  0.00000000000E+00  0.00000000000E+00  0.12118648473E+04  0.12118648473E+04  0.00000000000E+00 0. -1.
         -2   -1    0    0    0  501 -0.00000000000E+00 -0.00000000000E+00 -0.25290988847E+02  0.25290988847E+02  0.00000000000E+00 0.  1.
          2    1    1    2  502    0 -0.86196113698E+01 -0.36860345108E+02  0.11972311846E+04  0.11978294920E+04  0.00000000000E+00 0. -1.
         -2    1    1    2    0  502  0.86196113698E+01  0.36860345108E+02 -0.10657326094E+02  0.39326344111E+02  0.00000000000E+00 0.  1.
</event>
<event>
 4    1  0.6116490E+003  0.2783046E+02  0.7546771E-02  0.1439440E+00
          2   -1    0    0  501    0  0.00000000000E+00  0.00000000000E+00  0.68057676401E+02  0.68057676401E+02  0.00000000000E+00 0. -1.
         -2   -1    0    0    0  501 -0.00000000000E+00 -0.00000000000E+00 -0.13538455548E+02  0.13538455548E+02  0.00000000000E+00 0.  1.
          2    1    1    2  502    0 -0.21674967967E+02 -0.17456518469E+02  0.43547713692E+02  0.51681114938E+02  0.00000000000E+00 0. -1.
         -2    1    1    2    0  502  0.21674967967E+02  0.17456518469E+02  0.10971507161E+02  0.29915017011E+02  0.00000000000E+00 0.  1.
</event>
<event>
 4    1  0.6116490E+003  0.2276326E+02  0.7546771E-02  0.1495492E+00
          2   -1    0    0  501    0  0.00000000000E+00  0.00000000000E+00  0.42403912659E+03  0.42403912659E+03  0.00000000000E+00 0. -1.
         -2   -1    0    0    0  501 -0.00000000000E+00 -0.00000000000E+00 -0.33607986952E+01  0.33607986952E+01  0.00000000000E+00 0. -1.
          2    1    1    2  502    0 -0.10958619864E+02  0.19951807561E+02  0.38081801396E+03  0.38149774014E+03  0.00000000000E+00 0. -1.
         -2    1    1    2    0  502  0.10958619864E+02 -0.19951807561E+02  0.39860313935E+02  0.45902185147E+02  0.00000000000E+00 0. -1.
</event>
<event>
 4    1  0.6116490E+003  0.2190347E+02  0.7546771E-02  0.1506746E+00
          2   -1    0    0  501    0  0.00000000000E+00  0.00000000000E+00  0.22796188360E+03  0.22796188360E+03  0.00000000000E+00 0. -1.
         -2   -1    0    0    0  501 -0.00000000000E+00 -0.00000000000E+00 -0.26016280930E+01  0.26016280930E+01  0.00000000000E+00 0.  1.
          2    1    1    2  502    0  0.14344535737E+02  0.16552839517E+02  0.16306969963E+03  0.16453415797E+03  0.00000000000E+00 0. -1.
         -2    1    1    2    0  502 -0.14344535737E+02 -0.16552839517E+02  0.62290555877E+02  0.66029353723E+02  0.00000000000E+00 0.  1.
</event>
<event>
 4    1  0.6116490E+003  0.2027974E+02  0.7546771E-02  0.1529801E+00
          2   -1    0    0  501    0  0.00000000000E+00  0.00000000000E+00  0.26907098164E+03  0.26907098164E+03  0.00000000000E+00 0. -1.
         -2   -1    0    0    0  501 -0.00000000000E+00 -0.00000000000E+00 -0.25908330625E+01  0.25908330625E+01  0.00000000000E+00 0. -1.
          2    1    1    2  502    0 -0.19174837457E+02 -0.66025414442E+01  0.22021911058E+03  0.22115090913E+03  0.00000000000E+00 0. -1.
         -2    1    1    2    0  502  0.19174837457E+02  0.66025414442E+01  0.46261038000E+02  0.50510905573E+02  0.00000000000E+00 0. -1.
</event>
<event>
 4    1  0.6116490E+003  0.2401815E+02  0.7546771E-02  0.1480094E+00
          2   -1    0    0  501    0  0.00000000000E+00  0.00000000000E+00  0.27597250086E+01  0.27597250086E+01  0.00000000000E+00 0.  1.
         -2   -1    0    0    0  501 -0.00000000000E+00 -0.00000000000E+00 -0.24257102685E+03  0.24257102685E+03  0.00000000000E+00 0.  1.
          2    1    1    2  502    0  0.24002675735E+02  0.86195005819E+00 -0.74293931919E+02  0.78079829151E+02  0.00000000000E+00 0.  1.
         -2    1    1    2    0  502 -0.24002675735E+02 -0.86195005819E+00 -0.16551736992E+03  0.16725092271E+03  0.00000000000E+00 0.  1.
</event>
<event>
 4    1  0.6116490E+003  0.2410297E+02  0.7546771E-02  0.1479094E+00
          2   -1    0    0  501    0  0.00000000000E+00  0.00000000000E+00  0.30776357289E+03  0.30776357289E+03  0.00000000000E+00 0. -1.
         -2   -1    0    0    0  501 -0.00000000000E+00 -0.00000000000E+00 -0.36175664301E+01  0.36175664301E+01  0.00000000000E+00 0.  1.
          2    1    1    2  502    0 -0.15814404758E+02 -0.18189490923E+02  0.25973572630E+03  0.26085168294E+03  0.00000000000E+00 0. -1.
         -2    1    1    2    0  502  0.15814404758E+02  0.18189490923E+02  0.44410280166E+02  0.50529456383E+02  0.00000000000E+00 0.  1.
</event>
<event>
 4    1  0.6116490E+003  0.2021211E+02  0.7546771E-02  0.1530818E+00
          2   -1    0    0  501    0  0.00000000000E+00  0.00000000000E+00  0.32169136330E+02  0.32169136330E+02  0.00000000000E+00 0.  1.
         -2   -1    0    0    0  501 -0.00000000000E+00 -0.00000000000E+00 -0.98154357847E+02  0.98154357847E+02  0.00000000000E+00 0.  1.
          2    1    1    2  502    0  0.29152809421E+01  0.20000760484E+02  0.27807800279E+02  0.34377362308E+02  0.00000000000E+00 0.  1.
         -2    1    1    2    0  502 -0.29152809421E+01 -0.20000760484E+02 -0.93793021796E+02  0.95946131869E+02  0.00000000000E+00 0.  1.
</event>
<event>
 4    1  0.6116490E+003  0.2253177E+02  0.7546771E-02  0.1498463E+00
          2   -1    0    0  501    0  0.00000000000E+00  0.00000000000E+00  0.48325696278E+03  0.48325696278E+03  0.00000000000E+00 0. -1.
         -2   -1    0    0    0  501 -0.00000000000E+00 -0.00000000000E+00 -0.79809272203E+02  0.79809272203E+02  0.00000000000E+00 0. -1.
          2    1    1    2  502    0  0.19758556862E+00  0.22530901042E+02  0.48139789674E+03  0.48192490653E+03  0.00000000000E+00 0. -1.
         -2    1    1    2    0  502 -0.19758556862E+00 -0.22530901042E+02 -0.77950206168E+02  0.81141328455E+02  0.00000000000E+00 0. -1.
</event>
<event>
 4    1  0.6116490E+003  0.2172081E+02  0.7546771E-02  0.1509218E+00
          2   -1    0    0  501    0  0.00000000000E+00  0.00000000000E+00  0.31642347497E+03  0.31642347497E+03  0.00000000000E+00 0.  1.
         -2   -1    0    0    0  501 -0.00000000000E+00 -0.00000000000E+00 -0.34360033984E+03  0.34360033984E+03  0.00000000000E+00 0. -1.
          2    1    1    2  502    0 -0.16755441658E+02 -0.13822038296E+02  0.31570666958E+03  0.31645298985E+03  0.00000000000E+00 0.  1.
         -2    1    1    2    0  502  0.16755441658E+02  0.13822038296E+02 -0.34288353445E+03  0.34357082497E+03  0.00000000000E+00 0. -1.
</event>
<event>
 4    1  0.6116490E+003  0.5906207E+02  0.7546771E-02  0.1263053E+00
          2   -1    0    0  501    0  0.00000000000E+00  0.00000000000E+00  0.94297402507E+03  0.94297402507E+03  0.00000000000E+00 0. -1.
         -2   -1    0    0    0  501 -0.00000000000E+00 -0.00000000000E+00 -0.42199685677E+02  0.42199685677E+02  0.00000000000E+00 0.  1.
          2    1    1    2  502    0  0.52658120062E+02  0.26747899234E+02  0.92088849031E+03  0.92278054775E+03  0.00000000000E+00 0. -1.
         -2    1    1    2    0  502 -0.52658120062E+02 -0.26747899234E+02 -0.20114150915E+02  0.62393162998E+02  0.00000000000E+00 0.  1.
</event>
<event>
 4    1  0.6116490E+003  0.2546085E+02  0.7546771E-02  0.1463713E+00
          2   -1    0    0  501    0  0.00000000000E+00  0.00000000000E+00  0.86465511445E+02  0.86465511445E+02  0.00000000000E+00 0.  1.
         -2   -1    0    0    0  501 -0.00000000000E+00 -0.00000000000E+00 -0.20398504144E+02  0.20398504144E+02  0.00000000000E+00 0. -1.
          2    1    1    2  502    0 -0.25446294013E+02 -0.86090092560E+00  0.75526564155E+02  0.79702678264E+02  0.00000000000E+00 0.  1.
         -2    1    1    2    0  502  0.25446294013E+02  0.86090092560E+00 -0.94595568538E+01  0.27161337325E+02  0.00000000000E+00 0. -1.
</event>
<event>
 4    1  0.6116490E+003  0.2410977E+02  0.7546771E-02  0.1479014E+00
          2   -1    0    0  501    0  0.00000000000E+00  0.00000000000E+00  0.79512129966E+03  0.79512129966E+03  0.00000000000E+00 0.  1.
         -2   -1    0    0    0  501 -0.00000000000E+00 -0.00000000000E+00 -0.21570797207E+02  0.21570797207E+02  0.00000000000E+00 0.  1.
          2    1    1    2  502    0 -0.18319824034E+02  0.15673705016E+02  0.78814199357E+03  0.78851067400E+03  0.00000000000E+00 0.  1.
         -2    1    1    2    0  502  0.18319824034E+02 -0.15673705016E+02 -0.14591491120E+02  0.28181422864E+02  0.00000000000E+00 0.  1.
</event>
<event>
 4    1  0.6116490E+003  0.3039934E+02  0.7546771E-02  0.1416157E+00
          2   -1    0    0  501    0  0.00000000000E+00  0.00000000000E+00  0.98132801933E+00  0.98132801933E+00  0.00000000000E+00 0. -1.
         -2   -1    0    0    0  501 -0.00000000000E+00 -0.00000000000E+00 -0.95679063397E+03  0.95679063397E+03  0.00000000000E+00 0. -1.
          2    1    1    2  502    0 -0.12172113276E+02 -0.27856038015E+02 -0.53804131040E+03  0.53889940702E+03  0.00000000000E+00 0. -1.
         -2    1    1    2    0  502  0.12172113276E+02  0.27856038015E+02 -0.41776799556E+03  0.41887255497E+03  0.00000000000E+00 0. -1.
</event>
<event>
 4    1  0.6116490E+003  0.2150775E+02  0.7546771E-02  0.1512137E+00
          2   -1    0    0  501    0  0.00000000000E+00  0.00000000000E+00  0.59803183753E+03  0.59803183753E+03  0.00000000000E+00 0.  1.
         -2   -1    0    0    0  501 -0.00000000000E+00 -0.00000000000E+00 -0.10143757143E+01  0.10143757143E+01  0.00000000000E+00 0. -1.
          2    1    1    2  502    0  0.21466484342E+02 -0.13316969508E+01  0.44446365935E+03  0.44498373886E+03  0.00000000000E+00 0.  1.
         -2    1    1    2    0  502 -0.21466484342E+02  0.13316969508E+01  0.15255380246E+03  0.15406247438E+03  0.00000000000E+00 0. -1.
</event>
<event>
 4    1  0.6116490E+003  0.2645892E+02  0.7546771E-02  0.1453120E+00
          2   -1    0    0  501    0  0.00000000000E+00  0.00000000000E+00  0.34150089010E+03  0.34150089010E+03  0.00000000000E+00 0. -1.
         -2   -1    0    0    0  501 -0.00000000000E+00 -0.00000000000E+00 -0.24388635247E+01  0.24388635247E+01  0.00000000000E+00 0.  1.
          2    1    1    2  502    0 -0.17282211355E+02 -0.20034955942E+02  0.23820011741E+03  0.23966512100E+03  0.00000000000E+00 0. -1.
         -2    1    1    2    0  502  0.17282211355E+02  0.20034955942E+02  0.10086190916E+03  0.10427463262E+03  0.00000000000E+00 0.  1.
</event>
<event>
 4    1  0.6116490E+003  0.2698036E+02  0.7546771E-02  0.1447806E+00
          2   -1    0    0  501    0  0.00000000000E+00  0.00000000000E+00  0.36973100140E+03  0.36973100140E+03  0.00000000000E+00 0.  1.
         -2   -1    0    0    0  501 -0.00000000000E+00 -0.00000000000E+00 -0.36833627891E+01  0.36833627891E+01  0.00000000000E+00 0. -1.
          2    1    1    2  502    0 -0.23850946555E+02 -0.12612371882E+02  0.31040666841E+03  0.31157701996E+03  0.00000000000E+00 0.  1.
         -2    1    1    2    0  502  0.23850946555E+02  0.12612371882E+02  0.55640970208E+02  0.61837344232E+02  0.00000000000E+00 0. -1.
</event>
<event>
 4    1  0.6116490E+003  0.2158496E+02  0.7546771E-02  0.1511075E+00
          2   -1    0    0  501    0  0.00000000000E+00  0.00000000000E+00  0.36617597671E+01  0.36617597671E+01  0.00000000000E+00 0.  1.
         -2   -1    0    0    0  501 -0.00000000000E+00 -0.00000000000E+00 -0.23373144961E+03  0.23373144961E+03  0.00000000000E+00 0.  1.
          2    1    1    2  502    0 -0.20998073754E+02  0.49991420719E+01 -0.34914344236E+02  0.41047800870E+02  0.00000000000E+00 0.  1.
         -2    1    1    2    0  502  0.20998073754E+02 -0.49991420719E+01 -0.19515534561E+03  0.19634540851E+03  0.00000000000E+00 0.  1.
</event>
<event>
 4    1  0.6116490E+003  0.2123735E+02  0.7546771E-02  0.1515903E+00
          2   -1    0    0  501    0  0.00000000000E+00  0.00000000000E+00  0.77441964332E+01  0.77441964332E+01  0.00000000000E+00 0. -1.
         -2   -1    0    0    0  501 -0.00000000000E+00 -0.00000000000E+00 -0.87664093716E+02  0.87664093716E+02  0.00000000000E+00 0.  1.
          2    1    1    2  502    0  0.17034078545E+02  0.12683264403E+02 -0.12322757266E+02  0.24553520611E+02  0.00000000000E+00 0. -1.
         -2    1    1    2    0  502 -0.17034078545E+02 -0.12683264403E+02 -0.67597140017E+02  0.70854769538E+02  0.00000000000E+00 0.  1.
</event>
<event>
 4    1  0.6116490E+003  0.2298425E+02  0.7546771E-02  0.1492696E+00
          2   -1    0    0  501    0  0.00000000000E+00  0.00000000000E+00  0.14684189020E+03  0.14684189020E+03  0.00000000000E+00 0.  1.
         -2   -1    0    0    0  501 -0.00000000000E+00 -0.00000000000E+00 -0.11824169291E+02  0.11824169291E+02  0.00000000000E+00 0. -1.
          2    1    1    2  502    0 -0.16133441529E+02 -0.16370330295E+02  0.13368152042E+03  0.13564300406E+03  0.00000000000E+00 0.  1.
         -2    1    1    2    0  502  0.16133441529E+02  0.16370330295E+02  0.13362004898E+01  0.23023055429E+02  0.00000000000E+00 0. -1.
</event>
<event>
 4    1  0.6116490E+003  0.3546442E+02  0.7546771E-02  0.1377327E+00
          2   -1    0    0  501    0  0.00000000000E+00  0.00000000000E+00  0.68992534682E+03  0.68992534682E+03  0.00000000000E+00 0. -1.
         -2   -1    0    0    0  501 -0.00000000000E+00 -0.00000000000E+00 -0.22461081274E+02  0.22461081274E+02  0.00000000000E+00 0.  1.
          2    1    1    2  502    0  0.66432125346E+00 -0.35458194625E+02  0.67516482961E+03  0.67609560865E+03  0.00000000000E+00 0. -1.
         -2    1    1    2    0  502 -0.66432125346E+00  0.35458194625E+02 -0.77005640693E+01  0.36290819442E+02  0.00000000000E+00 0.  1.
</event>
<event>
 4    1  0.6116490E+003  0.3919788E+02  0.7546771E-02  0.1353251E+00
          2   -1    0    0  501    0  0.00000000000E+00  0.00000000000E+00  0.75091460838E+03  0.75091460838E+03  0.00000000000E+00 0. -1.
         -2   -1    0    0    0  501 -0.00000000000E+00 -0.00000000000E+00 -0.41977692338E+01  0.41977692338E+01  0.00000000000E+00 0.  1.
          2    1    1    2  502    0  0.33134226898E+02 -0.20942711408E+02  0.64366482409E+03  0.64485725546E+03  0.00000000000E+00 0. -1.
         -2    1    1    2    0  502 -0.33134226898E+02  0.20942711408E+02  0.10305201506E+03  0.11025512215E+03  0.00000000000E+00 0.  1.
</event>
<event>
 4    1  0.6116490E+003  0.2407470E+02  0.7546771E-02  0.1479427E+00
          2   -1    0    0  501    0  0.00000000000E+00  0.00000000000E+00  0.27556820867E+03  0.27556820867E+03  0.00000000000E+00 0.  1.
         -2   -1    0    0    0  501 -0.00000000000E+00 -0.00000000000E+00 -0.10662919827E+02  0.10662919827E+02  0.00000000000E+00 0. -1.
          2    1    1    2  502    0  0.21593048195E+02 -0.10645731239E+02  0.26067893313E+03  0.26178826846E+03  0.00000000000E+00 0.  1.
         -2    1    1    2    0  502 -0.21593048195E+02  0.10645731239E+02  0.42263557049E+01  0.24442860032E+02  0.00000000000E+00 0. -1.
</event>
<event>
 4    1  0.6116490E+003  0.3475858E+02  0.7546771E-02  0.1382268E+00
          2   -1    0    0  501    0  0.00000000000E+00  0.00000000000E+00  0.72671580586E+03  0.72671580586E+03  0.00000000000E+00 0. -1.
         -2   -1    0    0    0  501 -0.00000000000E+00 -0.00000000000E+00 -0.29968094550E+03  0.29968094550E+03  0.00000000000E+00 0. -1.
          2    1    1    2  502    0 -0.33557718124E+02 -0.90575224841E+01  0.72529033197E+03  0.72612273399E+03  0.00000000000E+00 0. -1.
         -2    1    1    2    0  502  0.33557718124E+02  0.90575224841E+01 -0.29825547161E+03  0.30027401737E+03  0.00000000000E+00 0. -1.
</event>
<event>
 4    1  0.6116490E+003  0.2407427E+02  0.7546771E-02  0.1479432E+00
          2   -1    0    0  501    0  0.00000000000E+00  0.00000000000E+00  0.46487044164E+03  0.46487044164E+03  0.00000000000E+00 0.  1.
         -2   -1    0    0    0  501 -0.00000000000E+00 -0.00000000000E+00 -0.36518612727E+01  0.36518612727E+01  0.00000000000E+00 0.  1.
          2    1    1    2  502    0  0.90985651900E+01  0.22288711323E+02  0.42072238109E+03  0.42141059845E+03  0.00000000000E+00 0.  1.
         -2    1    1    2    0  502 -0.90985651900E+01 -0.22288711323E+02  0.40496199280E+02  0.47111704460E+02  0.00000000000E+00 0.  1.
</event>
<event>
 4    1  0.6116490E+003  0.3448984E+02  0.7546771E-02  0.1384186E+00
          2   -1    0    0  501    0  0.00000000000E+00  0.00000000000E+00  0.18842647787E+03  0.18842647787E+03  0.00000000000E+00 0. -1.
         -2   -1    0    0    0  501 -0.00000000000E+00 -0.00000000000E+00 -0.76295742756E+01  0.76295742756E+01  0.00000000000E+00 0.  1.
          2    1    1    2  502    0 -0.29536332041E+02  0.17808827493E+02  0.13111880181E+03  0.13557908923E+03  0.00000000000E+00 0. -1.
         -2    1    1    2    0  502  0.29536332041E+02 -0.17808827493E+02  0.49678101782E+02  0.60476962917E+02  0.00000000000E+00 0.  1.
</event>
<event>
 4    1  0.6116490E+003  0.2653252E+02  0.7546771E-02  0.1452361E+00
          2   -1    0    0  501    0  0.00000000000E+00  0.00000000000E+00  0.12050686770E+03  0.12050686770E+03  0.00000000000E+00 0.  1.
         -2   -1    0    0    0  501 -0.00000000000E+00 -0.00000000000E+00 -0.23302460346E+02  0.23302460346E+02  0.00000000000E+00 0. -1.
          2    1    1    2  502    0 -0.25250688683E+02  0.81472178650E+01  0.11084466687E+03  0.11397593874E+03  0.00000000000E+00 0.  1.
         -2    1    1    2    0  502  0.25250688683E+02 -0.81472178650E+01 -0.13640259516E+02  0.29833389308E+02  0.00000000000E+00 0. -1.
</event>
<event>
 4    1  0.6116490E+003  0.2041318E+02  0.7546771E-02  0.1527810E+00
          2   -1    0    0  501    0  0.00000000000E+00  0.00000000000E+00  0.65049225346E+01  0.65049225346E+01  0.00000000000E+00 0.  1.
         -2   -1    0    0    0  501 -0.00000000000E+00 -0.00000000000E+00 -0.13993176944E+03  0.13993176944E+03  0.00000000000E+00 0.  1.
          2    1    1    2  502    0 -0.17458637272E+02  0.10577999347E+02 -0.12798989745E+02  0.24093821284E+02  0.00000000000E+00 0.  1.
         -2    1    1    2    0  502  0.17458637272E+02 -0.10577999347E+02 -0.12062785716E+03  0.12234287069E+03  0.00000000000E+00 0.  1.
</event>
<event>
 4    1  0.6116490E+003  0.2027944E+02  0.7546771E-02  0.1529806E+00
          2   -1    0    0  501    0  0.00000000000E+00  0.00000000000E+00  0.21429942391E+03  0.21429942391E+03  0.00000000000E+00 0. -1.
         -2   -1    0    0    0  501 -0.00000000000E+00 -0.00000000000E+00 -0.22939562178E+02  0.22939562178E+02  0.00000000000E+00 0. -1.
          2    1    1    2  502    0  0.71688120378E+01 -0.18970078530E+02  0.20922935453E+03  0.21020984407E+03  0.00000000000E+00 0. -1.
         -2    1    1    2    0  502 -0.71688120378E+01  0.18970078530E+02 -0.17869492799E+02  0.27029142021E+02  0.00000000000E+00 0. -1.
</event>
<event>
 4    1  0.6116490E+003  0.2714464E+02  0.7546771E-02  0.1446161E+00
          2   -1    0    0  501    0  0.00000000000E+00  0.00000000000E+00  0.27586666525E+04  0.27586666525E+04  0.00000000000E+00 0.  1.
         -2   -1    0    0    0  501 -0.00000000000E+00 -0.00000000000E+00 -0.29575468470E+00  0.29575468470E+00  0.00000000000E+00 0.  1.
          2    1    1    2  502    0  0.19927960889E+02 -0.18431162437E+02  0.18085944127E+04  0.18087981040E+04  0.00000000000E+00 0.  1.
         -2    1    1    2    0  502 -0.19927960889E+02  0.18431162437E+02  0.94977648516E+03  0.95016430323E+03  0.00000000000E+00 0.  1.
</event>
<event>
 4    1  0.6116490E+003  0.2580651E+02  0.7546771E-02  0.1459980E+00
          2   -1    0    0  501    0  0.00000000000E+00  0.00000000000E+00  0.82858816645E+02  0.82858816645E+02  0.00000000000E+00 0. -1.
         -2   -1    0    0    0  501 -0.00000000000E+00 -0.00000000000E+00 -0.16014465113E+02  0.16014465113E+02  0.00000000000E+00 0. -1.
          2    1    1    2  502    0 -0.83798565617E+01 -0.24408075019E+02  0.68313070959E+02  0.73025007949E+02  0.00000000000E+00 0. -1.
         -2    1    1    2    0  502  0.83798565617E+01  0.24408075019E+02 -0.14687194263E+01  0.25848273809E+02  0.00000000000E+00 0. -1.
</event>
<event>
 4    1  0.6116490E+003  0.2773242E+02  0.7546771E-02  0.1440386E+00
          2   -1    0    0  501    0  0.00000000000E+00  0.00000000000E+00  0.20212784943E+03  0.20212784943E+03  0.00000000000E+00 0.  1.
         -2   -1    0    0    0  501 -0.00000000000E+00 -0.00000000000E+00 -0.27561579761E+02  0.27561579761E+02  0.00000000000E+00 0.  1.
          2    1    1    2  502    0  0.12822764242E+02  0.24589911816E+02  0.19390624416E+03  0.19587934697E+03  0.00000000000E+00 0.  1.
         -2    1    1    2    0  502 -0.12822764242E+02 -0.24589911816E+02 -0.19339974494E+02  0.33810082215E+02  0.00000000000E+00 0.  1.
</event>
<event>
 4    1  0.6116490E+003  0.2339599E+02  0.7546771E-02  0.1487585E+00
          2   -1    0    0  501    0  0.00000000000E+00  0.00000000000E+00  0.19049772684E+03  0.19049772684E+03  0.00000000000E+00 0. -1.
         -2   -1    0    0    0  501 -0.00000000000E+00 -0.00000000000E+00 -0.34011245389E+01  0.34011245389E+01  0.00000000000E+00 0. -1.
          2    1    1    2  502    0 -0.21113978095E+02  0.10078299738E+02  0.13173799674E+03  0.13379937213E+03  0.00000000000E+00 0. -1.
         -2    1    1    2    0  502  0.21113978095E+02 -0.10078299738E+02  0.55358605560E+02  0.60099479251E+02  0.00000000000E+00 0. -1.
</event>
<event>
 4    1  0.6116490E+003  0.5000337E+02  0.7546771E-02  0.1298158E+00
          2   -1    0    0  501    0  0.00000000000E+00  0.00000000000E+00  0.20005223240E+03  0.20005223240E+03  0.00000000000E+00 0. -1.
         -2   -1    0    0    0  501 -0.00000000000E+00 -0.00000000000E+00 -0.47272869606E+03  0.47272869606E+03  0.00000000000E+00 0. -1.
          2    1    1    2  502    0  0.14219980921E+02 -0.47938803819E+02  0.19557555013E+03  0.20186662077E+03  0.00000000000E+00 0. -1.
         -2    1    1    2    0  502 -0.14219980921E+02  0.47938803819E+02 -0.46825201380E+03  0.47091430770E+03  0.00000000000E+00 0. -1.
</event>
<event>
 4    1  0.6116490E+003  0.2116329E+02  0.7546771E-02  0.1516946E+00
          2   -1    0    0  501    0  0.00000000000E+00  0.00000000000E+00  0.77770376612E+01  0.77770376612E+01  0.00000000000E+00 0.  1.
         -2   -1    0    0    0  501 -0.00000000000E+00 -0.00000000000E+00 -0.14673485816E+03  0.14673485816E+03  0.00000000000E+00 0.  1.
          2    1    1    2  502    0  0.61312912011E+01  0.20255670839E+02 -0.92629306731E+01  0.23101662659E+02  0.00000000000E+00 0.  1.
         -2    1    1    2    0  502 -0.61312912011E+01 -0.20255670839E+02 -0.12969488982E+03  0.13141023316E+03  0.00000000000E+00 0.  1.
</event>
<event>
 4    1  0.6116490E+003  0.7961061E+02  0.7546771E-02  0.1204754E+00
          2   -1    0    0  501    0  0.00000000000E+00  0.00000000000E+00  0.83744048690E+03  0.83744048690E+03  0.00000000000E+00 0. -1.
         -2   -1    0    0    0  501 -0.00000000000E+00 -0.00000000000E+00 -0.11114926572E+03  0.11114926572E+03  0.00000000000E+00 0.  1.
          2    1    1    2  502    0 -0.78905238350E+02 -0.10574163353E+02  0.82100854855E+03  0.82485931307E+03  0.00000000000E+00 0. -1.
         -2    1    1    2    0  502  0.78905238350E+02  0.10574163353E+02 -0.94717327364E+02  0.12373043956E+03  0.00000000000E+00 0.  1.
</event>
<event>
 4    1  0.6116490E+003  0.5231392E+02  0.7546771E-02  0.1288440E+00
          2   -1    0    0  501    0  0.00000000000E+00  0.00000000000E+00  0.83900248086E+01  0.83900248086E+01  0.00000000000E+00 0. -1.
         -2   -1    0    0    0  501 -0.00000000000E+00 -0.00000000000E+00 -0.32639000094E+03  0.32639000094E+03  0.00000000000E+00 0.  1.
          2    1    1    2  502    0  0.49458945430E+02 -0.17045793713E+02 -0.15486155145E+03  0.16345900552E+03  0.00000000000E+00 0. -1.
         -2    1    1    2    0  502 -0.49458945430E+02  0.17045793713E+02 -0.16313842467E+03  0.17132102023E+03  0.00000000000E+00 0.  1.
</event>
<event>
 4    1  0.6116490E+003  0.2606400E+02  0.7546771E-02  0.1457244E+00
          2   -1    0    0  501    0  0.00000000000E+00  0.00000000000E+00  0.32842502139E+03  0.32842502139E+03  0.00000000000E+00 0. -1.
         -2   -1    0    0    0  501 -0.00000000000E+00 -0.00000000000E+00 -0.89838445246E+01  0.89838445246E+01  0.00000000000E+00 0. -1.
          2    1    1    2  502    0 -0.25012880925E+02 -0.73271961040E+01  0.30773491015E+03  0.30883669947E+03  0.00000000000E+00 0. -1.
         -2    1    1    2    0  502  0.25012880925E+02  0.73271961040E+01  0.11706266716E+02  0.28572166445E+02  0.00000000000E+00 0. -1.
</event>
<event>
 4    1  0.6116490E+003  0.2269336E+02  0.7546771E-02  0.1496385E+00
          2   -1    0    0  501    0  0.00000000000E+00  0.00000000000E+00  0.11153098100E+03  0.11153098100E+03  0.00000000000E+00 0.  1.
         -2   -1    0    0    0  501 -0.00000000000E+00 -0.00000000000E+00 -0.21029078118E+03  0.21029078118E+03  0.00000000000E+00 0.  1.
          2    1    1    2  502    0  0.21297774473E+02 -0.78353886652E+01  0.10975457973E+03  0.11207611826E+03  0.00000000000E+00 0.  1.
         -2    1    1    2    0  502 -0.21297774473E+02  0.78353886652E+01 -0.20851437991E+03  0.20974564391E+03  0.00000000000E+00 0.  1.
</event>
<event>
 4    1  0.6116490E+003  0.2066461E+02  0.7546771E-02  0.1524108E+00
          2   -1    0    0  501    0  0.00000000000E+00  0.00000000000E+00  0.65100411063E+02  0.65100411063E+02  0.00000000000E+00 0. -1.
         -2   -1    0    0    0  501 -0.00000000000E+00 -0.00000000000E+00 -0.40603236968E+03  0.40603236968E+03  0.00000000000E+00 0.  1.
          2    1    1    2  502    0 -0.29629046369E+01 -0.20451099575E+02  0.63189861598E+02  0.66482966889E+02  0.00000000000E+00 0. -1.
         -2    1    1    2    0  502  0.29629046369E+01  0.20451099575E+02 -0.40412182021E+03  0.40464981385E+03  0.00000000000E+00 0.  1.
</event>
<event>
 4    1  0.6116490E+003  0.4780905E+02  0.7546771E-02  0.1307962E+00
          2   -1    0    0  501    0  0.00000000000E+00  0.00000000000E+00  0.19435687837E+03  0.19435687837E+03  0.00000000000E+00 0.  1.
         -2   -1    0    0    0  501 -0.00000000000E+00 -0.00000000000E+00 -0.16464329941E+02  0.16464329941E+02  0.00000000000E+00 0.  1.
          2    1    1    2  502    0 -0.40259163377E+02 -0.25785760420E+02  0.14528990400E+03  0.15295379001E+03  0.00000000000E+00 0.  1.
         -2    1    1    2    0  502  0.40259163377E+02  0.25785760420E+02  0.32602644429E+02  0.57867418294E+02  0.00000000000E+00 0.  1.
</event>
<event>
 4    1  0.6116490E+003  0.2093978E+02  0.7546771E-02  0.1520126E+00
          2   -1    0    0  501    0  0.00000000000E+00  0.00000000000E+00  0.35520967688E+02  0.35520967688E+02  0.00000000000E+00 0. -1.
         -2   -1    0    0    0  501 -0.00000000000E+00 -0.00000000000E+00 -0.43380547656E+02  0.43380547656E+02  0.00000000000E+00 0. -1.
          2    1    1    2  502    0  0.11299388636E+02 -0.17629470109E+02  0.29439259230E+02  0.36126782086E+02  0.00000000000E+00 0. -1.
         -2    1    1    2    0  502 -0.11299388636E+02  0.17629470109E+02 -0.37298839197E+02  0.42774733259E+02  0.00000000000E+00 0. -1.
</event>
<event>
 4    1  0.6116490E+003  0.2171446E+02  0.7546771E-02  0.1509304E+00
          2   -1    0    0  501    0  0.00000000000E+00  0.00000000000E+00  0.50260242873E+01  0.50260242873E+01  0.00000000000E+00 0.  1.
         -2   -1    0    0    0  501 -0.00000000000E+00 -0.00000000000E+00 -0.64092922167E+03  0.64092922167E+03  0.00000000000E+00 0.  1.
          2    1    1    2  502    0 -0.20378199198E+02  0.74997729190E+01 -0.19546451160E+02  0.29216114549E+02  0.00000000000E+00 0.  1.
         -2    1    1    2    0  502  0.20378199198E+02 -0.74997729190E+01 -0.61635674622E+03  0.61673913140E+03  0.00000000000E+00 0.  1.
</event>
<event>
 4    1  0.6116490E+003  0.2060331E+02  0.7546771E-02  0.1525005E+00
          2   -1    0    0  501    0  0.00000000000E+00  0.00000000000E+00  0.46742676342E+02  0.46742676342E+02  0.00000000000E+00 0.  1.
         -2   -1    0    0    0  501 -0.00000000000E+00 -0.00000000000E+00 -0.38498894862E+03  0.38498894862E+03  0.00000000000E+00 0. -1.
          2    1    1    2  502    0 -0.64275172317E+01 -0.19575071731E+02  0.44181436954E+02  0.48749315711E+02  0.00000000000E+00 0.  1.
         -2    1    1    2    0  502  0.64275172317E+01  0.19575071731E+02 -0.38242770923E+03  0.38298230925E+03  0.00000000000E+00 0. -1.
</event>
<event>
 4    1  0.6116490E+003  0.2745532E+02  0.7546771E-02  0.1443087E+00
          2   -1    0    0  501    0  0.00000000000E+00  0.00000000000E+00  0.46678399251E+03  0.46678399251E+03  0.00000000000E+00 0. -1.
         -2   -1    0    0    0  501 -0.00000000000E+00 -0.00000000000E+00 -0.72536921181E+02  0.72536921181E+02  0.00000000000E+00 0. -1.
          2    1    1    2  502    0  0.60102634016E+01 -0.26789392287E+02  0.46376541095E+03  0.46457738989E+03  0.00000000000E+00 0. -1.
         -2    1    1    2    0  502 -0.60102634016E+01  0.26789392287E+02 -0.69518339624E+02  0.74743523796E+02  0.00000000000E+00 0. -1.
</event>
<event>
 4    1  0.6116490E+003  0.3027871E+02  0.7546771E-02  0.1417190E+00
          2   -1    0    0  501    0  0.00000000000E+00  0.00000000000E+00  0.85243840122E+02  0.85243840122E+02  0.00000000000E+00 0.  1.
         -2   -1    0    0    0  501 -0.00000000000E+00 -0.00000000000E+00 -0.62636834345E+02  0.62636834345E+02  0.00000000000E+00 0. -1.
          2    1    1    2  502    0 -0.27453347129E+02  0.12771606546E+02  0.78597148310E+02  0.84227738452E+02  0.00000000000E+00 0.  1.
         -2    1    1    2    0  502  0.27453347129E+02 -0.12771606546E+02 -0.55990142534E+02  0.63652936014E+02  0.00000000000E+00 0. -1.
</event>
<event>
 4    1  0.6116490E+003  0.2030937E+02  0.7546771E-02  0.1529358E+00
          2   -1    0    0  501    0  0.00000000000E+00  0.00000000000E+00  0.14559345734E+04  0.14559345734E+04  0.00000000000E+00 0. -1.
         -2   -1    0    0    0  501 -0.00000000000E+00 -0.00000000000E+00 -0.15350245062E+02  0.15350245062E+02  0.00000000000E+00 0.  1.
          2    1    1    2  502    0 -0.20202848905E+02  0.20773072345E+01  0.14491144832E+04  0.14492567942E+04  0.00000000000E+00 0. -1.
         -2    1    1    2    0  502  0.20202848905E+02 -0.20773072345E+01 -0.85301548413E+01  0.22028024215E+02  0.00000000000E+00 0.  1.
</event>
<event>
 4    1  0.6116490E+003  0.2874900E+02  0.7546771E-02  0.1430788E+00
          2   -1    0    0  501    0  0.00000000000E+00  0.00000000000E+00  0.65646662632E+03  0.65646662632E+03  0.00000000000E+00 0.  1.
         -2   -1    0    0    0  501 -0.00000000000E+00 -0.00000000000E+00 -0.80819818425E+01  0.80819818425E+01  0.00000000000E+00 0. -1.
          2    1    1    2  502    0  0.52192325983E+01 -0.28271271820E+02  0.62949053693E+03  0.63014668236E+03  0.00000000000E+00 0.  1.
         -2    1    1    2    0  502 -0.52192325983E+01  0.28271271820E+02  0.18894107548E+02  0.34401925807E+02  0.00000000000E+00 0. -1.
</event>
<event>
 4    1  0.6116490E+003  0.3068973E+02  0.7546771E-02  0.1413696E+00
          2   -1    0    0  501    0  0.00000000000E+00  0.00000000000E+00  0.53962454017E+02  0.53962454017E+02  0.00000000000E+00 0.  1.
         -2   -1    0    0    0  501 -0.00000000000E+00 -0.00000000000E+00 -0.21877544505E+02  0.21877544505E+02  0.00000000000E+00 0.  1.
          2    1    1    2  502    0 -0.12003241314E+02 -0.28245032426E+02  0.33093662858E+02  0.45133692295E+02  0.00000000000E+00 0.  1.
         -2    1    1    2    0  502  0.12003241314E+02  0.28245032426E+02 -0.10087533465E+01  0.30706306227E+02  0.00000000000E+00 0.  1.
</event>
<event>
 4    1  0.6116490E+003  0.3905283E+02  0.7546771E-02  0.1354127E+00
          2   -1    0    0  501    0  0.00000000000E+00  0.00000000000E+00  0.10031136280E+03  0.10031136280E+03  0.00000000000E+00 0. -1.
         -2   -1    0    0    0  501 -0.00000000000E+00 -0.00000000000E+00 -0.36424254162E+02  0.36424254162E+02  0.00000000000E+00 0.  1.
          2    1    1    2  502    0 -0.27515488696E+02  0.27713203386E+02  0.84126988456E+02  0.92749522623E+02  0.00000000000E+00 0. -1.
         -2    1    1    2    0  502  0.27515488696E+02 -0.27713203386E+02 -0.20239879818E+02  0.43986094338E+02  0.00000000000E+00 0.  1.
</event>
<event>
 4    1  0.6116490E+003  0.2015211E+02  0.7546771E-02  0.1531723E+00
          2   -1    0    0  501    0  0.00000000000E+00  0.00000000000E+00  0.25065191653E+02  0.25065191653E+02  0.00000000000E+00 0. -1.
         -2   -1    0    0    0  501 -0.00000000000E+00 -0.00000000000E+00 -0.18458372761E+02  0.18458372761E+02  0.00000000000E+00 0. -1.
          2    1    1    2  502    0  0.20094986053E+02  0.15163345092E+01  0.10911880972E+02  0.22916738013E+02  0.00000000000E+00 0. -1.
         -2    1    1    2    0  502 -0.20094986053E+02 -0.15163345092E+01 -0.43050620809E+01  0.20606826401E+02  0.00000000000E+00 0. -1.
</event>
<event>
 4    1  0.6116490E+003  0.3629740E+02  0.7546771E-02  0.1371664E+00
          2   -1    0    0  501    0  0.00000000000E+00  0.00000000000E+00  0.18421585421E+03  0.18421585421E+03  0.00000000000E+00 0.  1.
         -2   -1    0    0    0  501 -0.00000000000E+00 -0.00000000000E+00 -0.28845728656E+02  0.28845728656E+02  0.00000000000E+00 0.  1.
          2    1    1    2  502    0  0.40483379593E+01 -0.36070936635E+02  0.17007018908E+03  0.17390046212E+03  0.00000000000E+00 0.  1.
         -2    1    1    2    0  502 -0.40483379593E+01  0.36070936635E+02 -0.14700063535E+02  0.39161120743E+02  0.00000000000E+00 0.  1.
</event>
<event>
 4    1  0.6116490E+003  0.2411048E+02  0.7546771E-02  0.1479006E+00
          2   -1    0    0  501    0  0.00000000000E+00  0.00000000000E+00  0.73460596255E+02  0.73460596255E+02  0.00000000000E+00 0.  1.
         -2   -1    0    0    0  501 -0.00000000000E+00 -0.00000000000E+00 -0.16408264717E+03  0.16408264717E+03  0.00000000000E+00 0. -1.
          2    1    1    2  502    0  0.24082884968E+02  0.11531275862E+01  0.70561179089E+02  0.74566715403E+02  0.00000000000E+00 0.  1.
         -2    1    1    2    0  502 -0.24082884968E+02 -0.11531275862E+01 -0.16118323000E+03  0.16297652802E+03  0.00000000000E+00 0. -1.
</event>
<event>
 4    1  0.6116490E+003  0.2316537E+02  0.7546771E-02  0.1490432E+00
          2   -1    0    0  501    0  0.00000000000E+00  0.00000000000E+00  0.31313280649E+03  0.31313280649E+03  0.00000000000E+00 0.  1.
         -2   -1    0    0    0  501 -0.00000000000E+00 -0.00000000000E+00 -0.26631881051E+01  0.26631881051E+01  0.00000000000E+00 0.  1.
          2    1    1    2  502    0 -0.22895290515E+02 -0.35270643273E+01  0.24951201856E+03  0.25058507920E+03  0.00000000000E+00 0.  1.
         -2    1    1    2    0  502  0.22895290515E+02  0.35270643273E+01  0.60957599821E+02  0.65210915394E+02  0.00000000000E+00 0.  1.
</event>
<event>
 4    1  0.6116490E+003  0.5810380E+02  0.7546771E-02  0.1266415E+00
          2   -1    0    0  501    0  0.00000000000E+00  0.00000000000E+00  0.56939872932E+02  0.56939872932E+02  0.00000000000E+00 0.  1.
         -2   -1    0    0    0  501 -0.00000000000E+00 -0.00000000000E+00 -0.75617399099E+02  0.75617399099E+02  0.00000000000E+00 0.  1.
          2    1    1    2  502    0 -0.57998746487E+02  0.34924189401E+01  0.21457710512E+02  0.61939364902E+02  0.00000000000E+00 0.  1.
         -2    1    1    2    0  502  0.57998746487E+02 -0.34924189401E+01 -0.40135236679E+02  0.70617907129E+02  0.00000000000E+00 0.  1.
</event>
<event>
 4    1  0.6116490E+003  0.3719414E+02  0.7546771E-02  0.1365762E+00
          2   -1    0    0  501    0  0.00000000000E+00  0.00000000000E+00  0.21806356843E+03  0.21806356843E+03  0.00000000000E+00 0.  1.
         -2   -1    0    0    0  501 -0.00000000000E+00 -0.00000000000E+00 -0.53349591943E+02  0.53349591943E+02  0.00000000000E+00 0.  1.
          2    1    1    2  502    0  0.28808348249E+02 -0.23526214590E+02  0.20973953868E+03  0.21301191936E+03  0.00000000000E+00 0.  1.
         -2    1    1    2    0  502 -0.28808348249E+02  0.23526214590E+02 -0.45025562192E+02  0.58401241019E+02  0.00000000000E+00 0.  1.
</event>
<event>
 4    1  0.6116490E+003  0.2965058E+02  0.7546771E-02  0.1422658E+00
          2   -1    0    0  501    0  0.00000000000E+00  0.00000000000E+00  0.12383020392E+02  0.12383020392E+02  0.00000000000E+00 0. -1.
         -2   -1    0    0    0  501 -0.00000000000E+00 -0.00000000000E+00 -0.26619314940E+03  0.26619314940E+03  0.00000000000E+00 0. -1.
          2    1    1    2  502    0 -0.21331779515E+02  0.20593980366E+02 -0.76295787712E+01  0.30616455001E+02  0.00000000000E+00 0. -1.
         -2    1    1    2    0  502  0.21331779515E+02 -0.20593980366E+02 -0.24618055024E+03  0.24795971479E+03  0.00000000000E+00 0. -1.
</event>
<event>
 4    1  0.6116490E+003  0.3546581E+02  0.7546771E-02  0.1377318E+00
          2   -1    0    0  501    0  0.00000000000E+00  0.00000000000E+00  0.18317465217E+04  0.18317465217E+04  0.00000000000E+00 0.  1.
         -2   -1    0    0    0  501 -0.00000000000E+00 -0.00000000000E+00 -0.42565775753E+01  0.42565775753E+01  0.00000000000E+00 0. -1.
          2    1    1    2  502    0  0.53547263827E+01  0.35059247721E+02  0.17544448953E+04  0.17548033265E+04  0.00000000000E+00 0.  1.
         -2    1    1    2    0  502 -0.53547263827E+01 -0.35059247721E+02  0.73045048797E+02  0.81199772778E+02  0.00000000000E+00 0. -1.
</event>
<event>
 4    1  0.6116490E+003  0.3081652E+02  0.7546771E-02  0.1412631E+00
          2   -1    0    0  501    0  0.00000000000E+00  0.00000000000E+00  0.15321964755E+03  0.15321964755E+03  0.00000000000E+00 0.  1.
         -2   -1    0    0    0  501 -0.00000000000E+00 -0.00000000000E+00 -0.21108528074E+02  0.21108528074E+02  0.00000000000E+00 0.  1.
          2    1    1    2  502    0  0.17816674251E+02 -0.25144067060E+02  0.13931352943E+03  0.14268117421E+03  0.00000000000E+00 0.  1.
         -2    1    1    2    0  502 -0.17816674251E+02  0.25144067060E+02 -0.72024099547E+01  0.31647001419E+02  0.00000000000E+00 0.  1.
</event>
<event>
 4    1  0.6116490E+003  0.2213668E+02  0.7546771E-02  0.1503633E+00
          2   -1    0    0  501    0  0.00000000000E+00  0.00000000000E+00  0.72456158089E+03  0.72456158089E+03  0.00000000000E+00 0. -1.
         -2   -1    0    0    0  501 -0.00000000000E+00 -0.00000000000E+00 -0.77678410412E+02  0.77678410412E+02  0.00000000000E+00 0. -1.
          2    1    1    2  502    0  0.17021211108E+02 -0.14153125648E+02  0.72281156472E+03  0.72315046200E+03  0.00000000000E+00 0. -1.
         -2    1    1    2    0  502 -0.17021211108E+02  0.14153125648E+02 -0.75928394243E+02  0.79089529304E+02  0.00000000000E+00 0. -1.
</event>
<event>
 4    1  0.6116490E+003  0.2975752E+02  0.7546771E-02  0.1421715E+00
          2   -1    0    0  501    0  0.00000000000E+00  0.00000000000E+00  0.38448296348E+03  0.38448296348E+03  0.00000000000E+00 0. -1.
         -2   -1    0    0    0  501 -0.00000000000E+00 -0.00000000000E+00 -0.25862752159E+01  0.25862752159E+01  0.00000000000E+00 0.  1.
          2    1    1    2  502    0  0.21520151968E+02 -0.20552206816E+02  0.25498580292E+03  0.25671632172E+03  0.00000000000E+00 0. -1.
         -2    1    1    2    0  502 -0.21520151968E+02  0.20552206816E+02  0.12691088534E+03  0.13035291697E+03  0.00000000000E+00 0.  1.
</event>
<event>
 4    1  0.6116490E+003  0.2291934E+02  0.7546771E-02  0.1493513E+00
          2   -1    0    0  501    0  0.00000000000E+00  0.00000000000E+00  0.42144884013E+03  0.42144884013E+03  0.00000000000E+00 0.  1.
         -2   -1    0    0    0  501 -0.00000000000E+00 -0.00000000000E+00 -0.32986139139E+01  0.32986139139E+01  0.00000000000E+00 0. -1.
          2    1    1    2  502    0  0.46539665333E+00  0.22914617862E+02  0.37658704172E+03  0.37728384049E+03  0.00000000000E+00 0.  1.
         -2    1    1    2    0  502 -0.46539665333E+00 -0.22914617862E+02  0.41563184491E+02  0.47463613546E+02  0.00000000000E+00 0. -1.
</event>
<event>
 4    1  0.6116490E+003  0.2797689E+02  0.7546771E-02  0.1438034E+00
          2   -1    0    0  501    0  0.00000000000E+00  0.00000000000E+00  0.54775681533E+03  0.54775681533E+03  0.00000000000E+00 0. -1.
         -2   -1    0    0    0  501 -0.00000000000E+00 -0.00000000000E+00 -0.18384815080E+02  0.18384815080E+02  0.00000000000E+00 0.  1.
          2    1    1    2  502    0 -0.25392196823E+02  0.11744897917E+02  0.53653371804E+03  0.53726263306E+03  0.00000000000E+00 0. -1.
         -2    1    1    2    0  502  0.25392196823E+02 -0.11744897917E+02 -0.71617177877E+01  0.28878997355E+02  0.00000000000E+00 0.  1.
</event>
<event>
 4    1  0.6116490E+003  0.2096360E+02  0.7546771E-02  0.1519785E+00
          2   -1    0    0  501    0  0.00000000000E+00  0.00000000000E+00  0.40352945949E+02  0.40352945949E+02  0.00000000000E+00 0.  1.
         -2   -1    0    0    0  501 -0.00000000000E+00 -0.00000000000E+00 -0.13765884930E+02  0.13765884930E+02  0.00000000000E+00 0.  1.
          2    1    1    2  502    0 -0.18671678128E+02 -0.95310434338E+01  0.25660071824E+02  0.33134749721E+02  0.00000000000E+00 0.  1.
         -2    1    1    2    0  502  0.18671678128E+02  0.95310434338E+01  0.92698919514E+00  0.20984081158E+02  0.00000000000E+00 0.  1.
</event>
<event>
 4    1  0.6116490E+003  0.2124815E+02  0.7546771E-02  0.1515751E+00
          2   -1    0    0  501    0  0.00000000000E+00  0.00000000000E+00  0.11817878222E+03  0.11817878222E+03  0.00000000000E+00 0.  1.
         -2   -1    0    0    0  501 -0.00000000000E+00 -0.00000000000E+00 -0.65567078675E+01  0.65567078675E+01  0.00000000000E+00 0. -1.
          2    1    1    2  502    0 -0.18429976015E+02  0.10574495611E+02  0.96101643117E+02  0.98422608090E+02  0.00000000000E+00 0.  1.
         -2    1    1    2    0  502  0.18429976015E+02 -0.10574495611E+02  0.15520431238E+02  0.26312882001E+02  0.00000000000E+00 0. -1.
</event>
<event>
 4    1  0.6116490E+003  0.2034606E+02  0.7546771E-02  0.1528810E+00
          2   -1    0    0  501    0  0.00000000000E+00  0.00000000000E+00  0.21434917959E+03  0.21434917959E+03  0.00000000000E+00 0.  1.
         -2   -1    0    0    0  501 -0.00000000000E+00 -0.00000000000E+00 -0.13009616012E+02  0.13009616012E+02  0.00000000000E+00 0.  1.
          2    1    1    2  502    0  0.20469475640E+01  0.20242827945E+02  0.20557264921E+03  0.20657704660E+03  0.00000000000E+00 0.  1.
         -2    1    1    2    0  502 -0.20469475640E+01 -0.20242827945E+02 -0.42330856364E+01  0.20781749001E+02  0.00000000000E+00 0.  1.
</event>
<event>
 4    1  0.6116490E+003  0.2208539E+02  0.7546771E-02  0.1504314E+00
          2   -1    0    0  501    0  0.00000000000E+00  0.00000000000E+00  0.26738446278E+01  0.26738446278E+01  0.00000000000E+00 0. -1.
         -2   -1    0    0    0  501 -0.00000000000E+00 -0.00000000000E+00 -0.19265862546E+03  0.19265862546E+03  0.00000000000E+00 0.  1.
          2    1    1    2  502    0  0.20367072785E+02 -0.85408851535E+01 -0.72478110117E+02  0.75768336521E+02  0.00000000000E+00 0. -1.
         -2    1    1    2    0  502 -0.20367072785E+02  0.85408851535E+01 -0.11750667071E+03  0.11956413356E+03  0.00000000000E+00 0.  1.
</event>
<event>
 4    1  0.6116490E+003  0.3282776E+02  0.7546771E-02  0.1396513E+00
          2   -1    0    0  501    0  0.00000000000E+00  0.00000000000E+00  0.12875312680E+04  0.12875312680E+04  0.00000000000E+00 0. -1.
         -2   -1    0    0    0  501 -0.00000000000E+00 -0.00000000000E+00 -0.92393455099E+01  0.92393455099E+01  0.00000000000E+00 0. -1.
          2    1    1    2  502    0 -0.62083293829E+01  0.32235363304E+02  0.12574653459E+04  0.12578937786E+04  0.00000000000E+00 0. -1.
         -2    1    1    2    0  502  0.62083293829E+01 -0.32235363304E+02  0.20826576529E+02  0.38876834888E+02  0.00000000000E+00 0. -1.
</event>
<event>
 4    1  0.6116490E+003  0.3409966E+02  0.7546771E-02  0.1387006E+00
          2   -1    0    0  501    0  0.00000000000E+00  0.00000000000E+00  0.56830546781E+03  0.56830546781E+03  0.00000000000E+00 0.  1.
         -2   -1    0    0    0  501 -0.00000000000E+00 -0.00000000000E+00 -0.29080394833E+03  0.29080394833E+03  0.00000000000E+00 0. -1.
          2    1    1    2  502    0  0.19041585843E+02 -0.28287896354E+02  0.56679165393E+03  0.56781648975E+03  0.00000000000E+00 0.  1.
         -2    1    1    2    0  502 -0.19041585843E+02  0.28287896354E+02 -0.28929013445E+03  0.29129292638E+03  0.00000000000E+00 0. -1.
</event>
<event>
 4    1  0.6116490E+003  0.3989121E+02  0.7546771E-02  0.1349124E+00
          2   -1    0    0  501    0  0.00000000000E+00  0.00000000000E+00  0.82871091293E+03  0.82871091293E+03  0.00000000000E+00 0. -1.
         -2   -1    0    0    0  501 -0.00000000000E+00 -0.00000000000E+00 -0.18999681568E+04  0.18999681568E+04  0.00000000000E+00 0.  1.
          2    1    1    2  502    0  0.25185497804E+01 -0.39811625000E+02  0.82802129704E+03  0.82898165053E+03  0.00000000000E+00 0. -1.
         -2    1    1    2    0  502 -0.25185497804E+01  0.39811625000E+02 -0.18992785409E+04  0.18996974192E+04  0.00000000000E+00 0.  1.
</event>
<event>
 4    1  0.6116490E+003  0.2472719E+02  0.7546771E-02  0.1471878E+00
          2   -1    0    0  501    0  0.00000000000E+00  0.00000000000E+00  0.32393168487E+01  0.32393168487E+01  0.00000000000E+00 0. -1.
         -2   -1    0    0    0  501 -0.00000000000E+00 -0.00000000000E+00 -0.30072885034E+03  0.30072885034E+03  0.00000000000E+00 0.  1.
          2    1    1    2  502    0  0.24397623472E+02 -0.40236834751E+01 -0.56003979279E+02  0.61219929393E+02  0.00000000000E+00 0. -1.
         -2    1    1    2    0  502 -0.24397623472E+02  0.40236834751E+01 -0.24148555421E+03  0.24274823780E+03  0.00000000000E+00 0.  1.
</event>
<event>
 4    1  0.6116490E+003  0.2102695E+02  0.7546771E-02  0.1518880E+00
          2   -1    0    0  501    0  0.00000000000E+00  0.00000000000E+00  0.46761303916E+03  0.46761303916E+03  0.00000000000E+00 0. -1.
         -2   -1    0    0    0  501 -0.00000000000E+00 -0.00000000000E+00 -0.21251269395E+01  0.21251269395E+01  0.00000000000E+00 0.  1.
          2    1    1    2  502    0  0.76003836274E+01 -0.19605278066E+02  0.40773020924E+03  0.40827203711E+03  0.00000000000E+00 0. -1.
         -2    1    1    2    0  502 -0.76003836274E+01  0.19605278066E+02  0.57757702980E+02  0.61466128989E+02  0.00000000000E+00 0.  1.
</event>
<event>
 4    1  0.6116490E+003  0.2066447E+02  0.7546771E-02  0.1524110E+00
          2   -1    0    0  501    0  0.00000000000E+00  0.00000000000E+00  0.15335241457E+03  0.15335241457E+03  0.00000000000E+00 0.  1.
         -2   -1    0    0    0  501 -0.00000000000E+00 -0.00000000000E+00 -0.30768315445E+01  0.30768315445E+01  0.00000000000E+00 0.  1.
          2    1    1    2  502    0 -0.59132272592E+01  0.19800339881E+02  0.51031750399E+02  0.55056873003E+02  0.00000000000E+00 0.  1.
         -2    1    1    2    0  502  0.59132272592E+01 -0.19800339881E+02  0.99243832629E+02  0.10137237311E+03  0.00000000000E+00 0.  1.
</event>
<event>
 4    1  0.6116490E+003  0.2174543E+02  0.7546771E-02  0.1508883E+00
          2   -1    0    0  501    0  0.00000000000E+00  0.00000000000E+00  0.81591780067E+02  0.81591780067E+02  0.00000000000E+00 0. -1.
         -2   -1    0    0    0  501 -0.00000000000E+00 -0.00000000000E+00 -0.61799831826E+01  0.61799831826E+01  0.00000000000E+00 0. -1.
          2    1    1    2  502    0  0.19918956227E+02 -0.87234705634E+01  0.48652506884E+02  0.53290995318E+02  0.00000000000E+00 0. -1.
         -2    1    1    2    0  502 -0.19918956227E+02  0.87234705634E+01  0.26759290000E+02  0.34480767932E+02  0.00000000000E+00 0. -1.
</event>
<event>
 4    1  0.6116490E+003  0.2416384E+02  0.7546771E-02  0.1478379E+00
          2   -1    0    0  501    0  0.00000000000E+00  0.00000000000E+00  0.19280137543E+03  0.19280137543E+03  0.00000000000E+00 0. -1.
         -2   -1    0    0    0  501 -0.00000000000E+00 -0.00000000000E+00 -0.31085812093E+01  0.31085812093E+01  0.00000000000E+00 0. -1.
          2    1    1    2  502    0 -0.21409246451E+02 -0.11204222228E+02  0.79119945751E+02  0.82727602679E+02  0.00000000000E+00 0. -1.
         -2    1    1    2    0  502  0.21409246451E+02  0.11204222228E+02  0.11057284847E+03  0.11318235396E+03  0.00000000000E+00 0. -1.
</event>
<event>
 4    1  0.6116490E+003  0.5077262E+02  0.7546771E-02  0.1294857E+00
          2   -1    0    0  501    0  0.00000000000E+00  0.00000000000E+00  0.36552622821E+03  0.36552622821E+03  0.00000000000E+00 0.  1.
         -2   -1    0    0    0  501 -0.00000000000E+00 -0.00000000000E+00 -0.21055120021E+03  0.21055120021E+03  0.00000000000E+00 0.  1.
          2    1    1    2  502    0 -0.10784021854E+02 -0.49614145829E+02  0.36066118235E+03  0.36421744473E+03  0.00000000000E+00 0.  1.
         -2    1    1    2    0  502  0.10784021854E+02  0.49614145829E+02 -0.20568615435E+03  0.21185998368E+03  0.00000000000E+00 0.  1.
</event>
<event>
 4    1  0.6116490E+003  0.5016820E+02  0.7546771E-02  0.1297445E+00
          2   -1    0    0  501    0  0.00000000000E+00  0.00000000000E+00  0.18842917089E+04  0.18842917089E+04  0.00000000000E+00 0. -1.
         -2   -1    0    0    0  501 -0.00000000000E+00 -0.00000000000E+00 -0.14237156892E+01  0.14237156892E+01  0.00000000000E+00 0.  1.
          2    1    1    2  502    0  0.48211767679E+02 -0.13873503137E+02  0.11758646036E+04  0.11769343290E+04  0.00000000000E+00 0. -1.
         -2    1    1    2    0  502 -0.48211767679E+02  0.13873503137E+02  0.70700338955E+03  0.70878109560E+03  0.00000000000E+00 0.  1.
</event>
<event>
 4    1  0.6116490E+003  0.3055704E+02  0.7546771E-02  0.1414816E+00
          2   -1    0    0  501    0  0.00000000000E+00  0.00000000000E+00  0.53664737780E+01  0.53664737780E+01  0.00000000000E+00 0.  1.
         -2   -1    0    0    0  501 -0.00000000000E+00 -0.00000000000E+00 -0.28155460496E+03  0.28155460496E+03  0.00000000000E+00 0. -1.
          2    1    1    2  502    0  0.30309629010E+02 -0.38805808963E+01 -0.49423718814E+02  0.58107112303E+02  0.00000000000E+00 0.  1.
         -2    1    1    2    0  502 -0.30309629010E+02  0.38805808963E+01 -0.22676441237E+03  0.22881396643E+03  0.00000000000E+00 0. -1.
</event>
<event>
 4    1  0.6116490E+003  0.2289489E+02  0.7546771E-02  0.1493822E+00
          2   -1    0    0  501    0  0.00000000000E+00  0.00000000000E+00  0.96248969430E+02  0.96248969430E+02  0.00000000000E+00 0. -1.
         -2   -1    0    0    0  501 -0.00000000000E+00 -0.00000000000E+00 -0.35107765831E+02  0.35107765831E+02  0.00000000000E+00 0.  1.
          2    1    1    2  502    0 -0.18854826699E+02 -0.12987357905E+02  0.90940291754E+02  0.93777996457E+02  0.00000000000E+00 0. -1.
         -2    1    1    2    0  502  0.18854826699E+02  0.12987357905E+02 -0.29799088154E+02  0.37578738803E+02  0.00000000000E+00 0.  1.
</event>
<event>
 4    1  0.6116490E+003  0.3679936E+02  0.7546771E-02  0.1368336E+00
          2   -1    0    0  501    0  0.00000000000E+00  0.00000000000E+00  0.17118155826E+02  0.17118155826E+02  0.00000000000E+00 0.  1.
         -2   -1    0    0    0  501 -0.00000000000E+00 -0.00000000000E+00 -0.11538348814E+03  0.11538348814E+03  0.00000000000E+00 0.  1.
          2    1    1    2  502    0 -0.34186584615E+02  0.13618751008E+02 -0.11985762602E+02  0.38702085884E+02  0.00000000000E+00 0.  1.
         -2    1    1    2    0  502  0.34186584615E+02 -0.13618751008E+02 -0.86279569708E+02  0.93799558078E+02  0.00000000000E+00 0.  1.
</event>
<event>
 4    1  0.6116490E+003  0.2516187E+02  0.7546771E-02  0.1467001E+00
          2   -1    0    0  501    0  0.00000000000E+00  0.00000000000E+00  0.42417838364E+01  0.42417838364E+01  0.00000000000E+00 0.  1.
         -2   -1    0    0    0  501 -0.00000000000E+00 -0.00000000000E+00 -0.40888618643E+03  0.40888618643E+03  0.00000000000E+00 0.  1.
          2    1    1    2  502    0  0.24249459142E+02  0.67144054569E+01 -0.37722351457E+02  0.45344187155E+02  0.00000000000E+00 0.  1.
         -2    1    1    2    0  502 -0.24249459142E+02 -0.67144054569E+01 -0.36692205114E+03  0.36778378311E+03  0.00000000000E+00 0.  1.
</event>
<event>
 4    1  0.6116490E+003  0.2033870E+02  0.7546771E-02  0.1528919E+00
          2   -1    0    0  501    0  0.00000000000E+00  0.00000000000E+00  0.67858588382E+03  0.67858588382E+03  0.00000000000E+00 0. -1.
         -2   -1    0    0    0  501 -0.00000000000E+00 -0.00000000000E+00 -0.63283186799E+00  0.63283186799E+00  0.00000000000E+00 0.  1.
          2    1    1    2  502    0 -0.46494435286E+01  0.19800130126E+02  0.27389984031E+03  0.27465393680E+03  0.00000000000E+00 0. -1.
         -2    1    1    2    0  502  0.46494435286E+01 -0.19800130126E+02  0.40405321164E+03  0.40456477889E+03  0.00000000000E+00 0.  1.
</event>
<event>
 4    1  0.6116490E+003  0.3078766E+02  0.7546771E-02  0.1412873E+00
          2   -1    0    0  501    0  0.00000000000E+00  0.00000000000E+00  0.91330585624E+03  0.91330585624E+03  0.00000000000E+00 0.  1.
         -2   -1    0    0    0  501 -0.00000000000E+00 -0.00000000000E+00 -0.10473616235E+01  0.10473616235E+01  0.00000000000E+00 0.  1.
          2    1    1    2  502    0 -0.11446282366E+02  0.28580794660E+02  0.41257355016E+03  0.41372069503E+03  0.00000000000E+00 0.  1.
         -2    1    1    2    0  502  0.11446282366E+02 -0.28580794660E+02  0.49968494446E+03  0.50063252283E+03  0.00000000000E+00 0.  1.
</event>
<event>
 4    1  0.6116490E+003  0.2699365E+02  0.7546771E-02  0.1447672E+00
          2   -1    0    0  501    0  0.00000000000E+00  0.00000000000E+00  0.17616221980E+02  0.17616221980E+02  0.00000000000E+00 0. -1.
         -2   -1    0    0    0  501 -0.00000000000E+00 -0.00000000000E+00 -0.38508503582E+03  0.38508503582E+03  0.00000000000E+00 0.  1.
          2    1    1    2  502    0  0.70651777403E+01 -0.26052643962E+02  0.64953518270E+01  0.27764124140E+02  0.00000000000E+00 0. -1.
         -2    1    1    2    0  502 -0.70651777403E+01  0.26052643962E+02 -0.37396416567E+03  0.37493713366E+03  0.00000000000E+00 0.  1.
</event>
<event>
 4    1  0.6116490E+003  0.2111179E+02  0.7546771E-02  0.1517675E+00
          2   -1    0    0  501    0  0.00000000000E+00  0.00000000000E+00  0.15323283610E+03  0.15323283610E+03  0.00000000000E+00 0.  1.
         -2   -1    0    0    0  501 -0.00000000000E+00 -0.00000000000E+00 -0.56286134955E+01  0.56286134955E+01  0.00000000000E+00 0. -1.
          2    1    1    2  502    0  0.18415860702E+02 -0.10322970181E+02  0.12901821128E+03  0.13073410604E+03  0.00000000000E+00 0.  1.
         -2    1    1    2    0  502 -0.18415860702E+02  0.10322970181E+02  0.18586011321E+02  0.28127343558E+02  0.00000000000E+00 0. -1.
</event>
<event>
 4    1  0.6116490E+003  0.2904533E+02  0.7546771E-02  0.1428078E+00
          2   -1    0    0  501    0  0.00000000000E+00  0.00000000000E+00  0.19884223017E+04  0.19884223017E+04  0.00000000000E+00 0. -1.
         -2   -1    0    0    0  501 -0.00000000000E+00 -0.00000000000E+00 -0.42716321554E+00  0.42716321554E+00  0.00000000000E+00 0.  1.
          2    1    1    2  502    0  0.10930207411E+02 -0.26910254246E+02  0.10758141372E+04  0.10762061554E+04  0.00000000000E+00 0. -1.
         -2    1    1    2    0  502 -0.10930207411E+02  0.26910254246E+02  0.91218100131E+03  0.91264330950E+03  0.00000000000E+00 0.  1.
</event>
<event>
 4    1  0.6116490E+003  0.2575286E+02  0.7546771E-02  0.1460555E+00
          2   -1    0    0  501    0  0.00000000000E+00  0.00000000000E+00  0.36162395264E+03  0.36162395264E+03  0.00000000000E+00 0. -1.
         -2   -1    0    0    0  501 -0.00000000000E+00 -0.00000000000E+00 -0.23936273092E+02  0.23936273092E+02  0.00000000000E+00 0.  1.
          2    1    1    2  502    0  0.34564076734E+01  0.25519853356E+02  0.35409147394E+03  0.35502673363E+03  0.00000000000E+00 0. -1.
         -2    1    1    2    0  502 -0.34564076734E+01 -0.25519853356E+02 -0.16403794398E+02  0.30533492103E+02  0.00000000000E+00 0.  1.
</event>
<event>
 4    1  0.6116490E+003  0.2906171E+02  0.7546771E-02  0.1427929E+00
          2   -1    0    0  501    0  0.00000000000E+00  0.00000000000E+00  0.48914386114E+02  0.48914386114E+02  0.00000000000E+00 0. -1.
         -2   -1    0    0    0  501 -0.00000000000E+00 -0.00000000000E+00 -0.58280188889E+02  0.58280188889E+02  0.00000000000E+00 0. -1.
          2    1    1    2  502    0 -0.20245102284E+02 -0.20849917293E+02  0.40279182408E+02  0.49668861000E+02  0.00000000000E+00 0. -1.
         -2    1    1    2    0  502  0.20245102284E+02  0.20849917293E+02 -0.49644985183E+02  0.57525714002E+02  0.00000000000E+00 0. -1.
</event>
<event>
 4    1  0.6116490E+003  0.2123468E+02  0.7546771E-02  0.1515940E+00
          2   -1    0    0  501    0  0.00000000000E+00  0.00000000000E+00  0.70887657316E+03  0.70887657316E+03  0.00000000000E+00 0.  1.
         -2   -1    0    0    0  501 -0.00000000000E+00 -0.00000000000E+00 -0.24253353468E+01  0.24253353468E+01  0.00000000000E+00 0.  1.
          2    1    1    2  502    0  0.68449480789E+01  0.20101203115E+02  0.65869847165E+03  0.65904065749E+03  0.00000000000E+00 0.  1.
         -2    1    1    2    0  502 -0.68449480789E+01 -0.20101203115E+02  0.47752766171E+02  0.52261251017E+02  0.00000000000E+00 0.  1.
</event>
<event>
 4    1  0.6116490E+003  0.3856499E+02  0.7546771E-02  0.1357106E+00
          2   -1    0    0  501    0  0.00000000000E+00  0.00000000000E+00  0.25897131045E+04  0.25897131045E+04  0.00000000000E+00 0.  1.
         -2   -1    0    0    0  501 -0.00000000000E+00 -0.00000000000E+00 -0.36193697119E+01  0.36193697119E+01  0.00000000000E+00 0. -1.
          2    1    1    2  502    0  0.14836250071E+02  0.35596968772E+02  0.24823997426E+04  0.24826992852E+04  0.00000000000E+00 0.  1.
         -2    1    1    2    0  502 -0.14836250071E+02 -0.35596968772E+02  0.10369399214E+03  0.11063318900E+03  0.00000000000E+00 0. -1.
</event>
<event>
 4    1  0.6116490E+003  0.2365807E+02  0.7546771E-02  0.1484396E+00
          2   -1    0    0  501    0  0.00000000000E+00  0.00000000000E+00  0.47501370706E+03  0.47501370706E+03  0.00000000000E+00 0. -1.
         -2   -1    0    0    0  501 -0.00000000000E+00 -0.00000000000E+00 -0.25797242657E+02  0.25797242657E+02  0.00000000000E+00 0. -1.
          2    1    1    2  502    0  0.23625814641E+02  0.12349934074E+01  0.46922822798E+03  0.46982425891E+03  0.00000000000E+00 0. -1.
         -2    1    1    2    0  502 -0.23625814641E+02 -0.12349934074E+01 -0.20011763574E+02  0.30986690812E+02  0.00000000000E+00 0. -1.
</event>
<event>
 4    1  0.6116490E+003  0.2135815E+02  0.7546771E-02  0.1514212E+00
          2   -1    0    0  501    0  0.00000000000E+00  0.00000000000E+00  0.38738988000E+03  0.38738988000E+03  0.00000000000E+00 0.  1.
         -2   -1    0    0    0  501 -0.00000000000E+00 -0.00000000000E+00 -0.55242589654E+01  0.55242589654E+01  0.00000000000E+00 0.  1.
          2    1    1    2  502    0 -0.20274907908E+02  0.67155517118E+01  0.36519813669E+03  0.36582215565E+03  0.00000000000E+00 0.  1.
         -2    1    1    2    0  502  0.20274907908E+02 -0.67155517118E+01  0.16667484350E+02  0.27091983317E+02  0.00000000000E+00 0.  1.
</event>
<event>
 4    1  0.6116490E+003  0.2221761E+02  0.7546771E-02  0.1502564E+00
          2   -1    0    0  501    0  0.00000000000E+00  0.00000000000E+00  0.16417152483E+04  0.16417152483E+04  0.00000000000E+00 0. -1.
         -2   -1    0    0    0  501 -0.00000000000E+00 -0.00000000000E+00 -0.27174636933E+01  0.27174636933E+01  0.00000000000E+00 0. -1.
          2    1    1    2  502    0 -0.24302643461E+01  0.22084290063E+02  0.15948949953E+04  0.15950497385E+04  0.00000000000E+00 0. -1.
         -2    1    1    2    0  502  0.24302643461E+01 -0.22084290063E+02  0.44102789274E+02  0.49382973524E+02  0.00000000000E+00 0. -1.
</event>
<event>
 4    1  0.6116490E+003  0.2162072E+02  0.7546771E-02  0.1510584E+00
          2   -1    0    0  501    0  0.00000000000E+00  0.00000000000E+00  0.90602041894E+03  0.90602041894E+03  0.00000000000E+00 0. -1.
         -2   -1    0    0    0  501 -0.00000000000E+00 -0.00000000000E+00 -0.84264744470E+00  0.84264744470E+00  0.00000000000E+00 0. -1.
          2    1    1    2  502    0 -0.21167184204E+02  0.44051968323E+01  0.73492464077E+03  0.73524260150E+03  0.00000000000E+00 0. -1.
         -2    1    1    2    0  502  0.21167184204E+02 -0.44051968323E+01  0.17025313072E+03  0.17162046488E+03  0.00000000000E+00 0. -1.
</event>
<event>
 4    1  0.6116490E+003  0.3937066E+02  0.7546771E-02  0.1352214E+00
          2   -1    0    0  501    0  0.00000000000E+00  0.00000000000E+00  0.23827210987E+04  0.23827210987E+04  0.00000000000E+00 0.  1.
         -2   -1    0    0    0  501 -0.00000000000E+00 -0.00000000000E+00 -0.16149320069E+03  0.16149320069E+03  0.00000000000E+00 0. -1.
          2    1    1    2  502    0 -0.33524078530E+02  0.20644242443E+02  0.23801563219E+04  0.23804819187E+04  0.00000000000E+00 0.  1.
         -2    1    1    2    0  502  0.33524078530E+02 -0.20644242443E+02 -0.15892842386E+03  0.16373238072E+03  0.00000000000E+00 0. -1.
</event>
<event>
 4    1  0.6116490E+003  0.2993917E+02  0.7546771E-02  0.1420126E+00
          2   -1    0    0  501    0  0.00000000000E+00  0.00000000000E+00  0.18245304833E+02  0.18245304833E+02  0.00000000000E+00 0. -1.
         -2   -1    0    0    0  501 -0.00000000000E+00 -0.00000000000E+00 -0.71692955899E+02  0.71692955899E+02  0.00000000000E+00 0. -1.
          2    1    1    2  502    0  0.26434740669E+02  0.14055556467E+02 -0.14951704720E+01  0.29976486061E+02  0.00000000000E+00 0. -1.
         -2    1    1    2    0  502 -0.26434740669E+02 -0.14055556467E+02 -0.51952480594E+02  0.59961774671E+02  0.00000000000E+00 0. -1.
</event>
<event>
 4    1  0.6116490E+003  0.2808256E+02  0.7546771E-02  0.1437026E+00
          2   -1    0    0  501    0  0.00000000000E+00  0.00000000000E+00  0.13233891935E+04  0.13233891935E+04  0.00000000000E+00 0. -1.
         -2   -1    0    0    0  501 -0.00000000000E+00 -0.00000000000E+00 -0.26504988828E+01  0.26504988828E+01  0.00000000000E+00 0. -1.
          2    1    1    2  502    0  0.19827875013E+02  0.19886819517E+02  0.12441160422E+04  0.12444329459E+04  0.00000000000E+00 0. -1.
         -2    1    1    2    0  502 -0.19827875013E+02 -0.19886819517E+02  0.76622652335E+02  0.81606746466E+02  0.00000000000E+00 0. -1.
</event>
<event>
 4    1  0.6116490E+003  0.2214807E+02  0.7546771E-02  0.1503482E+00
          2   -1    0    0  501    0  0.00000000000E+00  0.00000000000E+00  0.10852786975E+03  0.10852786975E+03  0.00000000000E+00 0. -1.
         -2   -1    0    0    0  501 -0.00000000000E+00 -0.00000000000E+00 -0.11670839767E+02  0.11670839767E+02  0.00000000000E+00 0. -1.
          2    1    1    2  502    0  0.15219211130E+01  0.22095716021E+02  0.95472035490E+02  0.98007379676E+02  0.00000000000E+00 0. -1.
         -2    1    1    2    0  502 -0.15219211130E+01 -0.22095716021E+02  0.13849944933E+01  0.22191329841E+02  0.00000000000E+00 0. -1.
</event>
<event>
 4    1  0.6116490E+003  0.2285701E+02  0.7546771E-02  0.1494302E+00
          2   -1    0    0  501    0  0.00000000000E+00  0.00000000000E+00  0.94453986062E+03  0.94453986062E+03  0.00000000000E+00 0.  1.
         -2   -1    0    0    0  501 -0.00000000000E+00 -0.00000000000E+00 -0.17454944513E+01  0.17454944513E+01  0.00000000000E+00 0.  1.
          2    1    1    2  502    0  0.84418428583E+01 -0.21240954854E+02  0.86245359701E+03  0.86275642557E+03  0.00000000000E+00 0.  1.
         -2    1    1    2    0  502 -0.84418428583E+01  0.21240954854E+02  0.80340769164E+02  0.83528929503E+02  0.00000000000E+00 0.  1.
</event>
<event>
 4    1  0.6116490E+003  0.2369341E+02  0.7546771E-02  0.1483970E+00
          2   -1    0    0  501    0  0.00000000000E+00  0.00000000000E+00  0.11312994015E+02  0.11312994015E+02  0.00000000000E+00 0. -1.
         -2   -1    0    0    0  501 -0.00000000000E+00 -0.00000000000E+00 -0.20570820682E+03  0.20570820682E+03  0.00000000000E+00 0.  1.
          2    1    1    2  502    0 -0.55786752127E+01 -0.23027286955E+02 -0.26766499633E+01  0.23844119121E+02  0.00000000000E+00 0. -1.
         -2    1    1    2    0  502  0.55786752127E+01  0.23027286955E+02 -0.19171856284E+03  0.19317708171E+03  0.00000000000E+00 0.  1.
</event>
<event>
 4    1  0.8401654E+003  0.2021367E+02  0.7546771E-02  0.1530794E+00
          2   -1    0    0  501    0  0.00000000000E+00  0.00000000000E+00  0.43012344044E+03  0.43012344044E+03  0.00000000000E+00 0.  1.
         -2   -1    0    0    0  501 -0.00000000000E+00 -0.00000000000E+00 -0.46048636160E+03  0.46048636160E+03  0.00000000000E+00 0. -1.
          2    1    1    2  502    0 -0.44636984322E+01 -0.19714658409E+02  0.42966389127E+03  0.43013910752E+03  0.00000000000E+00 0.  1.
         -2    1    1    2    0  502  0.44636984322E+01  0.19714658409E+02 -0.46002681243E+03  0.46047069452E+03  0.00000000000E+00 0. -1.
</event>
<event>
 4    1  0.6116490E+003  0.5651779E+02  0.7546771E-02  0.1272146E+00
          2   -1    0    0  501    0  0.00000000000E+00  0.00000000000E+00  0.42806567935E+02  0.42806567935E+02  0.00000000000E+00 0. -1.
         -2   -1    0    0    0  501 -0.00000000000E+00 -0.00000000000E+00 -0.14059462255E+03  0.14059462255E+03  0.00000000000E+00 0. -1.
          2    1    1    2  502    0  0.39971853136E+02  0.39956366291E+02  0.13922457670E+02  0.58207345567E+02  0.00000000000E+00 0. -1.
         -2    1    1    2    0  502 -0.39971853136E+02 -0.39956366291E+02 -0.11171051229E+03  0.12519384492E+03  0.00000000000E+00 0. -1.
</event>
<event>
 4    1  0.6116490E+003  0.2613627E+02  0.7546771E-02  0.1456483E+00
          2   -1    0    0  501    0  0.00000000000E+00  0.00000000000E+00  0.28727612488E+02  0.28727612488E+02  0.00000000000E+00 0. -1.
         -2   -1    0    0    0  501 -0.00000000000E+00 -0.00000000000E+00 -0.49531175482E+02  0.49531175482E+02  0.00000000000E+00 0. -1.
          2    1    1    2  502    0 -0.19359900118E+02  0.17558445002E+02  0.17812789985E+02  0.31629103853E+02  0.00000000000E+00 0. -1.
         -2    1    1    2    0  502  0.19359900118E+02 -0.17558445002E+02 -0.38616352979E+02  0.46629684117E+02  0.00000000000E+00 0. -1.
</event>
<event>
 4    1  0.6116490E+003  0.3543679E+02  0.7546771E-02  0.1377518E+00
          2   -1    0    0  501    0  0.00000000000E+00  0.00000000000E+00  0.19815933766E+04  0.19815933766E+04  0.00000000000E+00 0.  1.
         -2   -1    0    0    0  501 -0.00000000000E+00 -0.00000000000E+00 -0.12137752320E+02  0.12137752320E+02  0.00000000000E+00 0.  1.
          2    1    1    2  502    0 -0.30946593905E+02  0.17264831773E+02  0.19552212280E+04  0.19555423331E+04  0.00000000000E+00 0.  1.
         -2    1    1    2    0  502  0.30946593905E+02 -0.17264831773E+02  0.14234396302E+02  0.38188795851E+02  0.00000000000E+00 0.  1.
</event>
<event>
 4    1  0.6116490E+003  0.2739063E+02  0.7546771E-02  0.1443723E+00
          2   -1    0    0  501    0  0.00000000000E+00  0.00000000000E+00  0.29156498089E+03  0.29156498089E+03  0.00000000000E+00 0.  1.
         -2   -1    0    0    0  501 -0.00000000000E+00 -0.00000000000E+00 -0.35057330214E+01  0.35057330214E+01  0.00000000000E+00 0.  1.
          2    1    1    2  502    0  0.10899468174E+02  0.25128632608E+02  0.22012276831E+03  0.22182037713E+03  0.00000000000E+00 0.  1.
         -2    1    1    2    0  502 -0.10899468174E+02 -0.25128632608E+02  0.67936479559E+02  0.73250336778E+02  0.00000000000E+00 0.  1.
</event>
<event>
 4    1  0.6116490E+003  0.2976600E+02  0.7546771E-02  0.1421641E+00
          2   -1    0    0  501    0  0.00000000000E+00  0.00000000000E+00  0.11939314045E+04  0.11939314045E+04  0.00000000000E+00 0. -1.
         -2   -1    0    0    0  501 -0.00000000000E+00 -0.00000000000E+00 -0.19594728310E+01  0.19594728310E+01  0.00000000000E+00 0. -1.
          2    1    1    2  502    0  0.18931731020E+02 -0.22969644103E+02  0.10672930435E+04  0.10677080386E+04  0.00000000000E+00 0. -1.
         -2    1    1    2    0  502 -0.18931731020E+02  0.22969644103E+02  0.12467888813E+03  0.12818283870E+03  0.00000000000E+00 0. -1.
</event>
<event>
 4    1  0.6116490E+003  0.2347220E+02  0.7546771E-02  0.1486652E+00
          2   -1    0    0  501    0  0.00000000000E+00  0.00000000000E+00  0.19899074556E+02  0.19899074556E+02  0.00000000000E+00 0.  1.
         -2   -1    0    0    0  501 -0.00000000000E+00 -0.00000000000E+00 -0.30703578351E+02  0.30703578351E+02  0.00000000000E+00 0.  1.
          2    1    1    2  502    0  0.23080728857E+02 -0.42689193832E+01 -0.13332982335E+02  0.26994668644E+02  0.00000000000E+00 0.  1.
         -2    1    1    2    0  502 -0.23080728857E+02  0.42689193832E+01  0.25284785401E+01  0.23607984263E+02  0.00000000000E+00 0.  1.
</event>
<event>
 4    1  0.6789323E+003  0.2535750E+02  0.7546771E-02  0.1464844E+00
          2   -1    0    0  501    0  0.00000000000E+00  0.00000000000E+00  0.91396386682E+03  0.91396386682E+03  0.00000000000E+00 0.  1.
         -2   -1    0    0    0  501 -0.00000000000E+00 -0.00000000000E+00 -0.25564478553E+03  0.25564478553E+03  0.00000000000E+00 0.  1.
          2    1    1    2  502    0 -0.18711954433E+02  0.17113313928E+02  0.91315862457E+03  0.91351063288E+03  0.00000000000E+00 0.  1.
         -2    1    1    2    0  502  0.18711954433E+02 -0.17113313928E+02 -0.25483954328E+03  0.25609801947E+03  0.00000000000E+00 0.  1.
</event>
<event>
 4    1  0.6116490E+003  0.2234700E+02  0.7546771E-02  0.1500865E+00
          2   -1    0    0  501    0  0.00000000000E+00  0.00000000000E+00  0.68563534927E+02  0.68563534927E+02  0.00000000000E+00 0.  1.
         -2   -1    0    0    0  501 -0.00000000000E+00 -0.00000000000E+00 -0.84736087677E+01  0.84736087677E+01  0.00000000000E+00 0.  1.
          2    1    1    2  502    0  0.22258481609E+02 -0.19870340197E+01  0.44479865795E+02  0.49777974736E+02  0.00000000000E+00 0.  1.
         -2    1    1    2    0  502 -0.22258481609E+02  0.19870340197E+01  0.15610060365E+02  0.27259168959E+02  0.00000000000E+00 0.  1.
</event>
<event>
 4    1  0.6116490E+003  0.5411262E+02  0.7546771E-02  0.1281263E+00
          2   -1    0    0  501    0  0.00000000000E+00  0.00000000000E+00  0.93999007561E+03  0.93999007561E+03  0.00000000000E+00 0. -1.
         -2   -1    0    0    0  501 -0.00000000000E+00 -0.00000000000E+00 -0.12726051574E+04  0.12726051574E+04  0.00000000000E+00 0. -1.
          2    1    1    2  502    0  0.41284392209E+02 -0.34982490252E+02  0.93863523509E+03  0.94019374611E+03  0.00000000000E+00 0. -1.
         -2    1    1    2    0  502 -0.41284392209E+02  0.34982490252E+02 -0.12712503168E+04  0.12724014868E+04  0.00000000000E+00 0. -1.
</event>
<event>
 4    1  0.6116490E+003  0.2224952E+02  0.7546771E-02  0.1502143E+00
          2   -1    0    0  501    0  0.00000000000E+00  0.00000000000E+00  0.20414974744E+02  0.20414974744E+02  0.00000000000E+00 0.  1.
         -2   -1    0    0    0  501 -0.00000000000E+00 -0.00000000000E+00 -0.25122029585E+02  0.25122029585E+02  0.00000000000E+00 0.  1.
          2    1    1    2  502    0 -0.18342055838E+02  0.12594048558E+02  0.18911207340E+01  0.22329742700E+02  0.00000000000E+00 0.  1.
         -2    1    1    2    0  502  0.18342055838E+02 -0.12594048558E+02 -0.65981755754E+01  0.23207261629E+02  0.00000000000E+00 0.  1.
</event>
<event>
 4    1  0.6116490E+003  0.1003021E+03  0.7546771E-02  0.1163286E+00
          2   -1    0    0  501    0  0.00000000000E+00  0.00000000000E+00  0.15669001884E+04  0.15669001884E+04  0.00000000000E+00 0. -1.
         -2   -1    0    0    0  501 -0.00000000000E+00 -0.00000000000E+00 -0.19407937732E+02  0.19407937732E+02  0.00000000000E+00 0.  1.
          2    1    1    2  502    0  0.74012343416E+02 -0.67695571292E+02  0.14225704048E+04  0.14261020559E+04  0.00000000000E+00 0. -1.
         -2    1    1    2    0  502 -0.74012343416E+02  0.67695571292E+02  0.12492184586E+03  0.16020607019E+03  0.00000000000E+00 0.  1.
</event>
<event>
 4    1  0.6116490E+003  0.2066446E+02  0.7546771E-02  0.1524110E+00
          2   -1    0    0  501    0  0.00000000000E+00  0.00000000000E+00  0.12520277929E+04  0.12520277929E+04  0.00000000000E+00 0. -1.
         -2   -1    0    0    0  501 -0.00000000000E+00 -0.00000000000E+00 -0.34114007183E+00  0.34114007183E+00  0.00000000000E+00 0. -1.
          2    1    1    2  502    0 -0.11300511214E+02 -0.17300805893E+02  0.61638667775E+03  0.61673296973E+03  0.00000000000E+00 0. -1.
         -2    1    1    2    0  502  0.11300511214E+02  0.17300805893E+02  0.63529997504E+03  0.63563596321E+03  0.00000000000E+00 0. -1.
</event>
<event>
 4    1  0.6116490E+003  0.2298876E+02  0.7546771E-02  0.1492639E+00
          2   -1    0    0  501    0  0.00000000000E+00  0.00000000000E+00  0.22453923668E+03  0.22453923668E+03  0.00000000000E+00 0.  1.
         -2   -1    0    0    0  501 -0.00000000000E+00 -0.00000000000E+00 -0.25921138716E+01  0.25921138716E+01  0.00000000000E+00 0.  1.
          2    1    1    2  502    0  0.22579896326E+02  0.43163628667E+01  0.76526844046E+02  0.79905197366E+02  0.00000000000E+00 0.  1.
         -2    1    1    2    0  502 -0.22579896326E+02 -0.43163628667E+01  0.14542027877E+03  0.14722615319E+03  0.00000000000E+00 0.  1.
</event>
<event>
 4    1  0.6116490E+003  0.2414629E+02  0.7546771E-02  0.1478585E+00
          2   -1    0    0  501    0  0.00000000000E+00  0.00000000000E+00  0.18367308958E+04  0.18367308958E+04  0.00000000000E+00 0.  1.
         -2   -1    0    0    0  501 -0.00000000000E+00 -0.00000000000E+00 -0.10406319202E+01  0.10406319202E+01  0.00000000000E+00 0.  1.
          2    1    1    2  502    0  0.23737005500E+02 -0.44269301730E+01  0.16838669840E+04  0.16840401014E+04  0.00000000000E+00 0.  1.
         -2    1    1    2    0  502 -0.23737005500E+02  0.44269301730E+01  0.15182327979E+03  0.15373142628E+03  0.00000000000E+00 0.  1.
</event>
<event>
 4    1  0.6116490E+003  0.2282340E+02  0.7546771E-02  0.1494728E+00
          2   -1    0    0  501    0  0.00000000000E+00  0.00000000000E+00  0.65185097710E+03  0.65185097710E+03  0.00000000000E+00 0.  1.
         -2   -1    0    0    0  501 -0.00000000000E+00 -0.00000000000E+00 -0.80859902762E+00  0.80859902762E+00  0.00000000000E+00 0.  1.
          2    1    1    2  502    0  0.11159467396E+02  0.19909142989E+02  0.36085196924E+03  0.36157302360E+03  0.00000000000E+00 0.  1.
         -2    1    1    2    0  502 -0.11159467396E+02 -0.19909142989E+02  0.29019040883E+03  0.29108655253E+03  0.00000000000E+00 0.  1.
</event>
<event>
 4    1  0.6116490E+003  0.2050334E+02  0.7546771E-02  0.1526475E+00
          2   -1    0    0  501    0  0.00000000000E+00  0.00000000000E+00  0.11048721323E+01  0.11048721323E+01  0.00000000000E+00 0.  1.
         -2   -1    0    0    0  501 -0.00000000000E+00 -0.00000000000E+00 -0.40592224320E+03  0.40592224320E+03  0.00000000000E+00 0.  1.
          2    1    1    2  502    0 -0.12146312047E+02 -0.16518279807E+02 -0.25335504950E+03  0.25418333457E+03  0.00000000000E+00 0.  1.
         -2    1    1    2    0  502  0.12146312047E+02  0.16518279807E+02 -0.15146232157E+03  0.15284378077E+03  0.00000000000E+00 0.  1.
</event>
<event>
 4    1  0.6116490E+003  0.2171747E+02  0.7546771E-02  0.1509263E+00
          2   -1    0    0  501    0  0.00000000000E+00  0.00000000000E+00  0.62545557118E+01  0.62545557118E+01  0.00000000000E+00 0. -1.
         -2   -1    0    0    0  501 -0.00000000000E+00 -0.00000000000E+00 -0.24477208486E+03  0.24477208486E+03  0.00000000000E+00 0.  1.
          2    1    1    2  502    0 -0.12390442548E+02 -0.17836070498E+02 -0.14854431832E+02  0.26311644236E+02  0.00000000000E+00 0. -1.
         -2    1    1    2    0  502  0.12390442548E+02  0.17836070498E+02 -0.22366309731E+03  0.22471499633E+03  0.00000000000E+00 0.  1.
</event>
<event>
 4    1  0.6116490E+003  0.2231093E+02  0.7546771E-02  0.1501337E+00
          2   -1    0    0  501    0  0.00000000000E+00  0.00000000000E+00  0.60796963538E+03  0.60796963538E+03  0.00000000000E+00 0. -1.
         -2   -1    0    0    0  501 -0.00000000000E+00 -0.00000000000E+00 -0.63957116297E+01  0.63957116297E+01  0.00000000000E+00 0. -1.
          2    1    1    2  502    0  0.13840993431E+01  0.22267951527E+02  0.58763439145E+03  0.58805778238E+03  0.00000000000E+00 0. -1.
         -2    1    1    2    0  502 -0.13840993431E+01 -0.22267951527E+02  0.13939532297E+02  0.26307564632E+02  0.00000000000E+00 0. -1.
</event>
<event>
 4    1  0.6116490E+003  0.5019150E+02  0.7546771E-02  0.1297344E+00
          2   -1    0    0  501    0  0.00000000000E+00  0.00000000000E+00  0.25422241779E+02  0.25422241779E+02  0.00000000000E+00 0. -1.
         -2   -1    0    0    0  501 -0.00000000000E+00 -0.00000000000E+00 -0.11081574012E+03  0.11081574012E+03  0.00000000000E+00 0. -1.
          2    1    1    2  502    0 -0.64097121709E+00 -0.50187406072E+02 -0.20541981105E+02  0.54232458547E+02  0.00000000000E+00 0. -1.
         -2    1    1    2    0  502  0.64097121709E+00  0.50187406072E+02 -0.64851517234E+02  0.82005523350E+02  0.00000000000E+00 0. -1.
</event>
<event>
 4    1  0.6116490E+003  0.6122379E+02  0.7546771E-02  0.1255730E+00
          2   -1    0    0  501    0  0.00000000000E+00  0.00000000000E+00  0.28075160153E+04  0.28075160153E+04  0.00000000000E+00 0. -1.
         -2   -1    0    0    0  501 -0.00000000000E+00 -0.00000000000E+00 -0.29881809071E+01  0.29881809071E+01  0.00000000000E+00 0.  1.
          2    1    1    2  502    0 -0.33922975311E+02 -0.50966497264E+02  0.24474559754E+04  0.24482216206E+04  0.00000000000E+00 0. -1.
         -2    1    1    2    0  502  0.33922975311E+02  0.50966497264E+02  0.35707185901E+03  0.36228257561E+03  0.00000000000E+00 0.  1.
</event>
<event>
 4    1  0.6116490E+003  0.2126663E+02  0.7546771E-02  0.1515492E+00
          2   -1    0    0  501    0  0.00000000000E+00  0.00000000000E+00  0.11638998531E+03  0.11638998531E+03  0.00000000000E+00 0. -1.
         -2   -1    0    0    0  501 -0.00000000000E+00 -0.00000000000E+00 -0.39217852478E+02  0.39217852478E+02  0.00000000000E+00 0.  1.
          2    1    1    2  502    0  0.20658692627E+02  0.50485620172E+01  0.11243494929E+03  0.11442852521E+03  0.00000000000E+00 0. -1.
         -2    1    1    2    0  502 -0.20658692627E+02 -0.50485620172E+01 -0.35262816462E+02  0.41179312577E+02  0.00000000000E+00 0.  1.
</event>
<event>
 4    1  0.6116490E+003  0.2790937E+02  0.7546771E-02  0.1438681E+00
          2   -1    0    0  501    0  0.00000000000E+00  0.00000000000E+00  0.34115664585E+03  0.34115664585E+03  0.00000000000E+00 0.  1.
         -2   -1    0    0    0  501 -0.00000000000E+00 -0.00000000000E+00 -0.56356147765E+02  0.56356147765E+02  0.00000000000E+00 0. -1.
          2    1    1    2  502    0 -0.27103956385E+02 -0.66564635206E+01  0.33708881216E+03  0.33824222126E+03  0.00000000000E+00 0.  1.
         -2    1    1    2    0  502  0.27103956385E+02  0.66564635206E+01 -0.52288314077E+02  0.59270572355E+02  0.00000000000E+00 0. -1.
</event>
<event>
 4    1  0.6116490E+003  0.2358275E+02  0.7546771E-02  0.1485307E+00
          2   -1    0    0  501    0  0.00000000000E+00  0.00000000000E+00  0.12980229997E+03  0.12980229997E+03  0.00000000000E+00 0. -1.
         -2   -1    0    0    0  501 -0.00000000000E+00 -0.00000000000E+00 -0.61153735053E+01  0.61153735053E+01  0.00000000000E+00 0.  1.
          2    1    1    2  502    0  0.86102264718E+01 -0.21954726127E+02  0.99027476531E+02  0.10179679321E+03  0.00000000000E+00 0. -1.
         -2    1    1    2    0  502 -0.86102264718E+01  0.21954726127E+02  0.24659449931E+02  0.34120880266E+02  0.00000000000E+00 0.  1.
</event>
<event>
 4    1  0.6116490E+003  0.2017227E+02  0.7546771E-02  0.1531418E+00
          2   -1    0    0  501    0  0.00000000000E+00  0.00000000000E+00  0.17178515692E+03  0.17178515692E+03  0.00000000000E+00 0.  1.
         -2   -1    0    0    0  501 -0.00000000000E+00 -0.00000000000E+00 -0.36448029546E+01  0.36448029546E+01  0.00000000000E+00 0.  1.
          2    1    1    2  502    0 -0.44453532960E+01 -0.19676364037E+02  0.13597010480E+03  0.13745832047E+03  0.00000000000E+00 0.  1.
         -2    1    1    2    0  502  0.44453532960E+01  0.19676364037E+02  0.32170249172E+02  0.37971639410E+02  0.00000000000E+00 0.  1.
</event>
<event>
 4    1  0.6116490E+003  0.2365439E+02  0.7546771E-02  0.1484440E+00
          2   -1    0    0  501    0  0.00000000000E+00  0.00000000000E+00  0.19600476230E+04  0.19600476230E+04  0.00000000000E+00 0. -1.
         -2   -1    0    0    0  501 -0.00000000000E+00 -0.00000000000E+00 -0.47539003478E+00  0.47539003478E+00  0.00000000000E+00 0. -1.
          2    1    1    2  502    0 -0.22347942911E+02  0.77524074260E+01  0.15993768043E+04  0.15995517161E+04  0.00000000000E+00 0. -1.
         -2    1    1    2    0  502  0.22347942911E+02 -0.77524074260E+01  0.36019542870E+03  0.36097129696E+03  0.00000000000E+00 0. -1.
</event>
<event>
 4    1  0.6116490E+003  0.2512087E+02  0.7546771E-02  0.1467456E+00
          2   -1    0    0  501    0  0.00000000000E+00  0.00000000000E+00  0.80878609976E+03  0.80878609976E+03  0.00000000000E+00 0. -1.
         -2   -1    0    0    0  501 -0.00000000000E+00 -0.00000000000E+00 -0.22616295840E+02  0.22616295840E+02  0.00000000000E+00 0. -1.
          2    1    1    2  502    0  0.23144179484E+02 -0.97675539340E+01  0.80155239689E+03  0.80194594775E+03  0.00000000000E+00 0. -1.
         -2    1    1    2    0  502 -0.23144179484E+02  0.97675539340E+01 -0.15382592965E+02  0.29456447854E+02  0.00000000000E+00 0. -1.
</event>
<event>
 4    1  0.6116490E+003  0.2195066E+02  0.7546771E-02  0.1506112E+00
          2   -1    0    0  501    0  0.00000000000E+00  0.00000000000E+00  0.76522425422E+02  0.76522425422E+02  0.00000000000E+00 0.  1.
         -2   -1    0    0    0  501 -0.00000000000E+00 -0.00000000000E+00 -0.44503993660E+02  0.44503993660E+02  0.00000000000E+00 0. -1.
          2    1    1    2  502    0  0.21435431657E+02  0.47279906085E+01  0.72078416347E+02  0.75346730046E+02  0.00000000000E+00 0.  1.
         -2    1    1    2    0  502 -0.21435431657E+02 -0.47279906085E+01 -0.40059984585E+02  0.45679689037E+02  0.00000000000E+00 0. -1.
</event>
<event>
 4    1  0.6116490E+003  0.2478364E+02  0.7546771E-02  0.1471238E+00
          2   -1    0    0  501    0  0.00000000000E+00  0.00000000000E+00  0.35162236201E+03  0.35162236201E+03  0.00000000000E+00 0. -1.
         -2   -1    0    0    0  501 -0.00000000000E+00 -0.00000000000E+00 -0.20091992758E+02  0.20091992758E+02  0.00000000000E+00 0. -1.
          2    1    1    2  502    0 -0.15329962830E+02  0.19473602632E+02  0.34335925651E+03  0.34425253520E+03  0.00000000000E+00 0. -1.
         -2    1    1    2    0  502  0.15329962830E+02 -0.19473602632E+02 -0.11828887264E+02  0.27461819564E+02  0.00000000000E+00 0. -1.
</event>
<event>
 4    1  0.6116490E+003  0.3411861E+02  0.7546771E-02  0.1386868E+00
          2   -1    0    0  501    0  0.00000000000E+00  0.00000000000E+00  0.31180843917E+03  0.31180843917E+03  0.00000000000E+00 0. -1.
         -2   -1    0    0    0  501 -0.00000000000E+00 -0.00000000000E+00 -0.10052798371E+02  0.10052798371E+02  0.00000000000E+00 0.  1.
          2    1    1    2  502    0  0.11394766676E+01  0.34099574017E+02  0.27847349643E+03  0.28055581899E+03  0.00000000000E+00 0. -1.
         -2    1    1    2    0  502 -0.11394766676E+01 -0.34099574017E+02  0.23282144369E+02  0.41305418551E+02  0.00000000000E+00 0.  1.
</event>
<event>
 4    1  0.6116490E+003  0.2455441E+02  0.7546771E-02  0.1473850E+00
          2   -1    0    0  501    0  0.00000000000E+00  0.00000000000E+00  0.17262256944E+04  0.17262256944E+04  0.00000000000E+00 0. -1.
         -2   -1    0    0    0  501 -0.00000000000E+00 -0.00000000000E+00 -0.35399100881E+00  0.35399100881E+00  0.00000000000E+00 0. -1.
          2    1    1    2  502    0 -0.16962481208E+02 -0.17753684547E+02  0.96263045458E+03  0.96294356593E+03  0.00000000000E+00 0. -1.
         -2    1    1    2    0  502  0.16962481208E+02  0.17753684547E+02  0.76324124884E+03  0.76363611951E+03  0.00000000000E+00 0. -1.
</event>
<event>
 4    1  0.6116490E+003  0.2357003E+02  0.7546771E-02  0.1485462E+00
          2   -1    0    0  501    0  0.00000000000E+00  0.00000000000E+00  0.35013356712E+02  0.35013356712E+02  0.00000000000E+00 0.  1.
         -2   -1    0    0    0  501 -0.00000000000E+00 -0.00000000000E+00 -0.43815990978E+02  0.43815990978E+02  0.00000000000E+00 0.  1.
          2    1    1    2  502    0  0.22817105816E+02 -0.59098114350E+01  0.27078127964E+02  0.35899459648E+02  0.00000000000E+00 0.  1.
         -2    1    1    2    0  502 -0.22817105816E+02  0.59098114350E+01 -0.35880762231E+02  0.42929888042E+02  0.00000000000E+00 0.  1.
</event>
<event>
 4    1  0.6116490E+003  0.2075739E+02  0.7546771E-02  0.1522757E+00
          2   -1    0    0  501    0  0.00000000000E+00  0.00000000000E+00  0.29097366549E+03  0.29097366549E+03  0.00000000000E+00 0. -1.
         -2   -1    0    0    0  501 -0.00000000000E+00 -0.00000000000E+00 -0.60078368552E+01  0.60078368552E+01  0.00000000000E+00 0.  1.
          2    1    1    2  502    0  0.15825014766E+02  0.13432726141E+02  0.27138148717E+03  0.27217417365E+03  0.00000000000E+00 0. -1.
         -2    1    1    2    0  502 -0.15825014766E+02 -0.13432726141E+02  0.13584341464E+02  0.24807328693E+02  0.00000000000E+00 0.  1.
</event>
<event>
 4    1  0.6116490E+003  0.2072775E+02  0.7546771E-02  0.1523188E+00
          2   -1    0    0  501    0  0.00000000000E+00  0.00000000000E+00  0.26596975763E+03  0.26596975763E+03  0.00000000000E+00 0. -1.
         -2   -1    0    0    0  501 -0.00000000000E+00 -0.00000000000E+00 -0.16765678714E+01  0.16765678714E+01  0.00000000000E+00 0.  1.
          2    1    1    2  502    0  0.19751359354E+02  0.62867197510E+01  0.10657864577E+03  0.10857553488E+03  0.00000000000E+00 0. -1.
         -2    1    1    2    0  502 -0.19751359354E+02 -0.62867197510E+01  0.15771454400E+03  0.15907079062E+03  0.00000000000E+00 0.  1.
</event>
<event>
 4    1  0.6116490E+003  0.2256218E+02  0.7546771E-02  0.1498070E+00
          2   -1    0    0  501    0  0.00000000000E+00  0.00000000000E+00  0.26573404217E+03  0.26573404217E+03  0.00000000000E+00 0. -1.
         -2   -1    0    0    0  501 -0.00000000000E+00 -0.00000000000E+00 -0.53080351241E+01  0.53080351241E+01  0.00000000000E+00 0.  1.
          2    1    1    2  502    0 -0.17794290096E+02 -0.13871386206E+02  0.23855397270E+03  0.23961855105E+03  0.00000000000E+00 0. -1.
         -2    1    1    2    0  502  0.17794290096E+02  0.13871386206E+02  0.21872034344E+02  0.31423526245E+02  0.00000000000E+00 0.  1.
</event>
<event>
 4    1  0.6116490E+003  0.2855509E+02  0.7546771E-02  0.1432583E+00
          2   -1    0    0  501    0  0.00000000000E+00  0.00000000000E+00  0.72893236403E+03  0.72893236403E+03  0.00000000000E+00 0.  1.
         -2   -1    0    0    0  501 -0.00000000000E+00 -0.00000000000E+00 -0.13367683055E+04  0.13367683055E+04  0.00000000000E+00 0. -1.
          2    1    1    2  502    0  0.25679718619E+02  0.12487798167E+02  0.72850012705E+03  0.72905955049E+03  0.00000000000E+00 0.  1.
         -2    1    1    2    0  502 -0.25679718619E+02 -0.12487798167E+02 -0.13363360686E+04  0.13366411191E+04  0.00000000000E+00 0. -1.
</event>
<event>
 4    1  0.6116490E+003  0.2143422E+02  0.7546771E-02  0.1513155E+00
          2   -1    0    0  501    0  0.00000000000E+00  0.00000000000E+00  0.43058488834E+03  0.43058488834E+03  0.00000000000E+00 0.  1.
         -2   -1    0    0    0  501 -0.00000000000E+00 -0.00000000000E+00 -0.16488919805E+01  0.16488919805E+01  0.00000000000E+00 0.  1.
          2    1    1    2  502    0 -0.17040616057E+02  0.13001653426E+02  0.34285502724E+03  0.34352437365E+03  0.00000000000E+00 0.  1.
         -2    1    1    2    0  502  0.17040616057E+02 -0.13001653426E+02  0.86080969122E+02  0.88709406673E+02  0.00000000000E+00 0.  1.
</event>
<event>
 4    1  0.6116490E+003  0.3550965E+02  0.7546771E-02  0.1377015E+00
          2   -1    0    0  501    0  0.00000000000E+00  0.00000000000E+00  0.16000496616E+04  0.16000496616E+04  0.00000000000E+00 0. -1.
         -2   -1    0    0    0  501 -0.00000000000E+00 -0.00000000000E+00 -0.22750061634E+02  0.22750061634E+02  0.00000000000E+00 0. -1.
          2    1    1    2  502    0 -0.32792576074E+02  0.13622850606E+02  0.15858723976E+04  0.15862699003E+04  0.00000000000E+00 0. -1.
         -2    1    1    2    0  502  0.32792576074E+02 -0.13622850606E+02 -0.85727976406E+01  0.36529822934E+02  0.00000000000E+00 0. -1.
</event>
<event>
 4    1  0.6116490E+003  0.3012844E+02  0.7546771E-02  0.1418483E+00
          2   -1    0    0  501    0  0.00000000000E+00  0.00000000000E+00  0.22185811028E+03  0.22185811028E+03  0.00000000000E+00 0. -1.
         -2   -1    0    0    0  501 -0.00000000000E+00 -0.00000000000E+00 -0.58906209628E+02  0.58906209628E+02  0.00000000000E+00 0. -1.
          2    1    1    2  502    0 -0.76498347693E+01 -0.29141090476E+02  0.21689510752E+03  0.21897764907E+03  0.00000000000E+00 0. -1.
         -2    1    1    2    0  502  0.76498347693E+01  0.29141090476E+02 -0.53943206868E+02  0.61786670839E+02  0.00000000000E+00 0. -1.
</event>
<event>
 4    1  0.6116490E+003  0.2587824E+02  0.7546771E-02  0.1459214E+00
          2   -1    0    0  501    0  0.00000000000E+00  0.00000000000E+00  0.83440714729E+02  0.83440714729E+02  0.00000000000E+00 0.  1.
         -2   -1    0    0    0  501 -0.00000000000E+00 -0.00000000000E+00 -0.28063575008E+02  0.28063575008E+02  0.00000000000E+00 0.  1.
          2    1    1    2  502    0  0.12240624872E+02  0.22800232553E+02  0.74798686488E+02  0.79148765007E+02  0.00000000000E+00 0.  1.
         -2    1    1    2    0  502 -0.12240624872E+02 -0.22800232553E+02 -0.19421546767E+02  0.32355524730E+02  0.00000000000E+00 0.  1.
</event>
<event>
 4    1  0.6116490E+003  0.3945282E+02  0.7546771E-02  0.1351722E+00
          2   -1    0    0  501    0  0.00000000000E+00  0.00000000000E+00  0.28532341824E+03  0.28532341824E+03  0.00000000000E+00 0.  1.
         -2   -1    0    0    0  501 -0.00000000000E+00 -0.00000000000E+00 -0.19570607341E+02  0.19570607341E+02  0.00000000000E+00 0.  1.
          2    1    1    2  502    0 -0.39394217623E+02  0.21495096432E+01  0.26234425669E+03  0.26529424003E+03  0.00000000000E+00 0.  1.
         -2    1    1    2    0  502  0.39394217623E+02 -0.21495096432E+01  0.34085542068E+01  0.39599785550E+02  0.00000000000E+00 0.  1.
</event>
<event>
 4    1  0.6116490E+003  0.2985954E+02  0.7546771E-02  0.1420821E+00
          2   -1    0    0  501    0  0.00000000000E+00  0.00000000000E+00  0.56657428678E+02  0.56657428678E+02  0.00000000000E+00 0.  1.
         -2   -1    0    0    0  501 -0.00000000000E+00 -0.00000000000E+00 -0.21667137470E+02  0.21667137470E+02  0.00000000000E+00 0.  1.
          2    1    1    2  502    0  0.29883436641E+01 -0.29709626879E+02  0.37983935329E+02  0.48315333697E+02  0.00000000000E+00 0.  1.
         -2    1    1    2    0  502 -0.29883436641E+01  0.29709626879E+02 -0.29936441207E+01  0.30009232451E+02  0.00000000000E+00 0.  1.
</event>
<event>
 4    1  0.6116490E+003  0.2087434E+02  0.7546771E-02  0.1521067E+00
          2   -1    0    0  501    0  0.00000000000E+00  0.00000000000E+00  0.60504432882E+01  0.60504432882E+01  0.00000000000E+00 0.  1.
         -2   -1    0    0    0  501 -0.00000000000E+00 -0.00000000000E+00 -0.14551005118E+03  0.14551005118E+03  0.00000000000E+00 0.  1.
          2    1    1    2  502    0 -0.15592224168E+02 -0.13878785353E+02 -0.15874185448E+02  0.26224566746E+02  0.00000000000E+00 0.  1.
         -2    1    1    2    0  502  0.15592224168E+02  0.13878785353E+02 -0.12358542244E+03  0.12533592772E+03  0.00000000000E+00 0.  1.
</event>
<event>
 4    1  0.6116490E+003  0.3095872E+02  0.7546771E-02  0.1411444E+00
          2   -1    0    0  501    0  0.00000000000E+00  0.00000000000E+00  0.94731843550E+01  0.94731843550E+01  0.00000000000E+00 0.  1.
         -2   -1    0    0    0  501 -0.00000000000E+00 -0.00000000000E+00 -0.12515963531E+03  0.12515963531E+03  0.00000000000E+00 0.  1.
          2    1    1    2  502    0 -0.19700940497E+02 -0.23881280755E+02 -0.28374465612E+02  0.41994677350E+02  0.00000000000E+00 0.  1.
         -2    1    1    2    0  502  0.19700940497E+02  0.23881280755E+02 -0.87311985340E+02  0.92638142312E+02  0.00000000000E+00 0.  1.
</event>
<event>
 4    1  0.6116490E+003  0.2013472E+02  0.7546771E-02  0.1531986E+00
          2   -1    0    0  501    0  0.00000000000E+00  0.00000000000E+00  0.10816475646E+04  0.10816475646E+04  0.00000000000E+00 0.  1.
         -2   -1    0    0    0  501 -0.00000000000E+00 -0.00000000000E+00 -0.80780506485E+00  0.80780506485E+00  0.00000000000E+00 0. -1.
          2    1    1    2  502    0 -0.19143211103E+02 -0.62405444918E+01  0.93667117334E+03  0.93688755669E+03  0.00000000000E+00 0.  1.
         -2    1    1    2    0  502  0.19143211103E+02  0.62405444918E+01  0.14416858622E+03  0.14556781299E+03  0.00000000000E+00 0. -1.
</event>
<event>
 4    1  0.6116490E+003  0.2042273E+02  0.7546771E-02  0.1527669E+00
          2   -1    0    0  501    0  0.00000000000E+00  0.00000000000E+00  0.31272670171E+02  0.31272670171E+02  0.00000000000E+00 0.  1.
         -2   -1    0    0    0  501 -0.00000000000E+00 -0.00000000000E+00 -0.56006437183E+02  0.56006437183E+02  0.00000000000E+00 0. -1.
          2    1    1    2  502    0  0.18376263329E+02 -0.89107104932E+01  0.25723829199E+02  0.32845139733E+02  0.00000000000E+00 0.  1.
         -2    1    1    2    0  502 -0.18376263329E+02  0.89107104932E+01 -0.50457596212E+02  0.54433967620E+02  0.00000000000E+00 0. -1.
</event>
<event>
 4    1  0.6116490E+003  0.2176793E+02  0.7546771E-02  0.1508577E+00
          2   -1    0    0  501    0  0.00000000000E+00  0.00000000000E+00  0.12674582140E+04  0.12674582140E+04  0.00000000000E+00 0.  1.
         -2   -1    0    0    0  501 -0.00000000000E+00 -0.00000000000E+00 -0.40036065934E+00  0.40036065934E+00  0.00000000000E+00 0.  1.
          2    1    1    2  502    0  0.18811168163E+02 -0.10953670543E+02  0.79664678766E+03  0.79694413056E+03  0.00000000000E+00 0.  1.
         -2    1    1    2    0  502 -0.18811168163E+02  0.10953670543E+02  0.47041106569E+03  0.47091444411E+03  0.00000000000E+00 0.  1.
</event>
<event>
 4    1  0.6116490E+003  0.2081277E+02  0.7546771E-02  0.1521955E+00
          2   -1    0    0  501    0  0.00000000000E+00  0.00000000000E+00  0.14732983762E+04  0.14732983762E+04  0.00000000000E+00 0. -1.
         -2   -1    0    0    0  501 -0.00000000000E+00 -0.00000000000E+00 -0.21331199779E+03  0.21331199779E+03  0.00000000000E+00 0. -1.
          2    1    1    2  502    0 -0.16743426121E+02 -0.12362412376E+02  0.14727169984E+04  0.14728640565E+04  0.00000000000E+00 0. -1.
         -2    1    1    2    0  502  0.16743426121E+02  0.12362412376E+02 -0.21273061999E+03  0.21374631748E+03  0.00000000000E+00 0. -1.
</event>
<event>
 4    1  0.6116490E+003  0.2481364E+02  0.7546771E-02  0.1470899E+00
          2   -1    0    0  501    0  0.00000000000E+00  0.00000000000E+00  0.18157323623E+03  0.18157323623E+03  0.00000000000E+00 0.  1.
         -2   -1    0    0    0  501 -0.00000000000E+00 -0.00000000000E+00 -0.57734130017E+01  0.57734130017E+01  0.00000000000E+00 0.  1.
          2    1    1    2  502    0  0.24295408376E+02 -0.50447818374E+01  0.14807368124E+03  0.15013837540E+03  0.00000000000E+00 0.  1.
         -2    1    1    2    0  502 -0.24295408376E+02  0.50447818374E+01  0.27726141988E+02  0.37208273831E+02  0.00000000000E+00 0.  1.
</event>
<event>
 4    1  0.6116490E+003  0.2327070E+02  0.7546771E-02  0.1489127E+00
          2   -1    0    0  501    0  0.00000000000E+00  0.00000000000E+00  0.13747986901E+03  0.13747986901E+03  0.00000000000E+00 0.  1.
         -2   -1    0    0    0  501 -0.00000000000E+00 -0.00000000000E+00 -0.53340893286E+01  0.53340893286E+01  0.00000000000E+00 0. -1.
          2    1    1    2  502    0 -0.23156190975E+02 -0.23057168460E+01  0.10259200423E+03  0.10519812186E+03  0.00000000000E+00 0.  1.
         -2    1    1    2    0  502  0.23156190975E+02  0.23057168460E+01  0.29553775452E+02  0.37615836480E+02  0.00000000000E+00 0. -1.
</event>
<event>
 4    1  0.6116490E+003  0.2022867E+02  0.7546771E-02  0.1530568E+00
          2   -1    0    0  501    0  0.00000000000E+00  0.00000000000E+00  0.79091131889E+03  0.79091131889E+03  0.00000000000E+00 0. -1.
         -2   -1    0    0    0  501 -0.00000000000E+00 -0.00000000000E+00 -0.55054973594E+00  0.55054973594E+00  0.00000000000E+00 0. -1.
          2    1    1    2  502    0 -0.19435813867E+02 -0.56078773300E+01  0.49231942937E+03  0.49273483709E+03  0.00000000000E+00 0. -1.
         -2    1    1    2    0  502  0.19435813867E+02  0.56078773300E+01  0.29804133978E+03  0.29872703153E+03  0.00000000000E+00 0. -1.
</event>
<event>
 4    1  0.6116490E+003  0.2171902E+02  0.7546771E-02  0.1509242E+00
          2   -1    0    0  501    0  0.00000000000E+00  0.00000000000E+00  0.12568729485E+01  0.12568729485E+01  0.00000000000E+00 0. -1.
         -2   -1    0    0    0  501 -0.00000000000E+00 -0.00000000000E+00 -0.88378268422E+03  0.88378268422E+03  0.00000000000E+00 0. -1.
          2    1    1    2  502    0  0.18516823260E+02 -0.11350907228E+02 -0.10560711354E+03  0.10781733752E+03  0.00000000000E+00 0. -1.
         -2    1    1    2    0  502 -0.18516823260E+02  0.11350907228E+02 -0.77691869773E+03  0.77722221965E+03  0.00000000000E+00 0. -1.
</event>
<event>
 4    1  0.6116490E+003  0.2287482E+02  0.7546771E-02  0.1494076E+00
          2   -1    0    0  501    0  0.00000000000E+00  0.00000000000E+00  0.15070955337E+04  0.15070955337E+04  0.00000000000E+00 0. -1.
         -2   -1    0    0    0  501 -0.00000000000E+00 -0.00000000000E+00 -0.31784112042E+02  0.31784112042E+02  0.00000000000E+00 0.  1.
          2    1    1    2  502    0 -0.17429559327E+02 -0.14814446618E+02  0.15028814802E+04  0.15030555548E+04  0.00000000000E+00 0. -1.
         -2    1    1    2    0  502  0.17429559327E+02  0.14814446618E+02 -0.27570058502E+02  0.35824090955E+02  0.00000000000E+00 0.  1.
</event>
<event>
 4    1  0.6116490E+003  0.2083610E+02  0.7546771E-02  0.1521618E+00
          2   -1    0    0  501    0  0.00000000000E+00  0.00000000000E+00  0.67353041217E+03  0.67353041217E+03  0.00000000000E+00 0. -1.
         -2   -1    0    0    0  501 -0.00000000000E+00 -0.00000000000E+00 -0.11504657920E+01  0.11504657920E+01  0.00000000000E+00 0.  1.
          2    1    1    2  502    0  0.48155922210E+01 -0.20271979834E+02  0.55988612718E+03  0.56027369964E+03  0.00000000000E+00 0. -1.
         -2    1    1    2    0  502 -0.48155922210E+01  0.20271979834E+02  0.11249381919E+03  0.11440717832E+03  0.00000000000E+00 0.  1.
</event>
<event>
 4    1  0.6116490E+003  0.2290472E+02  0.7546771E-02  0.1493698E+00
          2   -1    0    0  501    0  0.00000000000E+00  0.00000000000E+00  0.57875957178E+03  0.57875957178E+03  0.00000000000E+00 0. -1.
         -2   -1    0    0    0  501 -0.00000000000E+00 -0.00000000000E+00 -0.59196139948E+02  0.59196139948E+02  0.00000000000E+00 0. -1.
          2    1    1    2  502    0 -0.21178277593E+01 -0.22806604843E+02  0.57630790563E+03  0.57676288760E+03  0.00000000000E+00 0. -1.
         -2    1    1    2    0  502  0.21178277593E+01  0.22806604843E+02 -0.56744473796E+02  0.61192824132E+02  0.00000000000E+00 0. -1.
</event>
<event>
 4    1  0.6116490E+003  0.2752082E+02  0.7546771E-02  0.1442445E+00
          2   -1    0    0  501    0  0.00000000000E+00  0.00000000000E+00  0.79865200366E+01  0.79865200366E+01  0.00000000000E+00 0.  1.
         -2   -1    0    0    0  501 -0.00000000000E+00 -0.00000000000E+00 -0.31990826418E+03  0.31990826418E+03  0.00000000000E+00 0. -1.
          2    1    1    2  502    0 -0.27380675573E+02 -0.27737873782E+01 -0.18444469309E+02  0.33129952299E+02  0.00000000000E+00 0.  1.
         -2    1    1    2    0  502  0.27380675573E+02  0.27737873782E+01 -0.29347727483E+03  0.29476483191E+03  0.00000000000E+00 0. -1.
</event>
<event>
 4    1  0.6116490E+003  0.2050211E+02  0.7546771E-02  0.1526493E+00
          2   -1    0    0  501    0  0.00000000000E+00  0.00000000000E+00  0.14641594585E+01  0.14641594585E+01  0.00000000000E+00 0.  1.
         -2   -1    0    0    0  501 -0.00000000000E+00 -0.00000000000E+00 -0.30262562740E+03  0.30262562740E+03  0.00000000000E+00 0.  1.
          2    1    1    2  502    0 -0.17252484393E+02 -0.11076463428E+02 -0.18503729651E+03  0.18616964672E+03  0.00000000000E+00 0.  1.
         -2    1    1    2    0  502  0.17252484393E+02  0.11076463428E+02 -0.11612417143E+03  0.11792014014E+03  0.00000000000E+00 0.  1.
</event>
<event>
 4    1  0.6116490E+003  0.2085108E+02  0.7546771E-02  0.1521402E+00
          2   -1    0    0  501    0  0.00000000000E+00  0.00000000000E+00  0.11583348465E+04  0.11583348465E+04  0.00000000000E+00 0. -1.
         -2   -1    0    0    0  501 -0.00000000000E+00 -0.00000000000E+00 -0.56492374255E+01  0.56492374255E+01  0.00000000000E+00 0. -1.
          2    1    1    2  502    0 -0.11579333707E+02 -0.17340314886E+02  0.11386686434E+04  0.11388595378E+04  0.00000000000E+00 0. -1.
         -2    1    1    2    0  502  0.11579333707E+02  0.17340314886E+02  0.14016965705E+02  0.25124546106E+02  0.00000000000E+00 0. -1.
</event>
<event>
 4    1  0.6116490E+003  0.2535289E+02  0.7546771E-02  0.1464894E+00
          2   -1    0    0  501    0  0.00000000000E+00  0.00000000000E+00  0.66626935781E+03  0.66626935781E+03  0.00000000000E+00 0. -1.
         -2   -1    0    0    0  501 -0.00000000000E+00 -0.00000000000E+00 -0.15416455330E+02  0.15416455330E+02  0.00000000000E+00 0.  1.
          2    1    1    2  502    0  0.17336680606E+01  0.25293550027E+02  0.65543247111E+03  0.65592262765E+03  0.00000000000E+00 0. -1.
         -2    1    1    2    0  502 -0.17336680606E+01 -0.25293550027E+02 -0.45795686272E+01  0.25763185493E+02  0.00000000000E+00 0.  1.
</event>
<event>
 4    1  0.6116490E+003  0.3219253E+02  0.7546771E-02  0.1401453E+00
          2   -1    0    0  501    0  0.00000000000E+00  0.00000000000E+00  0.73200613444E+03  0.73200613444E+03  0.00000000000E+00 0.  1.
         -2   -1    0    0    0  501 -0.00000000000E+00 -0.00000000000E+00 -0.81202430543E+01  0.81202430543E+01  0.00000000000E+00 0.  1.
          2    1    1    2  502    0  0.35450015063E+01 -0.31996752457E+02  0.69820153979E+03  0.69894330913E+03  0.00000000000E+00 0.  1.
         -2    1    1    2    0  502 -0.35450015063E+01  0.31996752457E+02  0.25684351594E+02  0.41183068369E+02  0.00000000000E+00 0.  1.
</event>
<event>
 4    1  0.6116490E+003  0.2223385E+02  0.7546771E-02  0.1502349E+00
          2   -1    0    0  501    0  0.00000000000E+00  0.00000000000E+00  0.83537722652E+02  0.83537722652E+02  0.00000000000E+00 0.  1.
         -2   -1    0    0    0  501 -0.00000000000E+00 -0.00000000000E+00 -0.29123645877E+02  0.29123645877E+02  0.00000000000E+00 0.  1.
          2    1    1    2  502    0  0.21655235594E+02  0.50393347504E+01  0.77490200853E+02  0.80616842853E+02  0.00000000000E+00 0.  1.
         -2    1    1    2    0  502 -0.21655235594E+02 -0.50393347504E+01 -0.23076124078E+02  0.32044525676E+02  0.00000000000E+00 0.  1.
</event>
<event>
 4    1  0.6116490E+003  0.2098479E+02  0.7546771E-02  0.1519482E+00
          2   -1    0    0  501    0  0.00000000000E+00  0.00000000000E+00  0.32482489500E+03  0.32482489500E+03  0.00000000000E+00 0.  1.
         -2   -1    0    0    0  501 -0.00000000000E+00 -0.00000000000E+00 -0.44935562849E+02  0.44935562849E+02  0.00000000000E+00 0.  1.
          2    1    1    2  502    0  0.19253620672E+02 -0.83462328898E+01  0.32201465342E+03  0.32269768907E+03  0.00000000000E+00 0.  1.
         -2    1    1    2    0  502 -0.19253620672E+02  0.83462328898E+01 -0.42125321275E+02  0.47062768776E+02  0.00000000000E+00 0.  1.
</event>
<event>
 4    1  0.6116490E+003  0.2402794E+02  0.7546771E-02  0.1479978E+00
          2   -1    0    0  501    0  0.00000000000E+00  0.00000000000E+00  0.57500228477E+03  0.57500228477E+03  0.00000000000E+00 0. -1.
         -2   -1    0    0    0  501 -0.00000000000E+00 -0.00000000000E+00 -0.13963863594E+02  0.13963863594E+02  0.00000000000E+00 0. -1.
          2    1    1    2  502    0 -0.18745287228E+02  0.15031837108E+02  0.56421742335E+03  0.56472882229E+03  0.00000000000E+00 0. -1.
         -2    1    1    2    0  502  0.18745287228E+02 -0.15031837108E+02 -0.31790021745E+01  0.24237326068E+02  0.00000000000E+00 0. -1.
</event>
<event>
 4    1  0.6116490E+003  0.4082918E+02  0.7546771E-02  0.1343694E+00
          2   -1    0    0  501    0  0.00000000000E+00  0.00000000000E+00  0.12217565680E+03  0.12217565680E+03  0.00000000000E+00 0. -1.
         -2   -1    0    0    0  501 -0.00000000000E+00 -0.00000000000E+00 -0.20422176047E+02  0.20422176047E+02  0.00000000000E+00 0. -1.
          2    1    1    2  502    0  0.18550903921E+02  0.36371503593E+02  0.91951329448E+02  0.10060849515E+03  0.00000000000E+00 0. -1.
         -2    1    1    2    0  502 -0.18550903921E+02 -0.36371503593E+02  0.98021513085E+01  0.41989337696E+02  0.00000000000E+00 0. -1.
</event>
<event>
 4    1  0.6116490E+003  0.3125808E+02  0.7546771E-02  0.1408970E+00
          2   -1    0    0  501    0  0.00000000000E+00  0.00000000000E+00  0.30098055960E+03  0.30098055960E+03  0.00000000000E+00 0. -1.
         -2   -1    0    0    0  501 -0.00000000000E+00 -0.00000000000E+00 -0.25589152596E+02  0.25589152596E+02  0.00000000000E+00 0.  1.
          2    1    1    2  502    0 -0.30635882131E+02 -0.62056706528E+01  0.29027213235E+03  0.29195030133E+03  0.00000000000E+00 0. -1.
         -2    1    1    2    0  502  0.30635882131E+02  0.62056706528E+01 -0.14880725349E+02  0.34619410872E+02  0.00000000000E+00 0.  1.
</event>
<event>
 4    1  0.6116490E+003  0.2284363E+02  0.7546771E-02  0.1494471E+00
          2   -1    0    0  501    0  0.00000000000E+00  0.00000000000E+00  0.53562705058E+03  0.53562705058E+03  0.00000000000E+00 0.  1.
         -2   -1    0    0    0  501 -0.00000000000E+00 -0.00000000000E+00 -0.20339670786E+02  0.20339670786E+02  0.00000000000E+00 0. -1.
          2    1    1    2  502    0 -0.22700654417E+02 -0.25518462454E+01  0.52888783575E+03  0.52938093508E+03  0.00000000000E+00 0.  1.
         -2    1    1    2    0  502  0.22700654417E+02  0.25518462454E+01 -0.13600455950E+02  0.26585786283E+02  0.00000000000E+00 0. -1.
</event>
<event>
 4    1  0.6116490E+003  0.2303573E+02  0.7546771E-02  0.1492050E+00
          2   -1    0    0  501    0  0.00000000000E+00  0.00000000000E+00  0.54187406220E+03  0.54187406220E+03  0.00000000000E+00 0.  1.
         -2   -1    0    0    0  501 -0.00000000000E+00 -0.00000000000E+00 -0.10579484882E+02  0.10579484882E+02  0.00000000000E+00 0.  1.
          2    1    1    2  502    0  0.15019905491E+02  0.17465608628E+02  0.52877938045E+03  0.52928090673E+03  0.00000000000E+00 0.  1.
         -2    1    1    2    0  502 -0.15019905491E+02 -0.17465608628E+02  0.25151968759E+01  0.23172640355E+02  0.00000000000E+00 0.  1.
</event>
<event>
 4    1  0.6116490E+003  0.2482403E+02  0.7546771E-02  0.1470782E+00
          2   -1    0    0  501    0  0.00000000000E+00  0.00000000000E+00  0.11747300436E+04  0.11747300436E+04  0.00000000000E+00 0.  1.
         -2   -1    0    0    0  501 -0.00000000000E+00 -0.00000000000E+00 -0.11612451590E+01  0.11612451590E+01  0.00000000000E+00 0. -1.
          2    1    1    2  502    0 -0.35188632112E+01 -0.24573356711E+02  0.10221288128E+04  0.10224302138E+04  0.00000000000E+00 0.  1.
         -2    1    1    2    0  502  0.35188632112E+01  0.24573356711E+02  0.15143998569E+03  0.15346107495E+03  0.00000000000E+00 0. -1.
</event>
<event>
 4    1  0.6116490E+003  0.2032439E+02  0.7546771E-02  0.1529133E+00
          2   -1    0    0  501    0  0.00000000000E+00  0.00000000000E+00  0.18972980336E+02  0.18972980336E+02  0.00000000000E+00 0. -1.
         -2   -1    0    0    0  501 -0.00000000000E+00 -0.00000000000E+00 -0.31555245301E+03  0.31555245301E+03  0.00000000000E+00 0. -1.
          2    1    1    2  502    0 -0.37769880001E+01 -0.19970356012E+02  0.13099577061E+02  0.24180150471E+02  0.00000000000E+00 0. -1.
         -2    1    1    2    0  502  0.37769880001E+01  0.19970356012E+02 -0.30967904973E+03  0.31034528287E+03  0.00000000000E+00 0. -1.
</event>
<event>
 4    1  0.6116490E+003  0.2407553E+02  0.7546771E-02  0.1479417E+00
          2   -1    0    0  501    0  0.00000000000E+00  0.00000000000E+00  0.12654709089E+02  0.12654709089E+02  0.00000000000E+00 0.  1.
         -2   -1    0    0    0  501 -0.00000000000E+00 -0.00000000000E+00 -0.10126781959E+03  0.10126781959E+03  0.00000000000E+00 0. -1.
          2    1    1    2  502    0  0.42891621752E+01  0.23690383597E+02 -0.21514324769E+01  0.24171467660E+02  0.00000000000E+00 0.  1.
         -2    1    1    2    0  502 -0.42891621752E+01 -0.23690383597E+02 -0.86461678020E+02  0.89751061014E+02  0.00000000000E+00 0. -1.
</event>
<event>
 4    1  0.6116490E+003  0.2366436E+02  0.7546771E-02  0.1484320E+00
          2   -1    0    0  501    0  0.00000000000E+00  0.00000000000E+00  0.70681460263E+01  0.70681460263E+01  0.00000000000E+00 0.  1.
         -2   -1    0    0    0  501 -0.00000000000E+00 -0.00000000000E+00 -0.20145106279E+03  0.20145106279E+03  0.00000000000E+00 0.  1.
          2    1    1    2  502    0 -0.21084224569E+02 -0.10745113694E+02 -0.15982089950E+02  0.28555720848E+02  0.00000000000E+00 0.  1.
         -2    1    1    2    0  502  0.21084224569E+02  0.10745113694E+02 -0.17840082681E+03  0.17996348797E+03  0.00000000000E+00 0.  1.
</event>
<event>
 4    1  0.6116490E+003  0.2228745E+02  0.7546771E-02  0.1501645E+00
          2   -1    0    0  501    0  0.00000000000E+00  0.00000000000E+00  0.17379611291E+03  0.17379611291E+03  0.00000000000E+00 0. -1.
         -2   -1    0    0    0  501 -0.00000000000E+00 -0.00000000000E+00 -0.30494719941E+03  0.30494719941E+03  0.00000000000E+00 0.  1.
          2    1    1    2  502    0 -0.13113149218E+02 -0.18021540376E+02  0.17267171471E+03  0.17410414028E+03  0.00000000000E+00 0. -1.
         -2    1    1    2    0  502  0.13113149218E+02  0.18021540376E+02 -0.30382280122E+03  0.30463917204E+03  0.00000000000E+00 0.  1.
</event>
<event>
 4    1  0.6116490E+003  0.2676280E+02  0.7546771E-02  0.1450005E+00
          2   -1    0    0  501    0  0.00000000000E+00  0.00000000000E+00  0.68486195040E+02  0.68486195040E+02  0.00000000000E+00 0.  1.
         -2   -1    0    0    0  501 -0.00000000000E+00 -0.00000000000E+00 -0.25138090012E+02  0.25138090012E+02  0.00000000000E+00 0.  1.
          2    1    1    2  502    0 -0.11082047925E+02  0.24360539520E+02  0.57446827113E+02  0.63374960492E+02  0.00000000000E+00 0.  1.
         -2    1    1    2    0  502  0.11082047925E+02 -0.24360539520E+02 -0.14098722085E+02  0.30249324560E+02  0.00000000000E+00 0.  1.
</event>
<event>
 4    1  0.6116490E+003  0.5248624E+02  0.7546771E-02  0.1287738E+00
          2   -1    0    0  501    0  0.00000000000E+00  0.00000000000E+00  0.12305742304E+04  0.12305742304E+04  0.00000000000E+00 0.  1.
         -2   -1    0    0    0  501 -0.00000000000E+00 -0.00000000000E+00 -0.16144763230E+02  0.16144763230E+02  0.00000000000E+00 0. -1.
          2    1    1    2  502    0 -0.37540666080E+02  0.36681106478E+02  0.11857447174E+04  0.11869057839E+04  0.00000000000E+00 0.  1.
         -2    1    1    2    0  502  0.37540666080E+02 -0.36681106478E+02  0.28684749798E+02  0.59813209688E+02  0.00000000000E+00 0. -1.
</event>
<event>
 4    1  0.9252623E+003  0.2012955E+02  0.7546771E-02  0.1532064E+00
          2   -1    0    0  501    0  0.00000000000E+00  0.00000000000E+00  0.62290830668E+03  0.62290830668E+03  0.00000000000E+00 0. -1.
         -2   -1    0    0    0  501 -0.00000000000E+00 -0.00000000000E+00 -0.10433115227E+03  0.10433115227E+03  0.00000000000E+00 0. -1.
          2    1    1    2  502    0  0.98351501320E+01 -0.17563279400E+02  0.62177296607E+03  0.62209872230E+03  0.00000000000E+00 0. -1.
         -2    1    1    2    0  502 -0.98351501320E+01  0.17563279400E+02 -0.10319581165E+03  0.10514073665E+03  0.00000000000E+00 0. -1.
</event>
<event>
 4    1  0.6116490E+003  0.2013203E+02  0.7546771E-02  0.1532027E+00
          2   -1    0    0  501    0  0.00000000000E+00  0.00000000000E+00  0.14681466353E+04  0.14681466353E+04  0.00000000000E+00 0. -1.
         -2   -1    0    0    0  501 -0.00000000000E+00 -0.00000000000E+00 -0.77360579196E+00  0.77360579196E+00  0.00000000000E+00 0.  1.
          2    1    1    2  502    0 -0.53468653741E+01 -0.19409005103E+02  0.13226987696E+04  0.13228519696E+04  0.00000000000E+00 0. -1.
         -2    1    1    2    0  502  0.53468653741E+01  0.19409005103E+02  0.14467425991E+03  0.14606827147E+03  0.00000000000E+00 0.  1.
</event>
<event>
 4    1  0.6116490E+003  0.2399619E+02  0.7546771E-02  0.1480354E+00
          2   -1    0    0  501    0  0.00000000000E+00  0.00000000000E+00  0.15537867398E+02  0.15537867398E+02  0.00000000000E+00 0. -1.
         -2   -1    0    0    0  501 -0.00000000000E+00 -0.00000000000E+00 -0.46758074909E+03  0.46758074909E+03  0.00000000000E+00 0. -1.
          2    1    1    2  502    0  0.53571423966E+01  0.23390555100E+02  0.57676753608E+01  0.24679609430E+02  0.00000000000E+00 0. -1.
         -2    1    1    2    0  502 -0.53571423966E+01 -0.23390555100E+02 -0.45781055706E+03  0.45843900706E+03  0.00000000000E+00 0. -1.
</event>
<event>
 4    1  0.6116490E+003  0.3038521E+02  0.7546771E-02  0.1416278E+00
          2   -1    0    0  501    0  0.00000000000E+00  0.00000000000E+00  0.15772876339E+02  0.15772876339E+02  0.00000000000E+00 0.  1.
         -2   -1    0    0    0  501 -0.00000000000E+00 -0.00000000000E+00 -0.16334928491E+03  0.16334928491E+03  0.00000000000E+00 0.  1.
          2    1    1    2  502    0 -0.25140646861E+02  0.17064844536E+02 -0.20465304234E+01  0.30454052775E+02  0.00000000000E+00 0.  1.
         -2    1    1    2    0  502  0.25140646861E+02 -0.17064844536E+02 -0.14552987815E+03  0.14866810848E+03  0.00000000000E+00 0.  1.
</event>
<event>
 4    1  0.6116490E+003  0.3231467E+02  0.7546771E-02  0.1400493E+00
          2   -1    0    0  501    0  0.00000000000E+00  0.00000000000E+00  0.10453708663E+04  0.10453708663E+04  0.00000000000E+00 0. -1.
         -2   -1    0    0    0  501 -0.00000000000E+00 -0.00000000000E+00 -0.10789894695E+01  0.10789894695E+01  0.00000000000E+00 0. -1.
          2    1    1    2  502    0  0.31986534754E+02  0.45934000562E+01  0.66468176190E+03  0.66546681535E+03  0.00000000000E+00 0. -1.
         -2    1    1    2    0  502 -0.31986534754E+02 -0.45934000562E+01  0.37961011491E+03  0.38098304040E+03  0.00000000000E+00 0. -1.
</event>
<event>
 4    1  0.6116490E+003  0.3336483E+02  0.7546771E-02  0.1392438E+00
          2   -1    0    0  501    0  0.00000000000E+00  0.00000000000E+00  0.97974715018E+03  0.97974715018E+03  0.00000000000E+00 0.  1.
         -2   -1    0    0    0  501 -0.00000000000E+00 -0.00000000000E+00 -0.27487602224E+01  0.27487602224E+01  0.00000000000E+00 0.  1.
          2    1    1    2  502    0 -0.27516987204E+02  0.18868682004E+02  0.86475839905E+03  0.86540181446E+03  0.00000000000E+00 0.  1.
         -2    1    1    2    0  502  0.27516987204E+02 -0.18868682004E+02  0.11223999091E+03  0.11709409594E+03  0.00000000000E+00 0.  1.
</event>
<event>
 4    1  0.6116490E+003  0.3688969E+02  0.7546771E-02  0.1367744E+00
          2   -1    0    0  501    0  0.00000000000E+00  0.00000000000E+00  0.65255624786E+03  0.65255624786E+03  0.00000000000E+00 0.  1.
         -2   -1    0    0    0  501 -0.00000000000E+00 -0.00000000000E+00 -0.34984404737E+01  0.34984404737E+01  0.00000000000E+00 0.  1.
          2    1    1    2  502    0 -0.11623436974E+02 -0.35010641728E+02  0.53300107860E+03  0.53427614499E+03  0.00000000000E+00 0.  1.
         -2    1    1    2    0  502  0.11623436974E+02  0.35010641728E+02  0.11605672879E+03  0.12177854334E+03  0.00000000000E+00 0.  1.
</event>
<event>
 4    1  0.6116490E+003  0.3244674E+02  0.7546771E-02  0.1399460E+00
          2   -1    0    0  501    0  0.00000000000E+00  0.00000000000E+00  0.16220583855E+03  0.16220583855E+03  0.00000000000E+00 0. -1.
         -2   -1    0    0    0  501 -0.00000000000E+00 -0.00000000000E+00 -0.52981593848E+02  0.52981593848E+02  0.00000000000E+00 0. -1.
          2    1    1    2  502    0 -0.79625143360E+01  0.31454557661E+02  0.15540026874E+03  0.15875148615E+03  0.00000000000E+00 0. -1.
         -2    1    1    2    0  502  0.79625143360E+01 -0.31454557661E+02 -0.46176024039E+02  0.56435946242E+02  0.00000000000E+00 0. -1.
</event>
<event>
 4    1  0.6116490E+003  0.3923890E+02  0.7546771E-02  0.1353004E+00
          2   -1    0    0  501    0  0.00000000000E+00  0.00000000000E+00  0.76156928553E+03  0.76156928553E+03  0.00000000000E+00 0. -1.
         -2   -1    0    0    0  501 -0.00000000000E+00 -0.00000000000E+00 -0.87931519588E+01  0.87931519588E+01  0.00000000000E+00 0.  1.
          2    1    1    2  502    0 -0.69082083686E+01 -0.38625996585E+02  0.71440044588E+03  0.71547724494E+03  0.00000000000E+00 0. -1.
         -2    1    1    2    0  502  0.69082083686E+01  0.38625996585E+02  0.38375687687E+02  0.54885192544E+02  0.00000000000E+00 0.  1.
</event>
<event>
 4    1  0.6116490E+003  0.2615962E+02  0.7546771E-02  0.1456237E+00
          2   -1    0    0  501    0  0.00000000000E+00  0.00000000000E+00  0.64736175579E+03  0.64736175579E+03  0.00000000000E+00 0. -1.
         -2   -1    0    0    0  501 -0.00000000000E+00 -0.00000000000E+00 -0.15225315074E+01  0.15225315074E+01  0.00000000000E+00 0. -1.
          2    1    1    2  502    0 -0.25162135123E+02  0.71549080654E+01  0.50230301824E+03  0.50298374516E+03  0.00000000000E+00 0. -1.
         -2    1    1    2    0  502  0.25162135123E+02 -0.71549080654E+01  0.14353620604E+03  0.14590054214E+03  0.00000000000E+00 0. -1.
</event>
<event>
 4    1  0.6116490E+003  0.2017846E+02  0.7546771E-02  0.1531325E+00
          2   -1    0    0  501    0  0.00000000000E+00  0.00000000000E+00  0.75360223360E+02  0.75360223360E+02  0.00000000000E+00 0.  1.
         -2   -1    0    0    0  501 -0.00000000000E+00 -0.00000000000E+00 -0.42916574819E+02  0.42916574819E+02  0.00000000000E+00 0. -1.
          2    1    1    2  502    0 -0.19390448011E+01  0.20085075198E+02  0.71512430395E+02  0.74304763248E+02  0.00000000000E+00 0.  1.
         -2    1    1    2    0  502  0.19390448011E+01 -0.20085075198E+02 -0.39068781854E+02  0.43972034931E+02  0.00000000000E+00 0. -1.
</event>
<event>
 4    1  0.6116490E+003  0.2072181E+02  0.7546771E-02  0.1523274E+00
          2   -1    0    0  501    0  0.00000000000E+00  0.00000000000E+00  0.58452674209E+03  0.58452674209E+03  0.00000000000E+00 0.  1.
         -2   -1    0    0    0  501 -0.00000000000E+00 -0.00000000000E+00 -0.93009720552E+00  0.93009720552E+00  0.00000000000E+00 0. -1.
          2    1    1    2  502    0 -0.19764062887E+02 -0.62269755892E+01  0.42600399641E+03  0.42650767680E+03  0.00000000000E+00 0.  1.
         -2    1    1    2    0  502  0.19764062887E+02  0.62269755892E+01  0.15759264847E+03  0.15894916250E+03  0.00000000000E+00 0. -1.
</event>
<event>
 4    1  0.6116490E+003  0.2231133E+02  0.7546771E-02  0.1501332E+00
          2   -1    0    0  501    0  0.00000000000E+00  0.00000000000E+00  0.15429254277E+04  0.15429254277E+04  0.00000000000E+00 0. -1.
         -2   -1    0    0    0  501 -0.00000000000E+00 -0.00000000000E+00 -0.10208662030E+02  0.10208662030E+02  0.00000000000E+00 0.  1.
          2    1    1    2  502    0 -0.19995238523E+02  0.98987724329E+01  0.15305557419E+04  0.15307183524E+04  0.00000000000E+00 0. -1.
         -2    1    1    2    0  502  0.19995238523E+02 -0.98987724329E+01  0.21610238245E+01  0.22415737401E+02  0.00000000000E+00 0.  1.
</event>
<event>
 4    1  0.6116490E+003  0.2254738E+02  0.7546771E-02  0.1498261E+00
          2   -1    0    0  501    0  0.00000000000E+00  0.00000000000E+00  0.40634029498E+03  0.40634029498E+03  0.00000000000E+00 0.  1.
         -2   -1    0    0    0  501 -0.00000000000E+00 -0.00000000000E+00 -0.28807667465E+01  0.28807667465E+01  0.00000000000E+00 0.  1.
          2    1    1    2  502    0 -0.20807936739E+02  0.86841196628E+01  0.35562297449E+03  0.35633703730E+03  0.00000000000E+00 0.  1.
         -2    1    1    2    0  502  0.20807936739E+02 -0.86841196628E+01  0.47836553744E+02  0.52884024429E+02  0.00000000000E+00 0.  1.
</event>
<event>
 4    1  0.6116490E+003  0.4233310E+02  0.7546771E-02  0.1335331E+00
          2   -1    0    0  501    0  0.00000000000E+00  0.00000000000E+00  0.31415103957E+02  0.31415103957E+02  0.00000000000E+00 0. -1.
         -2   -1    0    0    0  501 -0.00000000000E+00 -0.00000000000E+00 -0.14777748322E+03  0.14777748322E+03  0.00000000000E+00 0.  1.
          2    1    1    2  502    0  0.49172763288E+01  0.42046538679E+02  0.12023489564E+02  0.44007446219E+02  0.00000000000E+00 0. -1.
         -2    1    1    2    0  502 -0.49172763288E+01 -0.42046538679E+02 -0.12838586883E+03  0.13518514096E+03  0.00000000000E+00 0.  1.
</event>
<event>
 4    1  0.6116490E+003  0.3211718E+02  0.7546771E-02  0.1402048E+00
          2   -1    0    0  501    0  0.00000000000E+00  0.00000000000E+00  0.10603658006E+03  0.10603658006E+03  0.00000000000E+00 0. -1.
         -2   -1    0    0    0  501 -0.00000000000E+00 -0.00000000000E+00 -0.57658736538E+02  0.57658736538E+02  0.00000000000E+00 0. -1.
          2    1    1    2  502    0 -0.31821529815E+02 -0.43478051617E+01  0.98813382446E+02  0.10390186582E+03  0.00000000000E+00 0. -1.
         -2    1    1    2    0  502  0.31821529815E+02  0.43478051617E+01 -0.50435538926E+02  0.59793450781E+02  0.00000000000E+00 0. -1.
</event>
<event>
 4    1  0.6116490E+003  0.2058889E+02  0.7546771E-02  0.1525216E+00
          2   -1    0    0  501    0  0.00000000000E+00  0.00000000000E+00  0.30438344573E+02  0.30438344573E+02  0.00000000000E+00 0.  1.
         -2   -1    0    0    0  501 -0.00000000000E+00 -0.00000000000E+00 -0.10958827151E+04  0.10958827151E+04  0.00000000000E+00 0. -1.
          2    1    1    2  502    0  0.19422227117E+02 -0.68322468502E+01  0.26848551001E+02  0.33834112876E+02  0.00000000000E+00 0.  1.
         -2    1    1    2    0  502 -0.19422227117E+02  0.68322468502E+01 -0.10922929215E+04  0.10924869468E+04  0.00000000000E+00 0. -1.
</event>
<event>
 4    1  0.6116490E+003  0.2541280E+02  0.7546771E-02  0.1464238E+00
          2   -1    0    0  501    0  0.00000000000E+00  0.00000000000E+00  0.52465323097E+03  0.52465323097E+03  0.00000000000E+00 0.  1.
         -2   -1    0    0    0  501 -0.00000000000E+00 -0.00000000000E+00 -0.18400234607E+01  0.18400234607E+01  0.00000000000E+00 0.  1.
          2    1    1    2  502    0  0.25330249896E+02  0.20466196003E+01  0.41286519481E+03  0.41364656326E+03  0.00000000000E+00 0.  1.
         -2    1    1    2    0  502 -0.25330249896E+02 -0.20466196003E+01  0.10994801270E+03  0.11284669117E+03  0.00000000000E+00 0.  1.
</event>
<event>
 4    1  0.6116490E+003  0.3438234E+02  0.7546771E-02  0.1384958E+00
          2   -1    0    0  501    0  0.00000000000E+00  0.00000000000E+00  0.63104337171E+02  0.63104337171E+02  0.00000000000E+00 0. -1.
         -2   -1    0    0    0  501 -0.00000000000E+00 -0.00000000000E+00 -0.21861907110E+02  0.21861907110E+02  0.00000000000E+00 0. -1.
          2    1    1    2  502    0  0.24886726724E+02  0.23723320611E+02  0.36692700705E+02  0.50284186310E+02  0.00000000000E+00 0. -1.
         -2    1    1    2    0  502 -0.24886726724E+02 -0.23723320611E+02  0.45497293565E+01  0.34682057971E+02  0.00000000000E+00 0. -1.
</event>
<event>
 4    1  0.6116490E+003  0.2162923E+02  0.7546771E-02  0.1510468E+00
          2   -1    0    0  501    0  0.00000000000E+00  0.00000000000E+00  0.11167815977E+03  0.11167815977E+03  0.00000000000E+00 0. -1.
         -2   -1    0    0    0  501 -0.00000000000E+00 -0.00000000000E+00 -0.27283891569E+03  0.27283891569E+03  0.00000000000E+00 0. -1.
          2    1    1    2  502    0  0.21350498051E+02 -0.34611879899E+01  0.11019652944E+03  0.11229914822E+03  0.00000000000E+00 0. -1.
         -2    1    1    2    0  502 -0.21350498051E+02  0.34611879899E+01 -0.27135728536E+03  0.27221792724E+03  0.00000000000E+00 0. -1.
</event>
<event>
 4    1  0.6116490E+003  0.2675409E+02  0.7546771E-02  0.1450094E+00
          2   -1    0    0  501    0  0.00000000000E+00  0.00000000000E+00  0.52273467028E+01  0.52273467028E+01  0.00000000000E+00 0. -1.
         -2   -1    0    0    0  501 -0.00000000000E+00 -0.00000000000E+00 -0.15736319967E+03  0.15736319967E+03  0.00000000000E+00 0.  1.
          2    1    1    2  502    0 -0.24134662668E+02  0.11545536941E+02 -0.46773816548E+02  0.53884796370E+02  0.00000000000E+00 0. -1.
         -2    1    1    2    0  502  0.24134662668E+02 -0.11545536941E+02 -0.10536203642E+03  0.10870575000E+03  0.00000000000E+00 0.  1.
</event>
<event>
 4    1  0.6116490E+003  0.2404312E+02  0.7546771E-02  0.1479799E+00
          2   -1    0    0  501    0  0.00000000000E+00  0.00000000000E+00  0.26981876443E+02  0.26981876443E+02  0.00000000000E+00 0. -1.
         -2   -1    0    0    0  501 -0.00000000000E+00 -0.00000000000E+00 -0.65597592947E+03  0.65597592947E+03  0.00000000000E+00 0.  1.
          2    1    1    2  502    0 -0.15660205359E+02  0.18243615012E+02  0.21359166281E+02  0.32160309464E+02  0.00000000000E+00 0. -1.
         -2    1    1    2    0  502  0.15660205359E+02 -0.18243615012E+02 -0.65035321931E+03  0.65079749645E+03  0.00000000000E+00 0.  1.
</event>
<event>
 4    1  0.6116490E+003  0.2743133E+02  0.7546771E-02  0.1443323E+00
          2   -1    0    0  501    0  0.00000000000E+00  0.00000000000E+00  0.17537069560E+03  0.17537069560E+03  0.00000000000E+00 0. -1.
         -2   -1    0    0    0  501 -0.00000000000E+00 -0.00000000000E+00 -0.79208466009E+01  0.79208466009E+01  0.00000000000E+00 0.  1.
          2    1    1    2  502    0  0.98822699263E+01 -0.25589427028E+02  0.14576661131E+03  0.14832526085E+03  0.00000000000E+00 0. -1.
         -2    1    1    2    0  502 -0.98822699263E+01  0.25589427028E+02  0.21683237688E+02  0.34966281346E+02  0.00000000000E+00 0.  1.
</event>
<event>
 4    1  0.6116490E+003  0.2455972E+02  0.7546771E-02  0.1473789E+00
          2   -1    0    0  501    0  0.00000000000E+00  0.00000000000E+00  0.19889738793E+03  0.19889738793E+03  0.00000000000E+00 0. -1.
         -2   -1    0    0    0  501 -0.00000000000E+00 -0.00000000000E+00 -0.42968619704E+02  0.42968619704E+02  0.00000000000E+00 0.  1.
          2    1    1    2  502    0  0.20003044207E+02 -0.14249843858E+02  0.19455173362E+03  0.19609578496E+03  0.00000000000E+00 0. -1.
         -2    1    1    2    0  502 -0.20003044207E+02  0.14249843858E+02 -0.38622965391E+02  0.45770222668E+02  0.00000000000E+00 0.  1.
</event>
<event>
 4    1  0.6116490E+003  0.2524182E+02  0.7546771E-02  0.1466116E+00
          2   -1    0    0  501    0  0.00000000000E+00  0.00000000000E+00  0.48995482925E+03  0.48995482925E+03  0.00000000000E+00 0. -1.
         -2   -1    0    0    0  501 -0.00000000000E+00 -0.00000000000E+00 -0.21805742283E+01  0.21805742283E+01  0.00000000000E+00 0. -1.
          2    1    1    2  502    0  0.22856278035E+02  0.10711679249E+02  0.40021892708E+03  0.40101413829E+03  0.00000000000E+00 0. -1.
         -2    1    1    2    0  502 -0.22856278035E+02 -0.10711679249E+02  0.87555327941E+02  0.91121265185E+02  0.00000000000E+00 0. -1.
</event>
<event>
 4    1  0.6116490E+003  0.4529761E+02  0.7546771E-02  0.1319958E+00
          2   -1    0    0  501    0  0.00000000000E+00  0.00000000000E+00  0.60391872008E+03  0.60391872008E+03  0.00000000000E+00 0. -1.
         -2   -1    0    0    0  501 -0.00000000000E+00 -0.00000000000E+00 -0.15614167250E+02  0.15614167250E+02  0.00000000000E+00 0.  1.
          2    1    1    2  502    0  0.41511132486E+02 -0.18130064835E+02  0.56815165445E+03  0.56995453839E+03  0.00000000000E+00 0. -1.
         -2    1    1    2    0  502 -0.41511132486E+02  0.18130064835E+02  0.20152898384E+02  0.49578348948E+02  0.00000000000E+00 0.  1.
</event>
<event>
 4    1  0.6116490E+003  0.2164664E+02  0.7546771E-02  0.1510229E+00
          2   -1    0    0  501    0  0.00000000000E+00  0.00000000000E+00  0.43453901483E+03  0.43453901483E+03  0.00000000000E+00 0. -1.
         -2   -1    0    0    0  501 -0.00000000000E+00 -0.00000000000E+00 -0.15938590655E+02  0.15938590655E+02  0.00000000000E+00 0.  1.
          2    1    1    2  502    0 -0.10764560899E+02  0.18780343181E+02  0.42678628177E+03  0.42733488901E+03  0.00000000000E+00 0. -1.
         -2    1    1    2    0  502  0.10764560899E+02 -0.18780343181E+02 -0.81858575914E+01  0.23142716476E+02  0.00000000000E+00 0.  1.
</event>
<event>
 4    1  0.6116490E+003  0.2065674E+02  0.7546771E-02  0.1524223E+00
          2   -1    0    0  501    0  0.00000000000E+00  0.00000000000E+00  0.18009529924E+02  0.18009529924E+02  0.00000000000E+00 0.  1.
         -2   -1    0    0    0  501 -0.00000000000E+00 -0.00000000000E+00 -0.14055182150E+03  0.14055182150E+03  0.00000000000E+00 0.  1.
          2    1    1    2  502    0 -0.55810050840E+01  0.19888518045E+02  0.11019108818E+02  0.23411995364E+02  0.00000000000E+00 0.  1.
         -2    1    1    2    0  502  0.55810050840E+01 -0.19888518045E+02 -0.13356140040E+03  0.13514935606E+03  0.00000000000E+00 0.  1.
</event>
<event>
 4    1  0.6116490E+003  0.2112637E+02  0.7546771E-02  0.1517468E+00
          2   -1    0    0  501    0  0.00000000000E+00  0.00000000000E+00  0.87513245833E+03  0.87513245833E+03  0.00000000000E+00 0. -1.
         -2   -1    0    0    0  501 -0.00000000000E+00 -0.00000000000E+00 -0.28667484779E+01  0.28667484779E+01  0.00000000000E+00 0.  1.
          2    1    1    2  502    0 -0.15212321459E+02  0.14659762961E+02  0.83417159000E+03  0.83443907203E+03  0.00000000000E+00 0. -1.
         -2    1    1    2    0  502  0.15212321459E+02 -0.14659762961E+02  0.38094119857E+02  0.43560134779E+02  0.00000000000E+00 0.  1.
</event>
<event>
 4    1  0.6116490E+003  0.2312165E+02  0.7546771E-02  0.1490976E+00
          2   -1    0    0  501    0  0.00000000000E+00  0.00000000000E+00  0.20253088189E+01  0.20253088189E+01  0.00000000000E+00 0.  1.
         -2   -1    0    0    0  501 -0.00000000000E+00 -0.00000000000E+00 -0.38333540592E+03  0.38333540592E+03  0.00000000000E+00 0. -1.
          2    1    1    2  502    0 -0.27631142966E+01 -0.22955960552E+02 -0.83133364629E+02  0.86288859304E+02  0.00000000000E+00 0.  1.
         -2    1    1    2    0  502  0.27631142966E+01  0.22955960552E+02 -0.29817673247E+03  0.29907185543E+03  0.00000000000E+00 0. -1.
</event>
<event>
 4    1  0.6116490E+003  0.2583315E+02  0.7546771E-02  0.1459695E+00
          2   -1    0    0  501    0  0.00000000000E+00  0.00000000000E+00  0.90756301119E+02  0.90756301119E+02  0.00000000000E+00 0.  1.
         -2   -1    0    0    0  501 -0.00000000000E+00 -0.00000000000E+00 -0.20460733808E+02  0.20460733808E+02  0.00000000000E+00 0. -1.
          2    1    1    2  502    0 -0.20939358015E+02  0.15129258390E+02 -0.93605006289E+01  0.27476720065E+02  0.00000000000E+00 0. -1.
         -2    1    1    2    0  502  0.20939358015E+02 -0.15129258390E+02  0.79656067940E+02  0.83740314862E+02  0.00000000000E+00 0.  1.
</event>
<event>
 4    1  0.6116490E+003  0.2911166E+02  0.7546771E-02  0.1427476E+00
          2   -1    0    0  501    0  0.00000000000E+00  0.00000000000E+00  0.37176162551E+03  0.37176162551E+03  0.00000000000E+00 0.  1.
         -2   -1    0    0    0  501 -0.00000000000E+00 -0.00000000000E+00 -0.24713480541E+01  0.24713480541E+01  0.00000000000E+00 0.  1.
          2    1    1    2  502    0  0.28632553518E+02 -0.52598387243E+01  0.23675812034E+03  0.23854118422E+03  0.00000000000E+00 0.  1.
         -2    1    1    2    0  502 -0.28632553518E+02  0.52598387243E+01  0.13253215712E+03  0.13569178934E+03  0.00000000000E+00 0.  1.
</event>
<event>
 4    1  0.6116490E+003  0.2625137E+02  0.7546771E-02  0.1455277E+00
          2   -1    0    0  501    0  0.00000000000E+00  0.00000000000E+00  0.32695743533E+02  0.32695743533E+02  0.00000000000E+00 0. -1.
         -2   -1    0    0    0  501 -0.00000000000E+00 -0.00000000000E+00 -0.32908823000E+02  0.32908823000E+02  0.00000000000E+00 0. -1.
          2    1    1    2  502    0 -0.25103040472E+02  0.76793059120E+01  0.19561915657E+02  0.32738401372E+02  0.00000000000E+00 0. -1.
         -2    1    1    2    0  502  0.25103040472E+02 -0.76793059120E+01 -0.19774995124E+02  0.32866165161E+02  0.00000000000E+00 0. -1.
</event>
<event>
 4    1  0.6116490E+003  0.3142876E+02  0.7546771E-02  0.1407574E+00
          2   -1    0    0  501    0  0.00000000000E+00  0.00000000000E+00  0.58600673077E+03  0.58600673077E+03  0.00000000000E+00 0. -1.
         -2   -1    0    0    0  501 -0.00000000000E+00 -0.00000000000E+00 -0.13566564613E+04  0.13566564613E+04  0.00000000000E+00 0. -1.
          2    1    1    2  502    0  0.31384251646E+02 -0.16721277237E+01  0.58540312329E+03  0.58624618039E+03  0.00000000000E+00 0. -1.
         -2    1    1    2    0  502 -0.31384251646E+02  0.16721277237E+01 -0.13560528538E+04  0.13564170116E+04  0.00000000000E+00 0. -1.
</event>
<event>
 4    1  0.6116490E+003  0.2247049E+02  0.7546771E-02  0.1499256E+00
          2   -1    0    0  501    0  0.00000000000E+00  0.00000000000E+00  0.98803985597E+03  0.98803985597E+03  0.00000000000E+00 0. -1.
         -2   -1    0    0    0  501 -0.00000000000E+00 -0.00000000000E+00 -0.80465664560E+02  0.80465664560E+02  0.00000000000E+00 0. -1.
          2    1    1    2  502    0  0.19782718121E+02  0.10656790923E+02  0.98634064160E+03  0.98659656618E+03  0.00000000000E+00 0. -1.
         -2    1    1    2    0  502 -0.19782718121E+02 -0.10656790923E+02 -0.78766450184E+02  0.81908954356E+02  0.00000000000E+00 0. -1.
</event>
<event>
 4    1  0.6116490E+003  0.2566222E+02  0.7546771E-02  0.1461530E+00
          2   -1    0    0  501    0  0.00000000000E+00  0.00000000000E+00  0.32322911491E+03  0.32322911491E+03  0.00000000000E+00 0. -1.
         -2   -1    0    0    0  501 -0.00000000000E+00 -0.00000000000E+00 -0.34436076326E+01  0.34436076326E+01  0.00000000000E+00 0.  1.
          2    1    1    2  502    0 -0.25643954335E+02  0.96814628729E+00  0.26426847256E+03  0.26551153513E+03  0.00000000000E+00 0. -1.
         -2    1    1    2    0  502  0.25643954335E+02 -0.96814628729E+00  0.55517034722E+02  0.61161187411E+02  0.00000000000E+00 0.  1.
</event>
<event>
 4    1  0.6116490E+003  0.2354760E+02  0.7546771E-02  0.1485734E+00
          2   -1    0    0  501    0  0.00000000000E+00  0.00000000000E+00  0.80345930260E+02  0.80345930260E+02  0.00000000000E+00 0. -1.
         -2   -1    0    0    0  501 -0.00000000000E+00 -0.00000000000E+00 -0.54672592482E+02  0.54672592482E+02  0.00000000000E+00 0. -1.
          2    1    1    2  502    0 -0.96538158503E+00  0.23527804857E+02  0.75941429026E+02  0.79508428519E+02  0.00000000000E+00 0. -1.
         -2    1    1    2    0  502  0.96538158503E+00 -0.23527804857E+02 -0.50268091248E+02  0.55510094224E+02  0.00000000000E+00 0. -1.
</event>
<event>
 4    1  0.6116490E+003  0.3996460E+02  0.7546771E-02  0.1348693E+00
          2   -1    0    0  501    0  0.00000000000E+00  0.00000000000E+00  0.20037039365E+03  0.20037039365E+03  0.00000000000E+00 0.  1.
         -2   -1    0    0    0  501 -0.00000000000E+00 -0.00000000000E+00 -0.10166680225E+03  0.10166680225E+03  0.00000000000E+00 0. -1.
          2    1    1    2  502    0  0.24854875175E+02  0.31295442526E+02  0.19432933391E+03  0.19839621862E+03  0.00000000000E+00 0.  1.
         -2    1    1    2    0  502 -0.24854875175E+02 -0.31295442526E+02 -0.95625742505E+02  0.10364097728E+03  0.00000000000E+00 0. -1.
</event>
<event>
 4    1  0.6116490E+003  0.3251432E+02  0.7546771E-02  0.1398934E+00
          2   -1    0    0  501    0  0.00000000000E+00  0.00000000000E+00  0.14719283464E+04  0.14719283464E+04  0.00000000000E+00 0.  1.
         -2   -1    0    0    0  501 -0.00000000000E+00 -0.00000000000E+00 -0.18029252670E+02  0.18029252670E+02  0.00000000000E+00 0. -1.
          2    1    1    2  502    0  0.28765017084E+02  0.15157659332E+02  0.14569387437E+04  0.14573015075E+04  0.00000000000E+00 0.  1.
         -2    1    1    2    0  502 -0.28765017084E+02 -0.15157659332E+02 -0.30396499833E+01  0.32656091565E+02  0.00000000000E+00 0. -1.
</event>
<event>
 4    1  0.6116490E+003  0.3428728E+02  0.7546771E-02  0.1385644E+00
          2   -1    0    0  501    0  0.00000000000E+00  0.00000000000E+00  0.12804722233E+03  0.12804722233E+03  0.00000000000E+00 0. -1.
         -2   -1    0    0    0  501 -0.00000000000E+00 -0.00000000000E+00 -0.92816774660E+01  0.92816774660E+01  0.00000000000E+00 0. -1.
          2    1    1    2  502    0  0.31077298345E+02 -0.14485102355E+02  0.52235668368E+02  0.62483451509E+02  0.00000000000E+00 0. -1.
         -2    1    1    2    0  502 -0.31077298345E+02  0.14485102355E+02  0.66529876495E+02  0.74845448285E+02  0.00000000000E+00 0. -1.
</event>
<event>
 4    1  0.6116490E+003  0.2220217E+02  0.7546771E-02  0.1502767E+00
          2   -1    0    0  501    0  0.00000000000E+00  0.00000000000E+00  0.27540208665E+02  0.27540208665E+02  0.00000000000E+00 0. -1.
         -2   -1    0    0    0  501 -0.00000000000E+00 -0.00000000000E+00 -0.13540069269E+03  0.13540069269E+03  0.00000000000E+00 0.  1.
          2    1    1    2  502    0  0.11326395249E+02 -0.19095790492E+02  0.21964575851E+02  0.31231058838E+02  0.00000000000E+00 0. -1.
         -2    1    1    2    0  502 -0.11326395249E+02  0.19095790492E+02 -0.12982505988E+03  0.13170984252E+03  0.00000000000E+00 0.  1.
</event>
<event>
 4    1  0.6116490E+003  0.2156665E+02  0.7546771E-02  0.1511326E+00
          2   -1    0    0  501    0  0.00000000000E+00  0.00000000000E+00  0.47225656608E+01  0.47225656608E+01  0.00000000000E+00 0.  1.
         -2   -1    0    0    0  501 -0.00000000000E+00 -0.00000000000E+00 -0.17571955046E+03  0.17571955046E+03  0.00000000000E+00 0. -1.
          2    1    1    2  502    0 -0.39127544073E+01  0.21208741513E+02 -0.25685892445E+02  0.33539311775E+02  0.00000000000E+00 0.  1.
         -2    1    1    2    0  502  0.39127544073E+01 -0.21208741513E+02 -0.14531109236E+03  0.14690280435E+03  0.00000000000E+00 0. -1.
</event>
<event>
 4    1  0.6116490E+003  0.2014126E+02  0.7546771E-02  0.1531887E+00
          2   -1    0    0  501    0  0.00000000000E+00  0.00000000000E+00  0.95230039376E+02  0.95230039376E+02  0.00000000000E+00 0. -1.
         -2   -1    0    0    0  501 -0.00000000000E+00 -0.00000000000E+00 -0.46275445916E+03  0.46275445916E+03  0.00000000000E+00 0. -1.
          2    1    1    2  502    0 -0.19358074712E+02 -0.55619438344E+01  0.93942935202E+02  0.96077808833E+02  0.00000000000E+00 0. -1.
         -2    1    1    2    0  502  0.19358074712E+02  0.55619438344E+01 -0.46146735498E+03  0.46190668970E+03  0.00000000000E+00 0. -1.
</event>
<event>
 4    1  0.6116490E+003  0.2410908E+02  0.7546771E-02  0.1479022E+00
          2   -1    0    0  501    0  0.00000000000E+00  0.00000000000E+00  0.14750901008E+04  0.14750901008E+04  0.00000000000E+00 0. -1.
         -2   -1    0    0    0  501 -0.00000000000E+00 -0.00000000000E+00 -0.53219304283E+00  0.53219304283E+00  0.00000000000E+00 0.  1.
          2    1    1    2  502    0 -0.50064688174E+00 -0.24103878185E+02  0.11131921341E+04  0.11134531760E+04  0.00000000000E+00 0. -1.
         -2    1    1    2    0  502  0.50064688174E+00  0.24103878185E+02  0.36136577359E+03  0.36216911783E+03  0.00000000000E+00 0.  1.
</event>
<event>
 4    1  0.6116490E+003  0.2748894E+02  0.7546771E-02  0.1442757E+00
          2   -1    0    0  501    0  0.00000000000E+00  0.00000000000E+00  0.60569996416E+03  0.60569996416E+03  0.00000000000E+00 0.  1.
         -2   -1    0    0    0  501 -0.00000000000E+00 -0.00000000000E+00 -0.12757363345E+01  0.12757363345E+01  0.00000000000E+00 0.  1.
          2    1    1    2  502    0 -0.20123960214E+01 -0.27415181628E+02  0.34732164406E+03  0.34840775874E+03  0.00000000000E+00 0.  1.
         -2    1    1    2    0  502  0.20123960214E+01  0.27415181628E+02  0.25710258377E+03  0.25856794176E+03  0.00000000000E+00 0.  1.
</event>
<event>
 4    1  0.7182601E+003  0.2595378E+02  0.7546771E-02  0.1458410E+00
          2   -1    0    0  501    0  0.00000000000E+00  0.00000000000E+00  0.16195171288E+04  0.16195171288E+04  0.00000000000E+00 0.  1.
         -2   -1    0    0    0  501 -0.00000000000E+00 -0.00000000000E+00 -0.66751538367E+03  0.66751538367E+03  0.00000000000E+00 0.  1.
          2    1    1    2  502    0 -0.13381139365E+02  0.22238346661E+02  0.16191608134E+04  0.16193688087E+04  0.00000000000E+00 0.  1.
         -2    1    1    2    0  502  0.13381139365E+02 -0.22238346661E+02 -0.66715906827E+03  0.66766370377E+03  0.00000000000E+00 0.  1.
</event>
<event>
 4    1  0.6116490E+003  0.2238557E+02  0.7546771E-02  0.1500361E+00
          2   -1    0    0  501    0  0.00000000000E+00  0.00000000000E+00  0.11731342874E+04  0.11731342874E+04  0.00000000000E+00 0. -1.
         -2   -1    0    0    0  501 -0.00000000000E+00 -0.00000000000E+00 -0.17154345330E+01  0.17154345330E+01  0.00000000000E+00 0.  1.
          2    1    1    2  502    0 -0.15713844402E+02 -0.15943301834E+02  0.10947703773E+04  0.10949992205E+04  0.00000000000E+00 0. -1.
         -2    1    1    2    0  502  0.15713844402E+02  0.15943301834E+02  0.76648475474E+02  0.79850501387E+02  0.00000000000E+00 0.  1.
</event>
<event>
 4    1  0.6116490E+003  0.5798847E+02  0.7546771E-02  0.1266825E+00
          2   -1    0    0  501    0  0.00000000000E+00  0.00000000000E+00  0.74382731118E+02  0.74382731118E+02  0.00000000000E+00 0. -1.
         -2   -1    0    0    0  501 -0.00000000000E+00 -0.00000000000E+00 -0.46453918207E+02  0.46453918207E+02  0.00000000000E+00 0. -1.
          2    1    1    2  502    0  0.47862222285E+02  0.32739435965E+02  0.23860780671E+02  0.62705660380E+02  0.00000000000E+00 0. -1.
         -2    1    1    2    0  502 -0.47862222285E+02 -0.32739435965E+02  0.40680322400E+01  0.58130988945E+02  0.00000000000E+00 0. -1.
</event>
<event>
 4    1  0.6116490E+003  0.4214707E+02  0.7546771E-02  0.1336343E+00
          2   -1    0    0  501    0  0.00000000000E+00  0.00000000000E+00  0.11108888302E+04  0.11108888302E+04  0.00000000000E+00 0.  1.
         -2   -1    0    0    0  501 -0.00000000000E+00 -0.00000000000E+00 -0.21882641104E+02  0.21882641104E+02  0.00000000000E+00 0.  1.
          2    1    1    2  502    0  0.31604173902E+02  0.27884610779E+02  0.10898021929E+04  0.10906168873E+04  0.00000000000E+00 0.  1.
         -2    1    1    2    0  502 -0.31604173902E+02 -0.27884610779E+02 -0.79600380112E+00  0.42154583955E+02  0.00000000000E+00 0.  1.
</event>
<event>
 4    1  0.6116490E+003  0.5186490E+02  0.7546771E-02  0.1290283E+00
          2   -1    0    0  501    0  0.00000000000E+00  0.00000000000E+00  0.14849590424E+04  0.14849590424E+04  0.00000000000E+00 0. -1.
         -2   -1    0    0    0  501 -0.00000000000E+00 -0.00000000000E+00 -0.18419996741E+01  0.18419996741E+01  0.00000000000E+00 0.  1.
          2    1    1    2  502    0  0.51761522873E+02  0.32730282033E+01  0.83725480354E+03  0.83885968672E+03  0.00000000000E+00 0. -1.
         -2    1    1    2    0  502 -0.51761522873E+02 -0.32730282033E+01  0.64586223921E+03  0.64794135537E+03  0.00000000000E+00 0.  1.
</event>
<event>
 4    1  0.6116490E+003  0.3950296E+02  0.7546771E-02  0.1351423E+00
          2   -1    0    0  501    0  0.00000000000E+00  0.00000000000E+00  0.16562081438E+03  0.16562081438E+03  0.00000000000E+00 0. -1.
         -2   -1    0    0    0  501 -0.00000000000E+00 -0.00000000000E+00 -0.32102013918E+02  0.32102013918E+02  0.00000000000E+00 0. -1.
          2    1    1    2  502    0  0.24100803911E+02  0.31299128701E+02  0.14985577065E+03  0.15497495347E+03  0.00000000000E+00 0. -1.
         -2    1    1    2    0  502 -0.24100803911E+02 -0.31299128701E+02 -0.16336970194E+02  0.42747874821E+02  0.00000000000E+00 0. -1.
</event>
<event>
 4    1  0.6116490E+003  0.2424407E+02  0.7546771E-02  0.1477441E+00
          2   -1    0    0  501    0  0.00000000000E+00  0.00000000000E+00  0.15716688374E+04  0.15716688374E+04  0.00000000000E+00 0.  1.
         -2   -1    0    0    0  501 -0.00000000000E+00 -0.00000000000E+00 -0.42513381741E+00  0.42513381741E+00  0.00000000000E+00 0. -1.
          2    1    1    2  502    0  0.15552293228E+02  0.18598410438E+02  0.10582805438E+04  0.10585582100E+04  0.00000000000E+00 0.  1.
         -2    1    1    2    0  502 -0.15552293228E+02 -0.18598410438E+02  0.51296315978E+03  0.51353576116E+03  0.00000000000E+00 0. -1.
</event>
<event>
 4    1  0.6116490E+003  0.2305548E+02  0.7546771E-02  0.1491803E+00
          2   -1    0    0  501    0  0.00000000000E+00  0.00000000000E+00  0.31439005324E+02  0.31439005324E+02  0.00000000000E+00 0.  1.
         -2   -1    0    0    0  501 -0.00000000000E+00 -0.00000000000E+00 -0.25931056375E+02  0.25931056375E+02  0.00000000000E+00 0.  1.
          2    1    1    2  502    0 -0.21835953952E+02 -0.73990682456E+01  0.19675285096E+02  0.30309601441E+02  0.00000000000E+00 0.  1.
         -2    1    1    2    0  502  0.21835953952E+02  0.73990682456E+01 -0.14167336147E+02  0.27060460258E+02  0.00000000000E+00 0.  1.
</event>
<event>
 4    1  0.6116490E+003  0.2114945E+02  0.7546771E-02  0.1517142E+00
          2   -1    0    0  501    0  0.00000000000E+00  0.00000000000E+00  0.67019345542E+02  0.67019345542E+02  0.00000000000E+00 0. -1.
         -2   -1    0    0    0  501 -0.00000000000E+00 -0.00000000000E+00 -0.11493970657E+02  0.11493970657E+02  0.00000000000E+00 0.  1.
          2    1    1    2  502    0  0.17045821851E+02  0.12519559296E+02  0.53183663134E+02  0.57234617426E+02  0.00000000000E+00 0. -1.
         -2    1    1    2    0  502 -0.17045821851E+02 -0.12519559296E+02  0.23417117507E+01  0.21278698773E+02  0.00000000000E+00 0.  1.
</event>
<event>
 4    1  0.6116490E+003  0.4720723E+02  0.7546771E-02  0.1310757E+00
          2   -1    0    0  501    0  0.00000000000E+00  0.00000000000E+00  0.67570161160E+03  0.67570161160E+03  0.00000000000E+00 0.  1.
         -2   -1    0    0    0  501 -0.00000000000E+00 -0.00000000000E+00 -0.55437658347E+01  0.55437658347E+01  0.00000000000E+00 0.  1.
          2    1    1    2  502    0  0.47181248294E+02 -0.15660123547E+01  0.55187178221E+03  0.55388716052E+03  0.00000000000E+00 0.  1.
         -2    1    1    2    0  502 -0.47181248294E+02  0.15660123547E+01  0.11828606356E+03  0.12735821692E+03  0.00000000000E+00 0.  1.
</event>
<event>
 4    1  0.6116490E+003  0.1237497E+03  0.7546771E-02  0.1128035E+00
          2   -1    0    0  501    0  0.00000000000E+00  0.00000000000E+00  0.13632749967E+03  0.13632749967E+03  0.00000000000E+00 0. -1.
         -2   -1    0    0    0  501 -0.00000000000E+00 -0.00000000000E+00 -0.12546864072E+03  0.12546864072E+03  0.00000000000E+00 0.  1.
          2    1    1    2  502    0 -0.35698323985E+02  0.11848894537E+03  0.47784026636E+02  0.13265486690E+03  0.00000000000E+00 0. -1.
         -2    1    1    2    0  502  0.35698323985E+02 -0.11848894537E+03 -0.36925167684E+02  0.12914127349E+03  0.00000000000E+00 0.  1.
</event>
<event>
 4    1  0.6116490E+003  0.2335167E+02  0.7546771E-02  0.1488129E+00
          2   -1    0    0  501    0  0.00000000000E+00  0.00000000000E+00  0.28131903762E+03  0.28131903762E+03  0.00000000000E+00 0.  1.
         -2   -1    0    0    0  501 -0.00000000000E+00 -0.00000000000E+00 -0.19519649374E+02  0.19519649374E+02  0.00000000000E+00 0.  1.
          2    1    1    2  502    0 -0.18607868862E+02  0.14108434981E+02  0.27365521252E+03  0.27464973340E+03  0.00000000000E+00 0.  1.
         -2    1    1    2    0  502  0.18607868862E+02 -0.14108434981E+02 -0.11855824268E+02  0.26188953593E+02  0.00000000000E+00 0.  1.
</event>
<event>
 4    1  0.6116490E+003  0.2307986E+02  0.7546771E-02  0.1491498E+00
          2   -1    0    0  501    0  0.00000000000E+00  0.00000000000E+00  0.37807024711E+03  0.37807024711E+03  0.00000000000E+00 0.  1.
         -2   -1    0    0    0  501 -0.00000000000E+00 -0.00000000000E+00 -0.13001492761E+02  0.13001492761E+02  0.00000000000E+00 0.  1.
          2    1    1    2  502    0  0.10616944997E+02  0.20492931332E+02  0.36717161598E+03  0.36789628340E+03  0.00000000000E+00 0.  1.
         -2    1    1    2    0  502 -0.10616944997E+02 -0.20492931332E+02 -0.21028616337E+01  0.23175456473E+02  0.00000000000E+00 0.  1.
</event>
<event>
 4    1  0.6116490E+003  0.2142821E+02  0.7546771E-02  0.1513238E+00
          2   -1    0    0  501    0  0.00000000000E+00  0.00000000000E+00  0.10147983911E+04  0.10147983911E+04  0.00000000000E+00 0.  1.
         -2   -1    0    0    0  501 -0.00000000000E+00 -0.00000000000E+00 -0.78243177311E+03  0.78243177311E+03  0.00000000000E+00 0.  1.
          2    1    1    2  502    0  0.21143873771E+02 -0.34791688223E+01  0.10145385237E+04  0.10147647925E+04  0.00000000000E+00 0.  1.
         -2    1    1    2    0  502 -0.21143873771E+02  0.34791688223E+01 -0.78217190566E+03  0.78246537177E+03  0.00000000000E+00 0.  1.
</event>
<event>
 4    1  0.6116490E+003  0.2068725E+02  0.7546771E-02  0.1523777E+00
          2   -1    0    0  501    0  0.00000000000E+00  0.00000000000E+00  0.29738909709E+03  0.29738909709E+03  0.00000000000E+00 0. -1.
         -2   -1    0    0    0  501 -0.00000000000E+00 -0.00000000000E+00 -0.24846987451E+02  0.24846987451E+02  0.00000000000E+00 0.  1.
          2    1    1    2  502    0 -0.27269434160E-01  0.20687235274E+02  0.29265376466E+03  0.29338402890E+03  0.00000000000E+00 0. -1.
         -2    1    1    2    0  502  0.27269434160E-01 -0.20687235274E+02 -0.20111655020E+02  0.28852055638E+02  0.00000000000E+00 0.  1.
</event>
<event>
 4    1  0.6116490E+003  0.2123222E+02  0.7546771E-02  0.1515975E+00
          2   -1    0    0  501    0  0.00000000000E+00  0.00000000000E+00  0.30782367205E+03  0.30782367205E+03  0.00000000000E+00 0. -1.
         -2   -1    0    0    0  501 -0.00000000000E+00 -0.00000000000E+00 -0.17564018703E+02  0.17564018703E+02  0.00000000000E+00 0.  1.
          2    1    1    2  502    0  0.15772772496E+02  0.14213612785E+02  0.30089331068E+03  0.30164149508E+03  0.00000000000E+00 0. -1.
         -2    1    1    2    0  502 -0.15772772496E+02 -0.14213612785E+02 -0.10633657336E+02  0.23746195674E+02  0.00000000000E+00 0.  1.
</event>
<event>
 4    1  0.6116490E+003  0.2183909E+02  0.7546771E-02  0.1507614E+00
          2   -1    0    0  501    0  0.00000000000E+00  0.00000000000E+00  0.15556340427E+04  0.15556340427E+04  0.00000000000E+00 0.  1.
         -2   -1    0    0    0  501 -0.00000000000E+00 -0.00000000000E+00 -0.33415425301E+00  0.33415425301E+00  0.00000000000E+00 0.  1.
          2    1    1    2  502    0  0.40965798409E+01 -0.21451429524E+02  0.10010844862E+04  0.10013226724E+04  0.00000000000E+00 0.  1.
         -2    1    1    2    0  502 -0.40965798409E+01  0.21451429524E+02  0.55421540224E+03  0.55464552453E+03  0.00000000000E+00 0.  1.
</event>
<event>
 4    1  0.6116490E+003  0.2356223E+02  0.7546771E-02  0.1485556E+00
          2   -1    0    0  501    0  0.00000000000E+00  0.00000000000E+00  0.87111302768E+03  0.87111302768E+03  0.00000000000E+00 0.  1.
         -2   -1    0    0    0  501 -0.00000000000E+00 -0.00000000000E+00 -0.61152298944E+01  0.61152298944E+01  0.00000000000E+00 0. -1.
          2    1    1    2  502    0 -0.23280512475E+02 -0.36326956462E+01  0.84762842182E+03  0.84795584803E+03  0.00000000000E+00 0.  1.
         -2    1    1    2    0  502  0.23280512475E+02  0.36326956462E+01  0.17369375963E+02  0.29272409538E+02  0.00000000000E+00 0. -1.
</event>
<event>
 4    1  0.6116490E+003  0.2309889E+02  0.7546771E-02  0.1491260E+00
          2   -1    0    0  501    0  0.00000000000E+00  0.00000000000E+00  0.10129673978E+04  0.10129673978E+04  0.00000000000E+00 0.  1.
         -2   -1    0    0    0  501 -0.00000000000E+00 -0.00000000000E+00 -0.43253706366E+01  0.43253706366E+01  0.00000000000E+00 0. -1.
          2    1    1    2  502    0 -0.23096778786E+02 -0.31255101237E+00  0.98099174253E+03  0.98126365356E+03  0.00000000000E+00 0.  1.
         -2    1    1    2    0  502  0.23096778786E+02  0.31255101237E+00  0.27650284612E+02  0.36029114859E+02  0.00000000000E+00 0. -1.
</event>
<event>
 4    1  0.6116490E+003  0.2338192E+02  0.7546771E-02  0.1487757E+00
          2   -1    0    0  501    0  0.00000000000E+00  0.00000000000E+00  0.13967054164E+03  0.13967054164E+03  0.00000000000E+00 0. -1.
         -2   -1    0    0    0  501 -0.00000000000E+00 -0.00000000000E+00 -0.60234198684E+01  0.60234198684E+01  0.00000000000E+00 0. -1.
          2    1    1    2  502    0  0.21796623297E+02  0.84629457290E+01  0.10992971385E+03  0.11238886166E+03  0.00000000000E+00 0. -1.
         -2    1    1    2    0  502 -0.21796623297E+02 -0.84629457290E+01  0.23717407923E+02  0.33305099852E+02  0.00000000000E+00 0. -1.
</event>
<event>
 4    1  0.6116490E+003  0.2412107E+02  0.7546771E-02  0.1478881E+00
          2   -1    0    0  501    0  0.00000000000E+00  0.00000000000E+00  0.18367272678E+02  0.18367272678E+02  0.00000000000E+00 0. -1.
         -2   -1    0    0    0  501 -0.00000000000E+00 -0.00000000000E+00 -0.62856865151E+02  0.62856865151E+02  0.00000000000E+00 0.  1.
          2    1    1    2  502    0  0.18118421137E+02 -0.15923220604E+02  0.63583351368E+01  0.24945030860E+02  0.00000000000E+00 0. -1.
         -2    1    1    2    0  502 -0.18118421137E+02  0.15923220604E+02 -0.50847927610E+02  0.56279106968E+02  0.00000000000E+00 0.  1.
</event>
<event>
 4    1  0.6116490E+003  0.7622426E+02  0.7546771E-02  0.1212895E+00
          2   -1    0    0  501    0  0.00000000000E+00  0.00000000000E+00  0.30327430040E+03  0.30327430040E+03  0.00000000000E+00 0.  1.
         -2   -1    0    0    0  501 -0.00000000000E+00 -0.00000000000E+00 -0.23524770897E+02  0.23524770897E+02  0.00000000000E+00 0. -1.
          2    1    1    2  502    0  0.65006320632E+02  0.39803473883E+02  0.21027381667E+03  0.22366317585E+03  0.00000000000E+00 0.  1.
         -2    1    1    2    0  502 -0.65006320632E+02 -0.39803473883E+02  0.69475712830E+02  0.10313589544E+03  0.00000000000E+00 0. -1.
</event>
<event>
 4    1  0.6116490E+003  0.2010876E+02  0.7546771E-02  0.1532380E+00
          2   -1    0    0  501    0  0.00000000000E+00  0.00000000000E+00  0.23327412249E+02  0.23327412249E+02  0.00000000000E+00 0. -1.
         -2   -1    0    0    0  501 -0.00000000000E+00 -0.00000000000E+00 -0.34568281660E+02  0.34568281660E+02  0.00000000000E+00 0. -1.
          2    1    1    2  502    0 -0.26880494023E+01  0.19928287288E+02  0.14819115258E+02  0.24979359897E+02  0.00000000000E+00 0. -1.
         -2    1    1    2    0  502  0.26880494023E+01 -0.19928287288E+02 -0.26059984669E+02  0.32916334012E+02  0.00000000000E+00 0. -1.
</event>
